<event>
 8    1  0.2450026E-006  0.9118800E+02  0.7816164E-02  0.1184000E+00
        -11   -1    0    0    0    0  0.00000000000E+00  0.00000000000E+00  0.45593999997E+02  0.45594000000E+02  0.51100000000E-03 0. -1.
         11   -1    0    0    0    0 -0.00000000000E+00 -0.00000000000E+00 -0.45593999997E+02  0.45594000000E+02  0.51100000000E-03 0.  1.
         23    2    1    2    0    0 -0.35527136788E-14  0.00000000000E+00  0.00000000000E+00  0.91188000000E+02  0.91188000000E+02 0.  0.
    9900012    2    3    3    0    0  0.21902401702E+02  0.12039037135E+02 -0.27039335353E+02  0.54367091920E+02  0.40000017651E+02 0.  0.
         12    1    3    3    0    0 -0.21902401702E+02 -0.12039037135E+02  0.27039335353E+02  0.36820908080E+02  0.00000000000E+00 0. -1.
         11    1    4    4    0    0  0.10665364444E+02  0.39243595390E+01  0.80440858665E+01  0.13923286760E+02  0.51100000000E-03 0. -1.
        -11    1    4    4    0    0  0.95008803248E+01  0.54412955703E+01 -0.35572072395E+02  0.37218903251E+02  0.51100000000E-03 0.  1.
        -12    1    4    4    0    0  0.17361569335E+01  0.26733820261E+01  0.48865117546E+00  0.32249019096E+01  0.00000000000E+00 0.  1.
</event>
<event>
 8    1  0.2450026E-006  0.9118800E+02  0.7816164E-02  0.1184000E+00
        -11   -1    0    0    0    0  0.00000000000E+00  0.00000000000E+00  0.45593999997E+02  0.45594000000E+02  0.51100000000E-03 0. -1.
         11   -1    0    0    0    0 -0.00000000000E+00 -0.00000000000E+00 -0.45593999997E+02  0.45594000000E+02  0.51100000000E-03 0.  1.
         23    2    1    2    0    0 -0.35527136788E-14  0.35527136788E-14  0.88817841970E-15  0.91188000000E+02  0.91188000000E+02 0.  0.
    9900012    2    3    3    0    0 -0.26382420937E+02  0.25591966431E+02 -0.21907398504E+01  0.54367079026E+02  0.39999988255E+02 0.  0.
        -12    1    3    3    0    0  0.26382420937E+02 -0.25591966431E+02  0.21907398504E+01  0.36820920974E+02  0.00000000000E+00 0.  1.
         11    1    4    4    0    0 -0.84856394773E+01 -0.57803790265E+01 -0.43037145453E+01  0.11132871066E+02  0.51100000000E-03 0. -1.
        -11    1    4    4    0    0  0.43735010148E+01  0.28080086523E+01  0.45839941963E+01  0.69300380065E+01  0.51100000000E-03 0.  1.
         12    1    4    4    0    0 -0.22270282474E+02  0.28564336805E+02 -0.24710195015E+01  0.36304169953E+02  0.00000000000E+00 0. -1.
</event>
<event>
 8    1  0.2450026E-006  0.9118800E+02  0.7816164E-02  0.1184000E+00
        -11   -1    0    0    0    0  0.00000000000E+00  0.00000000000E+00  0.45593999997E+02  0.45594000000E+02  0.51100000000E-03 0. -1.
         11   -1    0    0    0    0 -0.00000000000E+00 -0.00000000000E+00 -0.45593999997E+02  0.45594000000E+02  0.51100000000E-03 0.  1.
         23    2    1    2    0    0  0.00000000000E+00  0.35527136788E-14 -0.17763568394E-14  0.91188000000E+02  0.91188000000E+02 0.  0.
    9900012    2    3    3    0    0  0.28455978826E+02  0.17376921312E+02 -0.15623062257E+02  0.54367079322E+02  0.39999988931E+02 0.  0.
         12    1    3    3    0    0 -0.28455978826E+02 -0.17376921312E+02  0.15623062257E+02  0.36820920678E+02  0.00000000000E+00 0. -1.
         11    1    4    4    0    0  0.83634469646E+01  0.16173378128E+01 -0.16384479418E+02  0.18466569600E+02  0.51100000000E-03 0. -1.
        -11    1    4    4    0    0  0.13558138721E+02  0.68884004534E+01 -0.11758161162E+02  0.19223099140E+02  0.51100000000E-03 0.  1.
         12    1    4    4    0    0  0.65343931410E+01  0.88711830455E+01  0.12519578323E+02  0.16677410582E+02  0.00000000000E+00 0. -1.
</event>
<event>
 8    1  0.2450026E-006  0.9118800E+02  0.7816164E-02  0.1184000E+00
        -11   -1    0    0    0    0  0.00000000000E+00  0.00000000000E+00  0.45593999997E+02  0.45594000000E+02  0.51100000000E-03 0. -1.
         11   -1    0    0    0    0 -0.00000000000E+00 -0.00000000000E+00 -0.45593999997E+02  0.45594000000E+02  0.51100000000E-03 0.  1.
         23    2    1    2    0    0  0.00000000000E+00 -0.17763568394E-14  0.00000000000E+00  0.91188000000E+02  0.91188000000E+02 0.  0.
    9900012    2    3    3    0    0 -0.20989304661E+02 -0.86867396265E+01  0.28978791956E+02  0.54367072001E+02  0.39999972241E+02 0.  0.
        -12    1    3    3    0    0  0.20989304661E+02  0.86867396265E+01 -0.28978791956E+02  0.36820927999E+02  0.00000000000E+00 0.  1.
         11    1    4    4    0    0  0.34816038285E+01 -0.76883881701E+01  0.46283578907E+01  0.96257246427E+01  0.51100000000E-03 0. -1.
        -11    1    4    4    0    0 -0.19728365601E+02 -0.11418572648E+02  0.68006633398E+01  0.23787417530E+02  0.51100000000E-03 0.  1.
        -12    1    4    4    0    0 -0.47425428882E+01  0.10420221192E+02  0.17549770725E+02  0.20953929828E+02  0.00000000000E+00 0.  1.
</event>
<event>
 8    1  0.2450026E-006  0.9118800E+02  0.7816164E-02  0.1184000E+00
        -11   -1    0    0    0    0  0.00000000000E+00  0.00000000000E+00  0.45593999997E+02  0.45594000000E+02  0.51100000000E-03 0. -1.
         11   -1    0    0    0    0 -0.00000000000E+00 -0.00000000000E+00 -0.45593999997E+02  0.45594000000E+02  0.51100000000E-03 0.  1.
         23    2    1    2    0    0  0.00000000000E+00  0.00000000000E+00  0.00000000000E+00  0.91188000000E+02  0.91188000000E+02 0.  0.
    9900012    2    3    3    0    0  0.47239236664E+01 -0.30349593926E+02  0.20306797112E+02  0.54367091331E+02  0.40000016308E+02 0.  0.
        -12    1    3    3    0    0 -0.47239236664E+01  0.30349593926E+02 -0.20306797112E+02  0.36820908669E+02  0.00000000000E+00 0.  1.
         11    1    4    4    0    0 -0.68956291072E+00 -0.73536589690E+01  0.13471856526E+02  0.15363681712E+02  0.51100000000E-03 0. -1.
        -11    1    4    4    0    0 -0.37595410592E+01  0.21786615213E+01  0.11055993448E+02  0.11879213205E+02  0.51100000000E-03 0.  1.
         12    1    4    4    0    0  0.91730276363E+01 -0.25174596478E+02 -0.42210528612E+01  0.27124196414E+02  0.00000000000E+00 0. -1.
</event>
<event>
 8    1  0.2450026E-006  0.9118800E+02  0.7816164E-02  0.1184000E+00
        -11   -1    0    0    0    0  0.00000000000E+00  0.00000000000E+00  0.45593999997E+02  0.45594000000E+02  0.51100000000E-03 0. -1.
         11   -1    0    0    0    0 -0.00000000000E+00 -0.00000000000E+00 -0.45593999997E+02  0.45594000000E+02  0.51100000000E-03 0.  1.
         23    2    1    2    0    0  0.44408920985E-15  0.00000000000E+00  0.00000000000E+00  0.91188000000E+02  0.91188000000E+02 0.  0.
    9900012    2    3    3    0    0 -0.23375022653E+01  0.29794784643E+02  0.21507802730E+02  0.54367099861E+02  0.40000035753E+02 0.  0.
        -12    1    3    3    0    0  0.23375022653E+01 -0.29794784643E+02 -0.21507802730E+02  0.36820900139E+02  0.00000000000E+00 0.  1.
         11    1    4    4    0    0  0.94378075408E+01 -0.24969809585E+01  0.89286106849E+01  0.13229785112E+02  0.51100000000E-03 0. -1.
        -11    1    4    4    0    0 -0.35411911134E+01  0.17220984126E+01  0.83045616676E+01  0.91908325084E+01  0.51100000000E-03 0.  1.
        -12    1    4    4    0    0 -0.82341186927E+01  0.30569667189E+02  0.42746303774E+01  0.31946482241E+02  0.00000000000E+00 0.  1.
</event>
<event>
 8    1  0.2450026E-006  0.9118800E+02  0.7816164E-02  0.1184000E+00
        -11   -1    0    0    0    0  0.00000000000E+00  0.00000000000E+00  0.45593999997E+02  0.45594000000E+02  0.51100000000E-03 0.  1.
         11   -1    0    0    0    0 -0.00000000000E+00 -0.00000000000E+00 -0.45593999997E+02  0.45594000000E+02  0.51100000000E-03 0. -1.
         23    2    1    2    0    0  0.71054273576E-14  0.00000000000E+00  0.00000000000E+00  0.91188000000E+02  0.91188000000E+02 0.  0.
    9900012    2    3    3    0    0  0.33096186398E+02  0.10818274727E+02 -0.11974442261E+02  0.54367083531E+02  0.39999998526E+02 0.  0.
        -12    1    3    3    0    0 -0.33096186398E+02 -0.10818274727E+02  0.11974442261E+02  0.36820916469E+02  0.00000000000E+00 0.  1.
         11    1    4    4    0    0  0.32598963927E+02  0.53414389329E+01 -0.35047779576E+01  0.33219074156E+02  0.51100000000E-03 0. -1.
        -11    1    4    4    0    0 -0.21365893990E+01  0.11147542566E+02 -0.98168959337E+00  0.11392823804E+02  0.51100000000E-03 0.  1.
        -12    1    4    4    0    0  0.26338118697E+01 -0.56707067720E+01 -0.74879747104E+01  0.97551855709E+01  0.00000000000E+00 0.  1.
</event>
<event>
 8    1  0.2450026E-006  0.9118800E+02  0.7816164E-02  0.1184000E+00
        -11   -1    0    0    0    0  0.00000000000E+00  0.00000000000E+00  0.45593999997E+02  0.45594000000E+02  0.51100000000E-03 0.  1.
         11   -1    0    0    0    0 -0.00000000000E+00 -0.00000000000E+00 -0.45593999997E+02  0.45594000000E+02  0.51100000000E-03 0. -1.
         23    2    1    2    0    0  0.00000000000E+00  0.00000000000E+00  0.11102230246E-14  0.91188000000E+02  0.91188000000E+02 0.  0.
    9900012    2    3    3    0    0 -0.32090468061E+02 -0.17997825225E+02  0.14346473155E+01  0.54367108293E+02  0.40000054975E+02 0.  0.
        -12    1    3    3    0    0  0.32090468061E+02  0.17997825225E+02 -0.14346473155E+01  0.36820891707E+02  0.00000000000E+00 0.  1.
         11    1    4    4    0    0 -0.31435811862E+01  0.29243243274E+01 -0.97326361591E+01  0.10637574080E+02  0.51100000000E-03 0. -1.
        -11    1    4    4    0    0 -0.23115434610E+02 -0.11186330238E+02  0.17169932310E+02  0.30891161797E+02  0.51100000000E-03 0.  1.
        -12    1    4    4    0    0 -0.58314522647E+01 -0.97358193143E+01 -0.60026488351E+01  0.12838372415E+02  0.00000000000E+00 0.  1.
</event>
<event>
 8    1  0.2450026E-006  0.9118800E+02  0.7816164E-02  0.1184000E+00
        -11   -1    0    0    0    0  0.00000000000E+00  0.00000000000E+00  0.45593999997E+02  0.45594000000E+02  0.51100000000E-03 0.  1.
         11   -1    0    0    0    0 -0.00000000000E+00 -0.00000000000E+00 -0.45593999997E+02  0.45594000000E+02  0.51100000000E-03 0. -1.
         23    2    1    2    0    0  0.00000000000E+00  0.00000000000E+00 -0.17763568394E-14  0.91188000000E+02  0.91188000000E+02 0.  0.
    9900012    2    3    3    0    0  0.14356203874E+02 -0.32359710818E+02 -0.10125600023E+02  0.54367092220E+02  0.40000018334E+02 0.  0.
        -12    1    3    3    0    0 -0.14356203874E+02  0.32359710818E+02  0.10125600023E+02  0.36820907780E+02  0.00000000000E+00 0.  1.
         11    1    4    4    0    0  0.19935238209E+01 -0.21602658994E+02 -0.19548574950E+02  0.29202667612E+02  0.51100000000E-03 0. -1.
        -11    1    4    4    0    0  0.10554639515E+02 -0.13338413436E+02  0.20327531120E+01  0.17130259011E+02  0.51100000000E-03 0.  1.
        -12    1    4    4    0    0  0.18080405379E+01  0.25813616121E+01  0.73902218154E+01  0.80341655970E+01  0.00000000000E+00 0.  1.
</event>
<event>
 8    1  0.2450026E-006  0.9118800E+02  0.7816164E-02  0.1184000E+00
        -11   -1    0    0    0    0  0.00000000000E+00  0.00000000000E+00  0.45593999997E+02  0.45594000000E+02  0.51100000000E-03 0.  1.
         11   -1    0    0    0    0 -0.00000000000E+00 -0.00000000000E+00 -0.45593999997E+02  0.45594000000E+02  0.51100000000E-03 0. -1.
         23    2    1    2    0    0  0.00000000000E+00 -0.35527136788E-14  0.00000000000E+00  0.91188000000E+02  0.91188000000E+02 0.  0.
    9900012    2    3    3    0    0  0.20291608378E+02  0.20122039581E+02 -0.23219240031E+02  0.54367096221E+02  0.40000027456E+02 0.  0.
        -12    1    3    3    0    0 -0.20291608378E+02 -0.20122039581E+02  0.23219240031E+02  0.36820903779E+02  0.00000000000E+00 0.  1.
         11    1    4    4    0    0  0.23288892067E+02  0.54952799161E+01 -0.29778095555E+00  0.23930300224E+02  0.51100000000E-03 0. -1.
        -11    1    4    4    0    0 -0.37881868635E+01  0.82012646361E+01 -0.22144550505E+02  0.23916358809E+02  0.51100000000E-03 0.  1.
        -12    1    4    4    0    0  0.79090317387E+00  0.64254950286E+01 -0.77690857043E+00  0.65204371878E+01  0.00000000000E+00 0.  1.
</event>
<event>
 8    1  0.2450026E-006  0.9118800E+02  0.7816164E-02  0.1184000E+00
        -11   -1    0    0    0    0  0.00000000000E+00  0.00000000000E+00  0.45593999997E+02  0.45594000000E+02  0.51100000000E-03 0.  1.
         11   -1    0    0    0    0 -0.00000000000E+00 -0.00000000000E+00 -0.45593999997E+02  0.45594000000E+02  0.51100000000E-03 0. -1.
         23    2    1    2    0    0  0.88817841970E-15 -0.35527136788E-14  0.00000000000E+00  0.91188000000E+02  0.91188000000E+02 0.  0.
    9900012    2    3    3    0    0 -0.46023882135E+01  0.24438632064E+02 -0.27154182388E+02  0.54367104633E+02  0.40000046632E+02 0.  0.
        -12    1    3    3    0    0  0.46023882135E+01 -0.24438632064E+02  0.27154182388E+02  0.36820895367E+02  0.00000000000E+00 0.  1.
         11    1    4    4    0    0 -0.99175865604E+01  0.10639940805E+02 -0.44600247256E+01  0.15213766277E+02  0.51100000000E-03 0. -1.
        -11    1    4    4    0    0 -0.18727986929E+01  0.95060915947E+01  0.45121556785E+01  0.10687969942E+02  0.51100000000E-03 0.  1.
         12    1    4    4    0    0  0.71879970399E+01  0.42925996640E+01 -0.27206313341E+02  0.28465368414E+02  0.00000000000E+00 0. -1.
</event>
<event>
 8    1  0.2450026E-006  0.9118800E+02  0.7816164E-02  0.1184000E+00
        -11   -1    0    0    0    0  0.00000000000E+00  0.00000000000E+00  0.45593999997E+02  0.45594000000E+02  0.51100000000E-03 0.  1.
         11   -1    0    0    0    0 -0.00000000000E+00 -0.00000000000E+00 -0.45593999997E+02  0.45594000000E+02  0.51100000000E-03 0. -1.
         23    2    1    2    0    0  0.00000000000E+00  0.00000000000E+00  0.35527136788E-14  0.91188000000E+02  0.91188000000E+02 0.  0.
    9900012    2    3    3    0    0  0.27888253083E+02  0.40914672451E+01 -0.23691435658E+02  0.54367097135E+02  0.40000029539E+02 0.  0.
        -12    1    3    3    0    0 -0.27888253083E+02 -0.40914672451E+01  0.23691435658E+02  0.36820902865E+02  0.00000000000E+00 0.  1.
         11    1    4    4    0    0  0.19282954121E+02  0.43258202416E+01  0.15583702042E+01  0.19823560688E+02  0.51100000000E-03 0. -1.
        -11    1    4    4    0    0 -0.23898008832E+01  0.32304986658E+01  0.23344428440E+01  0.46472458019E+01  0.51100000000E-03 0.  1.
         12    1    4    4    0    0  0.10995099846E+02 -0.34648516623E+01 -0.27584248706E+02  0.29896290645E+02  0.00000000000E+00 0. -1.
</event>
<event>
 8    1  0.2450026E-006  0.9118800E+02  0.7816164E-02  0.1184000E+00
        -11   -1    0    0    0    0  0.00000000000E+00  0.00000000000E+00  0.45593999997E+02  0.45594000000E+02  0.51100000000E-03 0. -1.
         11   -1    0    0    0    0 -0.00000000000E+00 -0.00000000000E+00 -0.45593999997E+02  0.45594000000E+02  0.51100000000E-03 0.  1.
         23    2    1    2    0    0  0.00000000000E+00 -0.71054273576E-14  0.00000000000E+00  0.91188000000E+02  0.91188000000E+02 0.  0.
    9900012    2    3    3    0    0 -0.36804491251E+01 -0.33341922484E+02 -0.15183942866E+02  0.54367060012E+02  0.39999944909E+02 0.  0.
         12    1    3    3    0    0  0.36804491251E+01  0.33341922484E+02  0.15183942866E+02  0.36820939988E+02  0.00000000000E+00 0. -1.
         11    1    4    4    0    0  0.97111673418E+00 -0.99174843612E+01  0.11447525665E+01  0.10030454749E+02  0.51100000000E-03 0. -1.
        -11    1    4    4    0    0 -0.47834651081E+01  0.72080380161E+01 -0.96955953600E+01  0.12993918583E+02  0.51100000000E-03 0.  1.
        -12    1    4    4    0    0  0.13189924889E+00 -0.30632476139E+02 -0.66331000722E+01  0.31342686681E+02  0.00000000000E+00 0.  1.
</event>
<event>
 8    1  0.2450026E-006  0.9118800E+02  0.7816164E-02  0.1184000E+00
        -11   -1    0    0    0    0  0.00000000000E+00  0.00000000000E+00  0.45593999997E+02  0.45594000000E+02  0.51100000000E-03 0. -1.
         11   -1    0    0    0    0 -0.00000000000E+00 -0.00000000000E+00 -0.45593999997E+02  0.45594000000E+02  0.51100000000E-03 0.  1.
         23    2    1    2    0    0  0.00000000000E+00  0.00000000000E+00  0.00000000000E+00  0.91188000000E+02  0.91188000000E+02 0.  0.
    9900012    2    3    3    0    0 -0.18729892551E+02 -0.12360791193E+02 -0.29192157165E+02  0.54367081030E+02  0.39999992824E+02 0.  0.
         12    1    3    3    0    0  0.18729892551E+02  0.12360791193E+02  0.29192157165E+02  0.36820918970E+02  0.00000000000E+00 0. -1.
         11    1    4    4    0    0  0.53210971280E+01 -0.68369188960E+01 -0.59909697426E+01  0.10533245148E+02  0.51100000000E-03 0. -1.
        -11    1    4    4    0    0 -0.75420523214E+01 -0.36758450184E+01 -0.25700023074E+02  0.27034895525E+02  0.51100000000E-03 0.  1.
        -12    1    4    4    0    0 -0.16508937357E+02 -0.18480272782E+01  0.24988356514E+01  0.16798940356E+02  0.00000000000E+00 0.  1.
</event>
<event>
 8    1  0.2450026E-006  0.9118800E+02  0.7816164E-02  0.1184000E+00
        -11   -1    0    0    0    0  0.00000000000E+00  0.00000000000E+00  0.45593999997E+02  0.45594000000E+02  0.51100000000E-03 0.  1.
         11   -1    0    0    0    0 -0.00000000000E+00 -0.00000000000E+00 -0.45593999997E+02  0.45594000000E+02  0.51100000000E-03 0. -1.
         23    2    1    2    0    0  0.88817841970E-15  0.00000000000E+00  0.00000000000E+00  0.91188000000E+02  0.91188000000E+02 0.  0.
    9900012    2    3    3    0    0  0.26053721787E+01 -0.36634651236E+02  0.26255467854E+01  0.54367093829E+02  0.40000022001E+02 0.  0.
        -12    1    3    3    0    0 -0.26053721787E+01  0.36634651236E+02 -0.26255467854E+01  0.36820906171E+02  0.00000000000E+00 0.  1.
         11    1    4    4    0    0  0.80473495960E+01 -0.25865864840E+01  0.32083332482E+01  0.90412204736E+01  0.51100000000E-03 0. -1.
        -11    1    4    4    0    0 -0.10553084920E+02 -0.37312021496E+02  0.17822470861E+01  0.38816632445E+02  0.51100000000E-03 0.  1.
        -12    1    4    4    0    0  0.51111075031E+01  0.32639567441E+01 -0.23650335489E+01  0.65092409099E+01  0.00000000000E+00 0.  1.
</event>
<event>
 8    1  0.2450026E-006  0.9118800E+02  0.7816164E-02  0.1184000E+00
        -11   -1    0    0    0    0  0.00000000000E+00  0.00000000000E+00  0.45593999997E+02  0.45594000000E+02  0.51100000000E-03 0.  1.
         11   -1    0    0    0    0 -0.00000000000E+00 -0.00000000000E+00 -0.45593999997E+02  0.45594000000E+02  0.51100000000E-03 0. -1.
         23    2    1    2    0    0  0.35527136788E-14  0.00000000000E+00  0.00000000000E+00  0.91188000000E+02  0.91188000000E+02 0.  0.
    9900012    2    3    3    0    0 -0.29717854167E+02 -0.75077230154E+01 -0.20402461426E+02  0.54367120143E+02  0.40000081991E+02 0.  0.
        -12    1    3    3    0    0  0.29717854167E+02  0.75077230154E+01  0.20402461426E+02  0.36820879857E+02  0.00000000000E+00 0.  1.
         11    1    4    4    0    0 -0.12317384776E+02  0.65332324343E+01 -0.56703109533E+01  0.15051694932E+02  0.51100000000E-03 0. -1.
        -11    1    4    4    0    0 -0.18173939807E+02 -0.21856813778E+02 -0.99323463897E+01  0.30110860195E+02  0.51100000000E-03 0.  1.
         12    1    4    4    0    0  0.77347041619E+00  0.78158583284E+01 -0.47998040831E+01  0.92045650159E+01  0.00000000000E+00 0. -1.
</event>
<event>
 8    1  0.2450026E-006  0.9118800E+02  0.7816164E-02  0.1184000E+00
        -11   -1    0    0    0    0  0.00000000000E+00  0.00000000000E+00  0.45593999997E+02  0.45594000000E+02  0.51100000000E-03 0.  1.
         11   -1    0    0    0    0 -0.00000000000E+00 -0.00000000000E+00 -0.45593999997E+02  0.45594000000E+02  0.51100000000E-03 0. -1.
         23    2    1    2    0    0  0.00000000000E+00  0.00000000000E+00  0.00000000000E+00  0.91188000000E+02  0.91188000000E+02 0.  0.
    9900012    2    3    3    0    0 -0.24943528333E+02  0.17209205952E+02  0.20915161744E+02  0.54367077062E+02  0.39999983779E+02 0.  0.
         12    1    3    3    0    0  0.24943528333E+02 -0.17209205952E+02 -0.20915161744E+02  0.36820922938E+02  0.00000000000E+00 0. -1.
         11    1    4    4    0    0 -0.51611474360E+00  0.71115557995E+01 -0.98931727620E+01  0.12194895157E+02  0.51100000000E-03 0. -1.
        -11    1    4    4    0    0 -0.12773737254E+02  0.98361782494E+00  0.20377785115E+02  0.24070521264E+02  0.51100000000E-03 0.  1.
         12    1    4    4    0    0 -0.11653676336E+02  0.91140323276E+01  0.10430549391E+02  0.18101660642E+02  0.00000000000E+00 0. -1.
</event>
<event>
 8    1  0.2450026E-006  0.9118800E+02  0.7816164E-02  0.1184000E+00
        -11   -1    0    0    0    0  0.00000000000E+00  0.00000000000E+00  0.45593999997E+02  0.45594000000E+02  0.51100000000E-03 0. -1.
         11   -1    0    0    0    0 -0.00000000000E+00 -0.00000000000E+00 -0.45593999997E+02  0.45594000000E+02  0.51100000000E-03 0.  1.
         23    2    1    2    0    0  0.00000000000E+00 -0.44408920985E-15  0.17763568394E-14  0.91188000000E+02  0.91188000000E+02 0.  0.
    9900012    2    3    3    0    0  0.35837098668E+02 -0.30229684217E+01  0.78958632790E+01  0.54367073397E+02  0.39999975422E+02 0.  0.
        -12    1    3    3    0    0 -0.35837098668E+02  0.30229684217E+01 -0.78958632790E+01  0.36820926603E+02  0.00000000000E+00 0.  1.
         11    1    4    4    0    0  0.16256272165E+02 -0.78637973119E+01  0.18351039828E+02  0.25746191095E+02  0.51100000000E-03 0. -1.
        -11    1    4    4    0    0  0.18257974815E+01  0.17262405052E+01 -0.10291716199E+02  0.10594001383E+02  0.51100000000E-03 0.  1.
         12    1    4    4    0    0  0.17755029022E+02  0.31145883850E+01 -0.16346035005E+00  0.18026880919E+02  0.00000000000E+00 0. -1.
</event>
<event>
 8    1  0.2450026E-006  0.9118800E+02  0.7816164E-02  0.1184000E+00
        -11   -1    0    0    0    0  0.00000000000E+00  0.00000000000E+00  0.45593999997E+02  0.45594000000E+02  0.51100000000E-03 0. -1.
         11   -1    0    0    0    0 -0.00000000000E+00 -0.00000000000E+00 -0.45593999997E+02  0.45594000000E+02  0.51100000000E-03 0.  1.
         23    2    1    2    0    0 -0.17763568394E-14  0.00000000000E+00  0.00000000000E+00  0.91188000000E+02  0.91188000000E+02 0.  0.
    9900012    2    3    3    0    0 -0.98360627351E+01 -0.54157718261E+01  0.35067083999E+02  0.54367094324E+02  0.40000023130E+02 0.  0.
        -12    1    3    3    0    0  0.98360627351E+01  0.54157718261E+01 -0.35067083999E+02  0.36820905676E+02  0.00000000000E+00 0.  1.
         11    1    4    4    0    0  0.12208099085E+02 -0.49974774078E+01  0.22560186351E+02  0.26133780288E+02  0.51100000000E-03 0.  1.
        -11    1    4    4    0    0  0.18668776107E+00 -0.20739606367E+01  0.37367441698E+01  0.42777824038E+01  0.51100000000E-03 0. -1.
        -12    1    4    4    0    0 -0.22230849581E+02  0.16556662183E+01  0.87701534786E+01  0.23955531632E+02  0.00000000000E+00 0.  1.
</event>
<event>
 8    1  0.2450026E-006  0.9118800E+02  0.7816164E-02  0.1184000E+00
        -11   -1    0    0    0    0  0.00000000000E+00  0.00000000000E+00  0.45593999997E+02  0.45594000000E+02  0.51100000000E-03 0.  1.
         11   -1    0    0    0    0 -0.00000000000E+00 -0.00000000000E+00 -0.45593999997E+02  0.45594000000E+02  0.51100000000E-03 0. -1.
         23    2    1    2    0    0 -0.17763568394E-14 -0.35527136788E-14  0.00000000000E+00  0.91188000000E+02  0.91188000000E+02 0.  0.
    9900012    2    3    3    0    0 -0.10869240810E+02  0.14183838621E+02  0.32194096009E+02  0.54367061777E+02  0.39999948933E+02 0.  0.
         12    1    3    3    0    0  0.10869240810E+02 -0.14183838621E+02 -0.32194096009E+02  0.36820938223E+02  0.00000000000E+00 0. -1.
         11    1    4    4    0    0  0.29050079281E+01 -0.44052966308E+01  0.16802456257E+02  0.17611594079E+02  0.51100000000E-03 0. -1.
        -11    1    4    4    0    0 -0.10728982010E+02 -0.28727171524E+01  0.85756539676E+01  0.14032298459E+02  0.51100000000E-03 0.  1.
         12    1    4    4    0    0 -0.30452667279E+01  0.21461852404E+02  0.68159857843E+01  0.22723169239E+02  0.00000000000E+00 0. -1.
</event>
<event>
 8    1  0.2450026E-006  0.9118800E+02  0.7816164E-02  0.1184000E+00
        -11   -1    0    0    0    0  0.00000000000E+00  0.00000000000E+00  0.45593999997E+02  0.45594000000E+02  0.51100000000E-03 0.  1.
         11   -1    0    0    0    0 -0.00000000000E+00 -0.00000000000E+00 -0.45593999997E+02  0.45594000000E+02  0.51100000000E-03 0. -1.
         23    2    1    2    0    0  0.00000000000E+00  0.00000000000E+00  0.00000000000E+00  0.91188000000E+02  0.91188000000E+02 0.  0.
    9900012    2    3    3    0    0 -0.10305782411E+02 -0.34997403706E+02  0.49752960497E+01  0.54367068616E+02  0.39999964523E+02 0.  0.
         12    1    3    3    0    0  0.10305782411E+02  0.34997403706E+02 -0.49752960497E+01  0.36820931384E+02  0.00000000000E+00 0. -1.
         11    1    4    4    0    0 -0.18649915720E+02 -0.14121128771E+02 -0.43605623401E+00  0.23396918161E+02  0.51100000000E-03 0. -1.
        -11    1    4    4    0    0 -0.21085342530E+01 -0.88913197073E+01  0.10829565763E+02  0.14169720453E+02  0.51100000000E-03 0.  1.
        -12    1    4    4    0    0  0.10452667561E+02 -0.11984955227E+02 -0.54182134792E+01  0.16800430002E+02  0.00000000000E+00 0.  1.
</event>
<event>
 8    1  0.2450026E-006  0.9118800E+02  0.7816164E-02  0.1184000E+00
        -11   -1    0    0    0    0  0.00000000000E+00  0.00000000000E+00  0.45593999997E+02  0.45594000000E+02  0.51100000000E-03 0. -1.
         11   -1    0    0    0    0 -0.00000000000E+00 -0.00000000000E+00 -0.45593999997E+02  0.45594000000E+02  0.51100000000E-03 0.  1.
         23    2    1    2    0    0  0.00000000000E+00  0.88817841970E-15  0.00000000000E+00  0.91188000000E+02  0.91188000000E+02 0.  0.
    9900012    2    3    3    0    0  0.35638579266E+02 -0.54630307388E+01 -0.74716743958E+01  0.54367096219E+02  0.40000027451E+02 0.  0.
         12    1    3    3    0    0 -0.35638579266E+02  0.54630307388E+01  0.74716743958E+01  0.36820903781E+02  0.00000000000E+00 0. -1.
         11    1    4    4    0    0  0.50134740190E+00  0.10409380643E+02  0.40587236266E+01  0.11183907740E+02  0.51100000000E-03 0. -1.
        -11    1    4    4    0    0  0.11802445495E+02 -0.81990256886E+01  0.29474534843E+01  0.14670011050E+02  0.51100000000E-03 0.  1.
        -12    1    4    4    0    0  0.23334786369E+02 -0.76733856932E+01 -0.14477851507E+02  0.28513177430E+02  0.00000000000E+00 0.  1.
</event>
<event>
 8    1  0.2450026E-006  0.9118800E+02  0.7816164E-02  0.1184000E+00
        -11   -1    0    0    0    0  0.00000000000E+00  0.00000000000E+00  0.45593999997E+02  0.45594000000E+02  0.51100000000E-03 0.  1.
         11   -1    0    0    0    0 -0.00000000000E+00 -0.00000000000E+00 -0.45593999997E+02  0.45594000000E+02  0.51100000000E-03 0. -1.
         23    2    1    2    0    0 -0.17763568394E-14  0.00000000000E+00 -0.71054273576E-14  0.91188000000E+02  0.91188000000E+02 0.  0.
    9900012    2    3    3    0    0 -0.13582087723E+02 -0.24511576362E+02 -0.23884852198E+02  0.54367127561E+02  0.40000098900E+02 0.  0.
        -12    1    3    3    0    0  0.13582087723E+02  0.24511576362E+02  0.23884852198E+02  0.36820872439E+02  0.00000000000E+00 0.  1.
         11    1    4    4    0    0 -0.32847748804E+01 -0.77870186901E+01 -0.30402842141E+01  0.89816888423E+01  0.51100000000E-03 0. -1.
        -11    1    4    4    0    0  0.10010538189E+02 -0.25389089378E+01  0.32516011126E+01  0.10827273132E+02  0.51100000000E-03 0.  1.
        -12    1    4    4    0    0 -0.20307851032E+02 -0.14185648734E+02 -0.24096169096E+02  0.34558165586E+02  0.00000000000E+00 0.  1.
</event>
<event>
 8    1  0.2450026E-006  0.9118800E+02  0.7816164E-02  0.1184000E+00
        -11   -1    0    0    0    0  0.00000000000E+00  0.00000000000E+00  0.45593999997E+02  0.45594000000E+02  0.51100000000E-03 0.  1.
         11   -1    0    0    0    0 -0.00000000000E+00 -0.00000000000E+00 -0.45593999997E+02  0.45594000000E+02  0.51100000000E-03 0. -1.
         23    2    1    2    0    0  0.00000000000E+00 -0.35527136788E-14 -0.44408920985E-15  0.91188000000E+02  0.91188000000E+02 0.  0.
    9900012    2    3    3    0    0 -0.26560076081E+02 -0.25280433079E+02 -0.33528918098E+01  0.54367084455E+02  0.40000000632E+02 0.  0.
         12    1    3    3    0    0  0.26560076081E+02  0.25280433079E+02  0.33528918098E+01  0.36820915545E+02  0.00000000000E+00 0. -1.
         11    1    4    4    0    0 -0.73175681983E+01 -0.24928282449E+02 -0.45311990559E+01  0.26372292948E+02  0.51100000000E-03 0. -1.
        -11    1    4    4    0    0 -0.10195768007E+02 -0.78863922911E+01 -0.59871420726E+01  0.14212485324E+02  0.51100000000E-03 0.  1.
        -12    1    4    4    0    0 -0.90467398754E+01  0.75342416613E+01  0.71654493187E+01  0.13782306183E+02  0.00000000000E+00 0.  1.
</event>
<event>
 8    1  0.2450026E-006  0.9118800E+02  0.7816164E-02  0.1184000E+00
        -11   -1    0    0    0    0  0.00000000000E+00  0.00000000000E+00  0.45593999997E+02  0.45594000000E+02  0.51100000000E-03 0.  1.
         11   -1    0    0    0    0 -0.00000000000E+00 -0.00000000000E+00 -0.45593999997E+02  0.45594000000E+02  0.51100000000E-03 0. -1.
         23    2    1    2    0    0 -0.17763568394E-14  0.00000000000E+00 -0.71054273576E-14  0.91188000000E+02  0.91188000000E+02 0.  0.
    9900012    2    3    3    0    0 -0.11474123100E+02 -0.61372126928E+01  0.34445010313E+02  0.54367087246E+02  0.40000006996E+02 0.  0.
         12    1    3    3    0    0  0.11474123100E+02  0.61372126928E+01 -0.34445010313E+02  0.36820912754E+02  0.00000000000E+00 0. -1.
         11    1    4    4    0    0  0.76188240140E+01  0.98506434282E-01  0.10147897739E+02  0.12689996519E+02  0.51100000000E-03 0. -1.
        -11    1    4    4    0    0 -0.18962064345E+02  0.57258559780E+01  0.77747022397E+01  0.21278893441E+02  0.51100000000E-03 0.  1.
         12    1    4    4    0    0 -0.13088276967E+00 -0.11961575105E+02  0.16522410334E+02  0.20398197287E+02  0.00000000000E+00 0. -1.
</event>
<event>
 8    1  0.2450026E-006  0.9118800E+02  0.7816164E-02  0.1184000E+00
        -11   -1    0    0    0    0  0.00000000000E+00  0.00000000000E+00  0.45593999997E+02  0.45594000000E+02  0.51100000000E-03 0. -1.
         11   -1    0    0    0    0 -0.00000000000E+00 -0.00000000000E+00 -0.45593999997E+02  0.45594000000E+02  0.51100000000E-03 0.  1.
         23    2    1    2    0    0  0.00000000000E+00  0.88817841970E-15  0.88817841970E-15  0.91188000000E+02  0.91188000000E+02 0.  0.
    9900012    2    3    3    0    0  0.36349946561E+02 -0.54393091282E+01  0.22081572193E+01  0.54367073109E+02  0.39999974766E+02 0.  0.
        -12    1    3    3    0    0 -0.36349946561E+02  0.54393091282E+01 -0.22081572193E+01  0.36820926891E+02  0.00000000000E+00 0.  1.
         11    1    4    4    0    0  0.87493102509E+01 -0.64911387578E+00  0.53400915799E+01  0.10270752506E+02  0.51100000000E-03 0. -1.
        -11    1    4    4    0    0  0.16543257947E+02 -0.58824327015E+01 -0.18256211930E+02  0.25329265136E+02  0.51100000000E-03 0.  1.
        -12    1    4    4    0    0  0.11057378363E+02  0.10922374490E+01  0.15124277570E+02  0.18767055468E+02  0.00000000000E+00 0.  1.
</event>
<event>
 8    1  0.2450026E-006  0.9118800E+02  0.7816164E-02  0.1184000E+00
        -11   -1    0    0    0    0  0.00000000000E+00  0.00000000000E+00  0.45593999997E+02  0.45594000000E+02  0.51100000000E-03 0. -1.
         11   -1    0    0    0    0 -0.00000000000E+00 -0.00000000000E+00 -0.45593999997E+02  0.45594000000E+02  0.51100000000E-03 0.  1.
         23    2    1    2    0    0  0.44408920985E-15  0.00000000000E+00  0.00000000000E+00  0.91188000000E+02  0.91188000000E+02 0.  0.
    9900012    2    3    3    0    0 -0.33098738428E+01  0.16210041742E+02 -0.32894704057E+02  0.54367051165E+02  0.39999924740E+02 0.  0.
         12    1    3    3    0    0  0.33098738428E+01 -0.16210041742E+02  0.32894704057E+02  0.36820948835E+02  0.00000000000E+00 0. -1.
         11    1    4    4    0    0  0.15552404342E+02  0.10967559846E+02 -0.75309189085E+01  0.20466543178E+02  0.51100000000E-03 0. -1.
        -11    1    4    4    0    0 -0.99657385827E+01  0.78676496299E+01 -0.10985241610E+02  0.16789621487E+02  0.51100000000E-03 0.  1.
         12    1    4    4    0    0 -0.88965396020E+01 -0.26251677334E+01 -0.14378543538E+02  0.17110886499E+02  0.00000000000E+00 0. -1.
</event>
<event>
 8    1  0.2450026E-006  0.9118800E+02  0.7816164E-02  0.1184000E+00
        -11   -1    0    0    0    0  0.00000000000E+00  0.00000000000E+00  0.45593999997E+02  0.45594000000E+02  0.51100000000E-03 0.  1.
         11   -1    0    0    0    0 -0.00000000000E+00 -0.00000000000E+00 -0.45593999997E+02  0.45594000000E+02  0.51100000000E-03 0. -1.
         23    2    1    2    0    0  0.17763568394E-14  0.00000000000E+00 -0.35527136788E-14  0.91188000000E+02  0.91188000000E+02 0.  0.
    9900012    2    3    3    0    0 -0.11522166262E+02 -0.19619191735E+02  0.28950065696E+02  0.54367091490E+02  0.40000016670E+02 0.  0.
         12    1    3    3    0    0  0.11522166262E+02  0.19619191735E+02 -0.28950065696E+02  0.36820908510E+02  0.00000000000E+00 0. -1.
         11    1    4    4    0    0 -0.51175042683E+01 -0.30261774657E+01 -0.56406368539E+01  0.81953269837E+01  0.51100000000E-03 0. -1.
        -11    1    4    4    0    0 -0.90979964771E+01 -0.79349453956E+01  0.18677363107E+01  0.12215782313E+02  0.51100000000E-03 0.  1.
        -12    1    4    4    0    0  0.26933344833E+01 -0.86580688737E+01  0.32722966239E+02  0.33955982194E+02  0.00000000000E+00 0.  1.
</event>
<event>
 8    1  0.2450026E-006  0.9118800E+02  0.7816164E-02  0.1184000E+00
        -11   -1    0    0    0    0  0.00000000000E+00  0.00000000000E+00  0.45593999997E+02  0.45594000000E+02  0.51100000000E-03 0.  1.
         11   -1    0    0    0    0 -0.00000000000E+00 -0.00000000000E+00 -0.45593999997E+02  0.45594000000E+02  0.51100000000E-03 0. -1.
         23    2    1    2    0    0 -0.17763568394E-14 -0.17763568394E-14  0.35527136788E-14  0.91188000000E+02  0.91188000000E+02 0.  0.
    9900012    2    3    3    0    0 -0.14563445241E+02 -0.14672151592E+02  0.30469867392E+02  0.54367098483E+02  0.40000032613E+02 0.  0.
         12    1    3    3    0    0  0.14563445241E+02  0.14672151592E+02 -0.30469867392E+02  0.36820901517E+02  0.00000000000E+00 0. -1.
         11    1    4    4    0    0  0.37327486134E+01  0.65898972926E+01  0.15295726949E+01  0.77265614233E+01  0.51100000000E-03 0. -1.
        -11    1    4    4    0    0 -0.11765653695E+02 -0.16079993314E+02  0.32053429288E+02  0.37741477465E+02  0.51100000000E-03 0.  1.
         12    1    4    4    0    0 -0.65305401588E+01 -0.51820555704E+01 -0.31131345908E+01  0.88990595953E+01  0.00000000000E+00 0. -1.
</event>
<event>
 8    1  0.2450026E-006  0.9118800E+02  0.7816164E-02  0.1184000E+00
        -11   -1    0    0    0    0  0.00000000000E+00  0.00000000000E+00  0.45593999997E+02  0.45594000000E+02  0.51100000000E-03 0.  1.
         11   -1    0    0    0    0 -0.00000000000E+00 -0.00000000000E+00 -0.45593999997E+02  0.45594000000E+02  0.51100000000E-03 0. -1.
         23    2    1    2    0    0 -0.17763568394E-14 -0.44408920985E-15  0.00000000000E+00  0.91188000000E+02  0.91188000000E+02 0.  0.
    9900012    2    3    3    0    0 -0.29284462958E+00 -0.33860042778E+01  0.36663707024E+02  0.54367106533E+02  0.40000050964E+02 0.  0.
         12    1    3    3    0    0  0.29284462958E+00  0.33860042778E+01 -0.36663707024E+02  0.36820893467E+02  0.00000000000E+00 0. -1.
         11    1    4    4    0    0  0.61105659531E+01 -0.44419069094E+01 -0.19707309918E+01  0.78072616302E+01  0.51100000000E-03 0. -1.
        -11    1    4    4    0    0 -0.13414169939E+02  0.54555211531E+01  0.12446279678E+02  0.19094830303E+02  0.51100000000E-03 0.  1.
         12    1    4    4    0    0  0.70107593564E+01 -0.43996185215E+01  0.26188158338E+02  0.27465014600E+02  0.00000000000E+00 0. -1.
</event>
<event>
 8    1  0.2450026E-006  0.9118800E+02  0.7816164E-02  0.1184000E+00
        -11   -1    0    0    0    0  0.00000000000E+00  0.00000000000E+00  0.45593999997E+02  0.45594000000E+02  0.51100000000E-03 0.  1.
         11   -1    0    0    0    0 -0.00000000000E+00 -0.00000000000E+00 -0.45593999997E+02  0.45594000000E+02  0.51100000000E-03 0. -1.
         23    2    1    2    0    0  0.53290705182E-14  0.17763568394E-14  0.00000000000E+00  0.91188000000E+02  0.91188000000E+02 0.  0.
    9900012    2    3    3    0    0  0.14685592563E+02 -0.21295892145E+01 -0.33698348844E+02  0.54367075324E+02  0.39999979816E+02 0.  0.
        -12    1    3    3    0    0 -0.14685592563E+02  0.21295892145E+01  0.33698348844E+02  0.36820924676E+02  0.00000000000E+00 0.  1.
         11    1    4    4    0    0 -0.53096077197E+01 -0.89413568778E+01 -0.27224303017E+02  0.29142794512E+02  0.51100000000E-03 0. -1.
        -11    1    4    4    0    0  0.70953353835E+01 -0.34485807217E+01 -0.23900134511E+01  0.82430975826E+01  0.51100000000E-03 0.  1.
         12    1    4    4    0    0  0.12899864900E+02  0.10260348385E+02 -0.40840323759E+01  0.16981183229E+02  0.00000000000E+00 0. -1.
</event>
<event>
 8    1  0.2450026E-006  0.9118800E+02  0.7816164E-02  0.1184000E+00
        -11   -1    0    0    0    0  0.00000000000E+00  0.00000000000E+00  0.45593999997E+02  0.45594000000E+02  0.51100000000E-03 0.  1.
         11   -1    0    0    0    0 -0.00000000000E+00 -0.00000000000E+00 -0.45593999997E+02  0.45594000000E+02  0.51100000000E-03 0. -1.
         23    2    1    2    0    0 -0.17763568394E-14  0.00000000000E+00  0.35527136788E-14  0.91188000000E+02  0.91188000000E+02 0.  0.
    9900012    2    3    3    0    0 -0.14264857923E+02 -0.24835765912E+02  0.23140423551E+02  0.54367073313E+02  0.39999975232E+02 0.  0.
         12    1    3    3    0    0  0.14264857923E+02  0.24835765912E+02 -0.23140423551E+02  0.36820926687E+02  0.00000000000E+00 0. -1.
         11    1    4    4    0    0 -0.12480453227E+02 -0.11352432770E+02  0.12023072304E+02  0.20716990864E+02  0.51100000000E-03 0.  1.
        -11    1    4    4    0    0 -0.93280136276E+01 -0.18980265157E+02  0.11929002794E+02  0.24280926909E+02  0.51100000000E-03 0. -1.
         12    1    4    4    0    0  0.75436089318E+01  0.54969320152E+01 -0.81165154763E+00  0.93691555399E+01  0.00000000000E+00 0. -1.
</event>
<event>
 8    1  0.2450026E-006  0.9118800E+02  0.7816164E-02  0.1184000E+00
        -11   -1    0    0    0    0  0.00000000000E+00  0.00000000000E+00  0.45593999997E+02  0.45594000000E+02  0.51100000000E-03 0.  1.
         11   -1    0    0    0    0 -0.00000000000E+00 -0.00000000000E+00 -0.45593999997E+02  0.45594000000E+02  0.51100000000E-03 0. -1.
         23    2    1    2    0    0  0.00000000000E+00  0.00000000000E+00 -0.71054273576E-14  0.91188000000E+02  0.91188000000E+02 0.  0.
    9900012    2    3    3    0    0  0.97825433035E+01  0.30982048336E+02  0.17326116165E+02  0.54367085101E+02  0.40000002106E+02 0.  0.
         12    1    3    3    0    0 -0.97825433035E+01 -0.30982048336E+02 -0.17326116165E+02  0.36820914899E+02  0.00000000000E+00 0. -1.
         11    1    4    4    0    0  0.11973331729E+00 -0.61841018497E+01  0.60207071844E+01  0.86317070742E+01  0.51100000000E-03 0. -1.
        -11    1    4    4    0    0 -0.21788216832E+01  0.91141560011E+01 -0.55914602117E+01  0.10912356808E+02  0.51100000000E-03 0.  1.
        -12    1    4    4    0    0  0.11841631669E+02  0.28051994185E+02  0.16896869193E+02  0.34823021219E+02  0.00000000000E+00 0.  1.
</event>
<event>
 8    1  0.2450026E-006  0.9118800E+02  0.7816164E-02  0.1184000E+00
        -11   -1    0    0    0    0  0.00000000000E+00  0.00000000000E+00  0.45593999997E+02  0.45594000000E+02  0.51100000000E-03 0.  1.
         11   -1    0    0    0    0 -0.00000000000E+00 -0.00000000000E+00 -0.45593999997E+02  0.45594000000E+02  0.51100000000E-03 0. -1.
         23    2    1    2    0    0 -0.35527136788E-14  0.00000000000E+00 -0.17763568394E-14  0.91188000000E+02  0.91188000000E+02 0.  0.
    9900012    2    3    3    0    0  0.20550718758E+02  0.29419762376E+02  0.82416382390E+01  0.54367094789E+02  0.40000024190E+02 0.  0.
        -12    1    3    3    0    0 -0.20550718758E+02 -0.29419762376E+02 -0.82416382390E+01  0.36820905211E+02  0.00000000000E+00 0.  1.
         11    1    4    4    0    0  0.10640871729E+02  0.93913420650E+01 -0.65005634877E+01  0.15610342176E+02  0.51100000000E-03 0. -1.
        -11    1    4    4    0    0  0.19200471053E+02  0.85035272291E+01  0.95551087016E+01  0.23070937704E+02  0.51100000000E-03 0.  1.
        -12    1    4    4    0    0 -0.92906240238E+01  0.11524893081E+02  0.51870930250E+01  0.15685814908E+02  0.00000000000E+00 0.  1.
</event>
<event>
 8    1  0.2450026E-006  0.9118800E+02  0.7816164E-02  0.1184000E+00
        -11   -1    0    0    0    0  0.00000000000E+00  0.00000000000E+00  0.45593999997E+02  0.45594000000E+02  0.51100000000E-03 0. -1.
         11   -1    0    0    0    0 -0.00000000000E+00 -0.00000000000E+00 -0.45593999997E+02  0.45594000000E+02  0.51100000000E-03 0.  1.
         23    2    1    2    0    0  0.71054273576E-14  0.00000000000E+00  0.00000000000E+00  0.91188000000E+02  0.91188000000E+02 0.  0.
    9900012    2    3    3    0    0  0.22868983512E+02 -0.25681721512E+02  0.13162044480E+02  0.54367073320E+02  0.39999975248E+02 0.  0.
        -12    1    3    3    0    0 -0.22868983512E+02  0.25681721512E+02 -0.13162044480E+02  0.36820926680E+02  0.00000000000E+00 0.  1.
         11    1    4    4    0    0  0.30879280204E+01 -0.44435350124E+00 -0.97479965149E+01  0.10235046937E+02  0.51100000000E-03 0. -1.
        -11    1    4    4    0    0  0.10797654535E+02 -0.99871409431E+01 -0.58068311819E+00  0.14719698395E+02  0.51100000000E-03 0.  1.
         12    1    4    4    0    0  0.89834009560E+01 -0.15250227068E+02  0.23490724113E+02  0.29412327988E+02  0.00000000000E+00 0. -1.
</event>
<event>
 8    1  0.2450026E-006  0.9118800E+02  0.7816164E-02  0.1184000E+00
        -11   -1    0    0    0    0  0.00000000000E+00  0.00000000000E+00  0.45593999997E+02  0.45594000000E+02  0.51100000000E-03 0. -1.
         11   -1    0    0    0    0 -0.00000000000E+00 -0.00000000000E+00 -0.45593999997E+02  0.45594000000E+02  0.51100000000E-03 0.  1.
         23    2    1    2    0    0  0.00000000000E+00 -0.17763568394E-14 -0.35527136788E-14  0.91188000000E+02  0.91188000000E+02 0.  0.
    9900012    2    3    3    0    0  0.20321111693E+02  0.15167742991E+02 -0.26697786245E+02  0.54367084772E+02  0.40000001354E+02 0.  0.
         12    1    3    3    0    0 -0.20321111693E+02 -0.15167742991E+02  0.26697786245E+02  0.36820915228E+02  0.00000000000E+00 0. -1.
         11    1    4    4    0    0  0.11989917712E+02  0.15927072991E+02  0.49138546551E+01  0.20532309871E+02  0.51100000000E-03 0. -1.
        -11    1    4    4    0    0  0.84879946320E+01  0.13762592432E+01 -0.16836137267E+02  0.18904911021E+02  0.51100000000E-03 0.  1.
        -12    1    4    4    0    0 -0.15680065091E+00 -0.21355892437E+01 -0.14775503633E+02  0.14929863880E+02  0.00000000000E+00 0.  1.
</event>
<event>
 8    1  0.2450026E-006  0.9118800E+02  0.7816164E-02  0.1184000E+00
        -11   -1    0    0    0    0  0.00000000000E+00  0.00000000000E+00  0.45593999997E+02  0.45594000000E+02  0.51100000000E-03 0.  1.
         11   -1    0    0    0    0 -0.00000000000E+00 -0.00000000000E+00 -0.45593999997E+02  0.45594000000E+02  0.51100000000E-03 0. -1.
         23    2    1    2    0    0  0.00000000000E+00 -0.13322676296E-14 -0.35527136788E-14  0.91188000000E+02  0.91188000000E+02 0.  0.
    9900012    2    3    3    0    0 -0.18110532890E+02 -0.27759706605E+01  0.31938738132E+02  0.54367076490E+02  0.39999982473E+02 0.  0.
         12    1    3    3    0    0  0.18110532890E+02  0.27759706605E+01 -0.31938738132E+02  0.36820923510E+02  0.00000000000E+00 0. -1.
         11    1    4    4    0    0  0.55190344047E+01 -0.49698563716E+01  0.11433855335E+02  0.13634231228E+02  0.51100000000E-03 0. -1.
        -11    1    4    4    0    0 -0.15100243397E+01  0.80583999404E+01  0.15157275078E+02  0.17232555561E+02  0.51100000000E-03 0.  1.
         12    1    4    4    0    0 -0.22119542955E+02 -0.58645142293E+01  0.53476077196E+01  0.23500289700E+02  0.00000000000E+00 0. -1.
</event>
<event>
 8    1  0.2450026E-006  0.9118800E+02  0.7816164E-02  0.1184000E+00
        -11   -1    0    0    0    0  0.00000000000E+00  0.00000000000E+00  0.45593999997E+02  0.45594000000E+02  0.51100000000E-03 0.  1.
         11   -1    0    0    0    0 -0.00000000000E+00 -0.00000000000E+00 -0.45593999997E+02  0.45594000000E+02  0.51100000000E-03 0. -1.
         23    2    1    2    0    0  0.71054273576E-14 -0.17763568394E-14  0.35527136788E-14  0.91188000000E+02  0.91188000000E+02 0.  0.
    9900012    2    3    3    0    0  0.26720383853E+02  0.23472368371E+01  0.25224780478E+02  0.54367109406E+02  0.40000057512E+02 0.  0.
         12    1    3    3    0    0 -0.26720383853E+02 -0.23472368371E+01 -0.25224780478E+02  0.36820890594E+02  0.00000000000E+00 0. -1.
         11    1    4    4    0    0 -0.97048666876E+00 -0.13058560933E+02  0.58316683973E+01  0.14334441551E+02  0.51100000000E-03 0. -1.
        -11    1    4    4    0    0  0.15491482815E+02  0.16268992203E+02  0.15113892460E+02  0.27075743621E+02  0.51100000000E-03 0.  1.
         12    1    4    4    0    0  0.12199387707E+02 -0.86319443259E+00  0.42792196207E+01  0.12956924234E+02  0.00000000000E+00 0. -1.
</event>
<event>
 8    1  0.2450026E-006  0.9118800E+02  0.7816164E-02  0.1184000E+00
        -11   -1    0    0    0    0  0.00000000000E+00  0.00000000000E+00  0.45593999997E+02  0.45594000000E+02  0.51100000000E-03 0. -1.
         11   -1    0    0    0    0 -0.00000000000E+00 -0.00000000000E+00 -0.45593999997E+02  0.45594000000E+02  0.51100000000E-03 0.  1.
         23    2    1    2    0    0  0.00000000000E+00  0.00000000000E+00  0.00000000000E+00  0.91188000000E+02  0.91188000000E+02 0.  0.
    9900012    2    3    3    0    0  0.11266485029E+02  0.13345590935E+02 -0.32415122671E+02  0.54367100228E+02  0.40000036589E+02 0.  0.
         12    1    3    3    0    0 -0.11266485029E+02 -0.13345590935E+02  0.32415122671E+02  0.36820899772E+02  0.00000000000E+00 0. -1.
         11    1    4    4    0    0  0.12314274726E+02  0.14517891300E+02 -0.26130509453E+02  0.32329770404E+02  0.51100000000E-03 0.  1.
        -11    1    4    4    0    0  0.95241218099E+00  0.59379644791E+01  0.54866259645E+01  0.81406127444E+01  0.51100000000E-03 0. -1.
         12    1    4    4    0    0 -0.20002018778E+01 -0.71102648442E+01 -0.11771239182E+02  0.13896717079E+02  0.00000000000E+00 0. -1.
</event>
<event>
 8    1  0.2450026E-006  0.9118800E+02  0.7816164E-02  0.1184000E+00
        -11   -1    0    0    0    0  0.00000000000E+00  0.00000000000E+00  0.45593999997E+02  0.45594000000E+02  0.51100000000E-03 0. -1.
         11   -1    0    0    0    0 -0.00000000000E+00 -0.00000000000E+00 -0.45593999997E+02  0.45594000000E+02  0.51100000000E-03 0.  1.
         23    2    1    2    0    0  0.88817841970E-15 -0.22204460493E-15  0.00000000000E+00  0.91188000000E+02  0.91188000000E+02 0.  0.
    9900012    2    3    3    0    0  0.47461424773E+01 -0.10308296299E+01 -0.36499210042E+02  0.54367071008E+02  0.39999969976E+02 0.  0.
         12    1    3    3    0    0 -0.47461424773E+01  0.10308296299E+01  0.36499210042E+02  0.36820928992E+02  0.00000000000E+00 0. -1.
         11    1    4    4    0    0 -0.59776377862E+01  0.97941639601E+01 -0.72180898224E+01  0.13555759740E+02  0.51100000000E-03 0. -1.
        -11    1    4    4    0    0 -0.54242808717E+01 -0.86795410934E+00 -0.17818742581E+02  0.18646279917E+02  0.51100000000E-03 0.  1.
        -12    1    4    4    0    0  0.16148061135E+02 -0.99570394806E+01 -0.11462377638E+02  0.22165031351E+02  0.00000000000E+00 0.  1.
</event>
<event>
 8    1  0.2450026E-006  0.9118800E+02  0.7816164E-02  0.1184000E+00
        -11   -1    0    0    0    0  0.00000000000E+00  0.00000000000E+00  0.45593999997E+02  0.45594000000E+02  0.51100000000E-03 0. -1.
         11   -1    0    0    0    0 -0.00000000000E+00 -0.00000000000E+00 -0.45593999997E+02  0.45594000000E+02  0.51100000000E-03 0.  1.
         23    2    1    2    0    0  0.35527136788E-14  0.00000000000E+00  0.00000000000E+00  0.91188000000E+02  0.91188000000E+02 0.  0.
    9900012    2    3    3    0    0 -0.23681552692E+02  0.26875844195E+02  0.85236036974E+01  0.54367098883E+02  0.40000033523E+02 0.  0.
        -12    1    3    3    0    0  0.23681552692E+02 -0.26875844195E+02 -0.85236036974E+01  0.36820901117E+02  0.00000000000E+00 0.  1.
         11    1    4    4    0    0 -0.11854312618E+02  0.10444060599E+02  0.16515764136E+02  0.22855493754E+02  0.51100000000E-03 0. -1.
        -11    1    4    4    0    0 -0.17836936517E+02  0.91612449869E+01 -0.90880457820E+01  0.22015387583E+02  0.51100000000E-03 0.  1.
         12    1    4    4    0    0  0.60096964432E+01  0.72705386092E+01  0.10958853430E+01  0.94962175466E+01  0.00000000000E+00 0. -1.
</event>
<event>
 8    1  0.2450026E-006  0.9118800E+02  0.7816164E-02  0.1184000E+00
        -11   -1    0    0    0    0  0.00000000000E+00  0.00000000000E+00  0.45593999997E+02  0.45594000000E+02  0.51100000000E-03 0. -1.
         11   -1    0    0    0    0 -0.00000000000E+00 -0.00000000000E+00 -0.45593999997E+02  0.45594000000E+02  0.51100000000E-03 0.  1.
         23    2    1    2    0    0  0.00000000000E+00  0.13322676296E-14  0.00000000000E+00  0.91188000000E+02  0.91188000000E+02 0.  0.
    9900012    2    3    3    0    0  0.29749753924E+02 -0.31618102096E+01  0.21464742420E+02  0.54367081088E+02  0.39999992956E+02 0.  0.
        -12    1    3    3    0    0 -0.29749753924E+02  0.31618102096E+01 -0.21464742420E+02  0.36820918912E+02  0.00000000000E+00 0.  1.
         11    1    4    4    0    0  0.46738966382E+01  0.11050036745E+02 -0.38233444215E+01  0.12592322450E+02  0.51100000000E-03 0. -1.
        -11    1    4    4    0    0 -0.15930457249E+01 -0.18917657973E+01 -0.68072461422E+00  0.25651430321E+01  0.51100000000E-03 0.  1.
         12    1    4    4    0    0  0.26668903011E+02 -0.12320081157E+02  0.25968811456E+02  0.39209615606E+02  0.00000000000E+00 0. -1.
</event>
<event>
 8    1  0.2450026E-006  0.9118800E+02  0.7816164E-02  0.1184000E+00
        -11   -1    0    0    0    0  0.00000000000E+00  0.00000000000E+00  0.45593999997E+02  0.45594000000E+02  0.51100000000E-03 0.  1.
         11   -1    0    0    0    0 -0.00000000000E+00 -0.00000000000E+00 -0.45593999997E+02  0.45594000000E+02  0.51100000000E-03 0. -1.
         23    2    1    2    0    0  0.35527136788E-14  0.00000000000E+00  0.00000000000E+00  0.91188000000E+02  0.91188000000E+02 0.  0.
    9900012    2    3    3    0    0 -0.26005988073E+02 -0.19643729093E+02  0.17134556462E+02  0.54367074788E+02  0.39999978594E+02 0.  0.
         12    1    3    3    0    0  0.26005988073E+02  0.19643729093E+02 -0.17134556462E+02  0.36820925212E+02  0.00000000000E+00 0. -1.
         11    1    4    4    0    0 -0.34274150924E+00 -0.17830093063E+02 -0.14670165923E+00  0.17833990356E+02  0.51100000000E-03 0. -1.
        -11    1    4    4    0    0 -0.24596469810E+02  0.23255672503E+01  0.74375756781E+01  0.25801397683E+02  0.51100000000E-03 0.  1.
        -12    1    4    4    0    0 -0.10667767529E+01 -0.41392032805E+01  0.98436824435E+01  0.10731686749E+02  0.00000000000E+00 0.  1.
</event>
<event>
 8    1  0.2450026E-006  0.9118800E+02  0.7816164E-02  0.1184000E+00
        -11   -1    0    0    0    0  0.00000000000E+00  0.00000000000E+00  0.45593999997E+02  0.45594000000E+02  0.51100000000E-03 0.  1.
         11   -1    0    0    0    0 -0.00000000000E+00 -0.00000000000E+00 -0.45593999997E+02  0.45594000000E+02  0.51100000000E-03 0. -1.
         23    2    1    2    0    0  0.00000000000E+00  0.00000000000E+00  0.00000000000E+00  0.91188000000E+02  0.91188000000E+02 0.  0.
    9900012    2    3    3    0    0 -0.20470212554E+02 -0.27819630013E+02  0.12759901038E+02  0.54367129688E+02  0.40000103750E+02 0.  0.
         12    1    3    3    0    0  0.20470212554E+02  0.27819630013E+02 -0.12759901038E+02  0.36820870312E+02  0.00000000000E+00 0. -1.
         11    1    4    4    0    0 -0.89215064492E+01  0.88701648929E+00  0.20351958440E+02  0.22239206105E+02  0.51100000000E-03 0. -1.
        -11    1    4    4    0    0 -0.20578161882E+01 -0.10346779785E+02 -0.26667151936E+01  0.10881260477E+02  0.51100000000E-03 0.  1.
         12    1    4    4    0    0 -0.94908899164E+01 -0.18359866717E+02 -0.49253422086E+01  0.21246663106E+02  0.00000000000E+00 0. -1.
</event>
<event>
 8    1  0.2450026E-006  0.9118800E+02  0.7816164E-02  0.1184000E+00
        -11   -1    0    0    0    0  0.00000000000E+00  0.00000000000E+00  0.45593999997E+02  0.45594000000E+02  0.51100000000E-03 0.  1.
         11   -1    0    0    0    0 -0.00000000000E+00 -0.00000000000E+00 -0.45593999997E+02  0.45594000000E+02  0.51100000000E-03 0. -1.
         23    2    1    2    0    0  0.00000000000E+00 -0.35527136788E-14  0.00000000000E+00  0.91188000000E+02  0.91188000000E+02 0.  0.
    9900012    2    3    3    0    0 -0.18185274821E+02  0.18846363484E+02 -0.25882233122E+02  0.54367087081E+02  0.40000006618E+02 0.  0.
        -12    1    3    3    0    0  0.18185274821E+02 -0.18846363484E+02  0.25882233122E+02  0.36820912919E+02  0.00000000000E+00 0.  1.
         11    1    4    4    0    0 -0.89635443787E+01  0.52634928623E+01 -0.16022010440E+02  0.19098541927E+02  0.51100000000E-03 0. -1.
        -11    1    4    4    0    0 -0.92787811976E+01 -0.53146975274E+01 -0.12204246107E+02  0.16226072033E+02  0.51100000000E-03 0.  1.
        -12    1    4    4    0    0  0.57050755782E-01  0.18897568149E+02  0.23440234253E+01  0.19042473121E+02  0.00000000000E+00 0.  1.
</event>
<event>
 8    1  0.2450026E-006  0.9118800E+02  0.7816164E-02  0.1184000E+00
        -11   -1    0    0    0    0  0.00000000000E+00  0.00000000000E+00  0.45593999997E+02  0.45594000000E+02  0.51100000000E-03 0. -1.
         11   -1    0    0    0    0 -0.00000000000E+00 -0.00000000000E+00 -0.45593999997E+02  0.45594000000E+02  0.51100000000E-03 0.  1.
         23    2    1    2    0    0  0.35527136788E-14 -0.35527136788E-14  0.00000000000E+00  0.91188000000E+02  0.91188000000E+02 0.  0.
    9900012    2    3    3    0    0  0.15484955021E+02 -0.17064845204E+02 -0.28719089012E+02  0.54367097682E+02  0.40000030785E+02 0.  0.
         12    1    3    3    0    0 -0.15484955021E+02  0.17064845204E+02  0.28719089012E+02  0.36820902318E+02  0.00000000000E+00 0. -1.
         11    1    4    4    0    0  0.47665002970E+01  0.47375873183E+01  0.29843569636E+01  0.73532744697E+01  0.51100000000E-03 0. -1.
        -11    1    4    4    0    0  0.16774337611E+02 -0.70286433208E+01 -0.12646393784E+02  0.22152009056E+02  0.51100000000E-03 0.  1.
         12    1    4    4    0    0 -0.60558828866E+01 -0.14773789201E+02 -0.19057052191E+02  0.24861814156E+02  0.00000000000E+00 0. -1.
</event>
<event>
 8    1  0.2450026E-006  0.9118800E+02  0.7816164E-02  0.1184000E+00
        -11   -1    0    0    0    0  0.00000000000E+00  0.00000000000E+00  0.45593999997E+02  0.45594000000E+02  0.51100000000E-03 0. -1.
         11   -1    0    0    0    0 -0.00000000000E+00 -0.00000000000E+00 -0.45593999997E+02  0.45594000000E+02  0.51100000000E-03 0.  1.
         23    2    1    2    0    0  0.00000000000E+00  0.00000000000E+00  0.00000000000E+00  0.91188000000E+02  0.91188000000E+02 0.  0.
    9900012    2    3    3    0    0 -0.10611321301E+02 -0.34253370755E+02  0.83597521535E+01  0.54367095559E+02  0.40000025945E+02 0.  0.
        -12    1    3    3    0    0  0.10611321301E+02  0.34253370755E+02 -0.83597521535E+01  0.36820904441E+02  0.00000000000E+00 0.  1.
         11    1    4    4    0    0  0.34425780467E+01 -0.10054761183E+02  0.51715843914E+01  0.11819257652E+02  0.51100000000E-03 0. -1.
        -11    1    4    4    0    0 -0.88148452908E+01 -0.11486777976E+02 -0.14267540693E+02  0.20327574461E+02  0.51100000000E-03 0.  1.
         12    1    4    4    0    0 -0.52390540572E+01 -0.12711831596E+02  0.17455708455E+02  0.22220263446E+02  0.00000000000E+00 0. -1.
</event>
<event>
 8    1  0.2450026E-006  0.9118800E+02  0.7816164E-02  0.1184000E+00
        -11   -1    0    0    0    0  0.00000000000E+00  0.00000000000E+00  0.45593999997E+02  0.45594000000E+02  0.51100000000E-03 0. -1.
         11   -1    0    0    0    0 -0.00000000000E+00 -0.00000000000E+00 -0.45593999997E+02  0.45594000000E+02  0.51100000000E-03 0.  1.
         23    2    1    2    0    0  0.35527136788E-14  0.00000000000E+00  0.00000000000E+00  0.91188000000E+02  0.91188000000E+02 0.  0.
    9900012    2    3    3    0    0 -0.28645285108E+02 -0.22914475045E+02  0.31865817876E+01  0.54367084354E+02  0.40000000401E+02 0.  0.
        -12    1    3    3    0    0  0.28645285108E+02  0.22914475045E+02 -0.31865817876E+01  0.36820915646E+02  0.00000000000E+00 0.  1.
         11    1    4    4    0    0 -0.18381151884E+02 -0.14393383572E+02  0.75333862544E+00  0.23358162483E+02  0.51100000000E-03 0. -1.
        -11    1    4    4    0    0  0.12720228891E+01 -0.51709737902E+01 -0.11463381062E+02  0.12639862254E+02  0.51100000000E-03 0.  1.
         12    1    4    4    0    0 -0.11536156113E+02 -0.33501176833E+01  0.13896624224E+02  0.18369059616E+02  0.00000000000E+00 0. -1.
</event>
<event>
 8    1  0.2450026E-006  0.9118800E+02  0.7816164E-02  0.1184000E+00
        -11   -1    0    0    0    0  0.00000000000E+00  0.00000000000E+00  0.45593999997E+02  0.45594000000E+02  0.51100000000E-03 0.  1.
         11   -1    0    0    0    0 -0.00000000000E+00 -0.00000000000E+00 -0.45593999997E+02  0.45594000000E+02  0.51100000000E-03 0. -1.
         23    2    1    2    0    0  0.00000000000E+00 -0.17763568394E-14  0.00000000000E+00  0.91188000000E+02  0.91188000000E+02 0.  0.
    9900012    2    3    3    0    0 -0.13733729011E+02  0.11007661567E+02  0.32341844372E+02  0.54367098013E+02  0.40000031541E+02 0.  0.
         12    1    3    3    0    0  0.13733729011E+02 -0.11007661567E+02 -0.32341844372E+02  0.36820901987E+02  0.00000000000E+00 0. -1.
         11    1    4    4    0    0  0.29415293137E+01 -0.77766447746E+00  0.83495238880E+01  0.88866138748E+01  0.51100000000E-03 0. -1.
        -11    1    4    4    0    0 -0.20195659056E+02  0.14212881693E+02  0.29522658186E+02  0.38489712877E+02  0.51100000000E-03 0.  1.
         12    1    4    4    0    0  0.35204007310E+01 -0.24275556483E+01 -0.55303377021E+01  0.69907712616E+01  0.00000000000E+00 0. -1.
</event>
<event>
 8    1  0.2450026E-006  0.9118800E+02  0.7816164E-02  0.1184000E+00
        -11   -1    0    0    0    0  0.00000000000E+00  0.00000000000E+00  0.45593999997E+02  0.45594000000E+02  0.51100000000E-03 0.  1.
         11   -1    0    0    0    0 -0.00000000000E+00 -0.00000000000E+00 -0.45593999997E+02  0.45594000000E+02  0.51100000000E-03 0. -1.
         23    2    1    2    0    0  0.00000000000E+00  0.35527136788E-14  0.11102230246E-15  0.91188000000E+02  0.91188000000E+02 0.  0.
    9900012    2    3    3    0    0 -0.32457948598E+02  0.17378366189E+02  0.50340656688E+00  0.54367089409E+02  0.40000011926E+02 0.  0.
        -12    1    3    3    0    0  0.32457948598E+02 -0.17378366189E+02 -0.50340656688E+00  0.36820910591E+02  0.00000000000E+00 0.  1.
         11    1    4    4    0    0 -0.14664022916E+02 -0.12350425908E+02 -0.40418047145E+00  0.19176286145E+02  0.51100000000E-03 0. -1.
        -11    1    4    4    0    0 -0.88794028636E+01  0.16065644675E+02  0.34565227914E+01  0.18678765594E+02  0.51100000000E-03 0.  1.
         12    1    4    4    0    0 -0.89145228183E+01  0.13663147422E+02 -0.25489357530E+01  0.16512037670E+02  0.00000000000E+00 0. -1.
</event>
<event>
 8    1  0.2450026E-006  0.9118800E+02  0.7816164E-02  0.1184000E+00
        -11   -1    0    0    0    0  0.00000000000E+00  0.00000000000E+00  0.45593999997E+02  0.45594000000E+02  0.51100000000E-03 0. -1.
         11   -1    0    0    0    0 -0.00000000000E+00 -0.00000000000E+00 -0.45593999997E+02  0.45594000000E+02  0.51100000000E-03 0.  1.
         23    2    1    2    0    0  0.00000000000E+00  0.00000000000E+00 -0.35527136788E-14  0.91188000000E+02  0.91188000000E+02 0.  0.
    9900012    2    3    3    0    0  0.15117264719E+02  0.21776995670E+02 -0.25554101207E+02  0.54367064088E+02  0.39999954200E+02 0.  0.
         12    1    3    3    0    0 -0.15117264719E+02 -0.21776995670E+02  0.25554101207E+02  0.36820935912E+02  0.00000000000E+00 0. -1.
         11    1    4    4    0    0  0.26744453868E+01  0.69067005814E+01  0.52369870342E+01  0.90708987705E+01  0.51100000000E-03 0. -1.
        -11    1    4    4    0    0  0.14145941638E+01  0.20388890229E+02 -0.15492602322E+02  0.25646220938E+02  0.51100000000E-03 0.  1.
        -12    1    4    4    0    0  0.11028225168E+02 -0.55185951406E+01 -0.15298485919E+02  0.19649944379E+02  0.00000000000E+00 0.  1.
</event>
<event>
 8    1  0.2450026E-006  0.9118800E+02  0.7816164E-02  0.1184000E+00
        -11   -1    0    0    0    0  0.00000000000E+00  0.00000000000E+00  0.45593999997E+02  0.45594000000E+02  0.51100000000E-03 0. -1.
         11   -1    0    0    0    0 -0.00000000000E+00 -0.00000000000E+00 -0.45593999997E+02  0.45594000000E+02  0.51100000000E-03 0.  1.
         23    2    1    2    0    0  0.35527136788E-14 -0.33306690739E-15  0.35527136788E-14  0.91188000000E+02  0.91188000000E+02 0.  0.
    9900012    2    3    3    0    0 -0.22174550829E+02 -0.87413036051E+00 -0.29382041364E+02  0.54367093397E+02  0.40000021017E+02 0.  0.
         12    1    3    3    0    0  0.22174550829E+02  0.87413036051E+00  0.29382041364E+02  0.36820906603E+02  0.00000000000E+00 0. -1.
         11    1    4    4    0    0  0.41671195027E+01  0.10269195608E+01  0.20815365569E+00  0.42968333619E+01  0.51100000000E-03 0. -1.
        -11    1    4    4    0    0 -0.15234930041E+02  0.14093005143E+02 -0.13001356091E+02  0.24489817226E+02  0.51100000000E-03 0.  1.
         12    1    4    4    0    0 -0.11106740290E+02 -0.15994055064E+02 -0.16588838929E+02  0.25580442809E+02  0.00000000000E+00 0. -1.
</event>
<event>
 8    1  0.2450026E-006  0.9118800E+02  0.7816164E-02  0.1184000E+00
        -11   -1    0    0    0    0  0.00000000000E+00  0.00000000000E+00  0.45593999997E+02  0.45594000000E+02  0.51100000000E-03 0.  1.
         11   -1    0    0    0    0 -0.00000000000E+00 -0.00000000000E+00 -0.45593999997E+02  0.45594000000E+02  0.51100000000E-03 0. -1.
         23    2    1    2    0    0 -0.17763568394E-14  0.22204460493E-15  0.00000000000E+00  0.91188000000E+02  0.91188000000E+02 0.  0.
    9900012    2    3    3    0    0 -0.64407174887E+01 -0.92032709772E+00  0.36241544913E+02  0.54367089889E+02  0.40000013020E+02 0.  0.
         12    1    3    3    0    0  0.64407174887E+01  0.92032709772E+00 -0.36241544913E+02  0.36820910111E+02  0.00000000000E+00 0. -1.
         11    1    4    4    0    0 -0.13168779677E+02 -0.94065189814E+01  0.11048049833E+02  0.19594865728E+02  0.51100000000E-03 0. -1.
        -11    1    4    4    0    0  0.67667262009E+01 -0.41690862614E+01  0.19178492092E+02  0.20760164327E+02  0.51100000000E-03 0.  1.
         12    1    4    4    0    0 -0.38664012451E-01  0.12655278145E+02  0.60150029884E+01  0.14012059834E+02  0.00000000000E+00 0. -1.
</event>
<event>
 8    1  0.2450026E-006  0.9118800E+02  0.7816164E-02  0.1184000E+00
        -11   -1    0    0    0    0  0.00000000000E+00  0.00000000000E+00  0.45593999997E+02  0.45594000000E+02  0.51100000000E-03 0.  1.
         11   -1    0    0    0    0 -0.00000000000E+00 -0.00000000000E+00 -0.45593999997E+02  0.45594000000E+02  0.51100000000E-03 0. -1.
         23    2    1    2    0    0  0.00000000000E+00  0.00000000000E+00 -0.17763568394E-14  0.91188000000E+02  0.91188000000E+02 0.  0.
    9900012    2    3    3    0    0 -0.27665460967E+02  0.20327328586E+02 -0.13311716994E+02  0.54367084377E+02  0.40000000455E+02 0.  0.
        -12    1    3    3    0    0  0.27665460967E+02 -0.20327328586E+02  0.13311716994E+02  0.36820915623E+02  0.00000000000E+00 0.  1.
         11    1    4    4    0    0 -0.99198507619E+00 -0.46202873652E+01 -0.11481337016E+02  0.12415804028E+02  0.51100000000E-03 0.  1.
        -11    1    4    4    0    0 -0.20027219224E+02  0.25107374762E+02 -0.77624880231E+01  0.33041277183E+02  0.51100000000E-03 0. -1.
        -12    1    4    4    0    0 -0.66462566668E+01 -0.15975881138E+00  0.59321080450E+01  0.89100031659E+01  0.00000000000E+00 0.  1.
</event>
<event>
 8    1  0.2450026E-006  0.9118800E+02  0.7816164E-02  0.1184000E+00
        -11   -1    0    0    0    0  0.00000000000E+00  0.00000000000E+00  0.45593999997E+02  0.45594000000E+02  0.51100000000E-03 0.  1.
         11   -1    0    0    0    0 -0.00000000000E+00 -0.00000000000E+00 -0.45593999997E+02  0.45594000000E+02  0.51100000000E-03 0. -1.
         23    2    1    2    0    0  0.00000000000E+00  0.52735593670E-15  0.00000000000E+00  0.91188000000E+02  0.91188000000E+02 0.  0.
    9900012    2    3    3    0    0  0.48058414384E+01 -0.17053862864E+00 -0.36505525151E+02  0.54367101560E+02  0.40000039626E+02 0.  0.
        -12    1    3    3    0    0 -0.48058414384E+01  0.17053862864E+00  0.36505525151E+02  0.36820898440E+02  0.00000000000E+00 0.  1.
         11    1    4    4    0    0  0.80775317669E+01  0.11552586763E+02 -0.17524021657E+02  0.22490000348E+02  0.51100000000E-03 0. -1.
        -11    1    4    4    0    0 -0.11897886003E+02 -0.13327978689E+01 -0.73073969216E+01  0.14026193052E+02  0.51100000000E-03 0.  1.
         12    1    4    4    0    0  0.86261956749E+01 -0.10390327523E+02 -0.11674106573E+02  0.17850908159E+02  0.00000000000E+00 0. -1.
</event>
<event>
 8    1  0.2450026E-006  0.9118800E+02  0.7816164E-02  0.1184000E+00
        -11   -1    0    0    0    0  0.00000000000E+00  0.00000000000E+00  0.45593999997E+02  0.45594000000E+02  0.51100000000E-03 0. -1.
         11   -1    0    0    0    0 -0.00000000000E+00 -0.00000000000E+00 -0.45593999997E+02  0.45594000000E+02  0.51100000000E-03 0.  1.
         23    2    1    2    0    0  0.00000000000E+00  0.88817841970E-15  0.14210854715E-13  0.91188000000E+02  0.91188000000E+02 0.  0.
    9900012    2    3    3    0    0 -0.19921667957E+02 -0.77397665813E+01  0.29983397536E+02  0.54367068877E+02  0.39999965120E+02 0.  0.
        -12    1    3    3    0    0  0.19921667957E+02  0.77397665813E+01 -0.29983397536E+02  0.36820931123E+02  0.00000000000E+00 0.  1.
         11    1    4    4    0    0 -0.90040331181E+01  0.65018388648E+01  0.26885386689E+01  0.11426931410E+02  0.51100000000E-03 0. -1.
        -11    1    4    4    0    0 -0.10408276522E+02 -0.16501695021E+02  0.44926579001E+01  0.20020542799E+02  0.51100000000E-03 0.  1.
        -12    1    4    4    0    0 -0.50935831684E+00  0.22600895749E+01  0.22802200967E+02  0.22919594668E+02  0.00000000000E+00 0.  1.
</event>
<event>
 8    1  0.2450026E-006  0.9118800E+02  0.7816164E-02  0.1184000E+00
        -11   -1    0    0    0    0  0.00000000000E+00  0.00000000000E+00  0.45593999997E+02  0.45594000000E+02  0.51100000000E-03 0.  1.
         11   -1    0    0    0    0 -0.00000000000E+00 -0.00000000000E+00 -0.45593999997E+02  0.45594000000E+02  0.51100000000E-03 0. -1.
         23    2    1    2    0    0  0.00000000000E+00  0.00000000000E+00 -0.17763568394E-14  0.91188000000E+02  0.91188000000E+02 0.  0.
    9900012    2    3    3    0    0 -0.14206303648E+02  0.29967756699E+02  0.15996693400E+02  0.54367086043E+02  0.40000004252E+02 0.  0.
         12    1    3    3    0    0  0.14206303648E+02 -0.29967756699E+02 -0.15996693400E+02  0.36820913957E+02  0.00000000000E+00 0. -1.
         11    1    4    4    0    0  0.97871806295E+00  0.29049702178E+01  0.12638448363E+02  0.13004888246E+02  0.51100000000E-03 0. -1.
        -11    1    4    4    0    0 -0.29260139709E+01  0.19006125173E+02  0.13528549364E+02  0.23512039469E+02  0.51100000000E-03 0.  1.
        -12    1    4    4    0    0 -0.12259007740E+02  0.80566613076E+01 -0.10170304327E+02  0.17850158327E+02  0.00000000000E+00 0.  1.
</event>
<event>
 8    1  0.2450026E-006  0.9118800E+02  0.7816164E-02  0.1184000E+00
        -11   -1    0    0    0    0  0.00000000000E+00  0.00000000000E+00  0.45593999997E+02  0.45594000000E+02  0.51100000000E-03 0.  1.
         11   -1    0    0    0    0 -0.00000000000E+00 -0.00000000000E+00 -0.45593999997E+02  0.45594000000E+02  0.51100000000E-03 0. -1.
         23    2    1    2    0    0  0.00000000000E+00  0.00000000000E+00  0.71054273576E-14  0.91188000000E+02  0.91188000000E+02 0.  0.
    9900012    2    3    3    0    0 -0.20698302930E+02  0.24799789404E+01  0.30351437714E+02  0.54367084598E+02  0.40000000959E+02 0.  0.
         12    1    3    3    0    0  0.20698302930E+02 -0.24799789404E+01 -0.30351437714E+02  0.36820915402E+02  0.00000000000E+00 0. -1.
         11    1    4    4    0    0 -0.62573810734E+01  0.48647725113E+00 -0.47033837902E+01  0.78430413331E+01  0.51100000000E-03 0. -1.
        -11    1    4    4    0    0 -0.14741074216E+02 -0.36236977149E+01  0.50521407713E+01  0.15998580587E+02  0.51100000000E-03 0.  1.
        -12    1    4    4    0    0  0.30015235882E+00  0.56171994041E+01  0.30002680733E+02  0.30525462678E+02  0.00000000000E+00 0.  1.
</event>
<event>
 8    1  0.2450026E-006  0.9118800E+02  0.7816164E-02  0.1184000E+00
        -11   -1    0    0    0    0  0.00000000000E+00  0.00000000000E+00  0.45593999997E+02  0.45594000000E+02  0.51100000000E-03 0.  1.
         11   -1    0    0    0    0 -0.00000000000E+00 -0.00000000000E+00 -0.45593999997E+02  0.45594000000E+02  0.51100000000E-03 0. -1.
         23    2    1    2    0    0  0.00000000000E+00 -0.17763568394E-14  0.00000000000E+00  0.91188000000E+02  0.91188000000E+02 0.  0.
    9900012    2    3    3    0    0  0.20902968168E+02 -0.11541651678E+02 -0.28029197751E+02  0.54367085722E+02  0.40000003520E+02 0.  0.
        -12    1    3    3    0    0 -0.20902968168E+02  0.11541651678E+02  0.28029197751E+02  0.36820914278E+02  0.00000000000E+00 0.  1.
         11    1    4    4    0    0  0.11479832828E+02  0.49369719063E+01 -0.29940269525E+02  0.32443489222E+02  0.51100000000E-03 0. -1.
        -11    1    4    4    0    0 -0.10531841393E+01 -0.58126137568E+01  0.35366015141E+01  0.68850000761E+01  0.51100000000E-03 0.  1.
         12    1    4    4    0    0  0.10476319480E+02 -0.10666009827E+02 -0.16255297400E+01  0.15038596424E+02  0.00000000000E+00 0. -1.
</event>
<event>
 8    1  0.2450026E-006  0.9118800E+02  0.7816164E-02  0.1184000E+00
        -11   -1    0    0    0    0  0.00000000000E+00  0.00000000000E+00  0.45593999997E+02  0.45594000000E+02  0.51100000000E-03 0. -1.
         11   -1    0    0    0    0 -0.00000000000E+00 -0.00000000000E+00 -0.45593999997E+02  0.45594000000E+02  0.51100000000E-03 0.  1.
         23    2    1    2    0    0  0.00000000000E+00 -0.88817841970E-15  0.35527136788E-14  0.91188000000E+02  0.91188000000E+02 0.  0.
    9900012    2    3    3    0    0 -0.22218037021E+02 -0.53420891323E+01 -0.28872159646E+02  0.54367072690E+02  0.39999973811E+02 0.  0.
         12    1    3    3    0    0  0.22218037021E+02  0.53420891323E+01  0.28872159646E+02  0.36820927310E+02  0.00000000000E+00 0. -1.
         11    1    4    4    0    0  0.30961948014E+01  0.86250920624E+01 -0.62223838573E+01  0.11076854087E+02  0.51100000000E-03 0. -1.
        -11    1    4    4    0    0  0.15693294288E+01  0.28778570854E+01  0.13141602503E+01  0.35315540042E+01  0.51100000000E-03 0.  1.
        -12    1    4    4    0    0 -0.26883561251E+02 -0.16845038280E+02 -0.23963936039E+02  0.39758664599E+02  0.00000000000E+00 0.  1.
</event>
<event>
 8    1  0.2450026E-006  0.9118800E+02  0.7816164E-02  0.1184000E+00
        -11   -1    0    0    0    0  0.00000000000E+00  0.00000000000E+00  0.45593999997E+02  0.45594000000E+02  0.51100000000E-03 0.  1.
         11   -1    0    0    0    0 -0.00000000000E+00 -0.00000000000E+00 -0.45593999997E+02  0.45594000000E+02  0.51100000000E-03 0. -1.
         23    2    1    2    0    0  0.00000000000E+00  0.44408920985E-14  0.44408920985E-15  0.91188000000E+02  0.91188000000E+02 0.  0.
    9900012    2    3    3    0    0  0.36166420592E+02 -0.62642531805E+01 -0.29204599460E+01  0.54367082947E+02  0.39999997194E+02 0.  0.
        -12    1    3    3    0    0 -0.36166420592E+02  0.62642531805E+01  0.29204599460E+01  0.36820917053E+02  0.00000000000E+00 0.  1.
         11    1    4    4    0    0 -0.14059756606E+01 -0.80778724534E+00  0.17058996309E+01  0.23535890898E+01  0.51100000000E-03 0. -1.
        -11    1    4    4    0    0  0.25138511977E+02  0.12582844445E+02  0.41408825447E+01  0.28415130956E+02  0.51100000000E-03 0.  1.
        -12    1    4    4    0    0  0.12433884276E+02 -0.18039310380E+02 -0.87672421216E+01  0.23598362901E+02  0.00000000000E+00 0.  1.
</event>
<event>
 8    1  0.2450026E-006  0.9118800E+02  0.7816164E-02  0.1184000E+00
        -11   -1    0    0    0    0  0.00000000000E+00  0.00000000000E+00  0.45593999997E+02  0.45594000000E+02  0.51100000000E-03 0. -1.
         11   -1    0    0    0    0 -0.00000000000E+00 -0.00000000000E+00 -0.45593999997E+02  0.45594000000E+02  0.51100000000E-03 0.  1.
         23    2    1    2    0    0  0.00000000000E+00  0.22204460493E-15  0.00000000000E+00  0.91188000000E+02  0.91188000000E+02 0.  0.
    9900012    2    3    3    0    0  0.13442015875E+02 -0.10063366372E+01 -0.34264842755E+02  0.54367082667E+02  0.39999996557E+02 0.  0.
         12    1    3    3    0    0 -0.13442015875E+02  0.10063366372E+01  0.34264842755E+02  0.36820917333E+02  0.00000000000E+00 0. -1.
         11    1    4    4    0    0 -0.63257872533E+01 -0.21730775490E+01 -0.13808064453E+02  0.15342766850E+02  0.51100000000E-03 0. -1.
        -11    1    4    4    0    0 -0.54866683966E+01  0.36818759677E+00 -0.10525749555E+02  0.11875626137E+02  0.51100000000E-03 0.  1.
         12    1    4    4    0    0  0.25254471525E+02  0.79855331500E+00 -0.99310287470E+01  0.27148689681E+02  0.00000000000E+00 0. -1.
</event>
<event>
 8    1  0.2450026E-006  0.9118800E+02  0.7816164E-02  0.1184000E+00
        -11   -1    0    0    0    0  0.00000000000E+00  0.00000000000E+00  0.45593999997E+02  0.45594000000E+02  0.51100000000E-03 0. -1.
         11   -1    0    0    0    0 -0.00000000000E+00 -0.00000000000E+00 -0.45593999997E+02  0.45594000000E+02  0.51100000000E-03 0.  1.
         23    2    1    2    0    0 -0.17763568394E-14  0.00000000000E+00  0.24424906542E-14  0.91188000000E+02  0.91188000000E+02 0.  0.
    9900012    2    3    3    0    0 -0.79905138671E+01 -0.35937683963E+02  0.64427639800E+00  0.54367074800E+02  0.39999978622E+02 0.  0.
        -12    1    3    3    0    0  0.79905138671E+01  0.35937683963E+02 -0.64427639800E+00  0.36820925200E+02  0.00000000000E+00 0.  1.
         11    1    4    4    0    0  0.38633966445E+01 -0.13050848606E+02  0.37708283531E+01  0.14123371754E+02  0.51100000000E-03 0.  1.
        -11    1    4    4    0    0 -0.23874147693E+01 -0.18888941853E+02  0.11593747498E+02  0.22291407648E+02  0.51100000000E-03 0. -1.
        -12    1    4    4    0    0 -0.94664957423E+01 -0.39978935036E+01 -0.14720299453E+02  0.17952295399E+02  0.00000000000E+00 0.  1.
</event>
<event>
 8    1  0.2450026E-006  0.9118800E+02  0.7816164E-02  0.1184000E+00
        -11   -1    0    0    0    0  0.00000000000E+00  0.00000000000E+00  0.45593999997E+02  0.45594000000E+02  0.51100000000E-03 0.  1.
         11   -1    0    0    0    0 -0.00000000000E+00 -0.00000000000E+00 -0.45593999997E+02  0.45594000000E+02  0.51100000000E-03 0. -1.
         23    2    1    2    0    0  0.00000000000E+00  0.00000000000E+00 -0.53290705182E-14  0.91188000000E+02  0.91188000000E+02 0.  0.
    9900012    2    3    3    0    0 -0.28025639978E+02  0.21421006166E+02  0.10558588435E+02  0.54367084869E+02  0.40000001576E+02 0.  0.
         12    1    3    3    0    0  0.28025639978E+02 -0.21421006166E+02 -0.10558588435E+02  0.36820915131E+02  0.00000000000E+00 0. -1.
         11    1    4    4    0    0 -0.14234751397E+01  0.75406336959E+00 -0.62925063241E+01  0.64954237074E+01  0.51100000000E-03 0. -1.
        -11    1    4    4    0    0 -0.10760615926E+02  0.33432553638E+01 -0.78980064005E+01  0.13760331278E+02  0.51100000000E-03 0.  1.
         12    1    4    4    0    0 -0.15841548913E+02  0.17323687432E+02  0.24749101159E+02  0.34111329883E+02  0.00000000000E+00 0. -1.
</event>
<event>
 8    1  0.2450026E-006  0.9118800E+02  0.7816164E-02  0.1184000E+00
        -11   -1    0    0    0    0  0.00000000000E+00  0.00000000000E+00  0.45593999997E+02  0.45594000000E+02  0.51100000000E-03 0.  1.
         11   -1    0    0    0    0 -0.00000000000E+00 -0.00000000000E+00 -0.45593999997E+02  0.45594000000E+02  0.51100000000E-03 0. -1.
         23    2    1    2    0    0  0.00000000000E+00  0.00000000000E+00 -0.71054273576E-14  0.91188000000E+02  0.91188000000E+02 0.  0.
    9900012    2    3    3    0    0 -0.30500621238E+01  0.43467554586E+01 -0.36436014763E+02  0.54367077499E+02  0.39999984775E+02 0.  0.
        -12    1    3    3    0    0  0.30500621238E+01 -0.43467554586E+01  0.36436014763E+02  0.36820922501E+02  0.00000000000E+00 0.  1.
         11    1    4    4    0    0  0.52335003443E+01  0.10544075940E+02 -0.18147307931E+02  0.21630807860E+02  0.51100000000E-03 0. -1.
        -11    1    4    4    0    0 -0.37953019027E+01  0.94653286480E+01 -0.36452887241E+01  0.10829815007E+02  0.51100000000E-03 0.  1.
        -12    1    4    4    0    0 -0.44882605654E+01 -0.15662649129E+02 -0.14643418108E+02  0.21906454632E+02  0.00000000000E+00 0.  1.
</event>
<event>
 8    1  0.2450026E-006  0.9118800E+02  0.7816164E-02  0.1184000E+00
        -11   -1    0    0    0    0  0.00000000000E+00  0.00000000000E+00  0.45593999997E+02  0.45594000000E+02  0.51100000000E-03 0.  1.
         11   -1    0    0    0    0 -0.00000000000E+00 -0.00000000000E+00 -0.45593999997E+02  0.45594000000E+02  0.51100000000E-03 0. -1.
         23    2    1    2    0    0  0.00000000000E+00  0.35527136788E-14  0.35527136788E-14  0.91188000000E+02  0.91188000000E+02 0.  0.
    9900012    2    3    3    0    0 -0.11027507393E+02  0.26014833175E+02  0.23609325478E+02  0.54367113075E+02  0.40000065876E+02 0.  0.
         12    1    3    3    0    0  0.11027507393E+02 -0.26014833175E+02 -0.23609325478E+02  0.36820886925E+02  0.00000000000E+00 0. -1.
         11    1    4    4    0    0  0.63723384296E+01 -0.38445387766E+01 -0.71075717550E+00  0.74761187450E+01  0.51100000000E-03 0. -1.
        -11    1    4    4    0    0 -0.16487946262E+02  0.82076602398E+01  0.11426603182E+02  0.21674531577E+02  0.51100000000E-03 0.  1.
        -12    1    4    4    0    0 -0.91189956073E+00  0.21651711712E+02  0.12893479472E+02  0.25216462753E+02  0.00000000000E+00 0.  1.
</event>
<event>
 8    1  0.2450026E-006  0.9118800E+02  0.7816164E-02  0.1184000E+00
        -11   -1    0    0    0    0  0.00000000000E+00  0.00000000000E+00  0.45593999997E+02  0.45594000000E+02  0.51100000000E-03 0. -1.
         11   -1    0    0    0    0 -0.00000000000E+00 -0.00000000000E+00 -0.45593999997E+02  0.45594000000E+02  0.51100000000E-03 0.  1.
         23    2    1    2    0    0 -0.71054273576E-14  0.13322676296E-14 -0.35527136788E-14  0.91188000000E+02  0.91188000000E+02 0.  0.
    9900012    2    3    3    0    0  0.28783184441E+02 -0.29852173539E+01  0.22768277838E+02  0.54367113198E+02  0.40000066157E+02 0.  0.
        -12    1    3    3    0    0 -0.28783184441E+02  0.29852173539E+01 -0.22768277838E+02  0.36820886802E+02  0.00000000000E+00 0.  1.
         11    1    4    4    0    0  0.13477716528E+02 -0.10302511340E+02  0.72384185760E+01  0.18444112515E+02  0.51100000000E-03 0. -1.
        -11    1    4    4    0    0  0.63019075141E+01 -0.40286812634E+01  0.19515994981E+02  0.20900200272E+02  0.51100000000E-03 0.  1.
        -12    1    4    4    0    0  0.90035603981E+01  0.11345975250E+02 -0.39861357187E+01  0.15022800411E+02  0.00000000000E+00 0.  1.
</event>
<event>
 8    1  0.2450026E-006  0.9118800E+02  0.7816164E-02  0.1184000E+00
        -11   -1    0    0    0    0  0.00000000000E+00  0.00000000000E+00  0.45593999997E+02  0.45594000000E+02  0.51100000000E-03 0.  1.
         11   -1    0    0    0    0 -0.00000000000E+00 -0.00000000000E+00 -0.45593999997E+02  0.45594000000E+02  0.51100000000E-03 0. -1.
         23    2    1    2    0    0  0.55511151231E-15  0.00000000000E+00  0.00000000000E+00  0.91188000000E+02  0.91188000000E+02 0.  0.
    9900012    2    3    3    0    0 -0.50465411321E+00  0.35757372075E+02 -0.87711652190E+01  0.54367113634E+02  0.40000067151E+02 0.  0.
         12    1    3    3    0    0  0.50465411321E+00 -0.35757372075E+02  0.87711652190E+01  0.36820886366E+02  0.00000000000E+00 0. -1.
         11    1    4    4    0    0 -0.23564849694E+01 -0.17066175681E+01 -0.10372049855E+02  0.10772417714E+02  0.51100000000E-03 0. -1.
        -11    1    4    4    0    0  0.11288083927E+02  0.17715064271E+02 -0.30283851601E+01  0.21222993610E+02  0.51100000000E-03 0.  1.
        -12    1    4    4    0    0 -0.94362530706E+01  0.19748925373E+02  0.46292697965E+01  0.22371702310E+02  0.00000000000E+00 0.  1.
</event>
<event>
 8    1  0.2450026E-006  0.9118800E+02  0.7816164E-02  0.1184000E+00
        -11   -1    0    0    0    0  0.00000000000E+00  0.00000000000E+00  0.45593999997E+02  0.45594000000E+02  0.51100000000E-03 0. -1.
         11   -1    0    0    0    0 -0.00000000000E+00 -0.00000000000E+00 -0.45593999997E+02  0.45594000000E+02  0.51100000000E-03 0.  1.
         23    2    1    2    0    0  0.88817841970E-15  0.00000000000E+00  0.35527136788E-14  0.91188000000E+02  0.91188000000E+02 0.  0.
    9900012    2    3    3    0    0 -0.65422891000E+01 -0.21267049024E+02  0.29337529816E+02  0.54367087782E+02  0.40000008217E+02 0.  0.
        -12    1    3    3    0    0  0.65422891000E+01  0.21267049024E+02 -0.29337529816E+02  0.36820912218E+02  0.00000000000E+00 0.  1.
         11    1    4    4    0    0 -0.14102488271E+02 -0.36485513256E+00  0.16168050997E+02  0.21457380269E+02  0.51100000000E-03 0. -1.
        -11    1    4    4    0    0  0.16006678757E+01 -0.13645635498E+02  0.17762908774E+02  0.22456322810E+02  0.51100000000E-03 0.  1.
        -12    1    4    4    0    0  0.59595312956E+01 -0.72565583936E+01 -0.45934299555E+01  0.10453384703E+02  0.00000000000E+00 0.  1.
</event>
<event>
 8    1  0.2450026E-006  0.9118800E+02  0.7816164E-02  0.1184000E+00
        -11   -1    0    0    0    0  0.00000000000E+00  0.00000000000E+00  0.45593999997E+02  0.45594000000E+02  0.51100000000E-03 0.  1.
         11   -1    0    0    0    0 -0.00000000000E+00 -0.00000000000E+00 -0.45593999997E+02  0.45594000000E+02  0.51100000000E-03 0. -1.
         23    2    1    2    0    0  0.35527136788E-14 -0.44408920985E-15  0.35527136788E-14  0.91188000000E+02  0.91188000000E+02 0.  0.
    9900012    2    3    3    0    0 -0.28206184043E+02 -0.80912263565E+00 -0.23654555280E+02  0.54367061891E+02  0.39999949194E+02 0.  0.
        -12    1    3    3    0    0  0.28206184043E+02  0.80912263565E+00  0.23654555280E+02  0.36820938109E+02  0.00000000000E+00 0.  1.
         11    1    4    4    0    0  0.42091882777E+01 -0.22139848352E+00  0.12100012438E+01  0.43852464602E+01  0.51100000000E-03 0. -1.
        -11    1    4    4    0    0  0.35759298034E+01 -0.54938233167E+01 -0.12975026795E+01  0.66822812017E+01  0.51100000000E-03 0.  1.
         12    1    4    4    0    0 -0.35991302124E+02  0.49060991646E+01 -0.23567053845E+02  0.43299534229E+02  0.00000000000E+00 0. -1.
</event>
<event>
 8    1  0.2450026E-006  0.9118800E+02  0.7816164E-02  0.1184000E+00
        -11   -1    0    0    0    0  0.00000000000E+00  0.00000000000E+00  0.45593999997E+02  0.45594000000E+02  0.51100000000E-03 0. -1.
         11   -1    0    0    0    0 -0.00000000000E+00 -0.00000000000E+00 -0.45593999997E+02  0.45594000000E+02  0.51100000000E-03 0.  1.
         23    2    1    2    0    0  0.00000000000E+00  0.00000000000E+00  0.00000000000E+00  0.91188000000E+02  0.91188000000E+02 0.  0.
    9900012    2    3    3    0    0  0.24538768197E+02 -0.23411653665E+02  0.14336463511E+02  0.54366934589E+02  0.39999658982E+02 0.  0.
        -12    1    3    3    0    0 -0.24538768197E+02  0.23411653665E+02 -0.14336463511E+02  0.36821065411E+02  0.00000000000E+00 0.  1.
         11    1    4    4    0    0  0.29093648910E+02 -0.19498203739E+02  0.77824878842E+01  0.35877395026E+02  0.51100000000E-03 0. -1.
        -11    1    4    4    0    0 -0.82664130729E+01 -0.80769210468E+01  0.55557638465E+01  0.12823289393E+02  0.51100000000E-03 0.  1.
        -12    1    4    4    0    0  0.37115323606E+01  0.41634711203E+01  0.99821177988E+00  0.56662501702E+01  0.00000000000E+00 0.  1.
</event>
<event>
 8    1  0.2450026E-006  0.9118800E+02  0.7816164E-02  0.1184000E+00
        -11   -1    0    0    0    0  0.00000000000E+00  0.00000000000E+00  0.45593999997E+02  0.45594000000E+02  0.51100000000E-03 0. -1.
         11   -1    0    0    0    0 -0.00000000000E+00 -0.00000000000E+00 -0.45593999997E+02  0.45594000000E+02  0.51100000000E-03 0.  1.
         23    2    1    2    0    0  0.00000000000E+00  0.00000000000E+00 -0.71054273576E-14  0.91188000000E+02  0.91188000000E+02 0.  0.
    9900012    2    3    3    0    0 -0.15537992575E+02 -0.10228772205E+02  0.31776127700E+02  0.54367091732E+02  0.40000017221E+02 0.  0.
        -12    1    3    3    0    0  0.15537992575E+02  0.10228772205E+02 -0.31776127700E+02  0.36820908268E+02  0.00000000000E+00 0.  1.
         11    1    4    4    0    0 -0.41855558365E+00  0.75603611607E+01  0.12847241777E+02  0.14912607793E+02  0.51100000000E-03 0. -1.
        -11    1    4    4    0    0  0.51697718846E+01 -0.48072416729E+01  0.12771905490E+02  0.14593069723E+02  0.51100000000E-03 0.  1.
        -12    1    4    4    0    0 -0.20289208876E+02 -0.12981891692E+02  0.61569804335E+01  0.24861414216E+02  0.00000000000E+00 0.  1.
</event>
<event>
 8    1  0.2450026E-006  0.9118800E+02  0.7816164E-02  0.1184000E+00
        -11   -1    0    0    0    0  0.00000000000E+00  0.00000000000E+00  0.45593999997E+02  0.45594000000E+02  0.51100000000E-03 0.  1.
         11   -1    0    0    0    0 -0.00000000000E+00 -0.00000000000E+00 -0.45593999997E+02  0.45594000000E+02  0.51100000000E-03 0. -1.
         23    2    1    2    0    0  0.17763568394E-14  0.00000000000E+00  0.71054273576E-14  0.91188000000E+02  0.91188000000E+02 0.  0.
    9900012    2    3    3    0    0  0.13619888363E+02 -0.56265018751E+01 -0.33743444332E+02  0.54367096729E+02  0.40000028612E+02 0.  0.
        -12    1    3    3    0    0 -0.13619888363E+02  0.56265018751E+01  0.33743444332E+02  0.36820903271E+02  0.00000000000E+00 0.  1.
         11    1    4    4    0    0 -0.88028579636E+01 -0.37456860398E+01 -0.22480514047E+02  0.24431413882E+02  0.51100000000E-03 0. -1.
        -11    1    4    4    0    0  0.17674555205E+02 -0.42651710690E+01 -0.14891294519E+02  0.23501749693E+02  0.51100000000E-03 0.  1.
        -12    1    4    4    0    0  0.47481911215E+01  0.23843552337E+01  0.36283642335E+01  0.64339331531E+01  0.00000000000E+00 0.  1.
</event>
<event>
 8    1  0.2450026E-006  0.9118800E+02  0.7816164E-02  0.1184000E+00
        -11   -1    0    0    0    0  0.00000000000E+00  0.00000000000E+00  0.45593999997E+02  0.45594000000E+02  0.51100000000E-03 0. -1.
         11   -1    0    0    0    0 -0.00000000000E+00 -0.00000000000E+00 -0.45593999997E+02  0.45594000000E+02  0.51100000000E-03 0.  1.
         23    2    1    2    0    0  0.00000000000E+00 -0.45796699766E-15  0.35527136788E-14  0.91188000000E+02  0.91188000000E+02 0.  0.
    9900012    2    3    3    0    0  0.31800816351E+02 -0.10263855350E+00  0.18560117769E+02  0.54367076235E+02  0.39999981893E+02 0.  0.
        -12    1    3    3    0    0 -0.31800816351E+02  0.10263855350E+00 -0.18560117769E+02  0.36820923765E+02  0.00000000000E+00 0.  1.
         11    1    4    4    0    0  0.24441469683E+02 -0.14351816118E+02  0.61978458999E+01  0.29013330732E+02  0.51100000000E-03 0. -1.
        -11    1    4    4    0    0  0.65593057956E+01  0.12190277153E+02  0.15963153127E+02  0.21129354169E+02  0.51100000000E-03 0.  1.
        -12    1    4    4    0    0  0.80004087306E+00  0.20589004117E+01 -0.36008812580E+01  0.42243913335E+01  0.00000000000E+00 0.  1.
</event>
<event>
 8    1  0.2450026E-006  0.9118800E+02  0.7816164E-02  0.1184000E+00
        -11   -1    0    0    0    0  0.00000000000E+00  0.00000000000E+00  0.45593999997E+02  0.45594000000E+02  0.51100000000E-03 0.  1.
         11   -1    0    0    0    0 -0.00000000000E+00 -0.00000000000E+00 -0.45593999997E+02  0.45594000000E+02  0.51100000000E-03 0. -1.
         23    2    1    2    0    0  0.66613381478E-15  0.00000000000E+00  0.35527136788E-14  0.91188000000E+02  0.91188000000E+02 0.  0.
    9900012    2    3    3    0    0  0.18929622028E+01 -0.26098814136E+02 -0.25904603410E+02  0.54367083620E+02  0.39999998730E+02 0.  0.
        -12    1    3    3    0    0 -0.18929622028E+01  0.26098814136E+02  0.25904603410E+02  0.36820916380E+02  0.00000000000E+00 0.  1.
         11    1    4    4    0    0  0.10380639038E+02 -0.16095893740E+01 -0.59463598111E+01  0.12070941970E+02  0.51100000000E-03 0. -1.
        -11    1    4    4    0    0  0.11524053214E+00 -0.23839596311E+02 -0.23021499289E+02  0.33141047998E+02  0.51100000000E-03 0.  1.
        -12    1    4    4    0    0 -0.86029173673E+01 -0.64962845041E+00  0.30632556897E+01  0.91550936517E+01  0.00000000000E+00 0.  1.
</event>
<event>
 8    1  0.2450026E-006  0.9118800E+02  0.7816164E-02  0.1184000E+00
        -11   -1    0    0    0    0  0.00000000000E+00  0.00000000000E+00  0.45593999997E+02  0.45594000000E+02  0.51100000000E-03 0. -1.
         11   -1    0    0    0    0 -0.00000000000E+00 -0.00000000000E+00 -0.45593999997E+02  0.45594000000E+02  0.51100000000E-03 0.  1.
         23    2    1    2    0    0 -0.35527136788E-14  0.00000000000E+00  0.00000000000E+00  0.91188000000E+02  0.91188000000E+02 0.  0.
    9900012    2    3    3    0    0 -0.17401597418E+02 -0.60790427130E+01 -0.31874871050E+02  0.54367112485E+02  0.40000064531E+02 0.  0.
         12    1    3    3    0    0  0.17401597418E+02  0.60790427130E+01  0.31874871050E+02  0.36820887515E+02  0.00000000000E+00 0. -1.
         11    1    4    4    0    0 -0.22369585639E+02 -0.15071778390E+02 -0.27100632641E+02  0.38236123696E+02  0.51100000000E-03 0. -1.
        -11    1    4    4    0    0 -0.18962860173E+01  0.18015276182E+01  0.26498941610E+01  0.37233508758E+01  0.51100000000E-03 0.  1.
        -12    1    4    4    0    0  0.68642742383E+01  0.71912080588E+01 -0.74241325691E+01  0.12407637912E+02  0.00000000000E+00 0.  1.
</event>
<event>
 8    1  0.2450026E-006  0.9118800E+02  0.7816164E-02  0.1184000E+00
        -11   -1    0    0    0    0  0.00000000000E+00  0.00000000000E+00  0.45593999997E+02  0.45594000000E+02  0.51100000000E-03 0.  1.
         11   -1    0    0    0    0 -0.00000000000E+00 -0.00000000000E+00 -0.45593999997E+02  0.45594000000E+02  0.51100000000E-03 0. -1.
         23    2    1    2    0    0 -0.17763568394E-14  0.00000000000E+00  0.00000000000E+00  0.91188000000E+02  0.91188000000E+02 0.  0.
    9900012    2    3    3    0    0 -0.15261932537E+02  0.33466225349E+02 -0.16926940351E+01  0.54367081530E+02  0.39999993964E+02 0.  0.
         12    1    3    3    0    0  0.15261932537E+02 -0.33466225349E+02  0.16926940351E+01  0.36820918470E+02  0.00000000000E+00 0. -1.
         11    1    4    4    0    0  0.90981115435E+01  0.20020664050E+02  0.82869489595E-01  0.21991122988E+02  0.51100000000E-03 0. -1.
        -11    1    4    4    0    0 -0.25836151471E+02  0.14861800387E+02 -0.30570644909E+01  0.29962067305E+02  0.51100000000E-03 0.  1.
        -12    1    4    4    0    0  0.14761073904E+01 -0.14162390878E+01  0.12815009662E+01  0.24138912378E+01  0.00000000000E+00 0.  1.
</event>
<event>
 8    1  0.2450026E-006  0.9118800E+02  0.7816164E-02  0.1184000E+00
        -11   -1    0    0    0    0  0.00000000000E+00  0.00000000000E+00  0.45593999997E+02  0.45594000000E+02  0.51100000000E-03 0. -1.
         11   -1    0    0    0    0 -0.00000000000E+00 -0.00000000000E+00 -0.45593999997E+02  0.45594000000E+02  0.51100000000E-03 0.  1.
         23    2    1    2    0    0  0.44408920985E-15  0.33306690739E-15  0.71054273576E-14  0.91188000000E+02  0.91188000000E+02 0.  0.
    9900012    2    3    3    0    0  0.38574663852E+01 -0.74833014867E+00  0.36610658969E+02  0.54367076667E+02  0.39999982879E+02 0.  0.
        -12    1    3    3    0    0 -0.38574663852E+01  0.74833014867E+00 -0.36610658969E+02  0.36820923333E+02  0.00000000000E+00 0.  1.
         11    1    4    4    0    0  0.28149213835E-01 -0.41633822355E+01  0.44350034432E+02  0.44545034497E+02  0.51100000000E-03 0. -1.
        -11    1    4    4    0    0  0.56679913919E+00  0.44413935553E+00 -0.39216157327E+01  0.39871783566E+01  0.51100000000E-03 0.  1.
         12    1    4    4    0    0  0.32625180322E+01  0.29709127313E+01 -0.38177597299E+01  0.58348638135E+01  0.00000000000E+00 0. -1.
</event>
<event>
 8    1  0.2450026E-006  0.9118800E+02  0.7816164E-02  0.1184000E+00
        -11   -1    0    0    0    0  0.00000000000E+00  0.00000000000E+00  0.45593999997E+02  0.45594000000E+02  0.51100000000E-03 0. -1.
         11   -1    0    0    0    0 -0.00000000000E+00 -0.00000000000E+00 -0.45593999997E+02  0.45594000000E+02  0.51100000000E-03 0.  1.
         23    2    1    2    0    0  0.00000000000E+00  0.35527136788E-14  0.35527136788E-14  0.91188000000E+02  0.91188000000E+02 0.  0.
    9900012    2    3    3    0    0  0.21246652101E+02  0.17179408337E+02  0.24682536388E+02  0.54367083405E+02  0.39999998239E+02 0.  0.
        -12    1    3    3    0    0 -0.21246652101E+02 -0.17179408337E+02 -0.24682536388E+02  0.36820916595E+02  0.00000000000E+00 0.  1.
         11    1    4    4    0    0  0.20315741463E+02  0.85826283018E+01  0.92107174054E+01  0.23900380230E+02  0.51100000000E-03 0. -1.
        -11    1    4    4    0    0 -0.30266964356E+01  0.39325486978E+01 -0.62038696036E+01  0.79444212434E+01  0.51100000000E-03 0.  1.
        -12    1    4    4    0    0  0.39576070741E+01  0.46642313376E+01  0.21675688586E+02  0.22522281932E+02  0.00000000000E+00 0.  1.
</event>
<event>
 8    1  0.2450026E-006  0.9118800E+02  0.7816164E-02  0.1184000E+00
        -11   -1    0    0    0    0  0.00000000000E+00  0.00000000000E+00  0.45593999997E+02  0.45594000000E+02  0.51100000000E-03 0.  1.
         11   -1    0    0    0    0 -0.00000000000E+00 -0.00000000000E+00 -0.45593999997E+02  0.45594000000E+02  0.51100000000E-03 0. -1.
         23    2    1    2    0    0  0.00000000000E+00  0.35527136788E-14  0.17763568394E-14  0.91188000000E+02  0.91188000000E+02 0.  0.
    9900012    2    3    3    0    0 -0.31747791782E+02 -0.16410838971E+02 -0.88623686180E+01  0.54367088872E+02  0.40000010701E+02 0.  0.
        -12    1    3    3    0    0  0.31747791782E+02  0.16410838971E+02  0.88623686180E+01  0.36820911128E+02  0.00000000000E+00 0.  1.
         11    1    4    4    0    0  0.15902294183E+00 -0.24763985669E+01  0.33123313670E+01  0.41387652149E+01  0.51100000000E-03 0. -1.
        -11    1    4    4    0    0 -0.29649579256E+01 -0.11717583053E+01  0.10718117644E+02  0.11182219776E+02  0.51100000000E-03 0.  1.
         12    1    4    4    0    0 -0.28941856799E+02 -0.12762682099E+02 -0.22892817629E+02  0.39046103881E+02  0.00000000000E+00 0. -1.
</event>
<event>
 8    1  0.2450026E-006  0.9118800E+02  0.7816164E-02  0.1184000E+00
        -11   -1    0    0    0    0  0.00000000000E+00  0.00000000000E+00  0.45593999997E+02  0.45594000000E+02  0.51100000000E-03 0.  1.
         11   -1    0    0    0    0 -0.00000000000E+00 -0.00000000000E+00 -0.45593999997E+02  0.45594000000E+02  0.51100000000E-03 0. -1.
         23    2    1    2    0    0 -0.88817841970E-15  0.00000000000E+00 -0.35527136788E-14  0.91188000000E+02  0.91188000000E+02 0.  0.
    9900012    2    3    3    0    0  0.67924751726E+01  0.32014599082E+02  0.16873287944E+02  0.54367080411E+02  0.39999991413E+02 0.  0.
         12    1    3    3    0    0 -0.67924751726E+01 -0.32014599082E+02 -0.16873287944E+02  0.36820919589E+02  0.00000000000E+00 0. -1.
         11    1    4    4    0    0 -0.47484176742E+01  0.22178664657E+01  0.32805771262E+01  0.61829271879E+01  0.51100000000E-03 0. -1.
        -11    1    4    4    0    0 -0.16346825812E+01 -0.44363724696E+01  0.10327186094E+02  0.11358008660E+02  0.51100000000E-03 0.  1.
         12    1    4    4    0    0  0.13175575428E+02  0.34233105086E+02  0.32655247241E+01  0.36826144563E+02  0.00000000000E+00 0. -1.
</event>
<event>
 8    1  0.2450026E-006  0.9118800E+02  0.7816164E-02  0.1184000E+00
        -11   -1    0    0    0    0  0.00000000000E+00  0.00000000000E+00  0.45593999997E+02  0.45594000000E+02  0.51100000000E-03 0. -1.
         11   -1    0    0    0    0 -0.00000000000E+00 -0.00000000000E+00 -0.45593999997E+02  0.45594000000E+02  0.51100000000E-03 0.  1.
         23    2    1    2    0    0 -0.35527136788E-14  0.00000000000E+00 -0.88817841970E-15  0.91188000000E+02  0.91188000000E+02 0.  0.
    9900012    2    3    3    0    0  0.27929800137E+02  0.23764166758E+02 -0.33117904232E+01  0.54367118517E+02  0.40000078282E+02 0.  0.
        -12    1    3    3    0    0 -0.27929800137E+02 -0.23764166758E+02  0.33117904232E+01  0.36820881483E+02  0.00000000000E+00 0.  1.
         11    1    4    4    0    0  0.17350603803E+02  0.22261851423E+02  0.72749753331E+00  0.28234070447E+02  0.51100000000E-03 0. -1.
        -11    1    4    4    0    0  0.15617780624E+02  0.25995842454E+01 -0.96267965550E+01  0.18529655205E+02  0.51100000000E-03 0.  1.
         12    1    4    4    0    0 -0.50385842891E+01 -0.10972689106E+01  0.55875085985E+01  0.76033928637E+01  0.00000000000E+00 0. -1.
</event>
<event>
 8    1  0.2450026E-006  0.9118800E+02  0.7816164E-02  0.1184000E+00
        -11   -1    0    0    0    0  0.00000000000E+00  0.00000000000E+00  0.45593999997E+02  0.45594000000E+02  0.51100000000E-03 0.  1.
         11   -1    0    0    0    0 -0.00000000000E+00 -0.00000000000E+00 -0.45593999997E+02  0.45594000000E+02  0.51100000000E-03 0. -1.
         23    2    1    2    0    0  0.71054273576E-14  0.00000000000E+00 -0.17763568394E-14  0.91188000000E+02  0.91188000000E+02 0.  0.
    9900012    2    3    3    0    0 -0.19351772379E+02 -0.27698447218E+02  0.14631693061E+02  0.54367061469E+02  0.39999948230E+02 0.  0.
         12    1    3    3    0    0  0.19351772379E+02  0.27698447218E+02 -0.14631693061E+02  0.36820938531E+02  0.00000000000E+00 0. -1.
         11    1    4    4    0    0  0.70817702064E+01 -0.18381351203E+00  0.88227954155E+00  0.71388846547E+01  0.51100000000E-03 0.  1.
        -11    1    4    4    0    0  0.41198868335E+01 -0.24149004374E+01 -0.12520642071E+01  0.49368893732E+01  0.51100000000E-03 0. -1.
        -12    1    4    4    0    0 -0.30553429419E+02 -0.25099733269E+02  0.15001477726E+02  0.42291287441E+02  0.00000000000E+00 0.  1.
</event>
<event>
 8    1  0.2450026E-006  0.9118800E+02  0.7816164E-02  0.1184000E+00
        -11   -1    0    0    0    0  0.00000000000E+00  0.00000000000E+00  0.45593999997E+02  0.45594000000E+02  0.51100000000E-03 0.  1.
         11   -1    0    0    0    0 -0.00000000000E+00 -0.00000000000E+00 -0.45593999997E+02  0.45594000000E+02  0.51100000000E-03 0. -1.
         23    2    1    2    0    0  0.00000000000E+00 -0.35527136788E-14  0.35527136788E-14  0.91188000000E+02  0.91188000000E+02 0.  0.
    9900012    2    3    3    0    0 -0.14357923760E+02  0.22188312873E+02  0.25638012979E+02  0.54367096802E+02  0.40000028779E+02 0.  0.
         12    1    3    3    0    0  0.14357923760E+02 -0.22188312873E+02 -0.25638012979E+02  0.36820903198E+02  0.00000000000E+00 0. -1.
         11    1    4    4    0    0 -0.72417272047E+01  0.88872671986E+01 -0.62332873303E+01  0.13049137993E+02  0.51100000000E-03 0. -1.
        -11    1    4    4    0    0  0.61030385136E+01  0.68975069225E+00  0.23008343932E+01  0.65587098031E+01  0.51100000000E-03 0.  1.
         12    1    4    4    0    0 -0.13219235069E+02  0.12611294982E+02  0.29570465916E+02  0.34759249005E+02  0.00000000000E+00 0. -1.
</event>
<event>
 8    1  0.2450026E-006  0.9118800E+02  0.7816164E-02  0.1184000E+00
        -11   -1    0    0    0    0  0.00000000000E+00  0.00000000000E+00  0.45593999997E+02  0.45594000000E+02  0.51100000000E-03 0. -1.
         11   -1    0    0    0    0 -0.00000000000E+00 -0.00000000000E+00 -0.45593999997E+02  0.45594000000E+02  0.51100000000E-03 0.  1.
         23    2    1    2    0    0 -0.26645352591E-14 -0.44408920985E-15  0.00000000000E+00  0.91188000000E+02  0.91188000000E+02 0.  0.
    9900012    2    3    3    0    0 -0.41207505997E+01  0.27688128620E+01  0.36484702667E+02  0.54367076072E+02  0.39999981522E+02 0.  0.
        -12    1    3    3    0    0  0.41207505997E+01 -0.27688128620E+01 -0.36484702667E+02  0.36820923928E+02  0.00000000000E+00 0.  1.
         11    1    4    4    0    0  0.58371497167E+00 -0.29182067698E+01  0.28356530847E+02  0.28512269217E+02  0.51100000000E-03 0. -1.
        -11    1    4    4    0    0  0.91772240337E+01  0.43866614457E+01  0.10707920167E+01  0.10227943850E+02  0.51100000000E-03 0.  1.
        -12    1    4    4    0    0 -0.13881689605E+02  0.13003581862E+01  0.70573798030E+01  0.15626863005E+02  0.00000000000E+00 0.  1.
</event>
<event>
 8    1  0.2450026E-006  0.9118800E+02  0.7816164E-02  0.1184000E+00
        -11   -1    0    0    0    0  0.00000000000E+00  0.00000000000E+00  0.45593999997E+02  0.45594000000E+02  0.51100000000E-03 0.  1.
         11   -1    0    0    0    0 -0.00000000000E+00 -0.00000000000E+00 -0.45593999997E+02  0.45594000000E+02  0.51100000000E-03 0. -1.
         23    2    1    2    0    0  0.00000000000E+00 -0.35527136788E-14  0.00000000000E+00  0.91188000000E+02  0.91188000000E+02 0.  0.
    9900012    2    3    3    0    0  0.23777507923E+02  0.23919369855E+02  0.14774097644E+02  0.54367080695E+02  0.39999992060E+02 0.  0.
         12    1    3    3    0    0 -0.23777507923E+02 -0.23919369855E+02 -0.14774097644E+02  0.36820919305E+02  0.00000000000E+00 0. -1.
         11    1    4    4    0    0  0.16968819752E+02  0.75645784881E+01  0.64528067016E+01  0.19667292800E+02  0.51100000000E-03 0. -1.
        -11    1    4    4    0    0  0.11647934923E+02  0.18896210429E+01  0.14102127107E+02  0.18387904852E+02  0.51100000000E-03 0.  1.
         12    1    4    4    0    0 -0.48392467517E+01  0.14465170324E+02 -0.57808361649E+01  0.16311883043E+02  0.00000000000E+00 0. -1.
</event>
<event>
 8    1  0.2450026E-006  0.9118800E+02  0.7816164E-02  0.1184000E+00
        -11   -1    0    0    0    0  0.00000000000E+00  0.00000000000E+00  0.45593999997E+02  0.45594000000E+02  0.51100000000E-03 0.  1.
         11   -1    0    0    0    0 -0.00000000000E+00 -0.00000000000E+00 -0.45593999997E+02  0.45594000000E+02  0.51100000000E-03 0. -1.
         23    2    1    2    0    0 -0.55511151231E-16  0.00000000000E+00 -0.55511151231E-15  0.91188000000E+02  0.91188000000E+02 0.  0.
    9900012    2    3    3    0    0 -0.37884045455E+00 -0.36807735514E+02 -0.90952262233E+00  0.54367080061E+02  0.39999990615E+02 0.  0.
         12    1    3    3    0    0  0.37884045455E+00  0.36807735514E+02  0.90952262233E+00  0.36820919939E+02  0.00000000000E+00 0. -1.
         11    1    4    4    0    0 -0.47022680885E+01 -0.14196429600E+02 -0.11419503368E+02  0.18816349167E+02  0.51100000000E-03 0. -1.
        -11    1    4    4    0    0 -0.36348707217E+01  0.20952188973E+01 -0.40144501893E+01  0.58067235146E+01  0.51100000000E-03 0.  1.
        -12    1    4    4    0    0  0.79582983557E+01 -0.24706524812E+02  0.14524430935E+02  0.29744007379E+02  0.00000000000E+00 0.  1.
</event>
<event>
 8    1  0.2450026E-006  0.9118800E+02  0.7816164E-02  0.1184000E+00
        -11   -1    0    0    0    0  0.00000000000E+00  0.00000000000E+00  0.45593999997E+02  0.45594000000E+02  0.51100000000E-03 0.  1.
         11   -1    0    0    0    0 -0.00000000000E+00 -0.00000000000E+00 -0.45593999997E+02  0.45594000000E+02  0.51100000000E-03 0. -1.
         23    2    1    2    0    0  0.00000000000E+00  0.00000000000E+00  0.00000000000E+00  0.91188000000E+02  0.91188000000E+02 0.  0.
    9900012    2    3    3    0    0 -0.10627983231E+02  0.32679845733E+02 -0.13223215071E+02  0.54367085270E+02  0.40000002491E+02 0.  0.
        -12    1    3    3    0    0  0.10627983231E+02 -0.32679845733E+02  0.13223215071E+02  0.36820914730E+02  0.00000000000E+00 0.  1.
         11    1    4    4    0    0 -0.62179423589E+01  0.32719228702E+01 -0.75894416378E+01  0.10342529240E+02  0.51100000000E-03 0. -1.
        -11    1    4    4    0    0  0.97719143835E+01  0.44823567345E+01  0.68497311467E+01  0.12747574266E+02  0.51100000000E-03 0.  1.
        -12    1    4    4    0    0 -0.14181955256E+02  0.24925566129E+02 -0.12483504580E+02  0.31276981765E+02  0.00000000000E+00 0.  1.
</event>
<event>
 8    1  0.2450026E-006  0.9118800E+02  0.7816164E-02  0.1184000E+00
        -11   -1    0    0    0    0  0.00000000000E+00  0.00000000000E+00  0.45593999997E+02  0.45594000000E+02  0.51100000000E-03 0. -1.
         11   -1    0    0    0    0 -0.00000000000E+00 -0.00000000000E+00 -0.45593999997E+02  0.45594000000E+02  0.51100000000E-03 0.  1.
         23    2    1    2    0    0  0.00000000000E+00  0.00000000000E+00  0.00000000000E+00  0.91188000000E+02  0.91188000000E+02 0.  0.
    9900012    2    3    3    0    0 -0.14564774692E+02  0.26256765140E+02  0.21312660169E+02  0.54367083921E+02  0.39999999414E+02 0.  0.
        -12    1    3    3    0    0  0.14564774692E+02 -0.26256765140E+02 -0.21312660169E+02  0.36820916079E+02  0.00000000000E+00 0.  1.
         11    1    4    4    0    0 -0.25269677556E+01  0.22844079254E+02 -0.36142086121E+00  0.22986259990E+02  0.51100000000E-03 0.  1.
        -11    1    4    4    0    0 -0.12874242301E+02 -0.52654191687E+01  0.12147365455E+02  0.18466977057E+02  0.51100000000E-03 0. -1.
         12    1    4    4    0    0  0.83643536477E+00  0.86781050544E+01  0.95267155750E+01  0.12913846875E+02  0.00000000000E+00 0. -1.
</event>
<event>
 8    1  0.2450026E-006  0.9118800E+02  0.7816164E-02  0.1184000E+00
        -11   -1    0    0    0    0  0.00000000000E+00  0.00000000000E+00  0.45593999997E+02  0.45594000000E+02  0.51100000000E-03 0.  1.
         11   -1    0    0    0    0 -0.00000000000E+00 -0.00000000000E+00 -0.45593999997E+02  0.45594000000E+02  0.51100000000E-03 0. -1.
         23    2    1    2    0    0  0.00000000000E+00  0.35527136788E-14  0.00000000000E+00  0.91188000000E+02  0.91188000000E+02 0.  0.
    9900012    2    3    3    0    0  0.20877485565E+02 -0.29861249447E+02  0.53118936555E+01  0.54367084255E+02  0.40000000176E+02 0.  0.
        -12    1    3    3    0    0 -0.20877485565E+02  0.29861249447E+02 -0.53118936555E+01  0.36820915745E+02  0.00000000000E+00 0.  1.
         11    1    4    4    0    0  0.52614348093E+01 -0.74715574647E+01 -0.53424913656E+01  0.10585323871E+02  0.51100000000E-03 0. -1.
        -11    1    4    4    0    0  0.18634486130E+02 -0.16140601562E+02 -0.63144116554E+01  0.25448671614E+02  0.51100000000E-03 0.  1.
        -12    1    4    4    0    0 -0.30184353741E+01 -0.62490904206E+01  0.16968796676E+02  0.18333088770E+02  0.00000000000E+00 0.  1.
</event>
<event>
 8    1  0.2450026E-006  0.9118800E+02  0.7816164E-02  0.1184000E+00
        -11   -1    0    0    0    0  0.00000000000E+00  0.00000000000E+00  0.45593999997E+02  0.45594000000E+02  0.51100000000E-03 0.  1.
         11   -1    0    0    0    0 -0.00000000000E+00 -0.00000000000E+00 -0.45593999997E+02  0.45594000000E+02  0.51100000000E-03 0. -1.
         23    2    1    2    0    0  0.00000000000E+00  0.00000000000E+00 -0.16653345369E-15  0.91188000000E+02  0.91188000000E+02 0.  0.
    9900012    2    3    3    0    0  0.31986434593E+02 -0.18233829101E+02  0.41548936226E+00  0.54367120691E+02  0.40000083240E+02 0.  0.
         12    1    3    3    0    0 -0.31986434593E+02  0.18233829101E+02 -0.41548936226E+00  0.36820879309E+02  0.00000000000E+00 0. -1.
         11    1    4    4    0    0 -0.83805445726E+01  0.16293678181E+00  0.13762689130E+01  0.84943623722E+01  0.51100000000E-03 0. -1.
        -11    1    4    4    0    0  0.18705564167E+02 -0.10843722995E+02 -0.58887147602E+01  0.22408958499E+02  0.51100000000E-03 0.  1.
         12    1    4    4    0    0  0.21661414998E+02 -0.75530428883E+01  0.49279352095E+01  0.23463799821E+02  0.00000000000E+00 0. -1.
</event>
<event>
 8    1  0.2450026E-006  0.9118800E+02  0.7816164E-02  0.1184000E+00
        -11   -1    0    0    0    0  0.00000000000E+00  0.00000000000E+00  0.45593999997E+02  0.45594000000E+02  0.51100000000E-03 0. -1.
         11   -1    0    0    0    0 -0.00000000000E+00 -0.00000000000E+00 -0.45593999997E+02  0.45594000000E+02  0.51100000000E-03 0.  1.
         23    2    1    2    0    0  0.35527136788E-14 -0.35527136788E-14  0.00000000000E+00  0.91188000000E+02  0.91188000000E+02 0.  0.
    9900012    2    3    3    0    0 -0.19695148928E+02  0.16481689978E+02  0.26386279839E+02  0.54367071718E+02  0.39999971595E+02 0.  0.
        -12    1    3    3    0    0  0.19695148928E+02 -0.16481689978E+02 -0.26386279839E+02  0.36820928282E+02  0.00000000000E+00 0.  1.
         11    1    4    4    0    0 -0.32819762219E+01  0.20205140183E+02  0.88138828215E+01  0.22286847879E+02  0.51100000000E-03 0. -1.
        -11    1    4    4    0    0  0.39462816267E+01  0.29091125063E+01  0.99997250962E+00  0.50036006568E+01  0.51100000000E-03 0.  1.
         12    1    4    4    0    0 -0.20359454333E+02 -0.66325627113E+01  0.16572424508E+02  0.27076623182E+02  0.00000000000E+00 0. -1.
</event>
<event>
 8    1  0.2450026E-006  0.9118800E+02  0.7816164E-02  0.1184000E+00
        -11   -1    0    0    0    0  0.00000000000E+00  0.00000000000E+00  0.45593999997E+02  0.45594000000E+02  0.51100000000E-03 0. -1.
         11   -1    0    0    0    0 -0.00000000000E+00 -0.00000000000E+00 -0.45593999997E+02  0.45594000000E+02  0.51100000000E-03 0.  1.
         23    2    1    2    0    0  0.71054273576E-14 -0.71054273576E-14 -0.13322676296E-14  0.91188000000E+02  0.91188000000E+02 0.  0.
    9900012    2    3    3    0    0 -0.23570336312E+02  0.28043521359E+02  0.37120791531E+01  0.54367090510E+02  0.40000014435E+02 0.  0.
         12    1    3    3    0    0  0.23570336312E+02 -0.28043521359E+02 -0.37120791531E+01  0.36820909490E+02  0.00000000000E+00 0. -1.
         11    1    4    4    0    0 -0.14746308664E+02  0.30089354794E+01  0.10369042058E+02  0.18276332931E+02  0.51100000000E-03 0. -1.
        -11    1    4    4    0    0 -0.31798948538E+01  0.23275906921E+01  0.76925058167E+01  0.86431507977E+01  0.51100000000E-03 0.  1.
        -12    1    4    4    0    0 -0.56441327938E+01  0.22706995187E+02 -0.14349468721E+02  0.27447606781E+02  0.00000000000E+00 0.  1.
</event>
<event>
 8    1  0.2450026E-006  0.9118800E+02  0.7816164E-02  0.1184000E+00
        -11   -1    0    0    0    0  0.00000000000E+00  0.00000000000E+00  0.45593999997E+02  0.45594000000E+02  0.51100000000E-03 0.  1.
         11   -1    0    0    0    0 -0.00000000000E+00 -0.00000000000E+00 -0.45593999997E+02  0.45594000000E+02  0.51100000000E-03 0. -1.
         23    2    1    2    0    0 -0.17763568394E-14 -0.35527136788E-14  0.00000000000E+00  0.91188000000E+02  0.91188000000E+02 0.  0.
    9900012    2    3    3    0    0  0.11245145218E+02 -0.26444038942E+02  0.23022548498E+02  0.54367106123E+02  0.40000050029E+02 0.  0.
         12    1    3    3    0    0 -0.11245145218E+02  0.26444038942E+02 -0.23022548498E+02  0.36820893877E+02  0.00000000000E+00 0. -1.
         11    1    4    4    0    0 -0.13830070884E+02 -0.41730159967E+01  0.93924632089E+01  0.17230881827E+02  0.51100000000E-03 0. -1.
        -11    1    4    4    0    0  0.32757673044E+00 -0.87954499593E+00 -0.93844225283E+00  0.13272452815E+01  0.51100000000E-03 0.  1.
        -12    1    4    4    0    0  0.24747639371E+02 -0.21391477950E+02  0.14568527542E+02  0.35808979014E+02  0.00000000000E+00 0.  1.
</event>
<event>
 8    1  0.2450026E-006  0.9118800E+02  0.7816164E-02  0.1184000E+00
        -11   -1    0    0    0    0  0.00000000000E+00  0.00000000000E+00  0.45593999997E+02  0.45594000000E+02  0.51100000000E-03 0.  1.
         11   -1    0    0    0    0 -0.00000000000E+00 -0.00000000000E+00 -0.45593999997E+02  0.45594000000E+02  0.51100000000E-03 0. -1.
         23    2    1    2    0    0 -0.13877787808E-15  0.00000000000E+00  0.00000000000E+00  0.91188000000E+02  0.91188000000E+02 0.  0.
    9900012    2    3    3    0    0  0.16831869722E+00 -0.29969812884E+02  0.21390679135E+02  0.54367093312E+02  0.40000020824E+02 0.  0.
         12    1    3    3    0    0 -0.16831869722E+00  0.29969812884E+02 -0.21390679135E+02  0.36820906688E+02  0.00000000000E+00 0. -1.
         11    1    4    4    0    0 -0.46549828384E+01 -0.19522146778E+02  0.12852900178E+01  0.20110570622E+02  0.51100000000E-03 0. -1.
        -11    1    4    4    0    0  0.94720005880E+01 -0.27928095731E+00  0.21001142493E+02  0.23040068995E+02  0.51100000000E-03 0.  1.
        -12    1    4    4    0    0 -0.46486990524E+01 -0.10168385148E+02 -0.89575337643E+00  0.11216453696E+02  0.00000000000E+00 0.  1.
</event>
<event>
 8    1  0.2450026E-006  0.9118800E+02  0.7816164E-02  0.1184000E+00
        -11   -1    0    0    0    0  0.00000000000E+00  0.00000000000E+00  0.45593999997E+02  0.45594000000E+02  0.51100000000E-03 0.  1.
         11   -1    0    0    0    0 -0.00000000000E+00 -0.00000000000E+00 -0.45593999997E+02  0.45594000000E+02  0.51100000000E-03 0. -1.
         23    2    1    2    0    0  0.00000000000E+00  0.00000000000E+00  0.00000000000E+00  0.91188000000E+02  0.91188000000E+02 0.  0.
    9900012    2    3    3    0    0  0.20129545239E+02 -0.26215403153E+02 -0.16227515858E+02  0.54367106136E+02  0.40000050059E+02 0.  0.
        -12    1    3    3    0    0 -0.20129545239E+02  0.26215403153E+02  0.16227515858E+02  0.36820893864E+02  0.00000000000E+00 0.  1.
         11    1    4    4    0    0 -0.90252826657E+00 -0.47208427258E+01  0.59467800094E+01  0.76462478416E+01  0.51100000000E-03 0. -1.
        -11    1    4    4    0    0 -0.61323767528E+01  0.47439341642E+00 -0.40360493217E+01  0.73566832296E+01  0.51100000000E-03 0.  1.
         12    1    4    4    0    0  0.27164450259E+02 -0.21968953843E+02 -0.18138246546E+02  0.39364175065E+02  0.00000000000E+00 0. -1.
</event>
<event>
 8    1  0.2450026E-006  0.9118800E+02  0.7816164E-02  0.1184000E+00
        -11   -1    0    0    0    0  0.00000000000E+00  0.00000000000E+00  0.45593999997E+02  0.45594000000E+02  0.51100000000E-03 0.  1.
         11   -1    0    0    0    0 -0.00000000000E+00 -0.00000000000E+00 -0.45593999997E+02  0.45594000000E+02  0.51100000000E-03 0. -1.
         23    2    1    2    0    0  0.17763568394E-14  0.00000000000E+00  0.00000000000E+00  0.91188000000E+02  0.91188000000E+02 0.  0.
    9900012    2    3    3    0    0 -0.15931853873E+02  0.29378145527E+02  0.15455779071E+02  0.54367075119E+02  0.39999979349E+02 0.  0.
         12    1    3    3    0    0  0.15931853873E+02 -0.29378145527E+02 -0.15455779071E+02  0.36820924881E+02  0.00000000000E+00 0. -1.
         11    1    4    4    0    0  0.87813627665E+01 -0.58745126304E+00 -0.32060053785E+01  0.93667444596E+01  0.51100000000E-03 0. -1.
        -11    1    4    4    0    0 -0.15629379639E+02  0.11780249713E+02  0.14221792646E+02  0.24193205193E+02  0.51100000000E-03 0.  1.
        -12    1    4    4    0    0 -0.90838370002E+01  0.18185347077E+02  0.44399918033E+01  0.20807125466E+02  0.00000000000E+00 0.  1.
</event>
<event>
 8    1  0.2450026E-006  0.9118800E+02  0.7816164E-02  0.1184000E+00
        -11   -1    0    0    0    0  0.00000000000E+00  0.00000000000E+00  0.45593999997E+02  0.45594000000E+02  0.51100000000E-03 0.  1.
         11   -1    0    0    0    0 -0.00000000000E+00 -0.00000000000E+00 -0.45593999997E+02  0.45594000000E+02  0.51100000000E-03 0. -1.
         23    2    1    2    0    0  0.00000000000E+00 -0.35527136788E-14  0.00000000000E+00  0.91188000000E+02  0.91188000000E+02 0.  0.
    9900012    2    3    3    0    0 -0.75809468182E+01 -0.22906314800E+02  0.27813834487E+02  0.54367090162E+02  0.40000013643E+02 0.  0.
         12    1    3    3    0    0  0.75809468182E+01  0.22906314800E+02 -0.27813834487E+02  0.36820909838E+02  0.00000000000E+00 0. -1.
         11    1    4    4    0    0  0.82786404583E+00 -0.13725229219E+02 -0.23189075054E+01  0.13944339650E+02  0.51100000000E-03 0. -1.
        -11    1    4    4    0    0 -0.29486631337E+00  0.68660268280E+01  0.16447681745E+02  0.17825697899E+02  0.51100000000E-03 0.  1.
        -12    1    4    4    0    0 -0.81139445506E+01 -0.16047112409E+02  0.13685060248E+02  0.22597052614E+02  0.00000000000E+00 0.  1.
</event>
<event>
 8    1  0.2450026E-006  0.9118800E+02  0.7816164E-02  0.1184000E+00
        -11   -1    0    0    0    0  0.00000000000E+00  0.00000000000E+00  0.45593999997E+02  0.45594000000E+02  0.51100000000E-03 0.  1.
         11   -1    0    0    0    0 -0.00000000000E+00 -0.00000000000E+00 -0.45593999997E+02  0.45594000000E+02  0.51100000000E-03 0. -1.
         23    2    1    2    0    0  0.88817841970E-15  0.17763568394E-14  0.71054273576E-14  0.91188000000E+02  0.91188000000E+02 0.  0.
    9900012    2    3    3    0    0 -0.22075886008E+01  0.13800849699E+02 -0.34065277631E+02  0.54367081489E+02  0.39999993872E+02 0.  0.
        -12    1    3    3    0    0  0.22075886008E+01 -0.13800849699E+02  0.34065277631E+02  0.36820918511E+02  0.00000000000E+00 0.  1.
         11    1    4    4    0    0 -0.40372650105E+01  0.13598508444E+02 -0.54251558484E+01  0.15187207015E+02  0.51100000000E-03 0. -1.
        -11    1    4    4    0    0  0.93740107604E+01  0.78064396114E+00  0.15448334818E+00  0.94077281049E+01  0.51100000000E-03 0.  1.
        -12    1    4    4    0    0 -0.75443343507E+01 -0.57830270565E+00 -0.28794605131E+02  0.29772146370E+02  0.00000000000E+00 0.  1.
</event>
<event>
 8    1  0.2450026E-006  0.9118800E+02  0.7816164E-02  0.1184000E+00
        -11   -1    0    0    0    0  0.00000000000E+00  0.00000000000E+00  0.45593999997E+02  0.45594000000E+02  0.51100000000E-03 0. -1.
         11   -1    0    0    0    0 -0.00000000000E+00 -0.00000000000E+00 -0.45593999997E+02  0.45594000000E+02  0.51100000000E-03 0.  1.
         23    2    1    2    0    0  0.71054273576E-14 -0.11657341759E-14  0.00000000000E+00  0.91188000000E+02  0.91188000000E+02 0.  0.
    9900012    2    3    3    0    0  0.36374959605E+02 -0.35038522172E+00  0.57026469817E+01  0.54367073360E+02  0.39999975338E+02 0.  0.
         12    1    3    3    0    0 -0.36374959605E+02  0.35038522172E+00 -0.57026469817E+01  0.36820926640E+02  0.00000000000E+00 0. -1.
         11    1    4    4    0    0  0.30917224397E+01 -0.11902439517E+02 -0.57172888259E+01  0.13561497185E+02  0.51100000000E-03 0. -1.
        -11    1    4    4    0    0  0.35254737112E+02  0.10477499209E+02  0.11568845587E+02  0.38555319568E+02  0.51100000000E-03 0.  1.
         12    1    4    4    0    0 -0.19714999471E+01  0.10745550867E+01 -0.14890977945E+00  0.22502566072E+01  0.00000000000E+00 0. -1.
</event>
<event>
 8    1  0.2450026E-006  0.9118800E+02  0.7816164E-02  0.1184000E+00
        -11   -1    0    0    0    0  0.00000000000E+00  0.00000000000E+00  0.45593999997E+02  0.45594000000E+02  0.51100000000E-03 0.  1.
         11   -1    0    0    0    0 -0.00000000000E+00 -0.00000000000E+00 -0.45593999997E+02  0.45594000000E+02  0.51100000000E-03 0. -1.
         23    2    1    2    0    0 -0.35527136788E-14  0.00000000000E+00  0.00000000000E+00  0.91188000000E+02  0.91188000000E+02 0.  0.
    9900012    2    3    3    0    0 -0.30054918678E+02  0.14951328547E+02 -0.15130686442E+02  0.54367108725E+02  0.40000055960E+02 0.  0.
        -12    1    3    3    0    0  0.30054918678E+02 -0.14951328547E+02  0.15130686442E+02  0.36820891275E+02  0.00000000000E+00 0.  1.
         11    1    4    4    0    0 -0.12087683606E+02  0.25880139533E+02 -0.25370046002E+01  0.28676298747E+02  0.51100000000E-03 0. -1.
        -11    1    4    4    0    0 -0.14682538720E+02 -0.55423375419E+01 -0.11056036493E+02  0.19197145410E+02  0.51100000000E-03 0.  1.
         12    1    4    4    0    0 -0.32846963530E+01 -0.53864734447E+01 -0.15376453488E+01  0.64936645679E+01  0.00000000000E+00 0. -1.
</event>
<event>
 8    1  0.2450026E-006  0.9118800E+02  0.7816164E-02  0.1184000E+00
        -11   -1    0    0    0    0  0.00000000000E+00  0.00000000000E+00  0.45593999997E+02  0.45594000000E+02  0.51100000000E-03 0. -1.
         11   -1    0    0    0    0 -0.00000000000E+00 -0.00000000000E+00 -0.45593999997E+02  0.45594000000E+02  0.51100000000E-03 0.  1.
         23    2    1    2    0    0 -0.17763568394E-14  0.00000000000E+00  0.00000000000E+00  0.91188000000E+02  0.91188000000E+02 0.  0.
    9900012    2    3    3    0    0 -0.11668428379E+02  0.33591729879E+02 -0.95510400333E+01  0.54367096931E+02  0.40000029073E+02 0.  0.
         12    1    3    3    0    0  0.11668428379E+02 -0.33591729879E+02  0.95510400333E+01  0.36820903069E+02  0.00000000000E+00 0. -1.
         11    1    4    4    0    0 -0.49988901378E+01  0.13493463333E+02 -0.85442912971E+01  0.16735213454E+02  0.51100000000E-03 0. -1.
        -11    1    4    4    0    0  0.27192667209E+01  0.26250258881E+02 -0.91873684747E+00  0.26406714685E+02  0.51100000000E-03 0.  1.
         12    1    4    4    0    0 -0.93888049623E+01 -0.61519923343E+01 -0.88011888797E-01  0.11225168791E+02  0.00000000000E+00 0. -1.
</event>
<event>
 8    1  0.2450026E-006  0.9118800E+02  0.7816164E-02  0.1184000E+00
        -11   -1    0    0    0    0  0.00000000000E+00  0.00000000000E+00  0.45593999997E+02  0.45594000000E+02  0.51100000000E-03 0.  1.
         11   -1    0    0    0    0 -0.00000000000E+00 -0.00000000000E+00 -0.45593999997E+02  0.45594000000E+02  0.51100000000E-03 0. -1.
         23    2    1    2    0    0  0.00000000000E+00  0.00000000000E+00 -0.88817841970E-15  0.91188000000E+02  0.91188000000E+02 0.  0.
    9900012    2    3    3    0    0 -0.27612899733E+02 -0.23392015182E+02  0.67912137463E+01  0.54367093030E+02  0.40000020180E+02 0.  0.
        -12    1    3    3    0    0  0.27612899733E+02  0.23392015182E+02 -0.67912137463E+01  0.36820906970E+02  0.00000000000E+00 0.  1.
         11    1    4    4    0    0 -0.95598365744E+01 -0.64720977211E+01  0.19309338381E+02  0.22497312577E+02  0.51100000000E-03 0.  1.
        -11    1    4    4    0    0 -0.26291663190E+01 -0.13071618701E+02 -0.45541706924E+01  0.14089719725E+02  0.51100000000E-03 0. -1.
        -12    1    4    4    0    0 -0.15423896840E+02 -0.38482987606E+01 -0.79639539420E+01  0.17780060727E+02  0.00000000000E+00 0.  1.
</event>
<event>
 8    1  0.2450026E-006  0.9118800E+02  0.7816164E-02  0.1184000E+00
        -11   -1    0    0    0    0  0.00000000000E+00  0.00000000000E+00  0.45593999997E+02  0.45594000000E+02  0.51100000000E-03 0.  1.
         11   -1    0    0    0    0 -0.00000000000E+00 -0.00000000000E+00 -0.45593999997E+02  0.45594000000E+02  0.51100000000E-03 0. -1.
         23    2    1    2    0    0  0.00000000000E+00  0.00000000000E+00  0.00000000000E+00  0.91188000000E+02  0.91188000000E+02 0.  0.
    9900012    2    3    3    0    0  0.30965792301E+02 -0.19800532329E+02 -0.21996533685E+01  0.54367084092E+02  0.39999999804E+02 0.  0.
        -12    1    3    3    0    0 -0.30965792301E+02  0.19800532329E+02  0.21996533685E+01  0.36820915908E+02  0.00000000000E+00 0.  1.
         11    1    4    4    0    0  0.36826668053E+02 -0.18545923844E+02  0.15677035087E+01  0.41262724893E+02  0.51100000000E-03 0. -1.
        -11    1    4    4    0    0 -0.41978530100E+01  0.44322247982E+01 -0.40628045949E-01  0.61047716955E+01  0.51100000000E-03 0.  1.
         12    1    4    4    0    0 -0.16630227412E+01 -0.56868332836E+01 -0.37267288313E+01  0.69995875032E+01  0.00000000000E+00 0. -1.
</event>
<event>
 8    1  0.2450026E-006  0.9118800E+02  0.7816164E-02  0.1184000E+00
        -11   -1    0    0    0    0  0.00000000000E+00  0.00000000000E+00  0.45593999997E+02  0.45594000000E+02  0.51100000000E-03 0. -1.
         11   -1    0    0    0    0 -0.00000000000E+00 -0.00000000000E+00 -0.45593999997E+02  0.45594000000E+02  0.51100000000E-03 0.  1.
         23    2    1    2    0    0  0.71054273576E-14 -0.11102230246E-14  0.00000000000E+00  0.91188000000E+02  0.91188000000E+02 0.  0.
    9900012    2    3    3    0    0 -0.33100304496E+02 -0.19449012586E+01  0.16011390106E+02  0.54367117179E+02  0.40000075232E+02 0.  0.
        -12    1    3    3    0    0  0.33100304496E+02  0.19449012586E+01 -0.16011390106E+02  0.36820882821E+02  0.00000000000E+00 0.  1.
         11    1    4    4    0    0 -0.10685625997E+02 -0.17554672655E+02  0.16809760822E+00  0.20551822110E+02  0.51100000000E-03 0. -1.
        -11    1    4    4    0    0  0.13121265104E+01  0.16607447574E+00  0.17429569158E+01  0.21879569883E+01  0.51100000000E-03 0.  1.
        -12    1    4    4    0    0 -0.23726805009E+02  0.15443696921E+02  0.14100335582E+02  0.31627338080E+02  0.00000000000E+00 0.  1.
</event>
<event>
 8    1  0.2450026E-006  0.9118800E+02  0.7816164E-02  0.1184000E+00
        -11   -1    0    0    0    0  0.00000000000E+00  0.00000000000E+00  0.45593999997E+02  0.45594000000E+02  0.51100000000E-03 0. -1.
         11   -1    0    0    0    0 -0.00000000000E+00 -0.00000000000E+00 -0.45593999997E+02  0.45594000000E+02  0.51100000000E-03 0.  1.
         23    2    1    2    0    0  0.00000000000E+00  0.00000000000E+00  0.22204460493E-14  0.91188000000E+02  0.91188000000E+02 0.  0.
    9900012    2    3    3    0    0  0.33772853004E+02 -0.14434321208E+02  0.26123557934E+01  0.54367087035E+02  0.40000006514E+02 0.  0.
        -12    1    3    3    0    0 -0.33772853004E+02  0.14434321208E+02 -0.26123557934E+01  0.36820912965E+02  0.00000000000E+00 0.  1.
         11    1    4    4    0    0  0.24697249829E+02 -0.96720904568E+00  0.17373195998E+02  0.30211216160E+02  0.51100000000E-03 0. -1.
        -11    1    4    4    0    0 -0.21620884804E+01 -0.26145701480E+01 -0.36625577975E+01  0.49924877103E+01  0.51100000000E-03 0.  1.
         12    1    4    4    0    0  0.11237691656E+02 -0.10852542014E+02 -0.11098282407E+02  0.19163383165E+02  0.00000000000E+00 0. -1.
</event>
<event>
 8    1  0.2450026E-006  0.9118800E+02  0.7816164E-02  0.1184000E+00
        -11   -1    0    0    0    0  0.00000000000E+00  0.00000000000E+00  0.45593999997E+02  0.45594000000E+02  0.51100000000E-03 0. -1.
         11   -1    0    0    0    0 -0.00000000000E+00 -0.00000000000E+00 -0.45593999997E+02  0.45594000000E+02  0.51100000000E-03 0.  1.
         23    2    1    2    0    0  0.00000000000E+00  0.00000000000E+00  0.35527136788E-14  0.91188000000E+02  0.91188000000E+02 0.  0.
    9900012    2    3    3    0    0 -0.11918878629E+02 -0.23050915743E+02 -0.26122309243E+02  0.54367089846E+02  0.40000012922E+02 0.  0.
         12    1    3    3    0    0  0.11918878629E+02  0.23050915743E+02  0.26122309243E+02  0.36820910154E+02  0.00000000000E+00 0. -1.
         11    1    4    4    0    0 -0.84935195471E+01  0.41196422126E+01  0.36287069453E+01  0.10113300184E+02  0.51100000000E-03 0. -1.
        -11    1    4    4    0    0 -0.13754603595E+01  0.21947486474E+01 -0.56278311202E+01  0.61952640141E+01  0.51100000000E-03 0.  1.
        -12    1    4    4    0    0 -0.20498987222E+01 -0.29365306603E+02 -0.24123185068E+02  0.38058525648E+02  0.00000000000E+00 0.  1.
</event>
<event>
 8    1  0.2450026E-006  0.9118800E+02  0.7816164E-02  0.1184000E+00
        -11   -1    0    0    0    0  0.00000000000E+00  0.00000000000E+00  0.45593999997E+02  0.45594000000E+02  0.51100000000E-03 0. -1.
         11   -1    0    0    0    0 -0.00000000000E+00 -0.00000000000E+00 -0.45593999997E+02  0.45594000000E+02  0.51100000000E-03 0.  1.
         23    2    1    2    0    0 -0.71054273576E-14  0.00000000000E+00  0.00000000000E+00  0.91188000000E+02  0.91188000000E+02 0.  0.
    9900012    2    3    3    0    0  0.33154183722E+02 -0.13451601941E+02  0.86968122898E+01  0.54367081529E+02  0.39999993962E+02 0.  0.
        -12    1    3    3    0    0 -0.33154183722E+02  0.13451601941E+02 -0.86968122898E+01  0.36820918471E+02  0.00000000000E+00 0.  1.
         11    1    4    4    0    0  0.22865877093E+01 -0.12155589641E+02 -0.71002398316E+01  0.14261845911E+02  0.51100000000E-03 0. -1.
        -11    1    4    4    0    0 -0.91183217647E+00  0.32950892962E+01 -0.13837566933E+01  0.36883375978E+01  0.51100000000E-03 0.  1.
         12    1    4    4    0    0  0.31779428189E+02 -0.45911015967E+01  0.17180808815E+02  0.36416898020E+02  0.00000000000E+00 0. -1.
</event>
<event>
 8    1  0.2450026E-006  0.9118800E+02  0.7816164E-02  0.1184000E+00
        -11   -1    0    0    0    0  0.00000000000E+00  0.00000000000E+00  0.45593999997E+02  0.45594000000E+02  0.51100000000E-03 0.  1.
         11   -1    0    0    0    0 -0.00000000000E+00 -0.00000000000E+00 -0.45593999997E+02  0.45594000000E+02  0.51100000000E-03 0. -1.
         23    2    1    2    0    0  0.00000000000E+00 -0.35527136788E-14  0.00000000000E+00  0.91188000000E+02  0.91188000000E+02 0.  0.
    9900012    2    3    3    0    0 -0.12054500683E+02 -0.30657851472E+02  0.16448905100E+02  0.54367064073E+02  0.39999954167E+02 0.  0.
        -12    1    3    3    0    0  0.12054500683E+02  0.30657851472E+02 -0.16448905100E+02  0.36820935927E+02  0.00000000000E+00 0.  1.
         11    1    4    4    0    0 -0.31193549508E+01  0.72265925888E+01 -0.21302937699E+01  0.81542729633E+01  0.51100000000E-03 0. -1.
        -11    1    4    4    0    0 -0.71409117110E+00 -0.24258188412E+02  0.39340888071E+01  0.24585497478E+02  0.51100000000E-03 0.  1.
        -12    1    4    4    0    0 -0.82210545608E+01 -0.13626255648E+02  0.14645110063E+02  0.21627293632E+02  0.00000000000E+00 0.  1.
</event>
<event>
 8    1  0.2450026E-006  0.9118800E+02  0.7816164E-02  0.1184000E+00
        -11   -1    0    0    0    0  0.00000000000E+00  0.00000000000E+00  0.45593999997E+02  0.45594000000E+02  0.51100000000E-03 0.  1.
         11   -1    0    0    0    0 -0.00000000000E+00 -0.00000000000E+00 -0.45593999997E+02  0.45594000000E+02  0.51100000000E-03 0. -1.
         23    2    1    2    0    0  0.35527136788E-14  0.00000000000E+00  0.00000000000E+00  0.91188000000E+02  0.91188000000E+02 0.  0.
    9900012    2    3    3    0    0  0.29618013407E+02 -0.16353186080E+02  0.14530098359E+02  0.54367120442E+02  0.40000082671E+02 0.  0.
         12    1    3    3    0    0 -0.29618013407E+02  0.16353186080E+02 -0.14530098359E+02  0.36820879558E+02  0.00000000000E+00 0. -1.
         11    1    4    4    0    0  0.13243750324E+02 -0.22335529029E+02  0.92775052092E+01  0.27574351902E+02  0.51100000000E-03 0. -1.
        -11    1    4    4    0    0  0.84753329056E+01 -0.46553544036E+01  0.88020341291E+01  0.13075909053E+02  0.51100000000E-03 0.  1.
         12    1    4    4    0    0  0.78989301772E+01  0.10637697353E+02 -0.35494409794E+01  0.13716859487E+02  0.00000000000E+00 0. -1.
</event>
<event>
 8    1  0.2450026E-006  0.9118800E+02  0.7816164E-02  0.1184000E+00
        -11   -1    0    0    0    0  0.00000000000E+00  0.00000000000E+00  0.45593999997E+02  0.45594000000E+02  0.51100000000E-03 0.  1.
         11   -1    0    0    0    0 -0.00000000000E+00 -0.00000000000E+00 -0.45593999997E+02  0.45594000000E+02  0.51100000000E-03 0. -1.
         23    2    1    2    0    0  0.35527136788E-14  0.12767564783E-14 -0.35527136788E-14  0.91188000000E+02  0.91188000000E+02 0.  0.
    9900012    2    3    3    0    0  0.25126260975E+02  0.39359397552E+00 -0.26912767958E+02  0.54367068644E+02  0.39999964588E+02 0.  0.
         12    1    3    3    0    0 -0.25126260975E+02 -0.39359397552E+00  0.26912767958E+02  0.36820931356E+02  0.00000000000E+00 0. -1.
         11    1    4    4    0    0 -0.16068650316E+01  0.10028649927E+02  0.36922735868E+01  0.10806882950E+02  0.51100000000E-03 0. -1.
        -11    1    4    4    0    0  0.21148717279E+02 -0.91046621092E+01 -0.16346153323E+02  0.28237560861E+02  0.51100000000E-03 0.  1.
         12    1    4    4    0    0  0.55844087272E+01 -0.53039384227E+00 -0.14258888222E+02  0.15322624833E+02  0.00000000000E+00 0. -1.
</event>
<event>
 8    1  0.2450026E-006  0.9118800E+02  0.7816164E-02  0.1184000E+00
        -11   -1    0    0    0    0  0.00000000000E+00  0.00000000000E+00  0.45593999997E+02  0.45594000000E+02  0.51100000000E-03 0. -1.
         11   -1    0    0    0    0 -0.00000000000E+00 -0.00000000000E+00 -0.45593999997E+02  0.45594000000E+02  0.51100000000E-03 0.  1.
         23    2    1    2    0    0  0.17763568394E-14  0.00000000000E+00 -0.17763568394E-14  0.91188000000E+02  0.91188000000E+02 0.  0.
    9900012    2    3    3    0    0  0.13945223540E+02 -0.33743161757E+02  0.47654002636E+01  0.54367092018E+02  0.40000017874E+02 0.  0.
         12    1    3    3    0    0 -0.13945223540E+02  0.33743161757E+02 -0.47654002636E+01  0.36820907982E+02  0.00000000000E+00 0. -1.
         11    1    4    4    0    0  0.14905743293E+01  0.20945095397E+01 -0.11048015915E+02  0.11343167016E+02  0.51100000000E-03 0. -1.
        -11    1    4    4    0    0  0.66745260950E+01 -0.11614195287E+02 -0.23453106442E+00  0.13397530960E+02  0.51100000000E-03 0.  1.
        -12    1    4    4    0    0  0.57801231157E+01 -0.24223476010E+02  0.16047947243E+02  0.29626394042E+02  0.00000000000E+00 0.  1.
</event>
<event>
 8    1  0.2450026E-006  0.9118800E+02  0.7816164E-02  0.1184000E+00
        -11   -1    0    0    0    0  0.00000000000E+00  0.00000000000E+00  0.45593999997E+02  0.45594000000E+02  0.51100000000E-03 0. -1.
         11   -1    0    0    0    0 -0.00000000000E+00 -0.00000000000E+00 -0.45593999997E+02  0.45594000000E+02  0.51100000000E-03 0.  1.
         23    2    1    2    0    0 -0.35527136788E-14  0.00000000000E+00  0.00000000000E+00  0.91188000000E+02  0.91188000000E+02 0.  0.
    9900012    2    3    3    0    0  0.20987176496E+02 -0.18256549193E+02  0.24125004200E+02  0.54367095702E+02  0.40000026271E+02 0.  0.
        -12    1    3    3    0    0 -0.20987176496E+02  0.18256549193E+02 -0.24125004200E+02  0.36820904298E+02  0.00000000000E+00 0.  1.
         11    1    4    4    0    0  0.15713986161E+02 -0.28843488928E+02  0.11123766370E+02  0.34678731135E+02  0.51100000000E-03 0. -1.
        -11    1    4    4    0    0  0.15549181362E+01  0.35582105929E+01  0.10741537415E+02  0.11421876349E+02  0.51100000000E-03 0.  1.
        -12    1    4    4    0    0  0.37182721981E+01  0.70287291419E+01  0.22597004150E+01  0.82664882178E+01  0.00000000000E+00 0.  1.
</event>
<event>
 8    1  0.2450026E-006  0.9118800E+02  0.7816164E-02  0.1184000E+00
        -11   -1    0    0    0    0  0.00000000000E+00  0.00000000000E+00  0.45593999997E+02  0.45594000000E+02  0.51100000000E-03 0. -1.
         11   -1    0    0    0    0 -0.00000000000E+00 -0.00000000000E+00 -0.45593999997E+02  0.45594000000E+02  0.51100000000E-03 0.  1.
         23    2    1    2    0    0  0.88817841970E-15  0.13322676296E-14  0.00000000000E+00  0.91188000000E+02  0.91188000000E+02 0.  0.
    9900012    2    3    3    0    0 -0.68252061263E+01 -0.25791116090E+01 -0.36090858883E+02  0.54367009380E+02  0.39999829483E+02 0.  0.
         12    1    3    3    0    0  0.68252061263E+01  0.25791116090E+01  0.36090858883E+02  0.36820990620E+02  0.00000000000E+00 0. -1.
         11    1    4    4    0    0 -0.12729194003E+02  0.10762988625E+02 -0.15029746350E+02  0.22444767312E+02  0.51100000000E-03 0. -1.
        -11    1    4    4    0    0 -0.28554651882E+01  0.11208748782E+01 -0.12688629253E+02  0.13054170005E+02  0.51100000000E-03 0.  1.
         12    1    4    4    0    0  0.87594530647E+01 -0.14462975112E+02 -0.83724832796E+01  0.18868072063E+02  0.00000000000E+00 0. -1.
</event>
<event>
 8    1  0.2450026E-006  0.9118800E+02  0.7816164E-02  0.1184000E+00
        -11   -1    0    0    0    0  0.00000000000E+00  0.00000000000E+00  0.45593999997E+02  0.45594000000E+02  0.51100000000E-03 0.  1.
         11   -1    0    0    0    0 -0.00000000000E+00 -0.00000000000E+00 -0.45593999997E+02  0.45594000000E+02  0.51100000000E-03 0. -1.
         23    2    1    2    0    0 -0.30531133177E-15  0.00000000000E+00  0.00000000000E+00  0.91188000000E+02  0.91188000000E+02 0.  0.
    9900012    2    3    3    0    0 -0.99794979569E-01 -0.16332755406E+02 -0.33000171552E+02  0.54367079579E+02  0.39999989516E+02 0.  0.
        -12    1    3    3    0    0  0.99794979569E-01  0.16332755406E+02  0.33000171552E+02  0.36820920421E+02  0.00000000000E+00 0.  1.
         11    1    4    4    0    0 -0.31728109205E+01 -0.21531967752E+02 -0.13762016222E+02  0.25750445728E+02  0.51100000000E-03 0. -1.
        -11    1    4    4    0    0  0.36566501173E+01 -0.40460863682E+01  0.17068389134E+01  0.57144732317E+01  0.51100000000E-03 0.  1.
         12    1    4    4    0    0 -0.58363417633E+00  0.92452987144E+01 -0.20944994243E+02  0.22902160619E+02  0.00000000000E+00 0. -1.
</event>
<event>
 8    1  0.2450026E-006  0.9118800E+02  0.7816164E-02  0.1184000E+00
        -11   -1    0    0    0    0  0.00000000000E+00  0.00000000000E+00  0.45593999997E+02  0.45594000000E+02  0.51100000000E-03 0.  1.
         11   -1    0    0    0    0 -0.00000000000E+00 -0.00000000000E+00 -0.45593999997E+02  0.45594000000E+02  0.51100000000E-03 0. -1.
         23    2    1    2    0    0 -0.35527136788E-14  0.88817841970E-15  0.00000000000E+00  0.91188000000E+02  0.91188000000E+02 0.  0.
    9900012    2    3    3    0    0 -0.19783881034E+02  0.76915363906E+01  0.30086841200E+02  0.54367086184E+02  0.40000004574E+02 0.  0.
         12    1    3    3    0    0  0.19783881034E+02 -0.76915363906E+01 -0.30086841200E+02  0.36820913816E+02  0.00000000000E+00 0. -1.
         11    1    4    4    0    0 -0.82051226677E+01  0.15522372090E+02  0.44483242284E+01  0.18112306921E+02  0.51100000000E-03 0. -1.
        -11    1    4    4    0    0 -0.16785679662E+00 -0.45108287698E+00 -0.38003839388E+01  0.38307401386E+01  0.51100000000E-03 0.  1.
        -12    1    4    4    0    0 -0.11410901570E+02 -0.73797528224E+01  0.29438900910E+02  0.32424039125E+02  0.00000000000E+00 0.  1.
</event>
<event>
 8    1  0.2450026E-006  0.9118800E+02  0.7816164E-02  0.1184000E+00
        -11   -1    0    0    0    0  0.00000000000E+00  0.00000000000E+00  0.45593999997E+02  0.45594000000E+02  0.51100000000E-03 0. -1.
         11   -1    0    0    0    0 -0.00000000000E+00 -0.00000000000E+00 -0.45593999997E+02  0.45594000000E+02  0.51100000000E-03 0.  1.
         23    2    1    2    0    0  0.00000000000E+00  0.00000000000E+00  0.00000000000E+00  0.91188000000E+02  0.91188000000E+02 0.  0.
    9900012    2    3    3    0    0  0.17054514456E+02 -0.16182444290E+02  0.28338173316E+02  0.54367081579E+02  0.39999994075E+02 0.  0.
        -12    1    3    3    0    0 -0.17054514456E+02  0.16182444290E+02 -0.28338173316E+02  0.36820918421E+02  0.00000000000E+00 0.  1.
         11    1    4    4    0    0  0.95584561632E+01 -0.18577012794E+02  0.25807945916E+02  0.33204209993E+02  0.51100000000E-03 0. -1.
        -11    1    4    4    0    0 -0.59987212586E+01 -0.22127824174E+01 -0.10030516919E+01  0.64720302628E+01  0.51100000000E-03 0.  1.
         12    1    4    4    0    0  0.13494779551E+02  0.46073509215E+01  0.35332790914E+01  0.14690841323E+02  0.00000000000E+00 0. -1.
</event>
<event>
 8    1  0.2450026E-006  0.9118800E+02  0.7816164E-02  0.1184000E+00
        -11   -1    0    0    0    0  0.00000000000E+00  0.00000000000E+00  0.45593999997E+02  0.45594000000E+02  0.51100000000E-03 0. -1.
         11   -1    0    0    0    0 -0.00000000000E+00 -0.00000000000E+00 -0.45593999997E+02  0.45594000000E+02  0.51100000000E-03 0.  1.
         23    2    1    2    0    0  0.00000000000E+00  0.00000000000E+00  0.00000000000E+00  0.91188000000E+02  0.91188000000E+02 0.  0.
    9900012    2    3    3    0    0  0.20547538996E+02 -0.25119968785E+02 -0.17394445206E+02  0.54367069613E+02  0.39999966796E+02 0.  0.
         12    1    3    3    0    0 -0.20547538996E+02  0.25119968785E+02  0.17394445206E+02  0.36820930387E+02  0.00000000000E+00 0. -1.
         11    1    4    4    0    0  0.26866107301E+01 -0.20318307745E+02 -0.12517026989E+02  0.24015150879E+02  0.51100000000E-03 0.  1.
        -11    1    4    4    0    0 -0.21987700228E+01  0.31258483851E+01 -0.77023585657E+01  0.85983629532E+01  0.51100000000E-03 0. -1.
         12    1    4    4    0    0  0.20059698289E+02 -0.79275094249E+01  0.28249403484E+01  0.21753555781E+02  0.00000000000E+00 0. -1.
</event>
<event>
 8    1  0.2450026E-006  0.9118800E+02  0.7816164E-02  0.1184000E+00
        -11   -1    0    0    0    0  0.00000000000E+00  0.00000000000E+00  0.45593999997E+02  0.45594000000E+02  0.51100000000E-03 0. -1.
         11   -1    0    0    0    0 -0.00000000000E+00 -0.00000000000E+00 -0.45593999997E+02  0.45594000000E+02  0.51100000000E-03 0.  1.
         23    2    1    2    0    0  0.00000000000E+00  0.00000000000E+00 -0.88817841970E-15  0.91188000000E+02  0.91188000000E+02 0.  0.
    9900012    2    3    3    0    0  0.35930559948E+02 -0.60002278304E+01 -0.53639360971E+01  0.54367086342E+02  0.40000004933E+02 0.  0.
         12    1    3    3    0    0 -0.35930559948E+02  0.60002278304E+01  0.53639360971E+01  0.36820913658E+02  0.00000000000E+00 0. -1.
         11    1    4    4    0    0  0.12331434258E+02 -0.70851693233E+01 -0.14235850989E+01  0.14293022423E+02  0.51100000000E-03 0. -1.
        -11    1    4    4    0    0  0.11375054409E+02 -0.10113541773E+02 -0.14001872845E+02  0.20681586820E+02  0.51100000000E-03 0.  1.
         12    1    4    4    0    0  0.12224071281E+02  0.11198483266E+02  0.10061521846E+02  0.19392477098E+02  0.00000000000E+00 0. -1.
</event>
<event>
 8    1  0.2450026E-006  0.9118800E+02  0.7816164E-02  0.1184000E+00
        -11   -1    0    0    0    0  0.00000000000E+00  0.00000000000E+00  0.45593999997E+02  0.45594000000E+02  0.51100000000E-03 0. -1.
         11   -1    0    0    0    0 -0.00000000000E+00 -0.00000000000E+00 -0.45593999997E+02  0.45594000000E+02  0.51100000000E-03 0.  1.
         23    2    1    2    0    0  0.17763568394E-14 -0.17763568394E-14  0.00000000000E+00  0.91188000000E+02  0.91188000000E+02 0.  0.
    9900012    2    3    3    0    0 -0.14942468833E+02  0.81242194975E+01 -0.32657319112E+02  0.54367071049E+02  0.39999970070E+02 0.  0.
         12    1    3    3    0    0  0.14942468833E+02 -0.81242194975E+01  0.32657319112E+02  0.36820928951E+02  0.00000000000E+00 0. -1.
         11    1    4    4    0    0  0.76594975379E+01 -0.28783947914E+01 -0.17248346655E+01  0.83623031512E+01  0.51100000000E-03 0. -1.
        -11    1    4    4    0    0 -0.30199657073E+01 -0.68618687927E+01 -0.78755171909E+01  0.10873325503E+02  0.51100000000E-03 0.  1.
        -12    1    4    4    0    0 -0.19582000663E+02  0.17864483082E+02 -0.23056967255E+02  0.35131442395E+02  0.00000000000E+00 0.  1.
</event>
<event>
 8    1  0.2450026E-006  0.9118800E+02  0.7816164E-02  0.1184000E+00
        -11   -1    0    0    0    0  0.00000000000E+00  0.00000000000E+00  0.45593999997E+02  0.45594000000E+02  0.51100000000E-03 0. -1.
         11   -1    0    0    0    0 -0.00000000000E+00 -0.00000000000E+00 -0.45593999997E+02  0.45594000000E+02  0.51100000000E-03 0.  1.
         23    2    1    2    0    0 -0.35527136788E-14  0.17763568394E-14  0.00000000000E+00  0.91188000000E+02  0.91188000000E+02 0.  0.
    9900012    2    3    3    0    0  0.10626000214E+02  0.11011045441E+02 -0.33490663147E+02  0.54367088546E+02  0.40000009959E+02 0.  0.
         12    1    3    3    0    0 -0.10626000214E+02 -0.11011045441E+02  0.33490663147E+02  0.36820911454E+02  0.00000000000E+00 0. -1.
         11    1    4    4    0    0 -0.31149037815E+01  0.12987977294E+02 -0.25346473691E+02  0.28650199102E+02  0.51100000000E-03 0. -1.
        -11    1    4    4    0    0  0.77034246784E+00  0.77317724954E+01 -0.49222562139E+01  0.91979530296E+01  0.51100000000E-03 0.  1.
         12    1    4    4    0    0  0.12970561527E+02 -0.97087043481E+01 -0.32219332424E+01  0.16518936415E+02  0.00000000000E+00 0. -1.
</event>
<event>
 8    1  0.2450026E-006  0.9118800E+02  0.7816164E-02  0.1184000E+00
        -11   -1    0    0    0    0  0.00000000000E+00  0.00000000000E+00  0.45593999997E+02  0.45594000000E+02  0.51100000000E-03 0.  1.
         11   -1    0    0    0    0 -0.00000000000E+00 -0.00000000000E+00 -0.45593999997E+02  0.45594000000E+02  0.51100000000E-03 0. -1.
         23    2    1    2    0    0 -0.22204460493E-14 -0.17763568394E-14  0.71054273576E-14  0.91188000000E+02  0.91188000000E+02 0.  0.
    9900012    2    3    3    0    0  0.38892065643E+01 -0.81175033682E+01  0.35703762938E+02  0.54367102720E+02  0.40000042270E+02 0.  0.
         12    1    3    3    0    0 -0.38892065643E+01  0.81175033682E+01 -0.35703762938E+02  0.36820897280E+02  0.00000000000E+00 0. -1.
         11    1    4    4    0    0  0.83120297651E+01  0.82682950769E+01  0.94231261586E+01  0.15041603942E+02  0.51100000000E-03 0. -1.
        -11    1    4    4    0    0  0.90000757245E+01 -0.45366912784E+01  0.15301760932E+02  0.18322849633E+02  0.51100000000E-03 0.  1.
         12    1    4    4    0    0 -0.13422898925E+02 -0.11849107167E+02  0.10978875847E+02  0.21002649144E+02  0.00000000000E+00 0. -1.
</event>
<event>
 8    1  0.2450026E-006  0.9118800E+02  0.7816164E-02  0.1184000E+00
        -11   -1    0    0    0    0  0.00000000000E+00  0.00000000000E+00  0.45593999997E+02  0.45594000000E+02  0.51100000000E-03 0. -1.
         11   -1    0    0    0    0 -0.00000000000E+00 -0.00000000000E+00 -0.45593999997E+02  0.45594000000E+02  0.51100000000E-03 0.  1.
         23    2    1    2    0    0  0.17763568394E-14  0.88817841970E-15  0.00000000000E+00  0.91188000000E+02  0.91188000000E+02 0.  0.
    9900012    2    3    3    0    0  0.12731811418E+02 -0.69677022526E+01 -0.33839858768E+02  0.54367028556E+02  0.39999873199E+02 0.  0.
         12    1    3    3    0    0 -0.12731811418E+02  0.69677022526E+01  0.33839858768E+02  0.36820971444E+02  0.00000000000E+00 0. -1.
         11    1    4    4    0    0 -0.63053440042E+01 -0.85419098897E+01 -0.17320858764E+01  0.10757402536E+02  0.51100000000E-03 0. -1.
        -11    1    4    4    0    0  0.23849422883E+02 -0.13064960892E+01 -0.25408334509E+02  0.34872415555E+02  0.51100000000E-03 0.  1.
        -12    1    4    4    0    0 -0.48122674604E+01  0.28807037263E+01 -0.66994383819E+01  0.87372104646E+01  0.00000000000E+00 0.  1.
</event>
<event>
 8    1  0.2450026E-006  0.9118800E+02  0.7816164E-02  0.1184000E+00
        -11   -1    0    0    0    0  0.00000000000E+00  0.00000000000E+00  0.45593999997E+02  0.45594000000E+02  0.51100000000E-03 0.  1.
         11   -1    0    0    0    0 -0.00000000000E+00 -0.00000000000E+00 -0.45593999997E+02  0.45594000000E+02  0.51100000000E-03 0. -1.
         23    2    1    2    0    0  0.00000000000E+00  0.00000000000E+00  0.17763568394E-14  0.91188000000E+02  0.91188000000E+02 0.  0.
    9900012    2    3    3    0    0 -0.21113320455E+02 -0.29033768318E+02 -0.81882934847E+01  0.54367079947E+02  0.39999990355E+02 0.  0.
        -12    1    3    3    0    0  0.21113320455E+02  0.29033768318E+02  0.81882934847E+01  0.36820920053E+02  0.00000000000E+00 0.  1.
         11    1    4    4    0    0  0.35526379399E+01 -0.39405200415E+01  0.92378978661E+01  0.10653060207E+02  0.51100000000E-03 0. -1.
        -11    1    4    4    0    0 -0.22386085926E+00  0.17732853665E+01 -0.50261524938E+01  0.53344975234E+01  0.51100000000E-03 0.  1.
         12    1    4    4    0    0 -0.24442097535E+02 -0.26866533643E+02 -0.12400038857E+02  0.38379522217E+02  0.00000000000E+00 0. -1.
</event>
<event>
 8    1  0.2450026E-006  0.9118800E+02  0.7816164E-02  0.1184000E+00
        -11   -1    0    0    0    0  0.00000000000E+00  0.00000000000E+00  0.45593999997E+02  0.45594000000E+02  0.51100000000E-03 0. -1.
         11   -1    0    0    0    0 -0.00000000000E+00 -0.00000000000E+00 -0.45593999997E+02  0.45594000000E+02  0.51100000000E-03 0.  1.
         23    2    1    2    0    0  0.00000000000E+00  0.00000000000E+00  0.00000000000E+00  0.91188000000E+02  0.91188000000E+02 0.  0.
    9900012    2    3    3    0    0  0.10304387705E+02 -0.24161888012E+02 -0.25802910133E+02  0.54367253001E+02  0.40000384864E+02 0.  0.
         12    1    3    3    0    0 -0.10304387705E+02  0.24161888012E+02  0.25802910133E+02  0.36820746999E+02  0.00000000000E+00 0. -1.
         11    1    4    4    0    0 -0.70995537620E+01 -0.24741833029E+02 -0.92404694640E+01  0.27348642405E+02  0.51100000000E-03 0. -1.
        -11    1    4    4    0    0 -0.16518023379E+01 -0.14198335571E+00 -0.35921560199E+01  0.39562855521E+01  0.51100000000E-03 0.  1.
         12    1    4    4    0    0  0.19055743805E+02  0.72192837241E+00 -0.12970284649E+02  0.23062325043E+02  0.00000000000E+00 0. -1.
</event>
<event>
 8    1  0.2450026E-006  0.9118800E+02  0.7816164E-02  0.1184000E+00
        -11   -1    0    0    0    0  0.00000000000E+00  0.00000000000E+00  0.45593999997E+02  0.45594000000E+02  0.51100000000E-03 0. -1.
         11   -1    0    0    0    0 -0.00000000000E+00 -0.00000000000E+00 -0.45593999997E+02  0.45594000000E+02  0.51100000000E-03 0.  1.
         23    2    1    2    0    0  0.00000000000E+00  0.00000000000E+00  0.17763568394E-14  0.91188000000E+02  0.91188000000E+02 0.  0.
    9900012    2    3    3    0    0  0.41368848970E+01  0.34645547908E+02  0.11762321542E+02  0.54367081835E+02  0.39999994659E+02 0.  0.
        -12    1    3    3    0    0 -0.41368848970E+01 -0.34645547908E+02 -0.11762321542E+02  0.36820918165E+02  0.00000000000E+00 0.  1.
         11    1    4    4    0    0  0.16618243566E+01  0.26451874093E+02  0.15873851283E+02  0.30894052147E+02  0.51100000000E-03 0. -1.
        -11    1    4    4    0    0  0.98394282246E+01  0.23119250778E+01  0.41630830708E+01  0.10931175887E+02  0.51100000000E-03 0.  1.
        -12    1    4    4    0    0 -0.73643676841E+01  0.58817487364E+01 -0.82746128122E+01  0.12541853801E+02  0.00000000000E+00 0.  1.
</event>
<event>
 8    1  0.2450026E-006  0.9118800E+02  0.7816164E-02  0.1184000E+00
        -11   -1    0    0    0    0  0.00000000000E+00  0.00000000000E+00  0.45593999997E+02  0.45594000000E+02  0.51100000000E-03 0.  1.
         11   -1    0    0    0    0 -0.00000000000E+00 -0.00000000000E+00 -0.45593999997E+02  0.45594000000E+02  0.51100000000E-03 0. -1.
         23    2    1    2    0    0  0.00000000000E+00 -0.35527136788E-14 -0.35527136788E-14  0.91188000000E+02  0.91188000000E+02 0.  0.
    9900012    2    3    3    0    0  0.26568737421E+02 -0.17159307975E+02 -0.18853177889E+02  0.54367055215E+02  0.39999933974E+02 0.  0.
        -12    1    3    3    0    0 -0.26568737421E+02  0.17159307975E+02  0.18853177889E+02  0.36820944785E+02  0.00000000000E+00 0.  1.
         11    1    4    4    0    0  0.78759138973E+01 -0.42601239557E+00  0.77864008816E+01  0.11083300286E+02  0.51100000000E-03 0. -1.
        -11    1    4    4    0    0 -0.17412215652E+01  0.34917315441E+01  0.26114573578E+00  0.39105292572E+01  0.51100000000E-03 0.  1.
         12    1    4    4    0    0  0.20434045089E+02 -0.20225027124E+02 -0.26900724506E+02  0.39373225672E+02  0.00000000000E+00 0. -1.
</event>
<event>
 8    1  0.2450026E-006  0.9118800E+02  0.7816164E-02  0.1184000E+00
        -11   -1    0    0    0    0  0.00000000000E+00  0.00000000000E+00  0.45593999997E+02  0.45594000000E+02  0.51100000000E-03 0.  1.
         11   -1    0    0    0    0 -0.00000000000E+00 -0.00000000000E+00 -0.45593999997E+02  0.45594000000E+02  0.51100000000E-03 0. -1.
         23    2    1    2    0    0 -0.35527136788E-14  0.00000000000E+00  0.35527136788E-14  0.91188000000E+02  0.91188000000E+02 0.  0.
    9900012    2    3    3    0    0  0.26405981690E+02  0.10256624982E+02 -0.23522408887E+02  0.54367109940E+02  0.40000058729E+02 0.  0.
        -12    1    3    3    0    0 -0.26405981690E+02 -0.10256624982E+02  0.23522408887E+02  0.36820890060E+02  0.00000000000E+00 0.  1.
         11    1    4    4    0    0 -0.55126355335E+01  0.68076223181E+01 -0.18420978037E+02  0.20397678894E+02  0.51100000000E-03 0.  1.
        -11    1    4    4    0    0  0.31585763717E+02  0.16236547941E+01 -0.41951650341E+01  0.31904484550E+02  0.51100000000E-03 0. -1.
         12    1    4    4    0    0  0.33285350636E+00  0.18253478701E+01 -0.90626581566E+00  0.20649464962E+01  0.00000000000E+00 0. -1.
</event>
<event>
 8    1  0.2450026E-006  0.9118800E+02  0.7816164E-02  0.1184000E+00
        -11   -1    0    0    0    0  0.00000000000E+00  0.00000000000E+00  0.45593999997E+02  0.45594000000E+02  0.51100000000E-03 0. -1.
         11   -1    0    0    0    0 -0.00000000000E+00 -0.00000000000E+00 -0.45593999997E+02  0.45594000000E+02  0.51100000000E-03 0.  1.
         23    2    1    2    0    0 -0.17763568394E-14 -0.35527136788E-14 -0.35527136788E-14  0.91188000000E+02  0.91188000000E+02 0.  0.
    9900012    2    3    3    0    0 -0.14885394528E+02 -0.16187488237E+02 -0.29532514710E+02  0.54367093292E+02  0.40000020779E+02 0.  0.
         12    1    3    3    0    0  0.14885394528E+02  0.16187488237E+02  0.29532514710E+02  0.36820906708E+02  0.00000000000E+00 0. -1.
         11    1    4    4    0    0 -0.82243971018E+01 -0.10123096580E+02 -0.65073560044E+01  0.14576126869E+02  0.51100000000E-03 0. -1.
        -11    1    4    4    0    0  0.12509341419E+02 -0.24561370868E+01 -0.69868122406E+01  0.14537254819E+02  0.51100000000E-03 0.  1.
         12    1    4    4    0    0 -0.19170338845E+02 -0.36082545698E+01 -0.16038346465E+02  0.25253711605E+02  0.00000000000E+00 0. -1.
</event>
<event>
 8    1  0.2450026E-006  0.9118800E+02  0.7816164E-02  0.1184000E+00
        -11   -1    0    0    0    0  0.00000000000E+00  0.00000000000E+00  0.45593999997E+02  0.45594000000E+02  0.51100000000E-03 0. -1.
         11   -1    0    0    0    0 -0.00000000000E+00 -0.00000000000E+00 -0.45593999997E+02  0.45594000000E+02  0.51100000000E-03 0.  1.
         23    2    1    2    0    0 -0.35527136788E-14 -0.10658141036E-13  0.44408920985E-15  0.91188000000E+02  0.91188000000E+02 0.  0.
    9900012    2    3    3    0    0  0.23220355968E+02 -0.28527227139E+02  0.16711434258E+01  0.54367077417E+02  0.39999984587E+02 0.  0.
        -12    1    3    3    0    0 -0.23220355968E+02  0.28527227139E+02 -0.16711434258E+01  0.36820922583E+02  0.00000000000E+00 0.  1.
         11    1    4    4    0    0  0.23747404938E+01  0.38658652192E+01  0.70776489596E+00  0.45918664740E+01  0.51100000000E-03 0. -1.
        -11    1    4    4    0    0  0.25490259598E+02 -0.12674809412E+02 -0.44334065606E+01  0.28810748376E+02  0.51100000000E-03 0.  1.
         12    1    4    4    0    0 -0.46446441233E+01 -0.19718282947E+02  0.53967850904E+01  0.20964462567E+02  0.00000000000E+00 0. -1.
</event>
<event>
 8    1  0.2450026E-006  0.9118800E+02  0.7816164E-02  0.1184000E+00
        -11   -1    0    0    0    0  0.00000000000E+00  0.00000000000E+00  0.45593999997E+02  0.45594000000E+02  0.51100000000E-03 0.  1.
         11   -1    0    0    0    0 -0.00000000000E+00 -0.00000000000E+00 -0.45593999997E+02  0.45594000000E+02  0.51100000000E-03 0. -1.
         23    2    1    2    0    0  0.00000000000E+00  0.00000000000E+00  0.00000000000E+00  0.91188000000E+02  0.91188000000E+02 0.  0.
    9900012    2    3    3    0    0 -0.19745761977E+02  0.22804709715E+02  0.21114740711E+02  0.54367052477E+02  0.39999927731E+02 0.  0.
         12    1    3    3    0    0  0.19745761977E+02 -0.22804709715E+02 -0.21114740711E+02  0.36820947523E+02  0.00000000000E+00 0. -1.
         11    1    4    4    0    0  0.11524555169E+01 -0.50614424723E+00  0.12513541594E+00  0.12649090287E+01  0.51100000000E-03 0. -1.
        -11    1    4    4    0    0 -0.80535071323E+01  0.10285797029E+02  0.29992230148E+02  0.32713765714E+02  0.51100000000E-03 0.  1.
        -12    1    4    4    0    0 -0.12844710362E+02  0.13025056933E+02 -0.90026248535E+01  0.20388377734E+02  0.00000000000E+00 0.  1.
</event>
<event>
 8    1  0.2450026E-006  0.9118800E+02  0.7816164E-02  0.1184000E+00
        -11   -1    0    0    0    0  0.00000000000E+00  0.00000000000E+00  0.45593999997E+02  0.45594000000E+02  0.51100000000E-03 0.  1.
         11   -1    0    0    0    0 -0.00000000000E+00 -0.00000000000E+00 -0.45593999997E+02  0.45594000000E+02  0.51100000000E-03 0. -1.
         23    2    1    2    0    0  0.35527136788E-14 -0.22204460493E-14 -0.35527136788E-14  0.91188000000E+02  0.91188000000E+02 0.  0.
    9900012    2    3    3    0    0 -0.31211921702E+02  0.26170674228E+01  0.19358353540E+02  0.54367096290E+02  0.40000027613E+02 0.  0.
         12    1    3    3    0    0  0.31211921702E+02 -0.26170674228E+01 -0.19358353540E+02  0.36820903710E+02  0.00000000000E+00 0. -1.
         11    1    4    4    0    0 -0.14845927832E+01 -0.20729492461E+01 -0.64888587061E+01  0.69718305973E+01  0.51100000000E-03 0. -1.
        -11    1    4    4    0    0 -0.26643453487E+02 -0.67468070925E+01  0.14887303137E+02  0.31257396159E+02  0.51100000000E-03 0.  1.
        -12    1    4    4    0    0 -0.30838754316E+01  0.11436823761E+02  0.10959909109E+02  0.16137869534E+02  0.00000000000E+00 0.  1.
</event>
<event>
 8    1  0.2450026E-006  0.9118800E+02  0.7816164E-02  0.1184000E+00
        -11   -1    0    0    0    0  0.00000000000E+00  0.00000000000E+00  0.45593999997E+02  0.45594000000E+02  0.51100000000E-03 0.  1.
         11   -1    0    0    0    0 -0.00000000000E+00 -0.00000000000E+00 -0.45593999997E+02  0.45594000000E+02  0.51100000000E-03 0. -1.
         23    2    1    2    0    0  0.00000000000E+00 -0.35527136788E-14 -0.33306690739E-15  0.91188000000E+02  0.91188000000E+02 0.  0.
    9900012    2    3    3    0    0  0.28214656892E+02  0.23658246701E+02 -0.68695065211E-01  0.54367024734E+02  0.39999864487E+02 0.  0.
         12    1    3    3    0    0 -0.28214656892E+02 -0.23658246701E+02  0.68695065211E-01  0.36820975266E+02  0.00000000000E+00 0. -1.
         11    1    4    4    0    0  0.16917518574E+02  0.65967836410E+01 -0.23497644042E+01  0.18309598087E+02  0.51100000000E-03 0. -1.
        -11    1    4    4    0    0  0.94913801889E+01  0.99427734413E+00 -0.11407300399E+02  0.14872840616E+02  0.51100000000E-03 0.  1.
         12    1    4    4    0    0  0.18057581299E+01  0.16067185716E+02  0.13688369738E+02  0.21184586031E+02  0.00000000000E+00 0. -1.
</event>
<event>
 8    1  0.2450026E-006  0.9118800E+02  0.7816164E-02  0.1184000E+00
        -11   -1    0    0    0    0  0.00000000000E+00  0.00000000000E+00  0.45593999997E+02  0.45594000000E+02  0.51100000000E-03 0.  1.
         11   -1    0    0    0    0 -0.00000000000E+00 -0.00000000000E+00 -0.45593999997E+02  0.45594000000E+02  0.51100000000E-03 0. -1.
         23    2    1    2    0    0  0.00000000000E+00  0.44408920985E-15 -0.35527136788E-14  0.91188000000E+02  0.91188000000E+02 0.  0.
    9900012    2    3    3    0    0 -0.19953196443E+02 -0.36862045121E+01 -0.30725613685E+02  0.54367061822E+02  0.39999949035E+02 0.  0.
        -12    1    3    3    0    0  0.19953196443E+02  0.36862045121E+01  0.30725613685E+02  0.36820938178E+02  0.00000000000E+00 0.  1.
         11    1    4    4    0    0 -0.38284493238E+01 -0.10214061992E+02  0.72957559521E+00  0.10932354156E+02  0.51100000000E-03 0. -1.
        -11    1    4    4    0    0  0.12968023354E+01  0.10327813392E+02 -0.50411157496E+01  0.11565391218E+02  0.51100000000E-03 0.  1.
         12    1    4    4    0    0 -0.17421549455E+02 -0.37999559127E+01 -0.26414073531E+02  0.31869316447E+02  0.00000000000E+00 0. -1.
</event>
<event>
 8    1  0.2450026E-006  0.9118800E+02  0.7816164E-02  0.1184000E+00
        -11   -1    0    0    0    0  0.00000000000E+00  0.00000000000E+00  0.45593999997E+02  0.45594000000E+02  0.51100000000E-03 0.  1.
         11   -1    0    0    0    0 -0.00000000000E+00 -0.00000000000E+00 -0.45593999997E+02  0.45594000000E+02  0.51100000000E-03 0. -1.
         23    2    1    2    0    0  0.71054273576E-14  0.00000000000E+00  0.00000000000E+00  0.91188000000E+02  0.91188000000E+02 0.  0.
    9900012    2    3    3    0    0  0.35074758228E+02 -0.30090506078E+01  0.10792886038E+02  0.54367089646E+02  0.40000012465E+02 0.  0.
         12    1    3    3    0    0 -0.35074758228E+02  0.30090506078E+01 -0.10792886038E+02  0.36820910354E+02  0.00000000000E+00 0. -1.
         11    1    4    4    0    0  0.34412691045E+00 -0.99643364852E+01  0.28657352146E+00  0.99743946967E+01  0.51100000000E-03 0.  1.
        -11    1    4    4    0    0  0.38133747050E+02  0.36975970825E+01  0.83515902897E+01  0.39212293338E+02  0.51100000000E-03 0. -1.
        -12    1    4    4    0    0 -0.34031157325E+01  0.32576887949E+01  0.21547222271E+01  0.51804016108E+01  0.00000000000E+00 0.  1.
</event>
<event>
 8    1  0.2450026E-006  0.9118800E+02  0.7816164E-02  0.1184000E+00
        -11   -1    0    0    0    0  0.00000000000E+00  0.00000000000E+00  0.45593999997E+02  0.45594000000E+02  0.51100000000E-03 0. -1.
         11   -1    0    0    0    0 -0.00000000000E+00 -0.00000000000E+00 -0.45593999997E+02  0.45594000000E+02  0.51100000000E-03 0.  1.
         23    2    1    2    0    0  0.00000000000E+00  0.00000000000E+00  0.00000000000E+00  0.91188000000E+02  0.91188000000E+02 0.  0.
    9900012    2    3    3    0    0  0.29221042986E+02  0.16166506400E+02 -0.15509819423E+02  0.54367085007E+02  0.40000001891E+02 0.  0.
         12    1    3    3    0    0 -0.29221042986E+02 -0.16166506400E+02  0.15509819423E+02  0.36820914993E+02  0.00000000000E+00 0. -1.
         11    1    4    4    0    0  0.15025304377E+02  0.11163229708E+00  0.51666153593E+01  0.15889183362E+02  0.51100000000E-03 0. -1.
        -11    1    4    4    0    0  0.57379192636E+01 -0.60357426723E+01 -0.26556419893E+01  0.87410721149E+01  0.51100000000E-03 0.  1.
        -12    1    4    4    0    0  0.84578193452E+01  0.22090616775E+02 -0.18020792793E+02  0.29736829530E+02  0.00000000000E+00 0.  1.
</event>
<event>
 8    1  0.2450026E-006  0.9118800E+02  0.7816164E-02  0.1184000E+00
        -11   -1    0    0    0    0  0.00000000000E+00  0.00000000000E+00  0.45593999997E+02  0.45594000000E+02  0.51100000000E-03 0.  1.
         11   -1    0    0    0    0 -0.00000000000E+00 -0.00000000000E+00 -0.45593999997E+02  0.45594000000E+02  0.51100000000E-03 0. -1.
         23    2    1    2    0    0  0.17763568394E-14  0.00000000000E+00  0.00000000000E+00  0.91188000000E+02  0.91188000000E+02 0.  0.
    9900012    2    3    3    0    0 -0.14900684458E+02 -0.25901709190E+02 -0.21513974361E+02  0.54367081637E+02  0.39999994208E+02 0.  0.
        -12    1    3    3    0    0  0.14900684458E+02  0.25901709190E+02  0.21513974361E+02  0.36820918363E+02  0.00000000000E+00 0.  1.
         11    1    4    4    0    0  0.25049206868E+01 -0.11304154049E+01  0.15369664171E+01  0.31487668480E+01  0.51100000000E-03 0. -1.
        -11    1    4    4    0    0 -0.93772239587E+00 -0.12388298696E+02  0.73932924037E+01  0.14457179555E+02  0.51100000000E-03 0.  1.
         12    1    4    4    0    0 -0.16467882749E+02 -0.12382995089E+02 -0.30444233182E+02  0.36761135234E+02  0.00000000000E+00 0. -1.
</event>
<event>
 8    1  0.2450026E-006  0.9118800E+02  0.7816164E-02  0.1184000E+00
        -11   -1    0    0    0    0  0.00000000000E+00  0.00000000000E+00  0.45593999997E+02  0.45594000000E+02  0.51100000000E-03 0.  1.
         11   -1    0    0    0    0 -0.00000000000E+00 -0.00000000000E+00 -0.45593999997E+02  0.45594000000E+02  0.51100000000E-03 0. -1.
         23    2    1    2    0    0  0.00000000000E+00  0.71054273576E-14  0.00000000000E+00  0.91188000000E+02  0.91188000000E+02 0.  0.
    9900012    2    3    3    0    0 -0.11555352455E+02 -0.33006841275E+02 -0.11523971688E+02  0.54367086584E+02  0.40000005486E+02 0.  0.
        -12    1    3    3    0    0  0.11555352455E+02  0.33006841275E+02  0.11523971688E+02  0.36820913416E+02  0.00000000000E+00 0.  1.
         11    1    4    4    0    0  0.25422267453E+00  0.17031794865E+01  0.52500594002E+01  0.55252668260E+01  0.51100000000E-03 0.  1.
        -11    1    4    4    0    0  0.84097527099E+00 -0.28578527773E+02 -0.23296799759E+01  0.28685656662E+02  0.51100000000E-03 0. -1.
         12    1    4    4    0    0 -0.12650550400E+02 -0.61314929886E+01 -0.14444351112E+02  0.20156163096E+02  0.00000000000E+00 0. -1.
</event>
<event>
 8    1  0.2450026E-006  0.9118800E+02  0.7816164E-02  0.1184000E+00
        -11   -1    0    0    0    0  0.00000000000E+00  0.00000000000E+00  0.45593999997E+02  0.45594000000E+02  0.51100000000E-03 0. -1.
         11   -1    0    0    0    0 -0.00000000000E+00 -0.00000000000E+00 -0.45593999997E+02  0.45594000000E+02  0.51100000000E-03 0.  1.
         23    2    1    2    0    0  0.00000000000E+00  0.22204460493E-15  0.00000000000E+00  0.91188000000E+02  0.91188000000E+02 0.  0.
    9900012    2    3    3    0    0  0.62218563233E+01  0.13514429756E+01 -0.36266254090E+02  0.54367094526E+02  0.40000023590E+02 0.  0.
         12    1    3    3    0    0 -0.62218563233E+01 -0.13514429756E+01  0.36266254090E+02  0.36820905474E+02  0.00000000000E+00 0. -1.
         11    1    4    4    0    0 -0.25987513296E+01 -0.23567816084E-01 -0.11078955934E+02  0.11379689308E+02  0.51100000000E-03 0. -1.
        -11    1    4    4    0    0  0.14801999594E+02  0.11370486418E+02 -0.44277980081E+01  0.19183131883E+02  0.51100000000E-03 0.  1.
        -12    1    4    4    0    0 -0.59813919416E+01 -0.99954756267E+01 -0.20759500148E+02  0.23804273334E+02  0.00000000000E+00 0.  1.
</event>
<event>
 8    1  0.2450026E-006  0.9118800E+02  0.7816164E-02  0.1184000E+00
        -11   -1    0    0    0    0  0.00000000000E+00  0.00000000000E+00  0.45593999997E+02  0.45594000000E+02  0.51100000000E-03 0.  1.
         11   -1    0    0    0    0 -0.00000000000E+00 -0.00000000000E+00 -0.45593999997E+02  0.45594000000E+02  0.51100000000E-03 0. -1.
         23    2    1    2    0    0  0.00000000000E+00  0.00000000000E+00 -0.35527136788E-14  0.91188000000E+02  0.91188000000E+02 0.  0.
    9900012    2    3    3    0    0 -0.25899050213E+02  0.14523342085E+02  0.21773653635E+02  0.54367078503E+02  0.39999987064E+02 0.  0.
         12    1    3    3    0    0  0.25899050213E+02 -0.14523342085E+02 -0.21773653635E+02  0.36820921497E+02  0.00000000000E+00 0. -1.
         11    1    4    4    0    0 -0.14528608789E+02  0.14673424239E+02  0.95040084940E+01  0.22731388650E+02  0.51100000000E-03 0. -1.
        -11    1    4    4    0    0 -0.15079656130E+02 -0.78030590306E+01  0.15049329673E+02  0.22688457046E+02  0.51100000000E-03 0.  1.
         12    1    4    4    0    0  0.37092147069E+01  0.76529768762E+01 -0.27796845319E+01  0.89472328072E+01  0.00000000000E+00 0. -1.
</event>
<event>
 8    1  0.2450026E-006  0.9118800E+02  0.7816164E-02  0.1184000E+00
        -11   -1    0    0    0    0  0.00000000000E+00  0.00000000000E+00  0.45593999997E+02  0.45594000000E+02  0.51100000000E-03 0. -1.
         11   -1    0    0    0    0 -0.00000000000E+00 -0.00000000000E+00 -0.45593999997E+02  0.45594000000E+02  0.51100000000E-03 0.  1.
         23    2    1    2    0    0  0.00000000000E+00  0.00000000000E+00  0.00000000000E+00  0.91188000000E+02  0.91188000000E+02 0.  0.
    9900012    2    3    3    0    0  0.17960222189E+02  0.13628387544E+02  0.29111454155E+02  0.54367091657E+02  0.40000017051E+02 0.  0.
         12    1    3    3    0    0 -0.17960222189E+02 -0.13628387544E+02 -0.29111454155E+02  0.36820908343E+02  0.00000000000E+00 0. -1.
         11    1    4    4    0    0  0.64169554282E+01  0.13364723181E+02  0.18862997817E+02  0.23991786710E+02  0.51100000000E-03 0. -1.
        -11    1    4    4    0    0  0.71934212556E+01  0.79350429827E+01 -0.57136853181E+01  0.12139045130E+02  0.51100000000E-03 0.  1.
         12    1    4    4    0    0  0.43498455051E+01 -0.76713786190E+01  0.15962141657E+02  0.18236259817E+02  0.00000000000E+00 0. -1.
</event>
<event>
 8    1  0.2450026E-006  0.9118800E+02  0.7816164E-02  0.1184000E+00
        -11   -1    0    0    0    0  0.00000000000E+00  0.00000000000E+00  0.45593999997E+02  0.45594000000E+02  0.51100000000E-03 0.  1.
         11   -1    0    0    0    0 -0.00000000000E+00 -0.00000000000E+00 -0.45593999997E+02  0.45594000000E+02  0.51100000000E-03 0. -1.
         23    2    1    2    0    0  0.88817841970E-15  0.00000000000E+00  0.35527136788E-14  0.91188000000E+02  0.91188000000E+02 0.  0.
    9900012    2    3    3    0    0 -0.71679951606E+01 -0.21005420712E+02  0.29379760732E+02  0.54367106548E+02  0.40000050998E+02 0.  0.
         12    1    3    3    0    0  0.71679951606E+01  0.21005420712E+02 -0.29379760732E+02  0.36820893452E+02  0.00000000000E+00 0. -1.
         11    1    4    4    0    0 -0.75573903824E-01 -0.29695118305E+02  0.10610519082E+02  0.31533932169E+02  0.51100000000E-03 0.  1.
        -11    1    4    4    0    0 -0.16796416494E+01 -0.92114258437E+00  0.20748869878E+01  0.28239787542E+01  0.51100000000E-03 0. -1.
         12    1    4    4    0    0 -0.54127796074E+01  0.96108401774E+01  0.16694354661E+02  0.20009195625E+02  0.00000000000E+00 0. -1.
</event>
<event>
 8    1  0.2450026E-006  0.9118800E+02  0.7816164E-02  0.1184000E+00
        -11   -1    0    0    0    0  0.00000000000E+00  0.00000000000E+00  0.45593999997E+02  0.45594000000E+02  0.51100000000E-03 0. -1.
         11   -1    0    0    0    0 -0.00000000000E+00 -0.00000000000E+00 -0.45593999997E+02  0.45594000000E+02  0.51100000000E-03 0.  1.
         23    2    1    2    0    0 -0.35527136788E-14  0.00000000000E+00 -0.17763568394E-14  0.91188000000E+02  0.91188000000E+02 0.  0.
    9900012    2    3    3    0    0  0.31585440100E+02 -0.13862822997E+02  0.12882676989E+02  0.54367065001E+02  0.39999956284E+02 0.  0.
        -12    1    3    3    0    0 -0.31585440100E+02  0.13862822997E+02 -0.12882676989E+02  0.36820934999E+02  0.00000000000E+00 0.  1.
         11    1    4    4    0    0  0.24835553241E+02 -0.18031205224E+02  0.10516687800E+02  0.32442715503E+02  0.51100000000E-03 0. -1.
        -11    1    4    4    0    0 -0.64167075177E+01 -0.73523844252E+00  0.42747536417E+01  0.77452068980E+01  0.51100000000E-03 0.  1.
        -12    1    4    4    0    0  0.13166594377E+02  0.49036206697E+01 -0.19087644534E+01  0.14179142601E+02  0.00000000000E+00 0.  1.
</event>
<event>
 8    1  0.2450026E-006  0.9118800E+02  0.7816164E-02  0.1184000E+00
        -11   -1    0    0    0    0  0.00000000000E+00  0.00000000000E+00  0.45593999997E+02  0.45594000000E+02  0.51100000000E-03 0.  1.
         11   -1    0    0    0    0 -0.00000000000E+00 -0.00000000000E+00 -0.45593999997E+02  0.45594000000E+02  0.51100000000E-03 0. -1.
         23    2    1    2    0    0  0.00000000000E+00 -0.88817841970E-15  0.00000000000E+00  0.91188000000E+02  0.91188000000E+02 0.  0.
    9900012    2    3    3    0    0 -0.14874663892E+02 -0.42212500401E+01  0.33417142579E+02  0.54367082087E+02  0.39999995234E+02 0.  0.
         12    1    3    3    0    0  0.14874663892E+02  0.42212500401E+01 -0.33417142579E+02  0.36820917913E+02  0.00000000000E+00 0. -1.
         11    1    4    4    0    0  0.50035261185E+01 -0.14363187544E+02  0.58753078431E+01  0.16305081189E+02  0.51100000000E-03 0. -1.
        -11    1    4    4    0    0  0.60374389047E+00  0.45942918982E+01  0.25949079700E+01  0.53108918615E+01  0.51100000000E-03 0.  1.
        -12    1    4    4    0    0 -0.20481933901E+02  0.55476456061E+01  0.24946926766E+02  0.32751109037E+02  0.00000000000E+00 0.  1.
</event>
<event>
 8    1  0.2450026E-006  0.9118800E+02  0.7816164E-02  0.1184000E+00
        -11   -1    0    0    0    0  0.00000000000E+00  0.00000000000E+00  0.45593999997E+02  0.45594000000E+02  0.51100000000E-03 0.  1.
         11   -1    0    0    0    0 -0.00000000000E+00 -0.00000000000E+00 -0.45593999997E+02  0.45594000000E+02  0.51100000000E-03 0. -1.
         23    2    1    2    0    0 -0.35527136788E-14  0.35527136788E-14 -0.44408920985E-15  0.91188000000E+02  0.91188000000E+02 0.  0.
    9900012    2    3    3    0    0  0.19384146006E+02 -0.31250603526E+02  0.18529735921E+01  0.54367097672E+02  0.40000030762E+02 0.  0.
        -12    1    3    3    0    0 -0.19384146006E+02  0.31250603526E+02 -0.18529735921E+01  0.36820902328E+02  0.00000000000E+00 0.  1.
         11    1    4    4    0    0  0.56462517694E+01 -0.54053596571E+01 -0.28421622871E+01  0.83172085938E+01  0.51100000000E-03 0. -1.
        -11    1    4    4    0    0 -0.66963469215E+01 -0.60019865104E+01  0.13513896091E+02  0.16232384051E+02  0.51100000000E-03 0.  1.
        -12    1    4    4    0    0  0.20434241158E+02 -0.19843257359E+02 -0.88187602123E+01  0.29817505026E+02  0.00000000000E+00 0.  1.
</event>
<event>
 8    1  0.2450026E-006  0.9118800E+02  0.7816164E-02  0.1184000E+00
        -11   -1    0    0    0    0  0.00000000000E+00  0.00000000000E+00  0.45593999997E+02  0.45594000000E+02  0.51100000000E-03 0. -1.
         11   -1    0    0    0    0 -0.00000000000E+00 -0.00000000000E+00 -0.45593999997E+02  0.45594000000E+02  0.51100000000E-03 0.  1.
         23    2    1    2    0    0 -0.35527136788E-14  0.00000000000E+00 -0.59674487574E-15  0.91188000000E+02  0.91188000000E+02 0.  0.
    9900012    2    3    3    0    0  0.24867583666E+02  0.27154723995E+02  0.64503056130E-01  0.54367083209E+02  0.39999997792E+02 0.  0.
         12    1    3    3    0    0 -0.24867583666E+02 -0.27154723995E+02 -0.64503056130E-01  0.36820916791E+02  0.00000000000E+00 0. -1.
         11    1    4    4    0    0  0.13781372444E+02  0.54080555471E+01  0.42075418038E+01  0.15390799185E+02  0.51100000000E-03 0. -1.
        -11    1    4    4    0    0  0.10622524179E+02  0.28859549966E+02 -0.41416005810E-01  0.30752452906E+02  0.51100000000E-03 0.  1.
        -12    1    4    4    0    0  0.46368704227E+00 -0.71128815175E+01 -0.41016227418E+01  0.82238311189E+01  0.00000000000E+00 0.  1.
</event>
<event>
 8    1  0.2450026E-006  0.9118800E+02  0.7816164E-02  0.1184000E+00
        -11   -1    0    0    0    0  0.00000000000E+00  0.00000000000E+00  0.45593999997E+02  0.45594000000E+02  0.51100000000E-03 0.  1.
         11   -1    0    0    0    0 -0.00000000000E+00 -0.00000000000E+00 -0.45593999997E+02  0.45594000000E+02  0.51100000000E-03 0. -1.
         23    2    1    2    0    0 -0.44408920985E-15  0.17763568394E-14  0.00000000000E+00  0.91188000000E+02  0.91188000000E+02 0.  0.
    9900012    2    3    3    0    0 -0.35832926128E+01  0.84330910338E+01  0.35662625397E+02  0.54367083926E+02  0.39999999426E+02 0.  0.
         12    1    3    3    0    0  0.35832926128E+01 -0.84330910338E+01 -0.35662625397E+02  0.36820916074E+02  0.00000000000E+00 0. -1.
         11    1    4    4    0    0  0.48475889359E+01 -0.44256311993E+01  0.10841201371E+02  0.12673475349E+02  0.51100000000E-03 0.  1.
        -11    1    4    4    0    0 -0.10160505299E+01  0.20614078683E+02  0.22837879579E+02  0.30782159485E+02  0.51100000000E-03 0. -1.
         12    1    4    4    0    0 -0.74148310188E+01 -0.77553564498E+01  0.19835444468E+01  0.10911449091E+02  0.00000000000E+00 0. -1.
</event>
<event>
 8    1  0.2450026E-006  0.9118800E+02  0.7816164E-02  0.1184000E+00
        -11   -1    0    0    0    0  0.00000000000E+00  0.00000000000E+00  0.45593999997E+02  0.45594000000E+02  0.51100000000E-03 0.  1.
         11   -1    0    0    0    0 -0.00000000000E+00 -0.00000000000E+00 -0.45593999997E+02  0.45594000000E+02  0.51100000000E-03 0. -1.
         23    2    1    2    0    0  0.00000000000E+00  0.00000000000E+00  0.71054273576E-14  0.91188000000E+02  0.91188000000E+02 0.  0.
    9900012    2    3    3    0    0 -0.89575732120E+01  0.47516268994E+01 -0.35397230560E+02  0.54367081933E+02  0.39999994882E+02 0.  0.
        -12    1    3    3    0    0  0.89575732120E+01 -0.47516268994E+01  0.35397230560E+02  0.36820918067E+02  0.00000000000E+00 0.  1.
         11    1    4    4    0    0 -0.42098616571E+01 -0.66125389890E+00 -0.38225176714E+02  0.38461985479E+02  0.51100000000E-03 0. -1.
        -11    1    4    4    0    0 -0.37777177977E+01  0.62960461626E+01 -0.43994682757E+01  0.85595952246E+01  0.51100000000E-03 0.  1.
        -12    1    4    4    0    0 -0.96999375722E+00 -0.88316536424E+00  0.72274144305E+01  0.73455012286E+01  0.00000000000E+00 0.  1.
</event>
<event>
 8    1  0.2450026E-006  0.9118800E+02  0.7816164E-02  0.1184000E+00
        -11   -1    0    0    0    0  0.00000000000E+00  0.00000000000E+00  0.45593999997E+02  0.45594000000E+02  0.51100000000E-03 0.  1.
         11   -1    0    0    0    0 -0.00000000000E+00 -0.00000000000E+00 -0.45593999997E+02  0.45594000000E+02  0.51100000000E-03 0. -1.
         23    2    1    2    0    0  0.00000000000E+00  0.00000000000E+00 -0.88817841970E-15  0.91188000000E+02  0.91188000000E+02 0.  0.
    9900012    2    3    3    0    0  0.25809099959E+01  0.36046704911E+02  0.70534665244E+01  0.54367117049E+02  0.40000074935E+02 0.  0.
        -12    1    3    3    0    0 -0.25809099959E+01 -0.36046704911E+02 -0.70534665244E+01  0.36820882951E+02  0.00000000000E+00 0.  1.
         11    1    4    4    0    0  0.11184819975E+01  0.28494277072E+02  0.11041297763E+02  0.30579160950E+02  0.51100000000E-03 0. -1.
        -11    1    4    4    0    0 -0.74615820709E+01 -0.16975507901E+01  0.40205489614E+01  0.86441714408E+01  0.51100000000E-03 0.  1.
        -12    1    4    4    0    0  0.89240100693E+01  0.92499786282E+01 -0.80083801997E+01  0.15143784658E+02  0.00000000000E+00 0.  1.
</event>
<event>
 8    1  0.2450026E-006  0.9118800E+02  0.7816164E-02  0.1184000E+00
        -11   -1    0    0    0    0  0.00000000000E+00  0.00000000000E+00  0.45593999997E+02  0.45594000000E+02  0.51100000000E-03 0.  1.
         11   -1    0    0    0    0 -0.00000000000E+00 -0.00000000000E+00 -0.45593999997E+02  0.45594000000E+02  0.51100000000E-03 0. -1.
         23    2    1    2    0    0  0.00000000000E+00  0.35527136788E-14 -0.35527136788E-14  0.91188000000E+02  0.91188000000E+02 0.  0.
    9900012    2    3    3    0    0 -0.18415320119E+02 -0.18244452675E+02 -0.26149461192E+02  0.54367103907E+02  0.40000044976E+02 0.  0.
        -12    1    3    3    0    0  0.18415320119E+02  0.18244452675E+02  0.26149461192E+02  0.36820896093E+02  0.00000000000E+00 0.  1.
         11    1    4    4    0    0 -0.17761744967E+02 -0.12346860262E+02 -0.15625038672E+02  0.26684571879E+02  0.51100000000E-03 0. -1.
        -11    1    4    4    0    0  0.11010169348E+01 -0.10962860419E+02 -0.16381891331E+02  0.19742414004E+02  0.51100000000E-03 0.  1.
        -12    1    4    4    0    0 -0.17545920868E+01  0.50652680053E+01  0.58574688116E+01  0.79401180241E+01  0.00000000000E+00 0.  1.
</event>
<event>
 8    1  0.2450026E-006  0.9118800E+02  0.7816164E-02  0.1184000E+00
        -11   -1    0    0    0    0  0.00000000000E+00  0.00000000000E+00  0.45593999997E+02  0.45594000000E+02  0.51100000000E-03 0. -1.
         11   -1    0    0    0    0 -0.00000000000E+00 -0.00000000000E+00 -0.45593999997E+02  0.45594000000E+02  0.51100000000E-03 0.  1.
         23    2    1    2    0    0  0.31086244690E-14  0.00000000000E+00  0.00000000000E+00  0.91188000000E+02  0.91188000000E+02 0.  0.
    9900012    2    3    3    0    0  0.37014667151E+01 -0.21351636687E+02  0.29768882373E+02  0.54367087426E+02  0.40000007405E+02 0.  0.
        -12    1    3    3    0    0 -0.37014667151E+01  0.21351636687E+02 -0.29768882373E+02  0.36820912574E+02  0.00000000000E+00 0.  1.
         11    1    4    4    0    0  0.17849761237E+02 -0.10737392412E+02  0.19699503139E+02  0.28670123757E+02  0.51100000000E-03 0. -1.
        -11    1    4    4    0    0 -0.36119373592E+01  0.87973073987E+00 -0.34409226052E+01  0.50655667301E+01  0.51100000000E-03 0.  1.
         12    1    4    4    0    0 -0.10536357163E+02 -0.11493975014E+02  0.13510301838E+02  0.20631396939E+02  0.00000000000E+00 0. -1.
</event>
<event>
 8    1  0.2450026E-006  0.9118800E+02  0.7816164E-02  0.1184000E+00
        -11   -1    0    0    0    0  0.00000000000E+00  0.00000000000E+00  0.45593999997E+02  0.45594000000E+02  0.51100000000E-03 0. -1.
         11   -1    0    0    0    0 -0.00000000000E+00 -0.00000000000E+00 -0.45593999997E+02  0.45594000000E+02  0.51100000000E-03 0.  1.
         23    2    1    2    0    0  0.00000000000E+00 -0.17763568394E-14 -0.35527136788E-14  0.91188000000E+02  0.91188000000E+02 0.  0.
    9900012    2    3    3    0    0 -0.26482776354E+02  0.10198160576E+02  0.23461806793E+02  0.54366860684E+02  0.39999490498E+02 0.  0.
        -12    1    3    3    0    0  0.26482776354E+02 -0.10198160576E+02 -0.23461806793E+02  0.36821139316E+02  0.00000000000E+00 0.  1.
         11    1    4    4    0    0 -0.51663019445E+01  0.53347487790E+01  0.70947117027E+01  0.10270596610E+02  0.51100000000E-03 0. -1.
        -11    1    4    4    0    0  0.34394700459E+01 -0.69718167331E+01  0.14672081522E+02  0.16604401802E+02  0.51100000000E-03 0.  1.
         12    1    4    4    0    0 -0.24755944455E+02  0.11835228530E+02  0.16950135689E+01  0.27491862273E+02  0.00000000000E+00 0. -1.
</event>
<event>
 8    1  0.2450026E-006  0.9118800E+02  0.7816164E-02  0.1184000E+00
        -11   -1    0    0    0    0  0.00000000000E+00  0.00000000000E+00  0.45593999997E+02  0.45594000000E+02  0.51100000000E-03 0. -1.
         11   -1    0    0    0    0 -0.00000000000E+00 -0.00000000000E+00 -0.45593999997E+02  0.45594000000E+02  0.51100000000E-03 0.  1.
         23    2    1    2    0    0  0.35527136788E-14 -0.66613381478E-15 -0.35527136788E-14  0.91188000000E+02  0.91188000000E+02 0.  0.
    9900012    2    3    3    0    0  0.23922620734E+02  0.19440824644E+01 -0.27923278741E+02  0.54367072051E+02  0.39999972354E+02 0.  0.
         12    1    3    3    0    0 -0.23922620734E+02 -0.19440824644E+01  0.27923278741E+02  0.36820927949E+02  0.00000000000E+00 0. -1.
         11    1    4    4    0    0  0.70333557800E+01  0.38205676013E+00 -0.22021231711E+02  0.23120309411E+02  0.51100000000E-03 0.  1.
        -11    1    4    4    0    0  0.57889869289E+01  0.13186729699E+02 -0.97121332583E+00  0.14434176991E+02  0.51100000000E-03 0. -1.
         12    1    4    4    0    0  0.11100278025E+02 -0.11624703995E+02 -0.49308337035E+01  0.16812585649E+02  0.00000000000E+00 0. -1.
</event>
<event>
 8    1  0.2450026E-006  0.9118800E+02  0.7816164E-02  0.1184000E+00
        -11   -1    0    0    0    0  0.00000000000E+00  0.00000000000E+00  0.45593999997E+02  0.45594000000E+02  0.51100000000E-03 0. -1.
         11   -1    0    0    0    0 -0.00000000000E+00 -0.00000000000E+00 -0.45593999997E+02  0.45594000000E+02  0.51100000000E-03 0.  1.
         23    2    1    2    0    0  0.00000000000E+00 -0.35527136788E-14  0.00000000000E+00  0.91188000000E+02  0.91188000000E+02 0.  0.
    9900012    2    3    3    0    0 -0.25693002883E+02  0.25227297702E+02  0.76964120909E+01  0.54367058872E+02  0.39999942310E+02 0.  0.
        -12    1    3    3    0    0  0.25693002883E+02 -0.25227297702E+02 -0.76964120909E+01  0.36820941128E+02  0.00000000000E+00 0.  1.
         11    1    4    4    0    0 -0.10413145837E+02  0.11749061999E+02  0.84707941480E+00  0.15722328323E+02  0.51100000000E-03 0. -1.
        -11    1    4    4    0    0 -0.15213659710E+02  0.48388228781E+01 -0.10607182816E+02  0.19167210964E+02  0.51100000000E-03 0.  1.
        -12    1    4    4    0    0 -0.66197335592E-01  0.86394128251E+01  0.17456515492E+02  0.19477519585E+02  0.00000000000E+00 0.  1.
</event>
<event>
 8    1  0.2450026E-006  0.9118800E+02  0.7816164E-02  0.1184000E+00
        -11   -1    0    0    0    0  0.00000000000E+00  0.00000000000E+00  0.45593999997E+02  0.45594000000E+02  0.51100000000E-03 0. -1.
         11   -1    0    0    0    0 -0.00000000000E+00 -0.00000000000E+00 -0.45593999997E+02  0.45594000000E+02  0.51100000000E-03 0.  1.
         23    2    1    2    0    0  0.00000000000E+00  0.17763568394E-14  0.00000000000E+00  0.91188000000E+02  0.91188000000E+02 0.  0.
    9900012    2    3    3    0    0  0.17642907222E+02  0.13554138986E+02 -0.29339292156E+02  0.54367069497E+02  0.39999966533E+02 0.  0.
         12    1    3    3    0    0 -0.17642907222E+02 -0.13554138986E+02  0.29339292156E+02  0.36820930503E+02  0.00000000000E+00 0. -1.
         11    1    4    4    0    0  0.10243826393E+02  0.44288796386E+01  0.45110217500E+01  0.12037452866E+02  0.51100000000E-03 0. -1.
        -11    1    4    4    0    0  0.68114347581E+01  0.16463574231E+02 -0.26450040192E+02  0.31891214250E+02  0.51100000000E-03 0.  1.
        -12    1    4    4    0    0  0.58764607175E+00 -0.73383148835E+01 -0.74002737136E+01  0.10438402381E+02  0.00000000000E+00 0.  1.
</event>
<event>
 8    1  0.2450026E-006  0.9118800E+02  0.7816164E-02  0.1184000E+00
        -11   -1    0    0    0    0  0.00000000000E+00  0.00000000000E+00  0.45593999997E+02  0.45594000000E+02  0.51100000000E-03 0. -1.
         11   -1    0    0    0    0 -0.00000000000E+00 -0.00000000000E+00 -0.45593999997E+02  0.45594000000E+02  0.51100000000E-03 0.  1.
         23    2    1    2    0    0 -0.10658141036E-13  0.00000000000E+00  0.17763568394E-14  0.91188000000E+02  0.91188000000E+02 0.  0.
    9900012    2    3    3    0    0 -0.25941832100E+02  0.22206222538E+02  0.13772589290E+02  0.54367093060E+02  0.40000020249E+02 0.  0.
        -12    1    3    3    0    0  0.25941832100E+02 -0.22206222538E+02 -0.13772589290E+02  0.36820906940E+02  0.00000000000E+00 0.  1.
         11    1    4    4    0    0  0.72995190174E+01  0.57942380994E+01  0.10382024644E+02  0.13951437524E+02  0.51100000000E-03 0. -1.
        -11    1    4    4    0    0 -0.84451476568E+01  0.38382861686E+01 -0.60264264195E+01  0.11062132494E+02  0.51100000000E-03 0.  1.
         12    1    4    4    0    0 -0.24796203460E+02  0.12573698270E+02  0.94169910663E+01  0.29353523042E+02  0.00000000000E+00 0. -1.
</event>
<event>
 8    1  0.2450026E-006  0.9118800E+02  0.7816164E-02  0.1184000E+00
        -11   -1    0    0    0    0  0.00000000000E+00  0.00000000000E+00  0.45593999997E+02  0.45594000000E+02  0.51100000000E-03 0.  1.
         11   -1    0    0    0    0 -0.00000000000E+00 -0.00000000000E+00 -0.45593999997E+02  0.45594000000E+02  0.51100000000E-03 0. -1.
         23    2    1    2    0    0  0.17763568394E-14  0.17763568394E-14  0.71054273576E-14  0.91188000000E+02  0.91188000000E+02 0.  0.
    9900012    2    3    3    0    0  0.81114241058E+01  0.12684464274E+02 -0.33601967854E+02  0.54367040227E+02  0.39999899805E+02 0.  0.
        -12    1    3    3    0    0 -0.81114241058E+01 -0.12684464274E+02  0.33601967854E+02  0.36820959773E+02  0.00000000000E+00 0.  1.
         11    1    4    4    0    0  0.12953400122E+02  0.13702958580E+02 -0.20768977614E+02  0.28051953229E+02  0.51100000000E-03 0. -1.
        -11    1    4    4    0    0 -0.77926461469E+01 -0.39692628967E+01  0.35281458250E+01  0.94301747140E+01  0.51100000000E-03 0.  1.
        -12    1    4    4    0    0  0.29506701309E+01  0.29507685906E+01 -0.16361136065E+02  0.16884912284E+02  0.00000000000E+00 0.  1.
</event>
<event>
 8    1  0.2450026E-006  0.9118800E+02  0.7816164E-02  0.1184000E+00
        -11   -1    0    0    0    0  0.00000000000E+00  0.00000000000E+00  0.45593999997E+02  0.45594000000E+02  0.51100000000E-03 0.  1.
         11   -1    0    0    0    0 -0.00000000000E+00 -0.00000000000E+00 -0.45593999997E+02  0.45594000000E+02  0.51100000000E-03 0. -1.
         23    2    1    2    0    0  0.00000000000E+00  0.00000000000E+00 -0.35527136788E-14  0.91188000000E+02  0.91188000000E+02 0.  0.
    9900012    2    3    3    0    0 -0.11369080466E+02  0.15960400484E+02 -0.31173530118E+02  0.54367090800E+02  0.40000015098E+02 0.  0.
        -12    1    3    3    0    0  0.11369080466E+02 -0.15960400484E+02  0.31173530118E+02  0.36820909200E+02  0.00000000000E+00 0.  1.
         11    1    4    4    0    0 -0.15468969484E+02  0.53325179004E+01 -0.23866490755E+02  0.28936726582E+02  0.51100000000E-03 0. -1.
        -11    1    4    4    0    0 -0.64655523023E+01 -0.13575311322E+00  0.30338526551E+01  0.71432525978E+01  0.51100000000E-03 0.  1.
         12    1    4    4    0    0  0.10565441320E+02  0.10763635697E+02 -0.10340892018E+02  0.18287111621E+02  0.00000000000E+00 0. -1.
</event>
<event>
 8    1  0.2450026E-006  0.9118800E+02  0.7816164E-02  0.1184000E+00
        -11   -1    0    0    0    0  0.00000000000E+00  0.00000000000E+00  0.45593999997E+02  0.45594000000E+02  0.51100000000E-03 0.  1.
         11   -1    0    0    0    0 -0.00000000000E+00 -0.00000000000E+00 -0.45593999997E+02  0.45594000000E+02  0.51100000000E-03 0. -1.
         23    2    1    2    0    0  0.00000000000E+00  0.35527136788E-14  0.00000000000E+00  0.91188000000E+02  0.91188000000E+02 0.  0.
    9900012    2    3    3    0    0  0.17405696182E+02 -0.31951234369E+02  0.56515586871E+01  0.54367085388E+02  0.40000002759E+02 0.  0.
         12    1    3    3    0    0 -0.17405696182E+02  0.31951234369E+02 -0.56515586871E+01  0.36820914612E+02  0.00000000000E+00 0. -1.
         11    1    4    4    0    0  0.69111736135E+01 -0.71066120290E+01  0.16921658753E+01  0.10056424855E+02  0.51100000000E-03 0. -1.
        -11    1    4    4    0    0  0.20451055436E+02 -0.64755022810E+01 -0.42376611378E+01  0.21866311313E+02  0.51100000000E-03 0.  1.
         12    1    4    4    0    0 -0.99565328679E+01 -0.18369120059E+02  0.81970539496E+01  0.22444349221E+02  0.00000000000E+00 0. -1.
</event>
<event>
 8    1  0.2450026E-006  0.9118800E+02  0.7816164E-02  0.1184000E+00
        -11   -1    0    0    0    0  0.00000000000E+00  0.00000000000E+00  0.45593999997E+02  0.45594000000E+02  0.51100000000E-03 0. -1.
         11   -1    0    0    0    0 -0.00000000000E+00 -0.00000000000E+00 -0.45593999997E+02  0.45594000000E+02  0.51100000000E-03 0.  1.
         23    2    1    2    0    0 -0.35527136788E-14  0.35527136788E-14  0.44408920985E-15  0.91188000000E+02  0.91188000000E+02 0.  0.
    9900012    2    3    3    0    0 -0.24812727430E+02  0.27121946020E+02 -0.21231874215E+01  0.54367091222E+02  0.40000016059E+02 0.  0.
        -12    1    3    3    0    0  0.24812727430E+02 -0.27121946020E+02  0.21231874215E+01  0.36820908778E+02  0.00000000000E+00 0.  1.
         11    1    4    4    0    0 -0.17521446795E+02  0.13345512910E+02 -0.15349136505E+02  0.26845852646E+02  0.51100000000E-03 0.  1.
        -11    1    4    4    0    0 -0.10903135129E+02  0.88407384794E+01  0.12732209084E+01  0.14094612596E+02  0.51100000000E-03 0. -1.
         12    1    4    4    0    0  0.36118544937E+01  0.49356946308E+01  0.11952728175E+02  0.13426625979E+02  0.00000000000E+00 0. -1.
</event>
<event>
 8    1  0.2450026E-006  0.9118800E+02  0.7816164E-02  0.1184000E+00
        -11   -1    0    0    0    0  0.00000000000E+00  0.00000000000E+00  0.45593999997E+02  0.45594000000E+02  0.51100000000E-03 0. -1.
         11   -1    0    0    0    0 -0.00000000000E+00 -0.00000000000E+00 -0.45593999997E+02  0.45594000000E+02  0.51100000000E-03 0.  1.
         23    2    1    2    0    0  0.00000000000E+00 -0.14432899320E-14  0.17763568394E-14  0.91188000000E+02  0.91188000000E+02 0.  0.
    9900012    2    3    3    0    0 -0.35170833272E+02  0.65698265355E+00 -0.10879382526E+02  0.54367080628E+02  0.39999991908E+02 0.  0.
        -12    1    3    3    0    0  0.35170833272E+02 -0.65698265355E+00  0.10879382526E+02  0.36820919372E+02  0.00000000000E+00 0.  1.
         11    1    4    4    0    0 -0.31356247971E+02  0.76962284564E+01 -0.16908844310E+02  0.36446608010E+02  0.51100000000E-03 0. -1.
        -11    1    4    4    0    0 -0.29179132782E+00 -0.32526513128E+01 -0.48657338782E+01  0.58600553902E+01  0.51100000000E-03 0.  1.
         12    1    4    4    0    0 -0.35227939734E+01 -0.37865944900E+01  0.10895195662E+02  0.12060417228E+02  0.00000000000E+00 0. -1.
</event>
<event>
 8    1  0.2450026E-006  0.9118800E+02  0.7816164E-02  0.1184000E+00
        -11   -1    0    0    0    0  0.00000000000E+00  0.00000000000E+00  0.45593999997E+02  0.45594000000E+02  0.51100000000E-03 0. -1.
         11   -1    0    0    0    0 -0.00000000000E+00 -0.00000000000E+00 -0.45593999997E+02  0.45594000000E+02  0.51100000000E-03 0.  1.
         23    2    1    2    0    0 -0.35527136788E-14  0.00000000000E+00  0.71054273576E-14  0.91188000000E+02  0.91188000000E+02 0.  0.
    9900012    2    3    3    0    0  0.25977323735E+02  0.73512980772E+01 -0.25038327003E+02  0.54367071835E+02  0.39999971861E+02 0.  0.
         12    1    3    3    0    0 -0.25977323735E+02 -0.73512980772E+01  0.25038327003E+02  0.36820928165E+02  0.00000000000E+00 0. -1.
         11    1    4    4    0    0 -0.50724718771E+00  0.11910996477E+02 -0.79343985271E+00  0.11948166548E+02  0.51100000000E-03 0. -1.
        -11    1    4    4    0    0  0.65387199405E+01 -0.11660722137E+02 -0.68739709169E+01  0.15032590451E+02  0.51100000000E-03 0.  1.
        -12    1    4    4    0    0  0.19945850982E+02  0.71010237373E+01 -0.17370916233E+02  0.27386314836E+02  0.00000000000E+00 0.  1.
</event>
<event>
 8    1  0.2450026E-006  0.9118800E+02  0.7816164E-02  0.1184000E+00
        -11   -1    0    0    0    0  0.00000000000E+00  0.00000000000E+00  0.45593999997E+02  0.45594000000E+02  0.51100000000E-03 0.  1.
         11   -1    0    0    0    0 -0.00000000000E+00 -0.00000000000E+00 -0.45593999997E+02  0.45594000000E+02  0.51100000000E-03 0. -1.
         23    2    1    2    0    0  0.00000000000E+00  0.00000000000E+00  0.00000000000E+00  0.91188000000E+02  0.91188000000E+02 0.  0.
    9900012    2    3    3    0    0  0.90253615420E+01  0.34689612858E+02 -0.84233766334E+01  0.54367086580E+02  0.40000005476E+02 0.  0.
         12    1    3    3    0    0 -0.90253615420E+01 -0.34689612858E+02  0.84233766334E+01  0.36820913420E+02  0.00000000000E+00 0. -1.
         11    1    4    4    0    0  0.13431011990E+02  0.12457285616E+02 -0.16599633007E+02  0.24720919566E+02  0.51100000000E-03 0. -1.
        -11    1    4    4    0    0  0.40085965489E+01  0.46560543202E+01  0.80911508904E+01  0.10159449351E+02  0.51100000000E-03 0.  1.
        -12    1    4    4    0    0 -0.84142469964E+01  0.17576272922E+02  0.85105482733E-01  0.19486717663E+02  0.00000000000E+00 0.  1.
</event>
<event>
 8    1  0.2450026E-006  0.9118800E+02  0.7816164E-02  0.1184000E+00
        -11   -1    0    0    0    0  0.00000000000E+00  0.00000000000E+00  0.45593999997E+02  0.45594000000E+02  0.51100000000E-03 0. -1.
         11   -1    0    0    0    0 -0.00000000000E+00 -0.00000000000E+00 -0.45593999997E+02  0.45594000000E+02  0.51100000000E-03 0.  1.
         23    2    1    2    0    0  0.00000000000E+00  0.22204460493E-15  0.71054273576E-14  0.91188000000E+02  0.91188000000E+02 0.  0.
    9900012    2    3    3    0    0  0.22595292408E+02  0.17573484063E+01  0.29019727926E+02  0.54367080385E+02  0.39999991354E+02 0.  0.
        -12    1    3    3    0    0 -0.22595292408E+02 -0.17573484063E+01 -0.29019727926E+02  0.36820919615E+02  0.00000000000E+00 0.  1.
         11    1    4    4    0    0  0.16999619296E+02 -0.31155931425E+01  0.23962717893E+02  0.29544979708E+02  0.51100000000E-03 0. -1.
        -11    1    4    4    0    0  0.32746191324E+01  0.93534981359E+01  0.12424181261E+02  0.15892493137E+02  0.51100000000E-03 0.  1.
        -12    1    4    4    0    0  0.23210539802E+01 -0.44805565870E+01 -0.73671712289E+01  0.89296075404E+01  0.00000000000E+00 0.  1.
</event>
<event>
 8    1  0.2450026E-006  0.9118800E+02  0.7816164E-02  0.1184000E+00
        -11   -1    0    0    0    0  0.00000000000E+00  0.00000000000E+00  0.45593999997E+02  0.45594000000E+02  0.51100000000E-03 0.  1.
         11   -1    0    0    0    0 -0.00000000000E+00 -0.00000000000E+00 -0.45593999997E+02  0.45594000000E+02  0.51100000000E-03 0. -1.
         23    2    1    2    0    0  0.33306690739E-15  0.00000000000E+00  0.35527136788E-14  0.91188000000E+02  0.91188000000E+02 0.  0.
    9900012    2    3    3    0    0 -0.66651008528E+00 -0.34891591430E+02 -0.11743579523E+02  0.54367094957E+02  0.40000024573E+02 0.  0.
        -12    1    3    3    0    0  0.66651008528E+00  0.34891591430E+02  0.11743579523E+02  0.36820905043E+02  0.00000000000E+00 0.  1.
         11    1    4    4    0    0  0.15151675742E+01 -0.35230111979E+02  0.54700699510E+01  0.35684425011E+02  0.51100000000E-03 0. -1.
        -11    1    4    4    0    0  0.21708364698E+01  0.68842499740E+00 -0.27303833426E+01  0.35554821634E+01  0.51100000000E-03 0.  1.
         12    1    4    4    0    0 -0.43525141293E+01 -0.34990444825E+00 -0.14483266131E+02  0.15127187782E+02  0.00000000000E+00 0. -1.
</event>
<event>
 8    1  0.2450026E-006  0.9118800E+02  0.7816164E-02  0.1184000E+00
        -11   -1    0    0    0    0  0.00000000000E+00  0.00000000000E+00  0.45593999997E+02  0.45594000000E+02  0.51100000000E-03 0. -1.
         11   -1    0    0    0    0 -0.00000000000E+00 -0.00000000000E+00 -0.45593999997E+02  0.45594000000E+02  0.51100000000E-03 0.  1.
         23    2    1    2    0    0 -0.17763568394E-14  0.00000000000E+00  0.35527136788E-14  0.91188000000E+02  0.91188000000E+02 0.  0.
    9900012    2    3    3    0    0  0.53137720759E+01 -0.25185056027E+02 -0.26329763397E+02  0.54367086631E+02  0.40000005593E+02 0.  0.
         12    1    3    3    0    0 -0.53137720759E+01  0.25185056027E+02  0.26329763397E+02  0.36820913369E+02  0.00000000000E+00 0. -1.
         11    1    4    4    0    0  0.13899305108E+02 -0.95674483585E-01 -0.13150635508E+02  0.19134760271E+02  0.51100000000E-03 0. -1.
        -11    1    4    4    0    0 -0.10870250243E+02 -0.48343242707E+01 -0.22638462637E+01  0.12110244905E+02  0.51100000000E-03 0.  1.
        -12    1    4    4    0    0  0.22847172113E+01 -0.20255057273E+02 -0.10915281625E+02  0.23122081455E+02  0.00000000000E+00 0.  1.
</event>
<event>
 8    1  0.2450026E-006  0.9118800E+02  0.7816164E-02  0.1184000E+00
        -11   -1    0    0    0    0  0.00000000000E+00  0.00000000000E+00  0.45593999997E+02  0.45594000000E+02  0.51100000000E-03 0. -1.
         11   -1    0    0    0    0 -0.00000000000E+00 -0.00000000000E+00 -0.45593999997E+02  0.45594000000E+02  0.51100000000E-03 0.  1.
         23    2    1    2    0    0  0.00000000000E+00 -0.71054273576E-14 -0.44408920985E-15  0.91188000000E+02  0.91188000000E+02 0.  0.
    9900012    2    3    3    0    0  0.10928450763E+02  0.34980940172E+02 -0.35606802302E+01  0.54367141033E+02  0.40000129612E+02 0.  0.
        -12    1    3    3    0    0 -0.10928450763E+02 -0.34980940172E+02  0.35606802302E+01  0.36820858967E+02  0.00000000000E+00 0.  1.
         11    1    4    4    0    0  0.28268624578E+01 -0.14256577077E+01  0.56102096327E+01  0.64419021755E+01  0.51100000000E-03 0. -1.
        -11    1    4    4    0    0 -0.68861378246E+01  0.20387889017E+02 -0.13720690136E+02  0.25521407696E+02  0.51100000000E-03 0.  1.
         12    1    4    4    0    0  0.14987726130E+02  0.16018708862E+02  0.45498002733E+01  0.22403831161E+02  0.00000000000E+00 0. -1.
</event>
<event>
 8    1  0.2450026E-006  0.9118800E+02  0.7816164E-02  0.1184000E+00
        -11   -1    0    0    0    0  0.00000000000E+00  0.00000000000E+00  0.45593999997E+02  0.45594000000E+02  0.51100000000E-03 0.  1.
         11   -1    0    0    0    0 -0.00000000000E+00 -0.00000000000E+00 -0.45593999997E+02  0.45594000000E+02  0.51100000000E-03 0. -1.
         23    2    1    2    0    0  0.00000000000E+00  0.00000000000E+00  0.35527136788E-14  0.91188000000E+02  0.91188000000E+02 0.  0.
    9900012    2    3    3    0    0  0.20162593385E+02  0.12493268359E+02  0.28163226180E+02  0.54367092418E+02  0.40000018786E+02 0.  0.
         12    1    3    3    0    0 -0.20162593385E+02 -0.12493268359E+02 -0.28163226180E+02  0.36820907582E+02  0.00000000000E+00 0. -1.
         11    1    4    4    0    0  0.33405588655E+01  0.14840420684E+01  0.17546781614E+01  0.40547022216E+01  0.51100000000E-03 0.  1.
        -11    1    4    4    0    0  0.27559904601E+02  0.14695442284E+02  0.16952550076E+02  0.35537210356E+02  0.51100000000E-03 0. -1.
         12    1    4    4    0    0 -0.10737870082E+02 -0.36862159937E+01  0.94559979423E+01  0.14775179841E+02  0.00000000000E+00 0. -1.
</event>
<event>
 8    1  0.2450026E-006  0.9118800E+02  0.7816164E-02  0.1184000E+00
        -11   -1    0    0    0    0  0.00000000000E+00  0.00000000000E+00  0.45593999997E+02  0.45594000000E+02  0.51100000000E-03 0. -1.
         11   -1    0    0    0    0 -0.00000000000E+00 -0.00000000000E+00 -0.45593999997E+02  0.45594000000E+02  0.51100000000E-03 0.  1.
         23    2    1    2    0    0  0.00000000000E+00  0.35527136788E-14  0.00000000000E+00  0.91188000000E+02  0.91188000000E+02 0.  0.
    9900012    2    3    3    0    0  0.44054481173E+01 -0.15944164299E+02  0.32896166822E+02  0.54367052974E+02  0.39999928864E+02 0.  0.
        -12    1    3    3    0    0 -0.44054481173E+01  0.15944164299E+02 -0.32896166822E+02  0.36820947026E+02  0.00000000000E+00 0.  1.
         11    1    4    4    0    0  0.28084310803E+01  0.92345128396E+01  0.25279564359E+02  0.27059561840E+02  0.51100000000E-03 0. -1.
        -11    1    4    4    0    0 -0.23962036687E+01 -0.16458451623E+02  0.47305583343E+01  0.17291633939E+02  0.51100000000E-03 0.  1.
         12    1    4    4    0    0  0.39932207057E+01 -0.87202255152E+01  0.28860441290E+01  0.10015857195E+02  0.00000000000E+00 0. -1.
</event>
<event>
 8    1  0.2450026E-006  0.9118800E+02  0.7816164E-02  0.1184000E+00
        -11   -1    0    0    0    0  0.00000000000E+00  0.00000000000E+00  0.45593999997E+02  0.45594000000E+02  0.51100000000E-03 0.  1.
         11   -1    0    0    0    0 -0.00000000000E+00 -0.00000000000E+00 -0.45593999997E+02  0.45594000000E+02  0.51100000000E-03 0. -1.
         23    2    1    2    0    0  0.71054273576E-14 -0.12212453271E-14  0.00000000000E+00  0.91188000000E+02  0.91188000000E+02 0.  0.
    9900012    2    3    3    0    0 -0.33290706829E+02 -0.68859578005E+00  0.15717342879E+02  0.54367079419E+02  0.39999989151E+02 0.  0.
         12    1    3    3    0    0  0.33290706829E+02  0.68859578005E+00 -0.15717342879E+02  0.36820920581E+02  0.00000000000E+00 0. -1.
         11    1    4    4    0    0 -0.14006425001E+02 -0.12576808339E+02 -0.55638180646E+01  0.19629368839E+02  0.51100000000E-03 0. -1.
        -11    1    4    4    0    0 -0.17614337492E+02  0.13757939697E+02  0.22700539884E+02  0.31856872120E+02  0.51100000000E-03 0.  1.
        -12    1    4    4    0    0 -0.16699443356E+01 -0.18697271380E+01 -0.14193789407E+01  0.28808384599E+01  0.00000000000E+00 0.  1.
</event>
<event>
 8    1  0.2450026E-006  0.9118800E+02  0.7816164E-02  0.1184000E+00
        -11   -1    0    0    0    0  0.00000000000E+00  0.00000000000E+00  0.45593999997E+02  0.45594000000E+02  0.51100000000E-03 0. -1.
         11   -1    0    0    0    0 -0.00000000000E+00 -0.00000000000E+00 -0.45593999997E+02  0.45594000000E+02  0.51100000000E-03 0.  1.
         23    2    1    2    0    0  0.35527136788E-14  0.88817841970E-15  0.00000000000E+00  0.91188000000E+02  0.91188000000E+02 0.  0.
    9900012    2    3    3    0    0 -0.85220790059E+01  0.40112503074E+01 -0.35595855841E+02  0.54367069639E+02  0.39999966856E+02 0.  0.
         12    1    3    3    0    0  0.85220790059E+01 -0.40112503074E+01  0.35595855841E+02  0.36820930361E+02  0.00000000000E+00 0. -1.
         11    1    4    4    0    0  0.17150343604E+01  0.28175407708E+00 -0.80694188672E+01  0.82544684464E+01  0.51100000000E-03 0.  1.
        -11    1    4    4    0    0  0.11947815961E+02 -0.39940145797E+01 -0.14658761222E+02  0.19328262714E+02  0.51100000000E-03 0. -1.
        -12    1    4    4    0    0 -0.22184929328E+02  0.77235108100E+01 -0.12867675752E+02  0.26784338479E+02  0.00000000000E+00 0.  1.
</event>
<event>
 8    1  0.2450026E-006  0.9118800E+02  0.7816164E-02  0.1184000E+00
        -11   -1    0    0    0    0  0.00000000000E+00  0.00000000000E+00  0.45593999997E+02  0.45594000000E+02  0.51100000000E-03 0. -1.
         11   -1    0    0    0    0 -0.00000000000E+00 -0.00000000000E+00 -0.45593999997E+02  0.45594000000E+02  0.51100000000E-03 0.  1.
         23    2    1    2    0    0 -0.35527136788E-14  0.88817841970E-15  0.00000000000E+00  0.91188000000E+02  0.91188000000E+02 0.  0.
    9900012    2    3    3    0    0 -0.94927927342E+01 -0.37326644291E+01 -0.35379849946E+02  0.54367086380E+02  0.40000005020E+02 0.  0.
         12    1    3    3    0    0  0.94927927342E+01  0.37326644291E+01  0.35379849946E+02  0.36820913620E+02  0.00000000000E+00 0. -1.
         11    1    4    4    0    0 -0.16198715052E+02 -0.19381612840E+01 -0.91587505365E+01  0.18709290477E+02  0.51100000000E-03 0. -1.
        -11    1    4    4    0    0  0.74282793122E+01 -0.11780182092E+02 -0.12812800246E+02  0.18924055434E+02  0.51100000000E-03 0.  1.
        -12    1    4    4    0    0 -0.72235699492E+00  0.99856789464E+01 -0.13408299163E+02  0.16733740469E+02  0.00000000000E+00 0.  1.
</event>
<event>
 8    1  0.2450026E-006  0.9118800E+02  0.7816164E-02  0.1184000E+00
        -11   -1    0    0    0    0  0.00000000000E+00  0.00000000000E+00  0.45593999997E+02  0.45594000000E+02  0.51100000000E-03 0.  1.
         11   -1    0    0    0    0 -0.00000000000E+00 -0.00000000000E+00 -0.45593999997E+02  0.45594000000E+02  0.51100000000E-03 0. -1.
         23    2    1    2    0    0  0.00000000000E+00  0.00000000000E+00  0.00000000000E+00  0.91188000000E+02  0.91188000000E+02 0.  0.
    9900012    2    3    3    0    0 -0.76893880272E+01 -0.27971163711E+02 -0.22677812385E+02  0.54366866637E+02  0.39999504069E+02 0.  0.
        -12    1    3    3    0    0  0.76893880272E+01  0.27971163711E+02  0.22677812385E+02  0.36821133363E+02  0.00000000000E+00 0.  1.
         11    1    4    4    0    0  0.13966718599E+01 -0.90182357160E+01  0.10659088552E+01  0.91877869840E+01  0.51100000000E-03 0. -1.
        -11    1    4    4    0    0 -0.18598586191E+01 -0.45968832985E+01  0.81067952508E+01  0.95031857628E+01  0.51100000000E-03 0.  1.
         12    1    4    4    0    0 -0.72262012680E+01 -0.14356044696E+02 -0.31850516491E+02  0.35675893890E+02  0.00000000000E+00 0. -1.
</event>
<event>
 8    1  0.2450026E-006  0.9118800E+02  0.7816164E-02  0.1184000E+00
        -11   -1    0    0    0    0  0.00000000000E+00  0.00000000000E+00  0.45593999997E+02  0.45594000000E+02  0.51100000000E-03 0. -1.
         11   -1    0    0    0    0 -0.00000000000E+00 -0.00000000000E+00 -0.45593999997E+02  0.45594000000E+02  0.51100000000E-03 0.  1.
         23    2    1    2    0    0 -0.11102230246E-15  0.00000000000E+00  0.00000000000E+00  0.91188000000E+02  0.91188000000E+02 0.  0.
    9900012    2    3    3    0    0 -0.97208016436E+00 -0.34481120972E+02 -0.12879662923E+02  0.54367104297E+02  0.40000045866E+02 0.  0.
         12    1    3    3    0    0  0.97208016436E+00  0.34481120972E+02  0.12879662923E+02  0.36820895703E+02  0.00000000000E+00 0. -1.
         11    1    4    4    0    0 -0.90156418577E+01  0.12358354581E+01 -0.47961073791E+01  0.10286483055E+02  0.51100000000E-03 0. -1.
        -11    1    4    4    0    0 -0.68505985187E+01 -0.15279960372E+02 -0.85202859284E+01  0.18788378365E+02  0.51100000000E-03 0.  1.
         12    1    4    4    0    0  0.14894160212E+02 -0.20436996059E+02  0.43673038487E+00  0.25292242877E+02  0.00000000000E+00 0. -1.
</event>
<event>
 8    1  0.2450026E-006  0.9118800E+02  0.7816164E-02  0.1184000E+00
        -11   -1    0    0    0    0  0.00000000000E+00  0.00000000000E+00  0.45593999997E+02  0.45594000000E+02  0.51100000000E-03 0.  1.
         11   -1    0    0    0    0 -0.00000000000E+00 -0.00000000000E+00 -0.45593999997E+02  0.45594000000E+02  0.51100000000E-03 0. -1.
         23    2    1    2    0    0 -0.35527136788E-14 -0.88817841970E-15 -0.71054273576E-14  0.91188000000E+02  0.91188000000E+02 0.  0.
    9900012    2    3    3    0    0 -0.20688420921E+02 -0.68650566008E+01 -0.29675590027E+02  0.54367076522E+02  0.39999982548E+02 0.  0.
        -12    1    3    3    0    0  0.20688420921E+02  0.68650566008E+01  0.29675590027E+02  0.36820923478E+02  0.00000000000E+00 0.  1.
         11    1    4    4    0    0 -0.68752686566E+01  0.58370147264E+00  0.79157187344E+01  0.10500887098E+02  0.51100000000E-03 0. -1.
        -11    1    4    4    0    0 -0.47229632551E+01 -0.10539734786E+02 -0.28029549985E+02  0.30315805513E+02  0.51100000000E-03 0.  1.
         12    1    4    4    0    0 -0.90901890088E+01  0.30909767126E+01 -0.95617587761E+01  0.13550383911E+02  0.00000000000E+00 0. -1.
</event>
<event>
 8    1  0.2450026E-006  0.9118800E+02  0.7816164E-02  0.1184000E+00
        -11   -1    0    0    0    0  0.00000000000E+00  0.00000000000E+00  0.45593999997E+02  0.45594000000E+02  0.51100000000E-03 0. -1.
         11   -1    0    0    0    0 -0.00000000000E+00 -0.00000000000E+00 -0.45593999997E+02  0.45594000000E+02  0.51100000000E-03 0.  1.
         23    2    1    2    0    0  0.00000000000E+00  0.17763568394E-14 -0.17763568394E-14  0.91188000000E+02  0.91188000000E+02 0.  0.
    9900012    2    3    3    0    0 -0.32487509035E+02  0.12558861364E+02  0.11942193897E+02  0.54367092391E+02  0.40000018724E+02 0.  0.
        -12    1    3    3    0    0  0.32487509035E+02 -0.12558861364E+02 -0.11942193897E+02  0.36820907609E+02  0.00000000000E+00 0.  1.
         11    1    4    4    0    0  0.46272174252E+01 -0.21581006976E+01 -0.14518722760E+01  0.53081515698E+01  0.51100000000E-03 0. -1.
        -11    1    4    4    0    0 -0.17275092301E+02  0.12642019332E+01 -0.58889150690E+01  0.18294981320E+02  0.51100000000E-03 0.  1.
         12    1    4    4    0    0 -0.19839634159E+02  0.13452760129E+02  0.19282981242E+02  0.30763959502E+02  0.00000000000E+00 0. -1.
</event>
<event>
 8    1  0.2450026E-006  0.9118800E+02  0.7816164E-02  0.1184000E+00
        -11   -1    0    0    0    0  0.00000000000E+00  0.00000000000E+00  0.45593999997E+02  0.45594000000E+02  0.51100000000E-03 0.  1.
         11   -1    0    0    0    0 -0.00000000000E+00 -0.00000000000E+00 -0.45593999997E+02  0.45594000000E+02  0.51100000000E-03 0. -1.
         23    2    1    2    0    0 -0.35527136788E-14 -0.35527136788E-14  0.22204460493E-14  0.91188000000E+02  0.91188000000E+02 0.  0.
    9900012    2    3    3    0    0  0.29411044311E+02  0.22062405908E+02 -0.20051790793E+01  0.54367081692E+02  0.39999994333E+02 0.  0.
        -12    1    3    3    0    0 -0.29411044311E+02 -0.22062405908E+02  0.20051790793E+01  0.36820918308E+02  0.00000000000E+00 0.  1.
         11    1    4    4    0    0  0.23439702373E+02  0.10008592307E+02  0.13652726761E+02  0.28913465991E+02  0.51100000000E-03 0. -1.
        -11    1    4    4    0    0  0.61074018484E+00  0.71529616260E+01  0.10310374039E+01  0.72526479293E+01  0.51100000000E-03 0.  1.
        -12    1    4    4    0    0  0.53606017527E+01  0.49008519748E+01 -0.16688943244E+02  0.18200967772E+02  0.00000000000E+00 0.  1.
</event>
<event>
 8    1  0.2450026E-006  0.9118800E+02  0.7816164E-02  0.1184000E+00
        -11   -1    0    0    0    0  0.00000000000E+00  0.00000000000E+00  0.45593999997E+02  0.45594000000E+02  0.51100000000E-03 0.  1.
         11   -1    0    0    0    0 -0.00000000000E+00 -0.00000000000E+00 -0.45593999997E+02  0.45594000000E+02  0.51100000000E-03 0. -1.
         23    2    1    2    0    0 -0.35527136788E-14 -0.17763568394E-14 -0.35527136788E-14  0.91188000000E+02  0.91188000000E+02 0.  0.
    9900012    2    3    3    0    0 -0.25931441894E+02  0.15250080041E+02  0.21231469453E+02  0.54367083186E+02  0.39999997738E+02 0.  0.
        -12    1    3    3    0    0  0.25931441894E+02 -0.15250080041E+02 -0.21231469453E+02  0.36820916814E+02  0.00000000000E+00 0.  1.
         11    1    4    4    0    0 -0.16987824789E+02 -0.91318584206E+00  0.87364425345E+01  0.19124474578E+02  0.51100000000E-03 0. -1.
        -11    1    4    4    0    0 -0.55608575691E+01  0.14798210805E+02  0.20826965532E+02  0.26147135091E+02  0.51100000000E-03 0.  1.
        -12    1    4    4    0    0 -0.33827595353E+01  0.13650550773E+01 -0.83319386135E+01  0.90954735169E+01  0.00000000000E+00 0.  1.
</event>
<event>
 8    1  0.2450026E-006  0.9118800E+02  0.7816164E-02  0.1184000E+00
        -11   -1    0    0    0    0  0.00000000000E+00  0.00000000000E+00  0.45593999997E+02  0.45594000000E+02  0.51100000000E-03 0.  1.
         11   -1    0    0    0    0 -0.00000000000E+00 -0.00000000000E+00 -0.45593999997E+02  0.45594000000E+02  0.51100000000E-03 0. -1.
         23    2    1    2    0    0  0.26645352591E-14  0.35527136788E-14 -0.35527136788E-14  0.91188000000E+02  0.91188000000E+02 0.  0.
    9900012    2    3    3    0    0  0.65460666284E+01  0.20954211901E+02 -0.29560944638E+02  0.54367089737E+02  0.40000012674E+02 0.  0.
        -12    1    3    3    0    0 -0.65460666284E+01 -0.20954211901E+02  0.29560944638E+02  0.36820910263E+02  0.00000000000E+00 0.  1.
         11    1    4    4    0    0 -0.19363211741E+01  0.63411759310E+01 -0.22705392226E+01  0.70082237764E+01  0.51100000000E-03 0. -1.
        -11    1    4    4    0    0 -0.29508951782E+01 -0.72996113194E+01  0.28561579005E+01  0.83755445184E+01  0.51100000000E-03 0.  1.
         12    1    4    4    0    0  0.11433282981E+02  0.21912647289E+02 -0.30146563316E+02  0.38983321442E+02  0.00000000000E+00 0. -1.
</event>
<event>
 8    1  0.2450026E-006  0.9118800E+02  0.7816164E-02  0.1184000E+00
        -11   -1    0    0    0    0  0.00000000000E+00  0.00000000000E+00  0.45593999997E+02  0.45594000000E+02  0.51100000000E-03 0. -1.
         11   -1    0    0    0    0 -0.00000000000E+00 -0.00000000000E+00 -0.45593999997E+02  0.45594000000E+02  0.51100000000E-03 0.  1.
         23    2    1    2    0    0 -0.35527136788E-14  0.00000000000E+00  0.88817841970E-15  0.91188000000E+02  0.91188000000E+02 0.  0.
    9900012    2    3    3    0    0  0.24760870440E+02 -0.27059101159E+02  0.32377876581E+01  0.54367096570E+02  0.40000028251E+02 0.  0.
        -12    1    3    3    0    0 -0.24760870440E+02  0.27059101159E+02 -0.32377876581E+01  0.36820903430E+02  0.00000000000E+00 0.  1.
         11    1    4    4    0    0 -0.17836711418E+01 -0.84670020386E+01  0.13528811267E+02  0.16059275850E+02  0.51100000000E-03 0. -1.
        -11    1    4    4    0    0  0.15612980148E+02 -0.14532855266E+02 -0.14630741303E+02  0.25865568283E+02  0.51100000000E-03 0.  1.
         12    1    4    4    0    0  0.10931561434E+02 -0.40592438541E+01  0.43397176935E+01  0.12442252437E+02  0.00000000000E+00 0. -1.
</event>
<event>
 8    1  0.2450026E-006  0.9118800E+02  0.7816164E-02  0.1184000E+00
        -11   -1    0    0    0    0  0.00000000000E+00  0.00000000000E+00  0.45593999997E+02  0.45594000000E+02  0.51100000000E-03 0.  1.
         11   -1    0    0    0    0 -0.00000000000E+00 -0.00000000000E+00 -0.45593999997E+02  0.45594000000E+02  0.51100000000E-03 0. -1.
         23    2    1    2    0    0 -0.22204460493E-15 -0.71054273576E-14  0.71054273576E-14  0.91188000000E+02  0.91188000000E+02 0.  0.
    9900012    2    3    3    0    0 -0.10857019464E+01 -0.30453809523E+02  0.20667965092E+02  0.54367108590E+02  0.40000055654E+02 0.  0.
         12    1    3    3    0    0  0.10857019464E+01  0.30453809523E+02 -0.20667965092E+02  0.36820891410E+02  0.00000000000E+00 0. -1.
         11    1    4    4    0    0  0.71765522517E+00 -0.32261876702E+02  0.61013645798E+01  0.32841595079E+02  0.51100000000E-03 0. -1.
        -11    1    4    4    0    0 -0.45797223870E+01 -0.23741837176E+01 -0.92505490254E+00  0.52408331685E+01  0.51100000000E-03 0.  1.
        -12    1    4    4    0    0  0.27763652154E+01  0.41822508970E+01  0.15491655414E+02  0.16284680342E+02  0.00000000000E+00 0.  1.
</event>
<event>
 8    1  0.2450026E-006  0.9118800E+02  0.7816164E-02  0.1184000E+00
        -11   -1    0    0    0    0  0.00000000000E+00  0.00000000000E+00  0.45593999997E+02  0.45594000000E+02  0.51100000000E-03 0. -1.
         11   -1    0    0    0    0 -0.00000000000E+00 -0.00000000000E+00 -0.45593999997E+02  0.45594000000E+02  0.51100000000E-03 0.  1.
         23    2    1    2    0    0  0.00000000000E+00 -0.13322676296E-14  0.71054273576E-14  0.91188000000E+02  0.91188000000E+02 0.  0.
    9900012    2    3    3    0    0  0.31690993942E+01 -0.19030085127E+01 -0.36634882501E+02  0.54367092240E+02  0.40000018380E+02 0.  0.
         12    1    3    3    0    0 -0.31690993942E+01  0.19030085127E+01  0.36634882501E+02  0.36820907760E+02  0.00000000000E+00 0. -1.
         11    1    4    4    0    0  0.29091064075E+01 -0.15049727758E+02 -0.37123290542E+01  0.15771448663E+02  0.51100000000E-03 0. -1.
        -11    1    4    4    0    0  0.63313284333E+01  0.11389771345E+02 -0.26779264691E+02  0.29781565249E+02  0.51100000000E-03 0.  1.
         12    1    4    4    0    0 -0.60713354466E+01  0.17569479004E+01 -0.61432887561E+01  0.88140783279E+01  0.00000000000E+00 0. -1.
</event>
<event>
 8    1  0.2450026E-006  0.9118800E+02  0.7816164E-02  0.1184000E+00
        -11   -1    0    0    0    0  0.00000000000E+00  0.00000000000E+00  0.45593999997E+02  0.45594000000E+02  0.51100000000E-03 0.  1.
         11   -1    0    0    0    0 -0.00000000000E+00 -0.00000000000E+00 -0.45593999997E+02  0.45594000000E+02  0.51100000000E-03 0. -1.
         23    2    1    2    0    0  0.17763568394E-14  0.00000000000E+00 -0.17763568394E-14  0.91188000000E+02  0.91188000000E+02 0.  0.
    9900012    2    3    3    0    0 -0.13599661841E+02  0.32765660652E+02  0.98610992849E+01  0.54367073894E+02  0.39999976557E+02 0.  0.
         12    1    3    3    0    0  0.13599661841E+02 -0.32765660652E+02 -0.98610992849E+01  0.36820926106E+02  0.00000000000E+00 0. -1.
         11    1    4    4    0    0 -0.13770974129E+02  0.16690056264E+01  0.14774904484E+02  0.20266304819E+02  0.51100000000E-03 0. -1.
        -11    1    4    4    0    0 -0.24077409162E+01  0.17143059569E+01 -0.34867595142E+01  0.45709466639E+01  0.51100000000E-03 0.  1.
        -12    1    4    4    0    0  0.25790532043E+01  0.29382349069E+02 -0.14270456854E+01  0.29529822411E+02  0.00000000000E+00 0.  1.
</event>
<event>
 8    1  0.2450026E-006  0.9118800E+02  0.7816164E-02  0.1184000E+00
        -11   -1    0    0    0    0  0.00000000000E+00  0.00000000000E+00  0.45593999997E+02  0.45594000000E+02  0.51100000000E-03 0.  1.
         11   -1    0    0    0    0 -0.00000000000E+00 -0.00000000000E+00 -0.45593999997E+02  0.45594000000E+02  0.51100000000E-03 0. -1.
         23    2    1    2    0    0  0.00000000000E+00  0.35527136788E-14  0.00000000000E+00  0.91188000000E+02  0.91188000000E+02 0.  0.
    9900012    2    3    3    0    0  0.95305366361E+01  0.22024710674E+02 -0.27925983348E+02  0.54367088078E+02  0.40000008891E+02 0.  0.
        -12    1    3    3    0    0 -0.95305366361E+01 -0.22024710674E+02  0.27925983348E+02  0.36820911922E+02  0.00000000000E+00 0.  1.
         11    1    4    4    0    0  0.14193125366E+02  0.44765037627E+01 -0.26528880427E+02  0.30418175333E+02  0.51100000000E-03 0. -1.
        -11    1    4    4    0    0  0.32121126994E+01  0.14650797926E+02 -0.32711659244E+01  0.15351354163E+02  0.51100000000E-03 0.  1.
         12    1    4    4    0    0 -0.78747014294E+01  0.28974089849E+01  0.18740630037E+01  0.85975585820E+01  0.00000000000E+00 0. -1.
</event>
<event>
 8    1  0.2450026E-006  0.9118800E+02  0.7816164E-02  0.1184000E+00
        -11   -1    0    0    0    0  0.00000000000E+00  0.00000000000E+00  0.45593999997E+02  0.45594000000E+02  0.51100000000E-03 0.  1.
         11   -1    0    0    0    0 -0.00000000000E+00 -0.00000000000E+00 -0.45593999997E+02  0.45594000000E+02  0.51100000000E-03 0. -1.
         23    2    1    2    0    0  0.00000000000E+00  0.00000000000E+00  0.00000000000E+00  0.91188000000E+02  0.91188000000E+02 0.  0.
    9900012    2    3    3    0    0 -0.10535804786E+02  0.59477987320E+01 -0.34776417837E+02  0.54367099280E+02  0.40000034428E+02 0.  0.
        -12    1    3    3    0    0  0.10535804786E+02 -0.59477987320E+01  0.34776417837E+02  0.36820900720E+02  0.00000000000E+00 0.  1.
         11    1    4    4    0    0 -0.88562927228E+01 -0.10867567859E+01 -0.37242033642E+01  0.96687461474E+01  0.51100000000E-03 0. -1.
        -11    1    4    4    0    0 -0.13670166365E+02  0.12598130586E+02 -0.21301420147E+02  0.28272545752E+02  0.51100000000E-03 0.  1.
         12    1    4    4    0    0  0.11990654302E+02 -0.55635750682E+01 -0.97507943256E+01  0.16425807381E+02  0.00000000000E+00 0. -1.
</event>
<event>
 8    1  0.2450026E-006  0.9118800E+02  0.7816164E-02  0.1184000E+00
        -11   -1    0    0    0    0  0.00000000000E+00  0.00000000000E+00  0.45593999997E+02  0.45594000000E+02  0.51100000000E-03 0.  1.
         11   -1    0    0    0    0 -0.00000000000E+00 -0.00000000000E+00 -0.45593999997E+02  0.45594000000E+02  0.51100000000E-03 0. -1.
         23    2    1    2    0    0  0.00000000000E+00  0.00000000000E+00  0.44408920985E-15  0.91188000000E+02  0.91188000000E+02 0.  0.
    9900012    2    3    3    0    0  0.35620391999E+02  0.91639765771E+01  0.17288006566E+01  0.54367088217E+02  0.40000009208E+02 0.  0.
         12    1    3    3    0    0 -0.35620391999E+02 -0.91639765771E+01 -0.17288006566E+01  0.36820911783E+02  0.00000000000E+00 0. -1.
         11    1    4    4    0    0  0.18549013633E+02  0.86172804070E+01 -0.74778953072E+01  0.21777106026E+02  0.51100000000E-03 0. -1.
        -11    1    4    4    0    0  0.77873558360E+01 -0.12611745080E+02  0.20350152881E+01  0.14961293806E+02  0.51100000000E-03 0.  1.
        -12    1    4    4    0    0  0.92840225293E+01  0.13158441250E+02  0.71716806757E+01  0.17628688385E+02  0.00000000000E+00 0.  1.
</event>
<event>
 8    1  0.2450026E-006  0.9118800E+02  0.7816164E-02  0.1184000E+00
        -11   -1    0    0    0    0  0.00000000000E+00  0.00000000000E+00  0.45593999997E+02  0.45594000000E+02  0.51100000000E-03 0.  1.
         11   -1    0    0    0    0 -0.00000000000E+00 -0.00000000000E+00 -0.45593999997E+02  0.45594000000E+02  0.51100000000E-03 0. -1.
         23    2    1    2    0    0  0.00000000000E+00  0.00000000000E+00  0.00000000000E+00  0.91188000000E+02  0.91188000000E+02 0.  0.
    9900012    2    3    3    0    0  0.33391703069E+01  0.15813774440E+02  0.33084047582E+02  0.54367085769E+02  0.40000003629E+02 0.  0.
         12    1    3    3    0    0 -0.33391703069E+01 -0.15813774440E+02 -0.33084047582E+02  0.36820914231E+02  0.00000000000E+00 0. -1.
         11    1    4    4    0    0  0.73993454789E+01 -0.80610354910E+01  0.10506380012E+01  0.10992472296E+02  0.51100000000E-03 0. -1.
        -11    1    4    4    0    0 -0.41507908132E+01  0.10656118606E+02  0.26835036682E+02  0.29170209497E+02  0.51100000000E-03 0.  1.
         12    1    4    4    0    0  0.90615641220E-01  0.13218691324E+02  0.51983728985E+01  0.14204403976E+02  0.00000000000E+00 0. -1.
</event>
<event>
 8    1  0.2450026E-006  0.9118800E+02  0.7816164E-02  0.1184000E+00
        -11   -1    0    0    0    0  0.00000000000E+00  0.00000000000E+00  0.45593999997E+02  0.45594000000E+02  0.51100000000E-03 0. -1.
         11   -1    0    0    0    0 -0.00000000000E+00 -0.00000000000E+00 -0.45593999997E+02  0.45594000000E+02  0.51100000000E-03 0.  1.
         23    2    1    2    0    0  0.35527136788E-14  0.00000000000E+00  0.35527136788E-14  0.91188000000E+02  0.91188000000E+02 0.  0.
    9900012    2    3    3    0    0  0.24642604370E+02 -0.16530078936E+02  0.21800875311E+02  0.54367087136E+02  0.40000006745E+02 0.  0.
        -12    1    3    3    0    0 -0.24642604370E+02  0.16530078936E+02 -0.21800875311E+02  0.36820912864E+02  0.00000000000E+00 0.  1.
         11    1    4    4    0    0  0.54295186515E+01  0.59097302766E+01  0.10460599057E+02  0.13184411918E+02  0.51100000000E-03 0. -1.
        -11    1    4    4    0    0  0.26244228211E+01 -0.20927083187E+01 -0.79337792646E+01  0.86146315609E+01  0.51100000000E-03 0.  1.
         12    1    4    4    0    0  0.16588662897E+02 -0.20347100894E+02  0.19274055519E+02  0.32568043657E+02  0.00000000000E+00 0. -1.
</event>
<event>
 8    1  0.2450026E-006  0.9118800E+02  0.7816164E-02  0.1184000E+00
        -11   -1    0    0    0    0  0.00000000000E+00  0.00000000000E+00  0.45593999997E+02  0.45594000000E+02  0.51100000000E-03 0. -1.
         11   -1    0    0    0    0 -0.00000000000E+00 -0.00000000000E+00 -0.45593999997E+02  0.45594000000E+02  0.51100000000E-03 0.  1.
         23    2    1    2    0    0 -0.17763568394E-14  0.00000000000E+00  0.00000000000E+00  0.91188000000E+02  0.91188000000E+02 0.  0.
    9900012    2    3    3    0    0  0.61784523452E+01  0.21045348443E+02  0.29575330679E+02  0.54367080006E+02  0.39999990489E+02 0.  0.
        -12    1    3    3    0    0 -0.61784523452E+01 -0.21045348443E+02 -0.29575330679E+02  0.36820919994E+02  0.00000000000E+00 0.  1.
         11    1    4    4    0    0  0.21252803507E+01  0.11941608305E+02  0.62621570498E+01  0.13650400604E+02  0.51100000000E-03 0. -1.
        -11    1    4    4    0    0 -0.34376742202E+01  0.53518089167E+01 -0.68875817726E+01  0.93754064264E+01  0.51100000000E-03 0.  1.
        -12    1    4    4    0    0  0.74908462147E+01  0.37519312219E+01  0.30200755401E+02  0.31341272975E+02  0.00000000000E+00 0.  1.
</event>
<event>
 8    1  0.2450026E-006  0.9118800E+02  0.7816164E-02  0.1184000E+00
        -11   -1    0    0    0    0  0.00000000000E+00  0.00000000000E+00  0.45593999997E+02  0.45594000000E+02  0.51100000000E-03 0. -1.
         11   -1    0    0    0    0 -0.00000000000E+00 -0.00000000000E+00 -0.45593999997E+02  0.45594000000E+02  0.51100000000E-03 0.  1.
         23    2    1    2    0    0  0.00000000000E+00  0.00000000000E+00  0.00000000000E+00  0.91188000000E+02  0.91188000000E+02 0.  0.
    9900012    2    3    3    0    0 -0.19949334506E+02 -0.57380931701E+01 -0.30411808448E+02  0.54367085379E+02  0.40000002738E+02 0.  0.
         12    1    3    3    0    0  0.19949334506E+02  0.57380931701E+01  0.30411808448E+02  0.36820914621E+02  0.00000000000E+00 0. -1.
         11    1    4    4    0    0 -0.39916554825E+01  0.66390451903E+01 -0.10341401767E+02  0.12921100004E+02  0.51100000000E-03 0. -1.
        -11    1    4    4    0    0 -0.24690506630E+02 -0.11565960176E+02 -0.17110959884E+02  0.32189711103E+02  0.51100000000E-03 0.  1.
         12    1    4    4    0    0  0.87328276070E+01 -0.81117818427E+00 -0.29594467971E+01  0.92562742724E+01  0.00000000000E+00 0. -1.
</event>
<event>
 8    1  0.2450026E-006  0.9118800E+02  0.7816164E-02  0.1184000E+00
        -11   -1    0    0    0    0  0.00000000000E+00  0.00000000000E+00  0.45593999997E+02  0.45594000000E+02  0.51100000000E-03 0. -1.
         11   -1    0    0    0    0 -0.00000000000E+00 -0.00000000000E+00 -0.45593999997E+02  0.45594000000E+02  0.51100000000E-03 0.  1.
         23    2    1    2    0    0 -0.71054273576E-14  0.00000000000E+00  0.00000000000E+00  0.91188000000E+02  0.91188000000E+02 0.  0.
    9900012    2    3    3    0    0 -0.28298733426E+02  0.23297286308E+02  0.34926844774E+01  0.54367072422E+02  0.39999973201E+02 0.  0.
         12    1    3    3    0    0  0.28298733426E+02 -0.23297286308E+02 -0.34926844774E+01  0.36820927578E+02  0.00000000000E+00 0. -1.
         11    1    4    4    0    0  0.36908605808E+01 -0.59572265778E+00  0.67283484563E+01  0.76972729276E+01  0.51100000000E-03 0. -1.
        -11    1    4    4    0    0 -0.49599905047E+01  0.16776472657E+02  0.36777947059E+01  0.17876736693E+02  0.51100000000E-03 0.  1.
        -12    1    4    4    0    0 -0.27029603502E+02  0.71165363083E+01 -0.69134586847E+01  0.28793062802E+02  0.00000000000E+00 0.  1.
</event>
<event>
 8    1  0.2450026E-006  0.9118800E+02  0.7816164E-02  0.1184000E+00
        -11   -1    0    0    0    0  0.00000000000E+00  0.00000000000E+00  0.45593999997E+02  0.45594000000E+02  0.51100000000E-03 0. -1.
         11   -1    0    0    0    0 -0.00000000000E+00 -0.00000000000E+00 -0.45593999997E+02  0.45594000000E+02  0.51100000000E-03 0.  1.
         23    2    1    2    0    0  0.35527136788E-14  0.00000000000E+00 -0.44408920985E-15  0.91188000000E+02  0.91188000000E+02 0.  0.
    9900012    2    3    3    0    0 -0.30140739429E+02  0.21041438910E+02 -0.21387982599E+01  0.54367071404E+02  0.39999970879E+02 0.  0.
         12    1    3    3    0    0  0.30140739429E+02 -0.21041438910E+02  0.21387982599E+01  0.36820928596E+02  0.00000000000E+00 0. -1.
         11    1    4    4    0    0  0.51207617440E+01  0.95063217118E+01 -0.54243695271E+01  0.12083713765E+02  0.51100000000E-03 0. -1.
        -11    1    4    4    0    0 -0.29797082120E+02  0.24074115308E+01 -0.28039974647E+01  0.30025391507E+02  0.51100000000E-03 0.  1.
        -12    1    4    4    0    0 -0.54644190532E+01  0.91277056672E+01  0.60895687320E+01  0.12257966131E+02  0.00000000000E+00 0.  1.
</event>
<event>
 8    1  0.2450026E-006  0.9118800E+02  0.7816164E-02  0.1184000E+00
        -11   -1    0    0    0    0  0.00000000000E+00  0.00000000000E+00  0.45593999997E+02  0.45594000000E+02  0.51100000000E-03 0. -1.
         11   -1    0    0    0    0 -0.00000000000E+00 -0.00000000000E+00 -0.45593999997E+02  0.45594000000E+02  0.51100000000E-03 0.  1.
         23    2    1    2    0    0  0.71054273576E-14 -0.71054273576E-14  0.35527136788E-14  0.91188000000E+02  0.91188000000E+02 0.  0.
    9900012    2    3    3    0    0  0.22849157064E+02 -0.12939191871E+02  0.25812278407E+02  0.54367076854E+02  0.39999983304E+02 0.  0.
        -12    1    3    3    0    0 -0.22849157064E+02  0.12939191871E+02 -0.25812278407E+02  0.36820923146E+02  0.00000000000E+00 0.  1.
         11    1    4    4    0    0 -0.38766029074E+00  0.64090705324E+01  0.37506728643E+01  0.74359944047E+01  0.51100000000E-03 0. -1.
        -11    1    4    4    0    0 -0.51175208369E+01 -0.10136241034E+02  0.38214576648E+01  0.11980648595E+02  0.51100000000E-03 0.  1.
         12    1    4    4    0    0  0.28354338192E+02 -0.92120213692E+01  0.18240147878E+02  0.34950433854E+02  0.00000000000E+00 0. -1.
</event>
<event>
 8    1  0.2450026E-006  0.9118800E+02  0.7816164E-02  0.1184000E+00
        -11   -1    0    0    0    0  0.00000000000E+00  0.00000000000E+00  0.45593999997E+02  0.45594000000E+02  0.51100000000E-03 0.  1.
         11   -1    0    0    0    0 -0.00000000000E+00 -0.00000000000E+00 -0.45593999997E+02  0.45594000000E+02  0.51100000000E-03 0. -1.
         23    2    1    2    0    0  0.00000000000E+00 -0.27755575616E-15 -0.71054273576E-14  0.91188000000E+02  0.91188000000E+02 0.  0.
    9900012    2    3    3    0    0  0.12576850744E+02 -0.19393060958E+00 -0.34605852830E+02  0.54367084288E+02  0.40000000252E+02 0.  0.
        -12    1    3    3    0    0 -0.12576850744E+02  0.19393060958E+00  0.34605852830E+02  0.36820915712E+02  0.00000000000E+00 0.  1.
         11    1    4    4    0    0  0.10781691946E+02  0.10787813243E+02 -0.13946936522E+02  0.20667337380E+02  0.51100000000E-03 0. -1.
        -11    1    4    4    0    0  0.54788753476E+01 -0.60914783519E+01  0.34026805078E+01  0.88714383550E+01  0.51100000000E-03 0.  1.
         12    1    4    4    0    0 -0.36837165491E+01 -0.48902655005E+01 -0.24061596816E+02  0.24828308553E+02  0.00000000000E+00 0. -1.
</event>
<event>
 8    1  0.2450026E-006  0.9118800E+02  0.7816164E-02  0.1184000E+00
        -11   -1    0    0    0    0  0.00000000000E+00  0.00000000000E+00  0.45593999997E+02  0.45594000000E+02  0.51100000000E-03 0. -1.
         11   -1    0    0    0    0 -0.00000000000E+00 -0.00000000000E+00 -0.45593999997E+02  0.45594000000E+02  0.51100000000E-03 0.  1.
         23    2    1    2    0    0  0.00000000000E+00  0.35527136788E-14  0.00000000000E+00  0.91188000000E+02  0.91188000000E+02 0.  0.
    9900012    2    3    3    0    0  0.11057043967E+02 -0.19199895226E+02  0.29408898008E+02  0.54367116252E+02  0.40000073120E+02 0.  0.
        -12    1    3    3    0    0 -0.11057043967E+02  0.19199895226E+02 -0.29408898008E+02  0.36820883748E+02  0.00000000000E+00 0.  1.
         11    1    4    4    0    0 -0.52898310533E+00 -0.16060872292E+02  0.14464093042E+02  0.21620393838E+02  0.51100000000E-03 0. -1.
        -11    1    4    4    0    0  0.63341774398E+01  0.73488744831E+01  0.18156090317E+02  0.20585708049E+02  0.51100000000E-03 0.  1.
         12    1    4    4    0    0  0.52518496326E+01 -0.10487897416E+02 -0.32112853516E+01  0.12161014365E+02  0.00000000000E+00 0. -1.
</event>
<event>
 8    1  0.2450026E-006  0.9118800E+02  0.7816164E-02  0.1184000E+00
        -11   -1    0    0    0    0  0.00000000000E+00  0.00000000000E+00  0.45593999997E+02  0.45594000000E+02  0.51100000000E-03 0. -1.
         11   -1    0    0    0    0 -0.00000000000E+00 -0.00000000000E+00 -0.45593999997E+02  0.45594000000E+02  0.51100000000E-03 0.  1.
         23    2    1    2    0    0  0.00000000000E+00  0.00000000000E+00  0.88817841970E-15  0.91188000000E+02  0.91188000000E+02 0.  0.
    9900012    2    3    3    0    0  0.33828339342E+02  0.12379800875E+02  0.76265573846E+01  0.54367076738E+02  0.39999983039E+02 0.  0.
        -12    1    3    3    0    0 -0.33828339342E+02 -0.12379800875E+02 -0.76265573846E+01  0.36820923262E+02  0.00000000000E+00 0.  1.
         11    1    4    4    0    0  0.67835284632E+00  0.41105789548E+01 -0.15406069220E+01  0.44419018310E+01  0.51100000000E-03 0. -1.
        -11    1    4    4    0    0 -0.35851141933E+01  0.11072972277E+02  0.55848943339E+01  0.12909485033E+02  0.51100000000E-03 0.  1.
         12    1    4    4    0    0  0.36735100689E+02 -0.28037503574E+01  0.35822699727E+01  0.37015689874E+02  0.00000000000E+00 0. -1.
</event>
<event>
 8    1  0.2450026E-006  0.9118800E+02  0.7816164E-02  0.1184000E+00
        -11   -1    0    0    0    0  0.00000000000E+00  0.00000000000E+00  0.45593999997E+02  0.45594000000E+02  0.51100000000E-03 0.  1.
         11   -1    0    0    0    0 -0.00000000000E+00 -0.00000000000E+00 -0.45593999997E+02  0.45594000000E+02  0.51100000000E-03 0. -1.
         23    2    1    2    0    0  0.00000000000E+00  0.00000000000E+00  0.22204460493E-15  0.91188000000E+02  0.91188000000E+02 0.  0.
    9900012    2    3    3    0    0 -0.35839738326E+02 -0.83004828487E+01  0.15477144012E+01  0.54367078248E+02  0.39999986482E+02 0.  0.
        -12    1    3    3    0    0  0.35839738326E+02  0.83004828487E+01 -0.15477144012E+01  0.36820921752E+02  0.00000000000E+00 0.  1.
         11    1    4    4    0    0 -0.21135972968E+02  0.81993637908E+01 -0.54078143050E+01  0.23306723830E+02  0.51100000000E-03 0. -1.
        -11    1    4    4    0    0  0.50053785040E+01 -0.63208578107E+01  0.12837269013E+01  0.81642521060E+01  0.51100000000E-03 0.  1.
        -12    1    4    4    0    0 -0.19709143863E+02 -0.10178988829E+02  0.56718018050E+01  0.22896102312E+02  0.00000000000E+00 0.  1.
</event>
<event>
 8    1  0.2450026E-006  0.9118800E+02  0.7816164E-02  0.1184000E+00
        -11   -1    0    0    0    0  0.00000000000E+00  0.00000000000E+00  0.45593999997E+02  0.45594000000E+02  0.51100000000E-03 0.  1.
         11   -1    0    0    0    0 -0.00000000000E+00 -0.00000000000E+00 -0.45593999997E+02  0.45594000000E+02  0.51100000000E-03 0. -1.
         23    2    1    2    0    0  0.00000000000E+00  0.00000000000E+00  0.00000000000E+00  0.91188000000E+02  0.91188000000E+02 0.  0.
    9900012    2    3    3    0    0 -0.23948571544E+02 -0.18196069344E+02 -0.21240217586E+02  0.54367111069E+02  0.40000061304E+02 0.  0.
        -12    1    3    3    0    0  0.23948571544E+02  0.18196069344E+02  0.21240217586E+02  0.36820888931E+02  0.00000000000E+00 0.  1.
         11    1    4    4    0    0 -0.65002091283E+01 -0.85105073802E+01 -0.72011467383E+01  0.12904959093E+02  0.51100000000E-03 0. -1.
        -11    1    4    4    0    0 -0.42597513710E+01 -0.39037377723E+01  0.11086878130E+02  0.12502140507E+02  0.51100000000E-03 0.  1.
         12    1    4    4    0    0 -0.13188611045E+02 -0.57818241910E+01 -0.25125948978E+02  0.28960011469E+02  0.00000000000E+00 0. -1.
</event>
<event>
 8    1  0.2450026E-006  0.9118800E+02  0.7816164E-02  0.1184000E+00
        -11   -1    0    0    0    0  0.00000000000E+00  0.00000000000E+00  0.45593999997E+02  0.45594000000E+02  0.51100000000E-03 0.  1.
         11   -1    0    0    0    0 -0.00000000000E+00 -0.00000000000E+00 -0.45593999997E+02  0.45594000000E+02  0.51100000000E-03 0. -1.
         23    2    1    2    0    0 -0.44408920985E-15  0.88817841970E-15 -0.71054273576E-14  0.91188000000E+02  0.91188000000E+02 0.  0.
    9900012    2    3    3    0    0  0.28589433032E+01 -0.42690505623E+01 -0.36460684125E+02  0.54367084254E+02  0.40000000174E+02 0.  0.
        -12    1    3    3    0    0 -0.28589433032E+01  0.42690505623E+01  0.36460684125E+02  0.36820915746E+02  0.00000000000E+00 0.  1.
         11    1    4    4    0    0  0.21307701499E+01  0.17078496040E+01  0.16536298882E+01  0.31924009413E+01  0.51100000000E-03 0. -1.
        -11    1    4    4    0    0  0.63259717974E+01  0.52078544017E+01  0.25889190621E+01  0.85931466194E+01  0.51100000000E-03 0.  1.
         12    1    4    4    0    0 -0.55977986441E+01 -0.11184754568E+02 -0.40703233075E+02  0.42581536693E+02  0.00000000000E+00 0. -1.
</event>
<event>
 8    1  0.2450026E-006  0.9118800E+02  0.7816164E-02  0.1184000E+00
        -11   -1    0    0    0    0  0.00000000000E+00  0.00000000000E+00  0.45593999997E+02  0.45594000000E+02  0.51100000000E-03 0. -1.
         11   -1    0    0    0    0 -0.00000000000E+00 -0.00000000000E+00 -0.45593999997E+02  0.45594000000E+02  0.51100000000E-03 0.  1.
         23    2    1    2    0    0 -0.88817841970E-15  0.00000000000E+00 -0.35527136788E-14  0.91188000000E+02  0.91188000000E+02 0.  0.
    9900012    2    3    3    0    0 -0.42076550241E+01 -0.26643886747E+02 -0.25063492784E+02  0.54367085667E+02  0.40000003395E+02 0.  0.
         12    1    3    3    0    0  0.42076550241E+01  0.26643886747E+02  0.25063492784E+02  0.36820914333E+02  0.00000000000E+00 0. -1.
         11    1    4    4    0    0  0.10745984045E+02 -0.75470129824E+01 -0.32571072332E+00  0.13135435501E+02  0.51100000000E-03 0. -1.
        -11    1    4    4    0    0 -0.76165719244E+01 -0.16748972380E+02 -0.27465891230E+02  0.33059271392E+02  0.51100000000E-03 0.  1.
        -12    1    4    4    0    0 -0.73370671448E+01 -0.23479013848E+01  0.27281091692E+01  0.81723787748E+01  0.00000000000E+00 0.  1.
</event>
<event>
 8    1  0.2450026E-006  0.9118800E+02  0.7816164E-02  0.1184000E+00
        -11   -1    0    0    0    0  0.00000000000E+00  0.00000000000E+00  0.45593999997E+02  0.45594000000E+02  0.51100000000E-03 0. -1.
         11   -1    0    0    0    0 -0.00000000000E+00 -0.00000000000E+00 -0.45593999997E+02  0.45594000000E+02  0.51100000000E-03 0.  1.
         23    2    1    2    0    0  0.00000000000E+00  0.00000000000E+00  0.00000000000E+00  0.91188000000E+02  0.91188000000E+02 0.  0.
    9900012    2    3    3    0    0 -0.16939535815E+02  0.10115129206E+02  0.31088844646E+02  0.54367082387E+02  0.39999995917E+02 0.  0.
        -12    1    3    3    0    0  0.16939535815E+02 -0.10115129206E+02 -0.31088844646E+02  0.36820917613E+02  0.00000000000E+00 0.  1.
         11    1    4    4    0    0  0.91401447416E+01  0.10201813991E+00  0.17061033981E+02  0.19355400651E+02  0.51100000000E-03 0. -1.
        -11    1    4    4    0    0 -0.23905266828E+02  0.13003844420E+02  0.87850258974E+01  0.28596126173E+02  0.51100000000E-03 0.  1.
        -12    1    4    4    0    0 -0.21744137280E+01 -0.29907333539E+01  0.52427847675E+01  0.64155555623E+01  0.00000000000E+00 0.  1.
</event>
<event>
 8    1  0.2450026E-006  0.9118800E+02  0.7816164E-02  0.1184000E+00
        -11   -1    0    0    0    0  0.00000000000E+00  0.00000000000E+00  0.45593999997E+02  0.45594000000E+02  0.51100000000E-03 0. -1.
         11   -1    0    0    0    0 -0.00000000000E+00 -0.00000000000E+00 -0.45593999997E+02  0.45594000000E+02  0.51100000000E-03 0.  1.
         23    2    1    2    0    0 -0.71054273576E-14  0.00000000000E+00 -0.17763568394E-14  0.91188000000E+02  0.91188000000E+02 0.  0.
    9900012    2    3    3    0    0 -0.25745182005E+02 -0.21617893153E+02 -0.15021066780E+02  0.54367080021E+02  0.39999990524E+02 0.  0.
         12    1    3    3    0    0  0.25745182005E+02  0.21617893153E+02  0.15021066780E+02  0.36820919979E+02  0.00000000000E+00 0. -1.
         11    1    4    4    0    0 -0.41657722563E+01  0.58647806893E+01 -0.36855561700E+01  0.80828606056E+01  0.51100000000E-03 0. -1.
        -11    1    4    4    0    0  0.24276710262E+01 -0.18225416929E+02 -0.57692190082E+00  0.18395440957E+02  0.51100000000E-03 0.  1.
        -12    1    4    4    0    0 -0.24007080775E+02 -0.92572569137E+01 -0.10758588709E+02  0.27888778459E+02  0.00000000000E+00 0.  1.
</event>
<event>
 8    1  0.2450026E-006  0.9118800E+02  0.7816164E-02  0.1184000E+00
        -11   -1    0    0    0    0  0.00000000000E+00  0.00000000000E+00  0.45593999997E+02  0.45594000000E+02  0.51100000000E-03 0.  1.
         11   -1    0    0    0    0 -0.00000000000E+00 -0.00000000000E+00 -0.45593999997E+02  0.45594000000E+02  0.51100000000E-03 0. -1.
         23    2    1    2    0    0 -0.71054273576E-14  0.88817841970E-15  0.17763568394E-14  0.91188000000E+02  0.91188000000E+02 0.  0.
    9900012    2    3    3    0    0 -0.35494503185E+02  0.47009666188E+01  0.85918955355E+01  0.54367088654E+02  0.40000010204E+02 0.  0.
         12    1    3    3    0    0  0.35494503185E+02 -0.47009666188E+01 -0.85918955355E+01  0.36820911346E+02  0.00000000000E+00 0. -1.
         11    1    4    4    0    0 -0.62294339912E+01  0.25529926278E+01  0.57337416679E+01  0.88430431970E+01  0.51100000000E-03 0. -1.
        -11    1    4    4    0    0 -0.36658989722E+02  0.34539916630E+01  0.61400013276E+01  0.37329762957E+02  0.51100000000E-03 0.  1.
         12    1    4    4    0    0  0.73939205283E+01 -0.13060176721E+01 -0.32818474599E+01  0.81942824999E+01  0.00000000000E+00 0. -1.
</event>
<event>
 8    1  0.2450026E-006  0.9118800E+02  0.7816164E-02  0.1184000E+00
        -11   -1    0    0    0    0  0.00000000000E+00  0.00000000000E+00  0.45593999997E+02  0.45594000000E+02  0.51100000000E-03 0. -1.
         11   -1    0    0    0    0 -0.00000000000E+00 -0.00000000000E+00 -0.45593999997E+02  0.45594000000E+02  0.51100000000E-03 0.  1.
         23    2    1    2    0    0  0.17763568394E-14  0.00000000000E+00  0.00000000000E+00  0.91188000000E+02  0.91188000000E+02 0.  0.
    9900012    2    3    3    0    0 -0.13240812535E+02 -0.17200704859E+02  0.29742091784E+02  0.54367144661E+02  0.40000137883E+02 0.  0.
        -12    1    3    3    0    0  0.13240812535E+02  0.17200704859E+02 -0.29742091784E+02  0.36820855339E+02  0.00000000000E+00 0.  1.
         11    1    4    4    0    0 -0.16046035726E+02 -0.17474219768E+01  0.15036967019E+02  0.22059898538E+02  0.51100000000E-03 0. -1.
        -11    1    4    4    0    0  0.91018506749E+01 -0.11564568890E+02  0.18779615369E+02  0.23859105033E+02  0.51100000000E-03 0.  1.
        -12    1    4    4    0    0 -0.62966274837E+01 -0.38887139924E+01 -0.40744906050E+01  0.84481410898E+01  0.00000000000E+00 0.  1.
</event>
<event>
 8    1  0.2450026E-006  0.9118800E+02  0.7816164E-02  0.1184000E+00
        -11   -1    0    0    0    0  0.00000000000E+00  0.00000000000E+00  0.45593999997E+02  0.45594000000E+02  0.51100000000E-03 0. -1.
         11   -1    0    0    0    0 -0.00000000000E+00 -0.00000000000E+00 -0.45593999997E+02  0.45594000000E+02  0.51100000000E-03 0.  1.
         23    2    1    2    0    0  0.00000000000E+00  0.00000000000E+00  0.35527136788E-14  0.91188000000E+02  0.91188000000E+02 0.  0.
    9900012    2    3    3    0    0  0.98984985806E+01 -0.19562595704E+02  0.29582159250E+02  0.54367087861E+02  0.40000008398E+02 0.  0.
        -12    1    3    3    0    0 -0.98984985806E+01  0.19562595704E+02 -0.29582159250E+02  0.36820912139E+02  0.00000000000E+00 0.  1.
         11    1    4    4    0    0  0.69056291243E+01 -0.37934210249E+01 -0.26202110997E+01  0.83032080031E+01  0.51100000000E-03 0.  1.
        -11    1    4    4    0    0  0.10661642713E+02 -0.13906104605E+02  0.57233919589E+01  0.18433870629E+02  0.51100000000E-03 0. -1.
         12    1    4    4    0    0 -0.76687732563E+01 -0.18630700741E+01  0.26478978391E+02  0.27630009229E+02  0.00000000000E+00 0. -1.
</event>
<event>
 8    1  0.2450026E-006  0.9118800E+02  0.7816164E-02  0.1184000E+00
        -11   -1    0    0    0    0  0.00000000000E+00  0.00000000000E+00  0.45593999997E+02  0.45594000000E+02  0.51100000000E-03 0.  1.
         11   -1    0    0    0    0 -0.00000000000E+00 -0.00000000000E+00 -0.45593999997E+02  0.45594000000E+02  0.51100000000E-03 0. -1.
         23    2    1    2    0    0 -0.17763568394E-14  0.00000000000E+00  0.35527136788E-14  0.91188000000E+02  0.91188000000E+02 0.  0.
    9900012    2    3    3    0    0  0.62914274690E+01  0.20455497313E+02 -0.29962807779E+02  0.54367091810E+02  0.40000017400E+02 0.  0.
        -12    1    3    3    0    0 -0.62914274690E+01 -0.20455497313E+02  0.29962807779E+02  0.36820908190E+02  0.00000000000E+00 0.  1.
         11    1    4    4    0    0 -0.28718978067E+01 -0.49603541187E+00 -0.11857014158E+02  0.12209939932E+02  0.51100000000E-03 0. -1.
        -11    1    4    4    0    0 -0.10449988972E+02  0.10502004678E+02 -0.25567728329E+01  0.15034342664E+02  0.51100000000E-03 0.  1.
        -12    1    4    4    0    0  0.19613314247E+02  0.10449528046E+02 -0.15549020788E+02  0.27122809214E+02  0.00000000000E+00 0.  1.
</event>
<event>
 8    1  0.2450026E-006  0.9118800E+02  0.7816164E-02  0.1184000E+00
        -11   -1    0    0    0    0  0.00000000000E+00  0.00000000000E+00  0.45593999997E+02  0.45594000000E+02  0.51100000000E-03 0.  1.
         11   -1    0    0    0    0 -0.00000000000E+00 -0.00000000000E+00 -0.45593999997E+02  0.45594000000E+02  0.51100000000E-03 0. -1.
         23    2    1    2    0    0  0.00000000000E+00  0.00000000000E+00  0.00000000000E+00  0.91188000000E+02  0.91188000000E+02 0.  0.
    9900012    2    3    3    0    0  0.86719607456E+01  0.11773182167E+02 -0.33793055680E+02  0.54367063921E+02  0.39999953822E+02 0.  0.
        -12    1    3    3    0    0 -0.86719607456E+01 -0.11773182167E+02  0.33793055680E+02  0.36820936079E+02  0.00000000000E+00 0.  1.
         11    1    4    4    0    0 -0.81633464459E+01  0.76272746007E+01 -0.14586272472E+02  0.18373211149E+02  0.51100000000E-03 0. -1.
        -11    1    4    4    0    0 -0.23480448159E+01 -0.46489865148E+01  0.24496267263E+01  0.57556112996E+01  0.51100000000E-03 0.  1.
         12    1    4    4    0    0  0.19183352007E+02  0.87948940813E+01 -0.21656409934E+02  0.30238241473E+02  0.00000000000E+00 0. -1.
</event>
<event>
 8    1  0.2450026E-006  0.9118800E+02  0.7816164E-02  0.1184000E+00
        -11   -1    0    0    0    0  0.00000000000E+00  0.00000000000E+00  0.45593999997E+02  0.45594000000E+02  0.51100000000E-03 0. -1.
         11   -1    0    0    0    0 -0.00000000000E+00 -0.00000000000E+00 -0.45593999997E+02  0.45594000000E+02  0.51100000000E-03 0.  1.
         23    2    1    2    0    0  0.00000000000E+00 -0.35527136788E-14  0.00000000000E+00  0.91188000000E+02  0.91188000000E+02 0.  0.
    9900012    2    3    3    0    0  0.17821116058E+02  0.25142644353E+02  0.20150050885E+02  0.54367227421E+02  0.40000326551E+02 0.  0.
        -12    1    3    3    0    0 -0.17821116058E+02 -0.25142644353E+02 -0.20150050885E+02  0.36820772579E+02  0.00000000000E+00 0.  1.
         11    1    4    4    0    0  0.85200822492E+01  0.19945977200E+02  0.15239410987E+00  0.21690021490E+02  0.51100000000E-03 0. -1.
        -11    1    4    4    0    0 -0.79718074376E+01  0.83004933043E+00  0.57385647541E+01  0.98574754076E+01  0.51100000000E-03 0.  1.
         12    1    4    4    0    0  0.17272841247E+02  0.43666178224E+01  0.14259092021E+02  0.22819730524E+02  0.00000000000E+00 0. -1.
</event>
<event>
 8    1  0.2450026E-006  0.9118800E+02  0.7816164E-02  0.1184000E+00
        -11   -1    0    0    0    0  0.00000000000E+00  0.00000000000E+00  0.45593999997E+02  0.45594000000E+02  0.51100000000E-03 0.  1.
         11   -1    0    0    0    0 -0.00000000000E+00 -0.00000000000E+00 -0.45593999997E+02  0.45594000000E+02  0.51100000000E-03 0. -1.
         23    2    1    2    0    0  0.17763568394E-14  0.00000000000E+00  0.88817841970E-15  0.91188000000E+02  0.91188000000E+02 0.  0.
    9900012    2    3    3    0    0  0.11302406595E+02 -0.34625511775E+02  0.53953072405E+01  0.54367084738E+02  0.40000001277E+02 0.  0.
         12    1    3    3    0    0 -0.11302406595E+02  0.34625511775E+02 -0.53953072405E+01  0.36820915262E+02  0.00000000000E+00 0. -1.
         11    1    4    4    0    0  0.14183181788E+02 -0.24935937048E+01 -0.65578822225E+01  0.15823604984E+02  0.51100000000E-03 0. -1.
        -11    1    4    4    0    0  0.14866287947E+01 -0.32240150245E+02  0.10535754158E+02  0.33950544457E+02  0.51100000000E-03 0.  1.
        -12    1    4    4    0    0 -0.43674039879E+01  0.10823217469E+00  0.14174353054E+01  0.45929352970E+01  0.00000000000E+00 0.  1.
</event>
<event>
 8    1  0.2450026E-006  0.9118800E+02  0.7816164E-02  0.1184000E+00
        -11   -1    0    0    0    0  0.00000000000E+00  0.00000000000E+00  0.45593999997E+02  0.45594000000E+02  0.51100000000E-03 0.  1.
         11   -1    0    0    0    0 -0.00000000000E+00 -0.00000000000E+00 -0.45593999997E+02  0.45594000000E+02  0.51100000000E-03 0. -1.
         23    2    1    2    0    0  0.35527136788E-14  0.00000000000E+00  0.66613381478E-15  0.91188000000E+02  0.91188000000E+02 0.  0.
    9900012    2    3    3    0    0 -0.30096779018E+02 -0.21123405172E+02 -0.19406347104E+01  0.54367076378E+02  0.39999982219E+02 0.  0.
        -12    1    3    3    0    0  0.30096779018E+02  0.21123405172E+02  0.19406347104E+01  0.36820923622E+02  0.00000000000E+00 0.  1.
         11    1    4    4    0    0 -0.26117140239E+02 -0.24014502159E+02  0.35355529836E+01  0.35655314658E+02  0.51100000000E-03 0. -1.
        -11    1    4    4    0    0 -0.16686154792E+01  0.31378145147E+01 -0.11615622107E+02  0.12147132778E+02  0.51100000000E-03 0.  1.
        -12    1    4    4    0    0 -0.23110232997E+01 -0.24671752717E+00  0.61394344127E+01  0.65646289414E+01  0.00000000000E+00 0.  1.
</event>
<event>
 8    1  0.2450026E-006  0.9118800E+02  0.7816164E-02  0.1184000E+00
        -11   -1    0    0    0    0  0.00000000000E+00  0.00000000000E+00  0.45593999997E+02  0.45594000000E+02  0.51100000000E-03 0. -1.
         11   -1    0    0    0    0 -0.00000000000E+00 -0.00000000000E+00 -0.45593999997E+02  0.45594000000E+02  0.51100000000E-03 0.  1.
         23    2    1    2    0    0  0.35527136788E-14  0.35527136788E-14 -0.35527136788E-14  0.91188000000E+02  0.91188000000E+02 0.  0.
    9900012    2    3    3    0    0  0.20089023476E+02 -0.22135812846E+02 -0.21499194161E+02  0.54367103432E+02  0.40000043893E+02 0.  0.
         12    1    3    3    0    0 -0.20089023476E+02  0.22135812846E+02  0.21499194161E+02  0.36820896568E+02  0.00000000000E+00 0. -1.
         11    1    4    4    0    0 -0.35424363750E+01  0.31653523222E+01  0.11006078721E+01  0.48764381206E+01  0.51100000000E-03 0. -1.
        -11    1    4    4    0    0  0.16790863355E+02 -0.99485447174E+00 -0.16395515926E+02  0.23489056396E+02  0.51100000000E-03 0.  1.
        -12    1    4    4    0    0  0.68405964961E+01 -0.24306310696E+02 -0.62042861065E+01  0.26001608915E+02  0.00000000000E+00 0.  1.
</event>
<event>
 8    1  0.2450026E-006  0.9118800E+02  0.7816164E-02  0.1184000E+00
        -11   -1    0    0    0    0  0.00000000000E+00  0.00000000000E+00  0.45593999997E+02  0.45594000000E+02  0.51100000000E-03 0. -1.
         11   -1    0    0    0    0 -0.00000000000E+00 -0.00000000000E+00 -0.45593999997E+02  0.45594000000E+02  0.51100000000E-03 0.  1.
         23    2    1    2    0    0 -0.88817841970E-15  0.00000000000E+00  0.00000000000E+00  0.91188000000E+02  0.91188000000E+02 0.  0.
    9900012    2    3    3    0    0 -0.67095495368E+01  0.26728840976E+02  0.24419939148E+02  0.54367049131E+02  0.39999920105E+02 0.  0.
        -12    1    3    3    0    0  0.67095495368E+01 -0.26728840976E+02 -0.24419939148E+02  0.36820950869E+02  0.00000000000E+00 0.  1.
         11    1    4    4    0    0 -0.18721158023E+02  0.65129538895E+00  0.96338604377E+01  0.21064596141E+02  0.51100000000E-03 0. -1.
        -11    1    4    4    0    0  0.29195805058E+01  0.14316476467E+02  0.99207016352E+01  0.17660854168E+02  0.51100000000E-03 0.  1.
         12    1    4    4    0    0  0.90920279801E+01  0.11761069120E+02  0.48653770749E+01  0.15641598822E+02  0.00000000000E+00 0. -1.
</event>
<event>
 8    1  0.2450026E-006  0.9118800E+02  0.7816164E-02  0.1184000E+00
        -11   -1    0    0    0    0  0.00000000000E+00  0.00000000000E+00  0.45593999997E+02  0.45594000000E+02  0.51100000000E-03 0. -1.
         11   -1    0    0    0    0 -0.00000000000E+00 -0.00000000000E+00 -0.45593999997E+02  0.45594000000E+02  0.51100000000E-03 0.  1.
         23    2    1    2    0    0 -0.17763568394E-14  0.00000000000E+00  0.00000000000E+00  0.91188000000E+02  0.91188000000E+02 0.  0.
    9900012    2    3    3    0    0  0.11127755906E+02  0.19361055282E+02  0.29276310026E+02  0.54367085537E+02  0.40000003099E+02 0.  0.
        -12    1    3    3    0    0 -0.11127755906E+02 -0.19361055282E+02 -0.29276310026E+02  0.36820914463E+02  0.00000000000E+00 0.  1.
         11    1    4    4    0    0  0.19891377220E+02  0.19622438400E+02  0.73382543681E+01  0.28888699415E+02  0.51100000000E-03 0. -1.
        -11    1    4    4    0    0 -0.72853045288E+01  0.40566013424E+01  0.15261328551E+02  0.17390797162E+02  0.51100000000E-03 0.  1.
         12    1    4    4    0    0 -0.14783167858E+01 -0.43179844604E+01  0.66767271067E+01  0.80875889594E+01  0.00000000000E+00 0. -1.
</event>
<event>
 8    1  0.2450026E-006  0.9118800E+02  0.7816164E-02  0.1184000E+00
        -11   -1    0    0    0    0  0.00000000000E+00  0.00000000000E+00  0.45593999997E+02  0.45594000000E+02  0.51100000000E-03 0. -1.
         11   -1    0    0    0    0 -0.00000000000E+00 -0.00000000000E+00 -0.45593999997E+02  0.45594000000E+02  0.51100000000E-03 0.  1.
         23    2    1    2    0    0  0.00000000000E+00  0.00000000000E+00 -0.35527136788E-14  0.91188000000E+02  0.91188000000E+02 0.  0.
    9900012    2    3    3    0    0 -0.46085326275E+01 -0.22357363381E+02  0.28890995793E+02  0.54367083278E+02  0.39999997948E+02 0.  0.
        -12    1    3    3    0    0  0.46085326275E+01  0.22357363381E+02 -0.28890995793E+02  0.36820916722E+02  0.00000000000E+00 0.  1.
         11    1    4    4    0    0  0.11926275713E+02 -0.12120314446E+02  0.11000680618E+02  0.20252235654E+02  0.51100000000E-03 0. -1.
        -11    1    4    4    0    0 -0.34422665155E+01 -0.90759353162E+01 -0.23444005741E+01  0.99858907935E+01  0.51100000000E-03 0.  1.
         12    1    4    4    0    0 -0.13092541825E+02 -0.11611136194E+01  0.20234715749E+02  0.24128956830E+02  0.00000000000E+00 0. -1.
</event>
<event>
 8    1  0.2450026E-006  0.9118800E+02  0.7816164E-02  0.1184000E+00
        -11   -1    0    0    0    0  0.00000000000E+00  0.00000000000E+00  0.45593999997E+02  0.45594000000E+02  0.51100000000E-03 0. -1.
         11   -1    0    0    0    0 -0.00000000000E+00 -0.00000000000E+00 -0.45593999997E+02  0.45594000000E+02  0.51100000000E-03 0.  1.
         23    2    1    2    0    0  0.71054273576E-14 -0.17763568394E-14  0.88817841970E-15  0.91188000000E+02  0.91188000000E+02 0.  0.
    9900012    2    3    3    0    0 -0.33460663544E+02  0.15331192561E+02  0.10572402124E+01  0.54367092529E+02  0.40000019037E+02 0.  0.
        -12    1    3    3    0    0  0.33460663544E+02 -0.15331192561E+02 -0.10572402124E+01  0.36820907471E+02  0.00000000000E+00 0.  1.
         11    1    4    4    0    0  0.24450955656E+01 -0.73092628974E+01 -0.13736691570E+01  0.78288430590E+01  0.51100000000E-03 0. -1.
        -11    1    4    4    0    0 -0.77053896088E+01 -0.13352512186E+01 -0.42878557821E+01  0.89186115685E+01  0.51100000000E-03 0.  1.
        -12    1    4    4    0    0 -0.28200369501E+02  0.23975706677E+02  0.67187651514E+01  0.37619637901E+02  0.00000000000E+00 0.  1.
</event>
<event>
 8    1  0.2450026E-006  0.9118800E+02  0.7816164E-02  0.1184000E+00
        -11   -1    0    0    0    0  0.00000000000E+00  0.00000000000E+00  0.45593999997E+02  0.45594000000E+02  0.51100000000E-03 0. -1.
         11   -1    0    0    0    0 -0.00000000000E+00 -0.00000000000E+00 -0.45593999997E+02  0.45594000000E+02  0.51100000000E-03 0.  1.
         23    2    1    2    0    0 -0.17763568394E-14  0.00000000000E+00  0.00000000000E+00  0.91188000000E+02  0.91188000000E+02 0.  0.
    9900012    2    3    3    0    0 -0.69331818443E+01 -0.31925616071E+02 -0.16984306688E+02  0.54367073265E+02  0.39999975121E+02 0.  0.
         12    1    3    3    0    0  0.69331818443E+01  0.31925616071E+02  0.16984306688E+02  0.36820926735E+02  0.00000000000E+00 0. -1.
         11    1    4    4    0    0  0.86224763096E+01 -0.67686920976E+01  0.13293544684E+01  0.11042167993E+02  0.51100000000E-03 0. -1.
        -11    1    4    4    0    0 -0.20593617833E+02 -0.92500461998E+01 -0.10280786372E+02  0.24806350373E+02  0.51100000000E-03 0.  1.
         12    1    4    4    0    0  0.50379596791E+01 -0.15906877773E+02 -0.80328747845E+01  0.18518554898E+02  0.00000000000E+00 0. -1.
</event>
<event>
 8    1  0.2450026E-006  0.9118800E+02  0.7816164E-02  0.1184000E+00
        -11   -1    0    0    0    0  0.00000000000E+00  0.00000000000E+00  0.45593999997E+02  0.45594000000E+02  0.51100000000E-03 0.  1.
         11   -1    0    0    0    0 -0.00000000000E+00 -0.00000000000E+00 -0.45593999997E+02  0.45594000000E+02  0.51100000000E-03 0. -1.
         23    2    1    2    0    0  0.00000000000E+00  0.88817841970E-15  0.00000000000E+00  0.91188000000E+02  0.91188000000E+02 0.  0.
    9900012    2    3    3    0    0 -0.19999401656E+02 -0.73541671272E+01 -0.30028662815E+02  0.54367076177E+02  0.39999981760E+02 0.  0.
        -12    1    3    3    0    0  0.19999401656E+02  0.73541671272E+01  0.30028662815E+02  0.36820923823E+02  0.00000000000E+00 0.  1.
         11    1    4    4    0    0  0.44607903605E+01  0.34596624207E+01 -0.89344964813E+01  0.10568497639E+02  0.51100000000E-03 0. -1.
        -11    1    4    4    0    0  0.53632773946E+01 -0.39642711384E+01 -0.65612279071E-01  0.66696698046E+01  0.51100000000E-03 0.  1.
         12    1    4    4    0    0 -0.29823469411E+02 -0.68495584095E+01 -0.21028554055E+02  0.37128908733E+02  0.00000000000E+00 0. -1.
</event>
<event>
 8    1  0.2450026E-006  0.9118800E+02  0.7816164E-02  0.1184000E+00
        -11   -1    0    0    0    0  0.00000000000E+00  0.00000000000E+00  0.45593999997E+02  0.45594000000E+02  0.51100000000E-03 0.  1.
         11   -1    0    0    0    0 -0.00000000000E+00 -0.00000000000E+00 -0.45593999997E+02  0.45594000000E+02  0.51100000000E-03 0. -1.
         23    2    1    2    0    0  0.35527136788E-14  0.00000000000E+00  0.00000000000E+00  0.91188000000E+02  0.91188000000E+02 0.  0.
    9900012    2    3    3    0    0 -0.28033329719E+02  0.34118575278E+01  0.23627784198E+02  0.54367074793E+02  0.39999978606E+02 0.  0.
         12    1    3    3    0    0  0.28033329719E+02 -0.34118575278E+01 -0.23627784198E+02  0.36820925207E+02  0.00000000000E+00 0. -1.
         11    1    4    4    0    0  0.56363702751E+00  0.48324781911E+01  0.72343818151E+01  0.87181886119E+01  0.51100000000E-03 0. -1.
        -11    1    4    4    0    0 -0.14273903237E+02  0.10958616215E+02  0.19421415745E+02  0.26476913959E+02  0.51100000000E-03 0.  1.
         12    1    4    4    0    0 -0.14323063510E+02 -0.12379236878E+02 -0.30280133619E+01  0.19171972223E+02  0.00000000000E+00 0. -1.
</event>
<event>
 8    1  0.2450026E-006  0.9118800E+02  0.7816164E-02  0.1184000E+00
        -11   -1    0    0    0    0  0.00000000000E+00  0.00000000000E+00  0.45593999997E+02  0.45594000000E+02  0.51100000000E-03 0.  1.
         11   -1    0    0    0    0 -0.00000000000E+00 -0.00000000000E+00 -0.45593999997E+02  0.45594000000E+02  0.51100000000E-03 0. -1.
         23    2    1    2    0    0 -0.17763568394E-14  0.35527136788E-14  0.35527136788E-14  0.91188000000E+02  0.91188000000E+02 0.  0.
    9900012    2    3    3    0    0 -0.11346254295E+02 -0.29368250383E+02 -0.19093163009E+02  0.54367075368E+02  0.39999979916E+02 0.  0.
        -12    1    3    3    0    0  0.11346254295E+02  0.29368250383E+02  0.19093163009E+02  0.36820924632E+02  0.00000000000E+00 0.  1.
         11    1    4    4    0    0 -0.36665752153E+01 -0.14717345356E+02  0.19463853302E+01  0.15291580829E+02  0.51100000000E-03 0. -1.
        -11    1    4    4    0    0 -0.18464831074E+02 -0.96167168040E+01 -0.15453478928E+02  0.25927615392E+02  0.51100000000E-03 0.  1.
         12    1    4    4    0    0  0.10785151994E+02 -0.50341882228E+01 -0.55860694115E+01  0.13147879147E+02  0.00000000000E+00 0. -1.
</event>
<event>
 8    1  0.2450026E-006  0.9118800E+02  0.7816164E-02  0.1184000E+00
        -11   -1    0    0    0    0  0.00000000000E+00  0.00000000000E+00  0.45593999997E+02  0.45594000000E+02  0.51100000000E-03 0. -1.
         11   -1    0    0    0    0 -0.00000000000E+00 -0.00000000000E+00 -0.45593999997E+02  0.45594000000E+02  0.51100000000E-03 0.  1.
         23    2    1    2    0    0  0.00000000000E+00  0.00000000000E+00  0.88817841970E-15  0.91188000000E+02  0.91188000000E+02 0.  0.
    9900012    2    3    3    0    0 -0.82243518935E+01  0.35786985801E+02 -0.27256326766E+01  0.54367117470E+02  0.40000075897E+02 0.  0.
        -12    1    3    3    0    0  0.82243518935E+01 -0.35786985801E+02  0.27256326766E+01  0.36820882530E+02  0.00000000000E+00 0.  1.
         11    1    4    4    0    0 -0.90103685417E+01  0.91042550928E+01 -0.34257885629E+01  0.13259344991E+02  0.51100000000E-03 0. -1.
        -11    1    4    4    0    0  0.12151479752E+01  0.77635434288E+01 -0.14726961133E+02  0.16692290904E+02  0.51100000000E-03 0.  1.
        -12    1    4    4    0    0 -0.42913132700E+00  0.18919187279E+02  0.15427117019E+02  0.24415481575E+02  0.00000000000E+00 0.  1.
</event>
<event>
 8    1  0.2450026E-006  0.9118800E+02  0.7816164E-02  0.1184000E+00
        -11   -1    0    0    0    0  0.00000000000E+00  0.00000000000E+00  0.45593999997E+02  0.45594000000E+02  0.51100000000E-03 0.  1.
         11   -1    0    0    0    0 -0.00000000000E+00 -0.00000000000E+00 -0.45593999997E+02  0.45594000000E+02  0.51100000000E-03 0. -1.
         23    2    1    2    0    0  0.00000000000E+00 -0.35527136788E-14 -0.35527136788E-14  0.91188000000E+02  0.91188000000E+02 0.  0.
    9900012    2    3    3    0    0  0.17918692848E+02 -0.26066347858E+02 -0.18847937918E+02  0.54367098221E+02  0.40000032015E+02 0.  0.
        -12    1    3    3    0    0 -0.17918692848E+02  0.26066347858E+02  0.18847937918E+02  0.36820901779E+02  0.00000000000E+00 0.  1.
         11    1    4    4    0    0  0.82182928809E+01  0.48553957211E+01 -0.14666357398E+00  0.95465551875E+01  0.51100000000E-03 0. -1.
        -11    1    4    4    0    0 -0.76838516619E+01 -0.39864194074E+01 -0.34347310256E+01  0.93129207842E+01  0.51100000000E-03 0.  1.
         12    1    4    4    0    0  0.17384251629E+02 -0.26935324172E+02 -0.15266543318E+02  0.35507622250E+02  0.00000000000E+00 0. -1.
</event>
<event>
 8    1  0.2450026E-006  0.9118800E+02  0.7816164E-02  0.1184000E+00
        -11   -1    0    0    0    0  0.00000000000E+00  0.00000000000E+00  0.45593999997E+02  0.45594000000E+02  0.51100000000E-03 0.  1.
         11   -1    0    0    0    0 -0.00000000000E+00 -0.00000000000E+00 -0.45593999997E+02  0.45594000000E+02  0.51100000000E-03 0. -1.
         23    2    1    2    0    0  0.88817841970E-15 -0.35527136788E-14  0.35527136788E-14  0.91188000000E+02  0.91188000000E+02 0.  0.
    9900012    2    3    3    0    0  0.47434602209E+01 -0.31234655839E+02 -0.18912337379E+02  0.54367073269E+02  0.39999975130E+02 0.  0.
        -12    1    3    3    0    0 -0.47434602209E+01  0.31234655839E+02  0.18912337379E+02  0.36820926731E+02  0.00000000000E+00 0.  1.
         11    1    4    4    0    0  0.16835433864E+01 -0.53887725444E-01 -0.99488289559E+01  0.10090412285E+02  0.51100000000E-03 0. -1.
        -11    1    4    4    0    0  0.10954343960E+02 -0.24632544185E+02  0.45206466361E+01  0.27334888529E+02  0.51100000000E-03 0.  1.
        -12    1    4    4    0    0 -0.78944271255E+01 -0.65482239285E+01 -0.13484155059E+02  0.16941772455E+02  0.00000000000E+00 0.  1.
</event>
<event>
 8    1  0.2450026E-006  0.9118800E+02  0.7816164E-02  0.1184000E+00
        -11   -1    0    0    0    0  0.00000000000E+00  0.00000000000E+00  0.45593999997E+02  0.45594000000E+02  0.51100000000E-03 0.  1.
         11   -1    0    0    0    0 -0.00000000000E+00 -0.00000000000E+00 -0.45593999997E+02  0.45594000000E+02  0.51100000000E-03 0. -1.
         23    2    1    2    0    0  0.00000000000E+00  0.00000000000E+00 -0.17763568394E-14  0.91188000000E+02  0.91188000000E+02 0.  0.
    9900012    2    3    3    0    0 -0.14851383686E+02  0.33197590155E+02 -0.57568590095E+01  0.54367013930E+02  0.39999839857E+02 0.  0.
        -12    1    3    3    0    0  0.14851383686E+02 -0.33197590155E+02  0.57568590095E+01  0.36820986070E+02  0.00000000000E+00 0.  1.
         11    1    4    4    0    0  0.18554296150E+01  0.18642706330E+01  0.11579943158E+02  0.11874898225E+02  0.51100000000E-03 0. -1.
        -11    1    4    4    0    0 -0.31521121131E+01 -0.13346844427E+01 -0.16813640914E+01  0.38136831022E+01  0.51100000000E-03 0.  1.
         12    1    4    4    0    0 -0.13554701188E+02  0.32668003965E+02 -0.15655438076E+02  0.38678432604E+02  0.00000000000E+00 0. -1.
</event>
<event>
 8    1  0.2450026E-006  0.9118800E+02  0.7816164E-02  0.1184000E+00
        -11   -1    0    0    0    0  0.00000000000E+00  0.00000000000E+00  0.45593999997E+02  0.45594000000E+02  0.51100000000E-03 0.  1.
         11   -1    0    0    0    0 -0.00000000000E+00 -0.00000000000E+00 -0.45593999997E+02  0.45594000000E+02  0.51100000000E-03 0. -1.
         23    2    1    2    0    0  0.00000000000E+00  0.17763568394E-14  0.00000000000E+00  0.91188000000E+02  0.91188000000E+02 0.  0.
    9900012    2    3    3    0    0 -0.23862413146E+02  0.12670170020E+02  0.25016627268E+02  0.54367087337E+02  0.40000007202E+02 0.  0.
         12    1    3    3    0    0  0.23862413146E+02 -0.12670170020E+02 -0.25016627268E+02  0.36820912663E+02  0.00000000000E+00 0. -1.
         11    1    4    4    0    0  0.69326369338E+01  0.12718114707E+02  0.82492704711E+01  0.16669203944E+02  0.51100000000E-03 0. -1.
        -11    1    4    4    0    0  0.76787962346E+00  0.17469533817E+01  0.21300225187E+01  0.28598044383E+01  0.51100000000E-03 0.  1.
        -12    1    4    4    0    0 -0.31562929703E+02 -0.17948980681E+01  0.14637334278E+02  0.34838078955E+02  0.00000000000E+00 0.  1.
</event>
<event>
 8    1  0.2450026E-006  0.9118800E+02  0.7816164E-02  0.1184000E+00
        -11   -1    0    0    0    0  0.00000000000E+00  0.00000000000E+00  0.45593999997E+02  0.45594000000E+02  0.51100000000E-03 0.  1.
         11   -1    0    0    0    0 -0.00000000000E+00 -0.00000000000E+00 -0.45593999997E+02  0.45594000000E+02  0.51100000000E-03 0. -1.
         23    2    1    2    0    0 -0.17763568394E-14  0.00000000000E+00  0.35527136788E-14  0.91188000000E+02  0.91188000000E+02 0.  0.
    9900012    2    3    3    0    0  0.14858993827E+02  0.21863423437E+02 -0.25631667389E+02  0.54367063631E+02  0.39999953160E+02 0.  0.
        -12    1    3    3    0    0 -0.14858993827E+02 -0.21863423437E+02  0.25631667389E+02  0.36820936369E+02  0.00000000000E+00 0.  1.
         11    1    4    4    0    0  0.20290728211E+02  0.18414537149E+02 -0.29492428737E+02  0.40256827779E+02  0.51100000000E-03 0. -1.
        -11    1    4    4    0    0 -0.23552375405E+01  0.17882117750E+01 -0.43077042860E+01  0.52250513587E+01  0.51100000000E-03 0.  1.
        -12    1    4    4    0    0 -0.30764968436E+01  0.16606745129E+01  0.81684656342E+01  0.88851844935E+01  0.00000000000E+00 0.  1.
</event>
<event>
 8    1  0.2450026E-006  0.9118800E+02  0.7816164E-02  0.1184000E+00
        -11   -1    0    0    0    0  0.00000000000E+00  0.00000000000E+00  0.45593999997E+02  0.45594000000E+02  0.51100000000E-03 0. -1.
         11   -1    0    0    0    0 -0.00000000000E+00 -0.00000000000E+00 -0.45593999997E+02  0.45594000000E+02  0.51100000000E-03 0.  1.
         23    2    1    2    0    0  0.00000000000E+00  0.22204460493E-15  0.00000000000E+00  0.91188000000E+02  0.91188000000E+02 0.  0.
    9900012    2    3    3    0    0 -0.34190349569E+02 -0.70607620322E+00  0.13649216502E+02  0.54367086672E+02  0.40000005685E+02 0.  0.
         12    1    3    3    0    0  0.34190349569E+02  0.70607620322E+00 -0.13649216502E+02  0.36820913328E+02  0.00000000000E+00 0. -1.
         11    1    4    4    0    0 -0.53818178572E+01  0.10939451160E+02 -0.68215200949E+01  0.13970278873E+02  0.51100000000E-03 0.  1.
        -11    1    4    4    0    0 -0.80444983350E+01 -0.11492212098E+02  0.91251757840E+01  0.16734805817E+02  0.51100000000E-03 0. -1.
        -12    1    4    4    0    0 -0.20764033376E+02 -0.15331526504E+00  0.11345560813E+02  0.23662001982E+02  0.00000000000E+00 0.  1.
</event>
<event>
 8    1  0.2450026E-006  0.9118800E+02  0.7816164E-02  0.1184000E+00
        -11   -1    0    0    0    0  0.00000000000E+00  0.00000000000E+00  0.45593999997E+02  0.45594000000E+02  0.51100000000E-03 0. -1.
         11   -1    0    0    0    0 -0.00000000000E+00 -0.00000000000E+00 -0.45593999997E+02  0.45594000000E+02  0.51100000000E-03 0.  1.
         23    2    1    2    0    0  0.00000000000E+00  0.00000000000E+00  0.44408920985E-15  0.91188000000E+02  0.91188000000E+02 0.  0.
    9900012    2    3    3    0    0 -0.35529728138E+02 -0.93833380062E+01  0.23176203608E+01  0.54367082333E+02  0.39999995794E+02 0.  0.
        -12    1    3    3    0    0  0.35529728138E+02  0.93833380062E+01 -0.23176203608E+01  0.36820917667E+02  0.00000000000E+00 0.  1.
         11    1    4    4    0    0 -0.62774913824E+01 -0.75822462177E+01 -0.64962776681E+01  0.11794023044E+02  0.51100000000E-03 0. -1.
        -11    1    4    4    0    0 -0.12497775592E+02 -0.28156420360E+01 -0.10801051961E+02  0.16756639238E+02  0.51100000000E-03 0.  1.
         12    1    4    4    0    0 -0.16754461164E+02  0.10145502475E+01  0.19614949990E+02  0.25816420050E+02  0.00000000000E+00 0. -1.
</event>
<event>
 8    1  0.2450026E-006  0.9118800E+02  0.7816164E-02  0.1184000E+00
        -11   -1    0    0    0    0  0.00000000000E+00  0.00000000000E+00  0.45593999997E+02  0.45594000000E+02  0.51100000000E-03 0.  1.
         11   -1    0    0    0    0 -0.00000000000E+00 -0.00000000000E+00 -0.45593999997E+02  0.45594000000E+02  0.51100000000E-03 0. -1.
         23    2    1    2    0    0  0.00000000000E+00  0.00000000000E+00  0.00000000000E+00  0.91188000000E+02  0.91188000000E+02 0.  0.
    9900012    2    3    3    0    0 -0.34096906897E+02  0.11741839385E+02 -0.74370755720E+01  0.54367082777E+02  0.39999996807E+02 0.  0.
        -12    1    3    3    0    0  0.34096906897E+02 -0.11741839385E+02  0.74370755720E+01  0.36820917223E+02  0.00000000000E+00 0.  1.
         11    1    4    4    0    0 -0.12987359609E+02  0.85692915786E+01 -0.71277934910E+01  0.17114605110E+02  0.51100000000E-03 0. -1.
        -11    1    4    4    0    0  0.22747921799E+01  0.10712616692E+02  0.51210091545E+01  0.12089647260E+02  0.51100000000E-03 0.  1.
         12    1    4    4    0    0 -0.23384339468E+02 -0.75400688862E+01 -0.54302912356E+01  0.25162830407E+02  0.00000000000E+00 0. -1.
</event>
<event>
 8    1  0.2450026E-006  0.9118800E+02  0.7816164E-02  0.1184000E+00
        -11   -1    0    0    0    0  0.00000000000E+00  0.00000000000E+00  0.45593999997E+02  0.45594000000E+02  0.51100000000E-03 0. -1.
         11   -1    0    0    0    0 -0.00000000000E+00 -0.00000000000E+00 -0.45593999997E+02  0.45594000000E+02  0.51100000000E-03 0.  1.
         23    2    1    2    0    0  0.00000000000E+00 -0.55511151231E-15  0.71054273576E-14  0.91188000000E+02  0.91188000000E+02 0.  0.
    9900012    2    3    3    0    0  0.10521233248E+02  0.67258093783E+00  0.35279329510E+02  0.54367084682E+02  0.40000001150E+02 0.  0.
        -12    1    3    3    0    0 -0.10521233248E+02 -0.67258093783E+00 -0.35279329510E+02  0.36820915318E+02  0.00000000000E+00 0.  1.
         11    1    4    4    0    0  0.14265925225E+02 -0.43815167305E+01  0.22009696220E+02  0.26592123634E+02  0.51100000000E-03 0. -1.
        -11    1    4    4    0    0 -0.11796737795E+02 -0.32027945751E+00  0.13703252573E+02  0.18084378144E+02  0.51100000000E-03 0.  1.
         12    1    4    4    0    0  0.80520458177E+01  0.53743771259E+01 -0.43361928347E+00  0.96905829043E+01  0.00000000000E+00 0. -1.
</event>
<event>
 8    1  0.2450026E-006  0.9118800E+02  0.7816164E-02  0.1184000E+00
        -11   -1    0    0    0    0  0.00000000000E+00  0.00000000000E+00  0.45593999997E+02  0.45594000000E+02  0.51100000000E-03 0. -1.
         11   -1    0    0    0    0 -0.00000000000E+00 -0.00000000000E+00 -0.45593999997E+02  0.45594000000E+02  0.51100000000E-03 0.  1.
         23    2    1    2    0    0  0.00000000000E+00  0.00000000000E+00  0.00000000000E+00  0.91188000000E+02  0.91188000000E+02 0.  0.
    9900012    2    3    3    0    0 -0.17028682155E+02 -0.17603149448E+02  0.27494230993E+02  0.54367087134E+02  0.40000006738E+02 0.  0.
        -12    1    3    3    0    0  0.17028682155E+02  0.17603149448E+02 -0.27494230993E+02  0.36820912866E+02  0.00000000000E+00 0.  1.
         11    1    4    4    0    0 -0.95833653532E+01  0.37465936618E+01  0.14877112653E+02  0.18088845643E+02  0.51100000000E-03 0. -1.
        -11    1    4    4    0    0 -0.54306906895E+01 -0.47947661786E+01 -0.73111246983E+01  0.10292459798E+02  0.51100000000E-03 0.  1.
         12    1    4    4    0    0 -0.20146261120E+01 -0.16554976931E+02  0.19928243039E+02  0.25985781692E+02  0.00000000000E+00 0. -1.
</event>
<event>
 8    1  0.2450026E-006  0.9118800E+02  0.7816164E-02  0.1184000E+00
        -11   -1    0    0    0    0  0.00000000000E+00  0.00000000000E+00  0.45593999997E+02  0.45594000000E+02  0.51100000000E-03 0.  1.
         11   -1    0    0    0    0 -0.00000000000E+00 -0.00000000000E+00 -0.45593999997E+02  0.45594000000E+02  0.51100000000E-03 0. -1.
         23    2    1    2    0    0  0.00000000000E+00 -0.71054273576E-14  0.88817841970E-15  0.91188000000E+02  0.91188000000E+02 0.  0.
    9900012    2    3    3    0    0 -0.30834260361E+02 -0.18567082539E+02 -0.77646215443E+01  0.54367115794E+02  0.40000072075E+02 0.  0.
        -12    1    3    3    0    0  0.30834260361E+02  0.18567082539E+02  0.77646215443E+01  0.36820884206E+02  0.00000000000E+00 0.  1.
         11    1    4    4    0    0 -0.29557929061E+02 -0.97710727120E+00 -0.10585645417E+02  0.31411491498E+02  0.51100000000E-03 0. -1.
        -11    1    4    4    0    0 -0.31203732024E+01  0.15068649859E+01 -0.44611456382E+00  0.34937643701E+01  0.51100000000E-03 0.  1.
        -12    1    4    4    0    0  0.18440419024E+01 -0.19096840253E+02  0.32671384361E+01  0.19461859926E+02  0.00000000000E+00 0.  1.
</event>
<event>
 8    1  0.2450026E-006  0.9118800E+02  0.7816164E-02  0.1184000E+00
        -11   -1    0    0    0    0  0.00000000000E+00  0.00000000000E+00  0.45593999997E+02  0.45594000000E+02  0.51100000000E-03 0. -1.
         11   -1    0    0    0    0 -0.00000000000E+00 -0.00000000000E+00 -0.45593999997E+02  0.45594000000E+02  0.51100000000E-03 0.  1.
         23    2    1    2    0    0  0.35527136788E-14  0.00000000000E+00  0.00000000000E+00  0.91188000000E+02  0.91188000000E+02 0.  0.
    9900012    2    3    3    0    0 -0.26825466356E+02 -0.83446693694E+01  0.23801923093E+02  0.54367208387E+02  0.40000283158E+02 0.  0.
        -12    1    3    3    0    0  0.26825466356E+02  0.83446693694E+01 -0.23801923093E+02  0.36820791613E+02  0.00000000000E+00 0.  1.
         11    1    4    4    0    0 -0.17360708763E+02 -0.41096245045E+01  0.21955138670E+02  0.28289774417E+02  0.51100000000E-03 0. -1.
        -11    1    4    4    0    0 -0.67228043417E+01 -0.14170493784E+02  0.60482657772E+00  0.15696012479E+02  0.51100000000E-03 0.  1.
        -12    1    4    4    0    0 -0.27419532516E+01  0.99354489193E+01  0.12419578454E+01  0.10381421490E+02  0.00000000000E+00 0.  1.
</event>
<event>
 8    1  0.2450026E-006  0.9118800E+02  0.7816164E-02  0.1184000E+00
        -11   -1    0    0    0    0  0.00000000000E+00  0.00000000000E+00  0.45593999997E+02  0.45594000000E+02  0.51100000000E-03 0.  1.
         11   -1    0    0    0    0 -0.00000000000E+00 -0.00000000000E+00 -0.45593999997E+02  0.45594000000E+02  0.51100000000E-03 0. -1.
         23    2    1    2    0    0  0.00000000000E+00 -0.35527136788E-14  0.35527136788E-14  0.91188000000E+02  0.91188000000E+02 0.  0.
    9900012    2    3    3    0    0  0.10870590135E+02 -0.23896881478E+02  0.25817614627E+02  0.54367083400E+02  0.39999998227E+02 0.  0.
         12    1    3    3    0    0 -0.10870590135E+02  0.23896881478E+02 -0.25817614627E+02  0.36820916600E+02  0.00000000000E+00 0. -1.
         11    1    4    4    0    0  0.10838910990E+02 -0.10681073925E+02  0.58089605410E+00  0.15228419883E+02  0.51100000000E-03 0. -1.
        -11    1    4    4    0    0  0.26991583176E+01 -0.20197318013E+01  0.27247177880E+02  0.27454935346E+02  0.51100000000E-03 0.  1.
        -12    1    4    4    0    0 -0.26674791722E+01 -0.11196075751E+02 -0.20104593070E+01  0.11683728172E+02  0.00000000000E+00 0.  1.
</event>
<event>
 8    1  0.2450026E-006  0.9118800E+02  0.7816164E-02  0.1184000E+00
        -11   -1    0    0    0    0  0.00000000000E+00  0.00000000000E+00  0.45593999997E+02  0.45594000000E+02  0.51100000000E-03 0.  1.
         11   -1    0    0    0    0 -0.00000000000E+00 -0.00000000000E+00 -0.45593999997E+02  0.45594000000E+02  0.51100000000E-03 0. -1.
         23    2    1    2    0    0  0.35527136788E-14  0.00000000000E+00  0.35527136788E-14  0.91188000000E+02  0.91188000000E+02 0.  0.
    9900012    2    3    3    0    0  0.24502967937E+02 -0.50506420001E+01  0.27016201174E+02  0.54367088167E+02  0.40000009094E+02 0.  0.
         12    1    3    3    0    0 -0.24502967937E+02  0.50506420001E+01 -0.27016201174E+02  0.36820911833E+02  0.00000000000E+00 0. -1.
         11    1    4    4    0    0  0.18015972529E+01  0.24598577370E+00 -0.71574385250E+01  0.73847943886E+01  0.51100000000E-03 0. -1.
        -11    1    4    4    0    0  0.38269935620E+00 -0.81944838009E+01  0.16279292872E+02  0.18229410309E+02  0.51100000000E-03 0.  1.
        -12    1    4    4    0    0  0.22318671328E+02  0.28978560271E+01  0.17894346827E+02  0.28752883469E+02  0.00000000000E+00 0.  1.
</event>
<event>
 8    1  0.2450026E-006  0.9118800E+02  0.7816164E-02  0.1184000E+00
        -11   -1    0    0    0    0  0.00000000000E+00  0.00000000000E+00  0.45593999997E+02  0.45594000000E+02  0.51100000000E-03 0.  1.
         11   -1    0    0    0    0 -0.00000000000E+00 -0.00000000000E+00 -0.45593999997E+02  0.45594000000E+02  0.51100000000E-03 0. -1.
         23    2    1    2    0    0  0.00000000000E+00  0.00000000000E+00  0.00000000000E+00  0.91188000000E+02  0.91188000000E+02 0.  0.
    9900012    2    3    3    0    0 -0.34951188667E+02 -0.49963378075E+01 -0.10451413691E+02  0.54367068061E+02  0.39999963259E+02 0.  0.
        -12    1    3    3    0    0  0.34951188667E+02  0.49963378075E+01  0.10451413691E+02  0.36820931939E+02  0.00000000000E+00 0.  1.
         11    1    4    4    0    0 -0.13670567303E+02  0.64843330097E+01 -0.83961495753E+01  0.17303939232E+02  0.51100000000E-03 0. -1.
        -11    1    4    4    0    0 -0.22857493029E+02 -0.10425443152E+02 -0.11356483894E+02  0.27570356893E+02  0.51100000000E-03 0.  1.
        -12    1    4    4    0    0  0.15768716654E+01 -0.10552276648E+01  0.93012197786E+01  0.94927719368E+01  0.00000000000E+00 0.  1.
</event>
<event>
 8    1  0.2450026E-006  0.9118800E+02  0.7816164E-02  0.1184000E+00
        -11   -1    0    0    0    0  0.00000000000E+00  0.00000000000E+00  0.45593999997E+02  0.45594000000E+02  0.51100000000E-03 0.  1.
         11   -1    0    0    0    0 -0.00000000000E+00 -0.00000000000E+00 -0.45593999997E+02  0.45594000000E+02  0.51100000000E-03 0. -1.
         23    2    1    2    0    0  0.00000000000E+00  0.00000000000E+00  0.00000000000E+00  0.91188000000E+02  0.91188000000E+02 0.  0.
    9900012    2    3    3    0    0  0.22397259952E+02 -0.76307950494E+01  0.28211930169E+02  0.54367091669E+02  0.40000017077E+02 0.  0.
         12    1    3    3    0    0 -0.22397259952E+02  0.76307950494E+01 -0.28211930169E+02  0.36820908331E+02  0.00000000000E+00 0. -1.
         11    1    4    4    0    0  0.10639790201E+02  0.35220239754E+01 -0.12141030276E+01  0.11273146625E+02  0.51100000000E-03 0. -1.
        -11    1    4    4    0    0  0.16478881284E+02 -0.13416892486E+01  0.27425510162E+02  0.32023620443E+02  0.51100000000E-03 0.  1.
        -12    1    4    4    0    0 -0.47214115328E+01 -0.98111297763E+01  0.20005230353E+01  0.11070324601E+02  0.00000000000E+00 0.  1.
</event>
<event>
 8    1  0.2450026E-006  0.9118800E+02  0.7816164E-02  0.1184000E+00
        -11   -1    0    0    0    0  0.00000000000E+00  0.00000000000E+00  0.45593999997E+02  0.45594000000E+02  0.51100000000E-03 0. -1.
         11   -1    0    0    0    0 -0.00000000000E+00 -0.00000000000E+00 -0.45593999997E+02  0.45594000000E+02  0.51100000000E-03 0.  1.
         23    2    1    2    0    0  0.00000000000E+00 -0.35527136788E-14 -0.17763568394E-14  0.91188000000E+02  0.91188000000E+02 0.  0.
    9900012    2    3    3    0    0 -0.19856937620E+02  0.28913300392E+02  0.11202887449E+02  0.54367060327E+02  0.39999945627E+02 0.  0.
        -12    1    3    3    0    0  0.19856937620E+02 -0.28913300392E+02 -0.11202887449E+02  0.36820939673E+02  0.00000000000E+00 0.  1.
         11    1    4    4    0    0 -0.15878732285E+02  0.19677321363E+02 -0.59154290099E+01  0.25967737977E+02  0.51100000000E-03 0. -1.
        -11    1    4    4    0    0 -0.69442486923E+01  0.10306632833E+02  0.15607362280E+01  0.12525380956E+02  0.51100000000E-03 0.  1.
        -12    1    4    4    0    0  0.29660433571E+01 -0.10706538039E+01  0.15557580231E+02  0.15873941394E+02  0.00000000000E+00 0.  1.
</event>
<event>
 8    1  0.2450026E-006  0.9118800E+02  0.7816164E-02  0.1184000E+00
        -11   -1    0    0    0    0  0.00000000000E+00  0.00000000000E+00  0.45593999997E+02  0.45594000000E+02  0.51100000000E-03 0.  1.
         11   -1    0    0    0    0 -0.00000000000E+00 -0.00000000000E+00 -0.45593999997E+02  0.45594000000E+02  0.51100000000E-03 0. -1.
         23    2    1    2    0    0  0.35527136788E-14 -0.17763568394E-14  0.00000000000E+00  0.91188000000E+02  0.91188000000E+02 0.  0.
    9900012    2    3    3    0    0  0.19774910030E+02 -0.61638719760E+01 -0.30442286157E+02  0.54367174767E+02  0.40000206515E+02 0.  0.
        -12    1    3    3    0    0 -0.19774910030E+02  0.61638719760E+01  0.30442286157E+02  0.36820825233E+02  0.00000000000E+00 0.  1.
         11    1    4    4    0    0  0.23886806994E+01 -0.14384299402E+02 -0.71123802818E+01  0.16223434233E+02  0.51100000000E-03 0. -1.
        -11    1    4    4    0    0 -0.36045206550E+01  0.67768102190E+01 -0.14928448876E+01  0.78196107330E+01  0.51100000000E-03 0.  1.
        -12    1    4    4    0    0  0.20990749985E+02  0.14436172075E+01 -0.21837060987E+02  0.30324129800E+02  0.00000000000E+00 0.  1.
</event>
<event>
 8    1  0.2450026E-006  0.9118800E+02  0.7816164E-02  0.1184000E+00
        -11   -1    0    0    0    0  0.00000000000E+00  0.00000000000E+00  0.45593999997E+02  0.45594000000E+02  0.51100000000E-03 0.  1.
         11   -1    0    0    0    0 -0.00000000000E+00 -0.00000000000E+00 -0.45593999997E+02  0.45594000000E+02  0.51100000000E-03 0. -1.
         23    2    1    2    0    0  0.71054273576E-14  0.88817841970E-15  0.17763568394E-14  0.91188000000E+02  0.91188000000E+02 0.  0.
    9900012    2    3    3    0    0  0.34291519240E+02  0.64363072642E+01  0.11765893132E+02  0.54367209892E+02  0.40000286590E+02 0.  0.
        -12    1    3    3    0    0 -0.34291519240E+02 -0.64363072642E+01 -0.11765893132E+02  0.36820790108E+02  0.00000000000E+00 0.  1.
         11    1    4    4    0    0  0.17537090092E+01  0.13954183866E+01 -0.19617017635E+01  0.29784159938E+01  0.51100000000E-03 0. -1.
        -11    1    4    4    0    0  0.95433614535E+01  0.13912539771E+02 -0.78717059187E+01  0.18617149756E+02  0.51100000000E-03 0.  1.
        -12    1    4    4    0    0  0.22994448777E+02 -0.88716508930E+01  0.21599300815E+02  0.32771644142E+02  0.00000000000E+00 0.  1.
</event>
<event>
 8    1  0.2450026E-006  0.9118800E+02  0.7816164E-02  0.1184000E+00
        -11   -1    0    0    0    0  0.00000000000E+00  0.00000000000E+00  0.45593999997E+02  0.45594000000E+02  0.51100000000E-03 0.  1.
         11   -1    0    0    0    0 -0.00000000000E+00 -0.00000000000E+00 -0.45593999997E+02  0.45594000000E+02  0.51100000000E-03 0. -1.
         23    2    1    2    0    0  0.00000000000E+00 -0.35527136788E-14 -0.35527136788E-14  0.91188000000E+02  0.91188000000E+02 0.  0.
    9900012    2    3    3    0    0  0.15592289099E+02 -0.16882783897E+02  0.28768606039E+02  0.54367074361E+02  0.39999977621E+02 0.  0.
         12    1    3    3    0    0 -0.15592289099E+02  0.16882783897E+02 -0.28768606039E+02  0.36820925639E+02  0.00000000000E+00 0. -1.
         11    1    4    4    0    0  0.17661198914E+02 -0.16260754638E+02  0.12603485238E+02  0.27114164728E+02  0.51100000000E-03 0. -1.
        -11    1    4    4    0    0  0.96706782462E+01 -0.22685848620E+01  0.89818562737E+01  0.13391872065E+02  0.51100000000E-03 0.  1.
         12    1    4    4    0    0 -0.11739588061E+02  0.16465556033E+01  0.71832645279E+01  0.13861037569E+02  0.00000000000E+00 0. -1.
</event>
<event>
 8    1  0.2450026E-006  0.9118800E+02  0.7816164E-02  0.1184000E+00
        -11   -1    0    0    0    0  0.00000000000E+00  0.00000000000E+00  0.45593999997E+02  0.45594000000E+02  0.51100000000E-03 0.  1.
         11   -1    0    0    0    0 -0.00000000000E+00 -0.00000000000E+00 -0.45593999997E+02  0.45594000000E+02  0.51100000000E-03 0. -1.
         23    2    1    2    0    0  0.17763568394E-14  0.71054273576E-14 -0.35527136788E-14  0.91188000000E+02  0.91188000000E+02 0.  0.
    9900012    2    3    3    0    0 -0.87870256426E+01 -0.31922894402E+02  0.16108878488E+02  0.54367095980E+02  0.40000026906E+02 0.  0.
        -12    1    3    3    0    0  0.87870256426E+01  0.31922894402E+02 -0.16108878488E+02  0.36820904020E+02  0.00000000000E+00 0.  1.
         11    1    4    4    0    0  0.51642659579E-01 -0.14700762206E+02  0.17145372307E+01  0.14800497106E+02  0.51100000000E-03 0. -1.
        -11    1    4    4    0    0  0.10669614862E+02 -0.33761819212E+01 -0.81163950299E+00  0.11220429787E+02  0.51100000000E-03 0.  1.
        -12    1    4    4    0    0 -0.19508283164E+02 -0.13845950275E+02  0.15205980761E+02  0.28346169088E+02  0.00000000000E+00 0.  1.
</event>
<event>
 8    1  0.2450026E-006  0.9118800E+02  0.7816164E-02  0.1184000E+00
        -11   -1    0    0    0    0  0.00000000000E+00  0.00000000000E+00  0.45593999997E+02  0.45594000000E+02  0.51100000000E-03 0. -1.
         11   -1    0    0    0    0 -0.00000000000E+00 -0.00000000000E+00 -0.45593999997E+02  0.45594000000E+02  0.51100000000E-03 0.  1.
         23    2    1    2    0    0  0.00000000000E+00  0.00000000000E+00 -0.35527136788E-14  0.91188000000E+02  0.91188000000E+02 0.  0.
    9900012    2    3    3    0    0  0.19890169643E+02  0.26284035373E+02 -0.16410703344E+02  0.54367074589E+02  0.39999978140E+02 0.  0.
         12    1    3    3    0    0 -0.19890169643E+02 -0.26284035373E+02  0.16410703344E+02  0.36820925411E+02  0.00000000000E+00 0. -1.
         11    1    4    4    0    0 -0.73687115230E+00  0.12380537973E+02  0.10911821787E+02  0.16519338805E+02  0.51100000000E-03 0. -1.
        -11    1    4    4    0    0  0.13316599455E+02  0.46039296523E+01 -0.17535123447E+02  0.22494633667E+02  0.51100000000E-03 0.  1.
         12    1    4    4    0    0  0.73104413405E+01  0.92995677477E+01 -0.97874016834E+01  0.15353102117E+02  0.00000000000E+00 0. -1.
</event>
<event>
 8    1  0.2450026E-006  0.9118800E+02  0.7816164E-02  0.1184000E+00
        -11   -1    0    0    0    0  0.00000000000E+00  0.00000000000E+00  0.45593999997E+02  0.45594000000E+02  0.51100000000E-03 0. -1.
         11   -1    0    0    0    0 -0.00000000000E+00 -0.00000000000E+00 -0.45593999997E+02  0.45594000000E+02  0.51100000000E-03 0.  1.
         23    2    1    2    0    0  0.88817841970E-15  0.00000000000E+00  0.00000000000E+00  0.91188000000E+02  0.91188000000E+02 0.  0.
    9900012    2    3    3    0    0  0.38196160727E+01  0.18404132783E+02  0.31661934594E+02  0.54367086477E+02  0.40000005241E+02 0.  0.
        -12    1    3    3    0    0 -0.38196160727E+01 -0.18404132783E+02 -0.31661934594E+02  0.36820913523E+02  0.00000000000E+00 0.  1.
         11    1    4    4    0    0 -0.37657971638E+01  0.33141981608E+01  0.95111580487E+01  0.10753011923E+02  0.51100000000E-03 0. -1.
        -11    1    4    4    0    0  0.17201370041E+02  0.20221423216E+02  0.14070938022E+02  0.30046370584E+02  0.51100000000E-03 0.  1.
        -12    1    4    4    0    0 -0.96159568044E+01 -0.51314885937E+01  0.80798385236E+01  0.13567703970E+02  0.00000000000E+00 0.  1.
</event>
<event>
 8    1  0.2450026E-006  0.9118800E+02  0.7816164E-02  0.1184000E+00
        -11   -1    0    0    0    0  0.00000000000E+00  0.00000000000E+00  0.45593999997E+02  0.45594000000E+02  0.51100000000E-03 0.  1.
         11   -1    0    0    0    0 -0.00000000000E+00 -0.00000000000E+00 -0.45593999997E+02  0.45594000000E+02  0.51100000000E-03 0. -1.
         23    2    1    2    0    0  0.00000000000E+00  0.00000000000E+00  0.35527136788E-14  0.91188000000E+02  0.91188000000E+02 0.  0.
    9900012    2    3    3    0    0 -0.25345280050E+02 -0.13874271707E+02  0.22823331176E+02  0.54367040179E+02  0.39999899696E+02 0.  0.
         12    1    3    3    0    0  0.25345280050E+02  0.13874271707E+02 -0.22823331176E+02  0.36820959821E+02  0.00000000000E+00 0. -1.
         11    1    4    4    0    0 -0.34920906167E+01  0.60787902439E+01 -0.24864581920E+01  0.74383373348E+01  0.51100000000E-03 0. -1.
        -11    1    4    4    0    0 -0.19498904908E+02 -0.67359682949E+01  0.26348123366E+02  0.33463475114E+02  0.51100000000E-03 0.  1.
         12    1    4    4    0    0 -0.23542845244E+01 -0.13217093656E+02 -0.10383339986E+01  0.13465227730E+02  0.00000000000E+00 0. -1.
</event>
<event>
 8    1  0.2450026E-006  0.9118800E+02  0.7816164E-02  0.1184000E+00
        -11   -1    0    0    0    0  0.00000000000E+00  0.00000000000E+00  0.45593999997E+02  0.45594000000E+02  0.51100000000E-03 0. -1.
         11   -1    0    0    0    0 -0.00000000000E+00 -0.00000000000E+00 -0.45593999997E+02  0.45594000000E+02  0.51100000000E-03 0.  1.
         23    2    1    2    0    0  0.17763568394E-14 -0.35527136788E-14  0.35527136788E-14  0.91188000000E+02  0.91188000000E+02 0.  0.
    9900012    2    3    3    0    0 -0.74764452147E+01  0.31685657396E+02  0.17201807009E+02  0.54367078202E+02  0.39999986377E+02 0.  0.
        -12    1    3    3    0    0  0.74764452147E+01 -0.31685657396E+02 -0.17201807009E+02  0.36820921798E+02  0.00000000000E+00 0.  1.
         11    1    4    4    0    0 -0.90535526975E+01  0.41999323269E+01  0.20701535602E+01  0.10192731921E+02  0.51100000000E-03 0. -1.
        -11    1    4    4    0    0  0.55797355666E+01  0.18033322415E+01 -0.76309521188E+01  0.96237667608E+01  0.51100000000E-03 0.  1.
         12    1    4    4    0    0 -0.40026280837E+01  0.25682392827E+02  0.22762605568E+02  0.34550579520E+02  0.00000000000E+00 0. -1.
</event>
<event>
 8    1  0.2450026E-006  0.9118800E+02  0.7816164E-02  0.1184000E+00
        -11   -1    0    0    0    0  0.00000000000E+00  0.00000000000E+00  0.45593999997E+02  0.45594000000E+02  0.51100000000E-03 0.  1.
         11   -1    0    0    0    0 -0.00000000000E+00 -0.00000000000E+00 -0.45593999997E+02  0.45594000000E+02  0.51100000000E-03 0. -1.
         23    2    1    2    0    0  0.00000000000E+00  0.00000000000E+00 -0.35527136788E-14  0.91188000000E+02  0.91188000000E+02 0.  0.
    9900012    2    3    3    0    0  0.24650543472E+02 -0.66631830203E+01  0.26527940209E+02  0.54367096790E+02  0.40000028753E+02 0.  0.
         12    1    3    3    0    0 -0.24650543472E+02  0.66631830203E+01 -0.26527940209E+02  0.36820903210E+02  0.00000000000E+00 0. -1.
         11    1    4    4    0    0  0.48401213992E+01  0.10810785710E+02  0.90263394886E+01  0.14892100847E+02  0.51100000000E-03 0. -1.
        -11    1    4    4    0    0 -0.20585460561E+01  0.18479572835E+01 -0.27920163085E+01  0.39303833547E+01  0.51100000000E-03 0.  1.
        -12    1    4    4    0    0  0.21868968129E+02 -0.19321926014E+02  0.20293617029E+02  0.35544612588E+02  0.00000000000E+00 0.  1.
</event>
<event>
 8    1  0.2450026E-006  0.9118800E+02  0.7816164E-02  0.1184000E+00
        -11   -1    0    0    0    0  0.00000000000E+00  0.00000000000E+00  0.45593999997E+02  0.45594000000E+02  0.51100000000E-03 0.  1.
         11   -1    0    0    0    0 -0.00000000000E+00 -0.00000000000E+00 -0.45593999997E+02  0.45594000000E+02  0.51100000000E-03 0. -1.
         23    2    1    2    0    0  0.17763568394E-14  0.00000000000E+00  0.00000000000E+00  0.91188000000E+02  0.91188000000E+02 0.  0.
    9900012    2    3    3    0    0  0.87126846650E+01  0.16002585667E+02 -0.31996684886E+02  0.54367062128E+02  0.39999949732E+02 0.  0.
        -12    1    3    3    0    0 -0.87126846650E+01 -0.16002585667E+02  0.31996684886E+02  0.36820937872E+02  0.00000000000E+00 0.  1.
         11    1    4    4    0    0 -0.20751266376E+00 -0.20489452352E+00 -0.51979700925E+01  0.52061441216E+01  0.51100000000E-03 0. -1.
        -11    1    4    4    0    0  0.13335346355E+02  0.26451397275E+02 -0.16149332658E+02  0.33738832608E+02  0.51100000000E-03 0.  1.
        -12    1    4    4    0    0 -0.44151490260E+01 -0.10243917085E+02 -0.10649382136E+02  0.15422085398E+02  0.00000000000E+00 0.  1.
</event>
<event>
 8    1  0.2450026E-006  0.9118800E+02  0.7816164E-02  0.1184000E+00
        -11   -1    0    0    0    0  0.00000000000E+00  0.00000000000E+00  0.45593999997E+02  0.45594000000E+02  0.51100000000E-03 0.  1.
         11   -1    0    0    0    0 -0.00000000000E+00 -0.00000000000E+00 -0.45593999997E+02  0.45594000000E+02  0.51100000000E-03 0. -1.
         23    2    1    2    0    0  0.00000000000E+00  0.35527136788E-14  0.00000000000E+00  0.91188000000E+02  0.91188000000E+02 0.  0.
    9900012    2    3    3    0    0 -0.27575130658E+02  0.20764876180E+02  0.12814496564E+02  0.54367092410E+02  0.40000018767E+02 0.  0.
         12    1    3    3    0    0  0.27575130658E+02 -0.20764876180E+02 -0.12814496564E+02  0.36820907590E+02  0.00000000000E+00 0. -1.
         11    1    4    4    0    0 -0.17186889443E+02 -0.75421490636E+01  0.11675043452E+02  0.22103841773E+02  0.51100000000E-03 0. -1.
        -11    1    4    4    0    0 -0.74468088089E+01  0.17109913286E+02 -0.47770718664E+01  0.19261996520E+02  0.51100000000E-03 0.  1.
         12    1    4    4    0    0 -0.29414324054E+01  0.11197111958E+02  0.59165249787E+01  0.13001254117E+02  0.00000000000E+00 0. -1.
</event>
<event>
 8    1  0.2450026E-006  0.9118800E+02  0.7816164E-02  0.1184000E+00
        -11   -1    0    0    0    0  0.00000000000E+00  0.00000000000E+00  0.45593999997E+02  0.45594000000E+02  0.51100000000E-03 0. -1.
         11   -1    0    0    0    0 -0.00000000000E+00 -0.00000000000E+00 -0.45593999997E+02  0.45594000000E+02  0.51100000000E-03 0.  1.
         23    2    1    2    0    0  0.35527136788E-14 -0.35527136788E-14  0.00000000000E+00  0.91188000000E+02  0.91188000000E+02 0.  0.
    9900012    2    3    3    0    0  0.29275814874E+02  0.20906469352E+02 -0.78499316580E+01  0.54367146882E+02  0.40000142947E+02 0.  0.
        -12    1    3    3    0    0 -0.29275814874E+02 -0.20906469352E+02  0.78499316580E+01  0.36820853118E+02  0.00000000000E+00 0.  1.
         11    1    4    4    0    0  0.18174779762E+02 -0.22712447696E+01  0.60599746792E+01  0.19292601317E+02  0.51100000000E-03 0.  1.
        -11    1    4    4    0    0 -0.61210064293E+00  0.79843074602E+01  0.38916750817E+01  0.89033121937E+01  0.51100000000E-03 0. -1.
        -12    1    4    4    0    0  0.11713135755E+02  0.15193406661E+02 -0.17801581419E+02  0.26171233372E+02  0.00000000000E+00 0.  1.
</event>
<event>
 8    1  0.2450026E-006  0.9118800E+02  0.7816164E-02  0.1184000E+00
        -11   -1    0    0    0    0  0.00000000000E+00  0.00000000000E+00  0.45593999997E+02  0.45594000000E+02  0.51100000000E-03 0. -1.
         11   -1    0    0    0    0 -0.00000000000E+00 -0.00000000000E+00 -0.45593999997E+02  0.45594000000E+02  0.51100000000E-03 0.  1.
         23    2    1    2    0    0  0.00000000000E+00  0.00000000000E+00  0.00000000000E+00  0.91188000000E+02  0.91188000000E+02 0.  0.
    9900012    2    3    3    0    0 -0.29636530858E+02 -0.19607943678E+02 -0.96426182030E+01  0.54367143106E+02  0.40000134339E+02 0.  0.
         12    1    3    3    0    0  0.29636530858E+02  0.19607943678E+02  0.96426182030E+01  0.36820856894E+02  0.00000000000E+00 0. -1.
         11    1    4    4    0    0  0.37208601595E+00 -0.36926943532E+01 -0.13162007021E+02  0.13675264849E+02  0.51100000000E-03 0.  1.
        -11    1    4    4    0    0 -0.28604877842E+02 -0.53164054097E+01  0.60221816364E+01  0.29711443498E+02  0.51100000000E-03 0. -1.
         12    1    4    4    0    0 -0.14037390324E+01 -0.10598843915E+02 -0.25027928179E+01  0.10980434759E+02  0.00000000000E+00 0. -1.
</event>
<event>
 8    1  0.2450026E-006  0.9118800E+02  0.7816164E-02  0.1184000E+00
        -11   -1    0    0    0    0  0.00000000000E+00  0.00000000000E+00  0.45593999997E+02  0.45594000000E+02  0.51100000000E-03 0.  1.
         11   -1    0    0    0    0 -0.00000000000E+00 -0.00000000000E+00 -0.45593999997E+02  0.45594000000E+02  0.51100000000E-03 0. -1.
         23    2    1    2    0    0  0.00000000000E+00 -0.17763568394E-14  0.00000000000E+00  0.91188000000E+02  0.91188000000E+02 0.  0.
    9900012    2    3    3    0    0 -0.20809556179E+02 -0.10306461700E+02  0.28574800278E+02  0.54367082140E+02  0.39999995354E+02 0.  0.
         12    1    3    3    0    0  0.20809556179E+02  0.10306461700E+02 -0.28574800278E+02  0.36820917860E+02  0.00000000000E+00 0. -1.
         11    1    4    4    0    0 -0.31791070945E+01  0.43974159769E+01 -0.35828149553E+01  0.65023497643E+01  0.51100000000E-03 0. -1.
        -11    1    4    4    0    0  0.26633785105E+01  0.50401207703E+01  0.11437179835E+02  0.12779103463E+02  0.51100000000E-03 0.  1.
        -12    1    4    4    0    0 -0.20293827595E+02 -0.19743998447E+02  0.20720435399E+02  0.35085628913E+02  0.00000000000E+00 0.  1.
</event>
<event>
 8    1  0.2450026E-006  0.9118800E+02  0.7816164E-02  0.1184000E+00
        -11   -1    0    0    0    0  0.00000000000E+00  0.00000000000E+00  0.45593999997E+02  0.45594000000E+02  0.51100000000E-03 0.  1.
         11   -1    0    0    0    0 -0.00000000000E+00 -0.00000000000E+00 -0.45593999997E+02  0.45594000000E+02  0.51100000000E-03 0. -1.
         23    2    1    2    0    0 -0.44408920985E-15  0.17763568394E-14  0.00000000000E+00  0.91188000000E+02  0.91188000000E+02 0.  0.
    9900012    2    3    3    0    0  0.37835682670E+01  0.13879910100E+02  0.33894176093E+02  0.54367048543E+02  0.39999918762E+02 0.  0.
         12    1    3    3    0    0 -0.37835682670E+01 -0.13879910100E+02 -0.33894176093E+02  0.36820951457E+02  0.00000000000E+00 0. -1.
         11    1    4    4    0    0 -0.46912409482E+01  0.19151567107E+01  0.21058865880E+02  0.21659903030E+02  0.51100000000E-03 0. -1.
        -11    1    4    4    0    0  0.11242553227E+02 -0.53865505663E+01  0.62252751659E+01  0.13934273617E+02  0.51100000000E-03 0.  1.
        -12    1    4    4    0    0 -0.27677440122E+01  0.17351303956E+02  0.66100350468E+01  0.18772871896E+02  0.00000000000E+00 0.  1.
</event>
<event>
 8    1  0.2450026E-006  0.9118800E+02  0.7816164E-02  0.1184000E+00
        -11   -1    0    0    0    0  0.00000000000E+00  0.00000000000E+00  0.45593999997E+02  0.45594000000E+02  0.51100000000E-03 0. -1.
         11   -1    0    0    0    0 -0.00000000000E+00 -0.00000000000E+00 -0.45593999997E+02  0.45594000000E+02  0.51100000000E-03 0.  1.
         23    2    1    2    0    0 -0.13322676296E-14  0.00000000000E+00  0.00000000000E+00  0.91188000000E+02  0.91188000000E+02 0.  0.
    9900012    2    3    3    0    0  0.13681103612E+01  0.36052310666E+02  0.73583714684E+01  0.54366994297E+02  0.39999795098E+02 0.  0.
        -12    1    3    3    0    0 -0.13681103612E+01 -0.36052310666E+02 -0.73583714684E+01  0.36821005703E+02  0.00000000000E+00 0.  1.
         11    1    4    4    0    0  0.22589292082E+01  0.11688959124E+02  0.21703085970E+01  0.12101436536E+02  0.51100000000E-03 0. -1.
        -11    1    4    4    0    0 -0.14434081334E+02  0.22618609894E+02 -0.18648608742E+01  0.26896503933E+02  0.51100000000E-03 0.  1.
        -12    1    4    4    0    0  0.13543262487E+02  0.17447416490E+01  0.70529237456E+01  0.15369053828E+02  0.00000000000E+00 0.  1.
</event>
<event>
 8    1  0.2450026E-006  0.9118800E+02  0.7816164E-02  0.1184000E+00
        -11   -1    0    0    0    0  0.00000000000E+00  0.00000000000E+00  0.45593999997E+02  0.45594000000E+02  0.51100000000E-03 0. -1.
         11   -1    0    0    0    0 -0.00000000000E+00 -0.00000000000E+00 -0.45593999997E+02  0.45594000000E+02  0.51100000000E-03 0.  1.
         23    2    1    2    0    0  0.26645352591E-14 -0.35527136788E-14 -0.35527136788E-14  0.91188000000E+02  0.91188000000E+02 0.  0.
    9900012    2    3    3    0    0  0.79160374388E+01 -0.16853619340E+02 -0.31765890657E+02  0.54367082808E+02  0.39999996878E+02 0.  0.
         12    1    3    3    0    0 -0.79160374388E+01  0.16853619340E+02  0.31765890657E+02  0.36820917192E+02  0.00000000000E+00 0. -1.
         11    1    4    4    0    0 -0.70855835543E+01  0.44248701835E+01 -0.58183060634E+01  0.10180258158E+02  0.51100000000E-03 0. -1.
        -11    1    4    4    0    0  0.66781337263E+01 -0.17536923289E+02 -0.23820485514E+01  0.18916006557E+02  0.51100000000E-03 0.  1.
         12    1    4    4    0    0  0.83234872669E+01 -0.37415662347E+01 -0.23565536042E+02  0.25270818094E+02  0.00000000000E+00 0. -1.
</event>
<event>
 8    1  0.2450026E-006  0.9118800E+02  0.7816164E-02  0.1184000E+00
        -11   -1    0    0    0    0  0.00000000000E+00  0.00000000000E+00  0.45593999997E+02  0.45594000000E+02  0.51100000000E-03 0.  1.
         11   -1    0    0    0    0 -0.00000000000E+00 -0.00000000000E+00 -0.45593999997E+02  0.45594000000E+02  0.51100000000E-03 0. -1.
         23    2    1    2    0    0  0.00000000000E+00  0.00000000000E+00  0.00000000000E+00  0.91188000000E+02  0.91188000000E+02 0.  0.
    9900012    2    3    3    0    0  0.22953523520E+02 -0.28280017580E+02  0.53998481276E+01  0.54367054926E+02  0.39999933315E+02 0.  0.
         12    1    3    3    0    0 -0.22953523520E+02  0.28280017580E+02 -0.53998481276E+01  0.36820945074E+02  0.00000000000E+00 0. -1.
         11    1    4    4    0    0 -0.20909891584E+01 -0.15872787887E+02 -0.10636283174E+01  0.16045215375E+02  0.51100000000E-03 0. -1.
        -11    1    4    4    0    0  0.48123777530E+01 -0.91877813568E+01  0.13171475538E+02  0.16764906024E+02  0.51100000000E-03 0.  1.
        -12    1    4    4    0    0  0.20232134926E+02 -0.32194483362E+01 -0.67079990926E+01  0.21556933527E+02  0.00000000000E+00 0.  1.
</event>
<event>
 8    1  0.2450026E-006  0.9118800E+02  0.7816164E-02  0.1184000E+00
        -11   -1    0    0    0    0  0.00000000000E+00  0.00000000000E+00  0.45593999997E+02  0.45594000000E+02  0.51100000000E-03 0. -1.
         11   -1    0    0    0    0 -0.00000000000E+00 -0.00000000000E+00 -0.45593999997E+02  0.45594000000E+02  0.51100000000E-03 0.  1.
         23    2    1    2    0    0  0.00000000000E+00  0.35527136788E-14  0.19984014443E-14  0.91188000000E+02  0.91188000000E+02 0.  0.
    9900012    2    3    3    0    0  0.32488862702E+02 -0.17319446798E+02 -0.53893084777E+00  0.54367083614E+02  0.39999998714E+02 0.  0.
        -12    1    3    3    0    0 -0.32488862702E+02  0.17319446798E+02  0.53893084777E+00  0.36820916386E+02  0.00000000000E+00 0.  1.
         11    1    4    4    0    0  0.26619239347E+01 -0.83971668214E+00  0.18477267129E+01  0.33473956156E+01  0.51100000000E-03 0. -1.
        -11    1    4    4    0    0  0.70728241817E+01 -0.17461506688E+02  0.13563900775E+02  0.23214402043E+02  0.51100000000E-03 0.  1.
         12    1    4    4    0    0  0.22754114586E+02  0.98177657211E+00 -0.15950558336E+02  0.27805285955E+02  0.00000000000E+00 0. -1.
</event>
<event>
 8    1  0.2450026E-006  0.9118800E+02  0.7816164E-02  0.1184000E+00
        -11   -1    0    0    0    0  0.00000000000E+00  0.00000000000E+00  0.45593999997E+02  0.45594000000E+02  0.51100000000E-03 0.  1.
         11   -1    0    0    0    0 -0.00000000000E+00 -0.00000000000E+00 -0.45593999997E+02  0.45594000000E+02  0.51100000000E-03 0. -1.
         23    2    1    2    0    0  0.35527136788E-14  0.00000000000E+00  0.00000000000E+00  0.91188000000E+02  0.91188000000E+02 0.  0.
    9900012    2    3    3    0    0 -0.30552525367E+02 -0.13883264901E+02 -0.15151824259E+02  0.54367087070E+02  0.40000006593E+02 0.  0.
        -12    1    3    3    0    0  0.30552525367E+02  0.13883264901E+02  0.15151824259E+02  0.36820912930E+02  0.00000000000E+00 0.  1.
         11    1    4    4    0    0 -0.97724777376E+01 -0.55782965952E+01 -0.46561528883E+01  0.12177786088E+02  0.51100000000E-03 0. -1.
        -11    1    4    4    0    0 -0.46452798654E+01 -0.10324120622E+02 -0.20269903280E+02  0.23217128826E+02  0.51100000000E-03 0.  1.
        -12    1    4    4    0    0 -0.16134767764E+02  0.20191523167E+01  0.97742319091E+01  0.18972172156E+02  0.00000000000E+00 0.  1.
</event>
<event>
 8    1  0.2450026E-006  0.9118800E+02  0.7816164E-02  0.1184000E+00
        -11   -1    0    0    0    0  0.00000000000E+00  0.00000000000E+00  0.45593999997E+02  0.45594000000E+02  0.51100000000E-03 0.  1.
         11   -1    0    0    0    0 -0.00000000000E+00 -0.00000000000E+00 -0.45593999997E+02  0.45594000000E+02  0.51100000000E-03 0. -1.
         23    2    1    2    0    0  0.00000000000E+00  0.71054273576E-14  0.88817841970E-15  0.91188000000E+02  0.91188000000E+02 0.  0.
    9900012    2    3    3    0    0 -0.13466456719E+02 -0.33653391424E+02 -0.64718233280E+01  0.54367072416E+02  0.39999973188E+02 0.  0.
         12    1    3    3    0    0  0.13466456719E+02  0.33653391424E+02  0.64718233280E+01  0.36820927584E+02  0.00000000000E+00 0. -1.
         11    1    4    4    0    0 -0.20961522501E+01 -0.71168559677E+00 -0.58933441487E+01  0.62953837183E+01  0.51100000000E-03 0. -1.
        -11    1    4    4    0    0 -0.64097078224E+01  0.39557720728E+01  0.67659210499E+01  0.10124730859E+02  0.51100000000E-03 0.  1.
        -12    1    4    4    0    0 -0.49605966467E+01 -0.36897477900E+02 -0.73444002292E+01  0.37946957839E+02  0.00000000000E+00 0.  1.
</event>
<event>
 8    1  0.2450026E-006  0.9118800E+02  0.7816164E-02  0.1184000E+00
        -11   -1    0    0    0    0  0.00000000000E+00  0.00000000000E+00  0.45593999997E+02  0.45594000000E+02  0.51100000000E-03 0. -1.
         11   -1    0    0    0    0 -0.00000000000E+00 -0.00000000000E+00 -0.45593999997E+02  0.45594000000E+02  0.51100000000E-03 0.  1.
         23    2    1    2    0    0  0.35527136788E-14  0.00000000000E+00  0.17763568394E-14  0.91188000000E+02  0.91188000000E+02 0.  0.
    9900012    2    3    3    0    0  0.26883779915E+02 -0.23460285186E+02  0.90916949079E+01  0.54367061394E+02  0.39999948060E+02 0.  0.
        -12    1    3    3    0    0 -0.26883779915E+02  0.23460285186E+02 -0.90916949079E+01  0.36820938606E+02  0.00000000000E+00 0.  1.
         11    1    4    4    0    0  0.20912040640E+02 -0.19449594631E+02  0.34099183102E+01  0.28761566685E+02  0.51100000000E-03 0. -1.
        -11    1    4    4    0    0 -0.62216524135E+01  0.80173955556E+00  0.99992397256E+01  0.11804089987E+02  0.51100000000E-03 0.  1.
        -12    1    4    4    0    0  0.12193391689E+02 -0.48124301100E+01 -0.43174631279E+01  0.13801404722E+02  0.00000000000E+00 0.  1.
</event>
<event>
 8    1  0.2450026E-006  0.9118800E+02  0.7816164E-02  0.1184000E+00
        -11   -1    0    0    0    0  0.00000000000E+00  0.00000000000E+00  0.45593999997E+02  0.45594000000E+02  0.51100000000E-03 0. -1.
         11   -1    0    0    0    0 -0.00000000000E+00 -0.00000000000E+00 -0.45593999997E+02  0.45594000000E+02  0.51100000000E-03 0.  1.
         23    2    1    2    0    0  0.00000000000E+00  0.35527136788E-14  0.00000000000E+00  0.91188000000E+02  0.91188000000E+02 0.  0.
    9900012    2    3    3    0    0 -0.18005584193E+02 -0.26182427977E+02 -0.18602701144E+02  0.54367067275E+02  0.39999961466E+02 0.  0.
        -12    1    3    3    0    0  0.18005584193E+02  0.26182427977E+02  0.18602701144E+02  0.36820932725E+02  0.00000000000E+00 0.  1.
         11    1    4    4    0    0 -0.84455961520E+01 -0.23192278501E+02 -0.14167516840E+02  0.28459241208E+02  0.51100000000E-03 0. -1.
        -11    1    4    4    0    0  0.47801067865E+01 -0.83151543660E+01 -0.45380609413E+01  0.10610617814E+02  0.51100000000E-03 0.  1.
        -12    1    4    4    0    0 -0.14340094828E+02  0.53250048900E+01  0.10287663752E+00  0.15297208253E+02  0.00000000000E+00 0.  1.
</event>
<event>
 8    1  0.2450026E-006  0.9118800E+02  0.7816164E-02  0.1184000E+00
        -11   -1    0    0    0    0  0.00000000000E+00  0.00000000000E+00  0.45593999997E+02  0.45594000000E+02  0.51100000000E-03 0.  1.
         11   -1    0    0    0    0 -0.00000000000E+00 -0.00000000000E+00 -0.45593999997E+02  0.45594000000E+02  0.51100000000E-03 0. -1.
         23    2    1    2    0    0  0.00000000000E+00 -0.35527136788E-14 -0.35527136788E-14  0.91188000000E+02  0.91188000000E+02 0.  0.
    9900012    2    3    3    0    0 -0.17992529460E+02  0.17529079118E+02  0.26921771562E+02  0.54367061458E+02  0.39999948206E+02 0.  0.
         12    1    3    3    0    0  0.17992529460E+02 -0.17529079118E+02 -0.26921771562E+02  0.36820938542E+02  0.00000000000E+00 0. -1.
         11    1    4    4    0    0 -0.59520439662E+01  0.10402704724E+02 -0.24433268519E+01  0.12231636820E+02  0.51100000000E-03 0. -1.
        -11    1    4    4    0    0 -0.98877728540E+01 -0.53622813620E-01 -0.18270203166E+01  0.10055293676E+02  0.51100000000E-03 0.  1.
        -12    1    4    4    0    0 -0.21527126393E+01  0.71799972076E+01  0.31192118730E+02  0.32080130961E+02  0.00000000000E+00 0.  1.
</event>
<event>
 8    1  0.2450026E-006  0.9118800E+02  0.7816164E-02  0.1184000E+00
        -11   -1    0    0    0    0  0.00000000000E+00  0.00000000000E+00  0.45593999997E+02  0.45594000000E+02  0.51100000000E-03 0.  1.
         11   -1    0    0    0    0 -0.00000000000E+00 -0.00000000000E+00 -0.45593999997E+02  0.45594000000E+02  0.51100000000E-03 0. -1.
         23    2    1    2    0    0 -0.44408920985E-15  0.18318679906E-14  0.00000000000E+00  0.91188000000E+02  0.91188000000E+02 0.  0.
    9900012    2    3    3    0    0 -0.35532953561E+01 -0.29337702898E+00 -0.36648006498E+02  0.54366968533E+02  0.39999736364E+02 0.  0.
        -12    1    3    3    0    0  0.35532953561E+01  0.29337702898E+00  0.36648006498E+02  0.36821031467E+02  0.00000000000E+00 0.  1.
         11    1    4    4    0    0 -0.84023325448E+01 -0.81506725340E+01 -0.76725839974E+01  0.13996470998E+02  0.51100000000E-03 0. -1.
        -11    1    4    4    0    0  0.64637014495E+01 -0.49805780713E+01  0.50495634167E+00  0.81756085719E+01  0.51100000000E-03 0.  1.
         12    1    4    4    0    0 -0.16146642608E+01  0.12837873576E+02 -0.29480378843E+02  0.32194888963E+02  0.00000000000E+00 0. -1.
</event>
<event>
 8    1  0.2450026E-006  0.9118800E+02  0.7816164E-02  0.1184000E+00
        -11   -1    0    0    0    0  0.00000000000E+00  0.00000000000E+00  0.45593999997E+02  0.45594000000E+02  0.51100000000E-03 0. -1.
         11   -1    0    0    0    0 -0.00000000000E+00 -0.00000000000E+00 -0.45593999997E+02  0.45594000000E+02  0.51100000000E-03 0.  1.
         23    2    1    2    0    0 -0.13322676296E-14 -0.35527136788E-14  0.35527136788E-14  0.91188000000E+02  0.91188000000E+02 0.  0.
    9900012    2    3    3    0    0  0.36954500469E+01  0.19984682115E+02  0.30704010106E+02  0.54367080581E+02  0.39999991800E+02 0.  0.
        -12    1    3    3    0    0 -0.36954500469E+01 -0.19984682115E+02 -0.30704010106E+02  0.36820919419E+02  0.00000000000E+00 0.  1.
         11    1    4    4    0    0  0.89189987040E+01  0.70635396753E+01  0.59954194035E+01  0.12860294892E+02  0.51100000000E-03 0. -1.
        -11    1    4    4    0    0 -0.25480733062E+01 -0.99446395534E+01  0.64556039795E+01  0.12126968146E+02  0.51100000000E-03 0.  1.
         12    1    4    4    0    0 -0.26754753509E+01  0.22865781993E+02  0.18252986723E+02  0.29379817542E+02  0.00000000000E+00 0. -1.
</event>
<event>
 8    1  0.2450026E-006  0.9118800E+02  0.7816164E-02  0.1184000E+00
        -11   -1    0    0    0    0  0.00000000000E+00  0.00000000000E+00  0.45593999997E+02  0.45594000000E+02  0.51100000000E-03 0. -1.
         11   -1    0    0    0    0 -0.00000000000E+00 -0.00000000000E+00 -0.45593999997E+02  0.45594000000E+02  0.51100000000E-03 0.  1.
         23    2    1    2    0    0  0.35527136788E-14  0.00000000000E+00  0.88817841970E-15  0.91188000000E+02  0.91188000000E+02 0.  0.
    9900012    2    3    3    0    0  0.16234367592E+02 -0.32361589570E+02 -0.67046583654E+01  0.54367087268E+02  0.40000007045E+02 0.  0.
         12    1    3    3    0    0 -0.16234367592E+02  0.32361589570E+02  0.67046583654E+01  0.36820912732E+02  0.00000000000E+00 0. -1.
         11    1    4    4    0    0 -0.81195372875E+01  0.25235903124E+01  0.35806888730E+01  0.92258726901E+01  0.51100000000E-03 0. -1.
        -11    1    4    4    0    0  0.23366137870E+02 -0.25826270763E+02 -0.76969873785E+01  0.35668140903E+02  0.51100000000E-03 0.  1.
         12    1    4    4    0    0  0.98776700992E+00 -0.90589091188E+01 -0.25883598599E+01  0.94730736750E+01  0.00000000000E+00 0. -1.
</event>
<event>
 8    1  0.2450026E-006  0.9118800E+02  0.7816164E-02  0.1184000E+00
        -11   -1    0    0    0    0  0.00000000000E+00  0.00000000000E+00  0.45593999997E+02  0.45594000000E+02  0.51100000000E-03 0.  1.
         11   -1    0    0    0    0 -0.00000000000E+00 -0.00000000000E+00 -0.45593999997E+02  0.45594000000E+02  0.51100000000E-03 0. -1.
         23    2    1    2    0    0  0.48849813084E-14  0.00000000000E+00 -0.35527136788E-14  0.91188000000E+02  0.91188000000E+02 0.  0.
    9900012    2    3    3    0    0  0.20126017233E+01 -0.26178961815E+02 -0.25814587122E+02  0.54367061451E+02  0.39999948189E+02 0.  0.
        -12    1    3    3    0    0 -0.20126017233E+01  0.26178961815E+02  0.25814587122E+02  0.36820938549E+02  0.00000000000E+00 0.  1.
         11    1    4    4    0    0  0.16967243340E+02 -0.79816531123E+01 -0.55243396877E+01  0.19547697107E+02  0.51100000000E-03 0. -1.
        -11    1    4    4    0    0 -0.16048307636E+02 -0.81194575842E+01 -0.11088836071E+02  0.21129033464E+02  0.51100000000E-03 0.  1.
        -12    1    4    4    0    0  0.10936660200E+01 -0.10077851118E+02 -0.92014113623E+01  0.13690330879E+02  0.00000000000E+00 0.  1.
</event>
<event>
 8    1  0.2450026E-006  0.9118800E+02  0.7816164E-02  0.1184000E+00
        -11   -1    0    0    0    0  0.00000000000E+00  0.00000000000E+00  0.45593999997E+02  0.45594000000E+02  0.51100000000E-03 0.  1.
         11   -1    0    0    0    0 -0.00000000000E+00 -0.00000000000E+00 -0.45593999997E+02  0.45594000000E+02  0.51100000000E-03 0. -1.
         23    2    1    2    0    0  0.00000000000E+00  0.00000000000E+00 -0.83266726847E-15  0.91188000000E+02  0.91188000000E+02 0.  0.
    9900012    2    3    3    0    0 -0.50719285624E+01  0.36466965868E+02  0.46510323653E+00  0.54367076873E+02  0.39999983347E+02 0.  0.
         12    1    3    3    0    0  0.50719285624E+01 -0.36466965868E+02 -0.46510323653E+00  0.36820923127E+02  0.00000000000E+00 0. -1.
         11    1    4    4    0    0 -0.10900941257E+02  0.10791413204E+02 -0.14096229429E+02  0.20832397932E+02  0.51100000000E-03 0. -1.
        -11    1    4    4    0    0 -0.81765254277E-01  0.14554789184E+02  0.36830677926E+00  0.14559678015E+02  0.51100000000E-03 0.  1.
        -12    1    4    4    0    0  0.59107779491E+01  0.11120763480E+02  0.14193025886E+02  0.18975000926E+02  0.00000000000E+00 0.  1.
</event>
<event>
 8    1  0.2450026E-006  0.9118800E+02  0.7816164E-02  0.1184000E+00
        -11   -1    0    0    0    0  0.00000000000E+00  0.00000000000E+00  0.45593999997E+02  0.45594000000E+02  0.51100000000E-03 0. -1.
         11   -1    0    0    0    0 -0.00000000000E+00 -0.00000000000E+00 -0.45593999997E+02  0.45594000000E+02  0.51100000000E-03 0.  1.
         23    2    1    2    0    0 -0.88817841970E-15 -0.15543122345E-14  0.00000000000E+00  0.91188000000E+02  0.91188000000E+02 0.  0.
    9900012    2    3    3    0    0 -0.45609833885E+01  0.14456836662E+01  0.36508736011E+02  0.54367076928E+02  0.39999983474E+02 0.  0.
        -12    1    3    3    0    0  0.45609833885E+01 -0.14456836662E+01 -0.36508736011E+02  0.36820923072E+02  0.00000000000E+00 0.  1.
         11    1    4    4    0    0 -0.87030964071E+00 -0.15653192135E+02  0.23679408617E+02  0.28398842505E+02  0.51100000000E-03 0. -1.
        -11    1    4    4    0    0  0.23707946875E+01  0.13124650039E+02  0.28562382751E+01  0.13639472256E+02  0.51100000000E-03 0.  1.
        -12    1    4    4    0    0 -0.60614684353E+01  0.39742257628E+01  0.99730891187E+01  0.12328762167E+02  0.00000000000E+00 0.  1.
</event>
<event>
 8    1  0.2450026E-006  0.9118800E+02  0.7816164E-02  0.1184000E+00
        -11   -1    0    0    0    0  0.00000000000E+00  0.00000000000E+00  0.45593999997E+02  0.45594000000E+02  0.51100000000E-03 0.  1.
         11   -1    0    0    0    0 -0.00000000000E+00 -0.00000000000E+00 -0.45593999997E+02  0.45594000000E+02  0.51100000000E-03 0. -1.
         23    2    1    2    0    0  0.00000000000E+00 -0.88817841970E-15  0.00000000000E+00  0.91188000000E+02  0.91188000000E+02 0.  0.
    9900012    2    3    3    0    0 -0.27621562055E+02  0.39307086668E+01 -0.24028642521E+02  0.54367125182E+02  0.40000093477E+02 0.  0.
        -12    1    3    3    0    0  0.27621562055E+02 -0.39307086668E+01  0.24028642521E+02  0.36820874818E+02  0.00000000000E+00 0.  1.
         11    1    4    4    0    0  0.93212129481E+00  0.10716758931E+02 -0.11347037685E+02  0.15635633552E+02  0.51100000000E-03 0. -1.
        -11    1    4    4    0    0 -0.74476354351E+01  0.20993915940E+01 -0.13781229202E+02  0.15804967486E+02  0.51100000000E-03 0.  1.
        -12    1    4    4    0    0 -0.21106047914E+02 -0.88854418579E+01  0.10996243665E+01  0.22926524144E+02  0.00000000000E+00 0.  1.
</event>
<event>
 8    1  0.2450026E-006  0.9118800E+02  0.7816164E-02  0.1184000E+00
        -11   -1    0    0    0    0  0.00000000000E+00  0.00000000000E+00  0.45593999997E+02  0.45594000000E+02  0.51100000000E-03 0.  1.
         11   -1    0    0    0    0 -0.00000000000E+00 -0.00000000000E+00 -0.45593999997E+02  0.45594000000E+02  0.51100000000E-03 0. -1.
         23    2    1    2    0    0  0.00000000000E+00  0.00000000000E+00  0.44408920985E-15  0.91188000000E+02  0.91188000000E+02 0.  0.
    9900012    2    3    3    0    0 -0.25716598271E+02  0.26188812784E+02 -0.29297218381E+01  0.54367073725E+02  0.39999976172E+02 0.  0.
        -12    1    3    3    0    0  0.25716598271E+02 -0.26188812784E+02  0.29297218381E+01  0.36820926275E+02  0.00000000000E+00 0.  1.
         11    1    4    4    0    0 -0.11470793683E+02  0.28907635324E+02 -0.31095033789E+01  0.31255391523E+02  0.51100000000E-03 0. -1.
        -11    1    4    4    0    0 -0.43349813418E+01  0.46821674929E+01  0.65960422379E+01  0.91772833198E+01  0.51100000000E-03 0.  1.
         12    1    4    4    0    0 -0.99108232456E+01 -0.74009900327E+01 -0.64162606972E+01  0.13934398882E+02  0.00000000000E+00 0. -1.
</event>
<event>
 8    1  0.2450026E-006  0.9118800E+02  0.7816164E-02  0.1184000E+00
        -11   -1    0    0    0    0  0.00000000000E+00  0.00000000000E+00  0.45593999997E+02  0.45594000000E+02  0.51100000000E-03 0. -1.
         11   -1    0    0    0    0 -0.00000000000E+00 -0.00000000000E+00 -0.45593999997E+02  0.45594000000E+02  0.51100000000E-03 0.  1.
         23    2    1    2    0    0  0.35527136788E-14  0.00000000000E+00  0.00000000000E+00  0.91188000000E+02  0.91188000000E+02 0.  0.
    9900012    2    3    3    0    0  0.16158117161E+02 -0.92177477426E+01  0.31776253253E+02  0.54367056307E+02  0.39999936462E+02 0.  0.
         12    1    3    3    0    0 -0.16158117161E+02  0.92177477426E+01 -0.31776253253E+02  0.36820943693E+02  0.00000000000E+00 0. -1.
         11    1    4    4    0    0  0.67017376872E+01 -0.13457400009E+02  0.33250538126E+01  0.15397106421E+02  0.51100000000E-03 0. -1.
        -11    1    4    4    0    0 -0.23760994414E+01 -0.57533522849E+01 -0.38626902197E+00  0.62366750026E+01  0.51100000000E-03 0.  1.
         12    1    4    4    0    0  0.11832478915E+02  0.99930045510E+01  0.28837468463E+02  0.32733274883E+02  0.00000000000E+00 0. -1.
</event>
<event>
 8    1  0.2450026E-006  0.9118800E+02  0.7816164E-02  0.1184000E+00
        -11   -1    0    0    0    0  0.00000000000E+00  0.00000000000E+00  0.45593999997E+02  0.45594000000E+02  0.51100000000E-03 0. -1.
         11   -1    0    0    0    0 -0.00000000000E+00 -0.00000000000E+00 -0.45593999997E+02  0.45594000000E+02  0.51100000000E-03 0.  1.
         23    2    1    2    0    0 -0.88817841970E-15  0.88817841970E-15  0.00000000000E+00  0.91188000000E+02  0.91188000000E+02 0.  0.
    9900012    2    3    3    0    0 -0.66261582443E+01  0.76688041123E+01  0.35398654165E+02  0.54367065109E+02  0.39999956529E+02 0.  0.
        -12    1    3    3    0    0  0.66261582443E+01 -0.76688041123E+01 -0.35398654165E+02  0.36820934891E+02  0.00000000000E+00 0.  1.
         11    1    4    4    0    0 -0.12211171902E+02 -0.66716412685E-01  0.27128083258E+02  0.29749791122E+02  0.51100000000E-03 0. -1.
        -11    1    4    4    0    0  0.60476434394E+01 -0.62124673681E+01  0.59567921719E+00  0.86904301367E+01  0.51100000000E-03 0.  1.
         12    1    4    4    0    0 -0.46262978204E+00  0.13947987893E+02  0.76748916896E+01  0.15926843850E+02  0.00000000000E+00 0. -1.
</event>
<event>
 8    1  0.2450026E-006  0.9118800E+02  0.7816164E-02  0.1184000E+00
        -11   -1    0    0    0    0  0.00000000000E+00  0.00000000000E+00  0.45593999997E+02  0.45594000000E+02  0.51100000000E-03 0.  1.
         11   -1    0    0    0    0 -0.00000000000E+00 -0.00000000000E+00 -0.45593999997E+02  0.45594000000E+02  0.51100000000E-03 0. -1.
         23    2    1    2    0    0  0.00000000000E+00  0.00000000000E+00  0.00000000000E+00  0.91188000000E+02  0.91188000000E+02 0.  0.
    9900012    2    3    3    0    0 -0.30509470214E+02  0.11747415282E+02  0.16939656960E+02  0.54367061440E+02  0.39999948165E+02 0.  0.
         12    1    3    3    0    0  0.30509470214E+02 -0.11747415282E+02 -0.16939656960E+02  0.36820938560E+02  0.00000000000E+00 0. -1.
         11    1    4    4    0    0  0.23433003636E+00 -0.18993930721E+01  0.56191416364E+01  0.59361062659E+01  0.51100000000E-03 0.  1.
        -11    1    4    4    0    0 -0.33238516887E+02  0.32519837995E+00  0.55491412027E+01  0.33700114647E+02  0.51100000000E-03 0. -1.
         12    1    4    4    0    0  0.24947166372E+01  0.13321609974E+02  0.57713741207E+01  0.14730840528E+02  0.00000000000E+00 0. -1.
</event>
<event>
 8    1  0.2450026E-006  0.9118800E+02  0.7816164E-02  0.1184000E+00
        -11   -1    0    0    0    0  0.00000000000E+00  0.00000000000E+00  0.45593999997E+02  0.45594000000E+02  0.51100000000E-03 0.  1.
         11   -1    0    0    0    0 -0.00000000000E+00 -0.00000000000E+00 -0.45593999997E+02  0.45594000000E+02  0.51100000000E-03 0. -1.
         23    2    1    2    0    0  0.00000000000E+00 -0.66613381478E-15  0.00000000000E+00  0.91188000000E+02  0.91188000000E+02 0.  0.
    9900012    2    3    3    0    0  0.25768984182E+02 -0.18645349619E+01  0.26234770262E+02  0.54367079220E+02  0.39999988697E+02 0.  0.
         12    1    3    3    0    0 -0.25768984182E+02  0.18645349619E+01 -0.26234770262E+02  0.36820920780E+02  0.00000000000E+00 0. -1.
         11    1    4    4    0    0 -0.10167311847E+01 -0.87817594767E+01 -0.51322211198E+00  0.88553056980E+01  0.51100000000E-03 0. -1.
        -11    1    4    4    0    0  0.31136530452E+02  0.83450712008E+01  0.23113070106E+02  0.39665321780E+02  0.51100000000E-03 0.  1.
        -12    1    4    4    0    0 -0.43508150858E+01 -0.14278466860E+01  0.36349222681E+01  0.58464517414E+01  0.00000000000E+00 0.  1.
</event>
<event>
 8    1  0.2450026E-006  0.9118800E+02  0.7816164E-02  0.1184000E+00
        -11   -1    0    0    0    0  0.00000000000E+00  0.00000000000E+00  0.45593999997E+02  0.45594000000E+02  0.51100000000E-03 0. -1.
         11   -1    0    0    0    0 -0.00000000000E+00 -0.00000000000E+00 -0.45593999997E+02  0.45594000000E+02  0.51100000000E-03 0.  1.
         23    2    1    2    0    0  0.00000000000E+00 -0.17763568394E-14  0.71054273576E-14  0.91188000000E+02  0.91188000000E+02 0.  0.
    9900012    2    3    3    0    0 -0.84576024969E+01  0.15408653428E+02 -0.32354638065E+02  0.54367078708E+02  0.39999987532E+02 0.  0.
         12    1    3    3    0    0  0.84576024969E+01 -0.15408653428E+02  0.32354638065E+02  0.36820921292E+02  0.00000000000E+00 0. -1.
         11    1    4    4    0    0 -0.23968551376E+00 -0.19541664538E+01  0.13529563000E+01  0.23888714251E+01  0.51100000000E-03 0. -1.
        -11    1    4    4    0    0 -0.35104406449E+01 -0.78626964614E+01  0.11570328472E+01  0.86881479290E+01  0.51100000000E-03 0.  1.
         12    1    4    4    0    0 -0.47074763383E+01  0.25225516344E+02 -0.34864627212E+02  0.43290059354E+02  0.00000000000E+00 0. -1.
</event>
<event>
 8    1  0.2450026E-006  0.9118800E+02  0.7816164E-02  0.1184000E+00
        -11   -1    0    0    0    0  0.00000000000E+00  0.00000000000E+00  0.45593999997E+02  0.45594000000E+02  0.51100000000E-03 0.  1.
         11   -1    0    0    0    0 -0.00000000000E+00 -0.00000000000E+00 -0.45593999997E+02  0.45594000000E+02  0.51100000000E-03 0. -1.
         23    2    1    2    0    0  0.35527136788E-14 -0.11102230246E-15 -0.35527136788E-14  0.91188000000E+02  0.91188000000E+02 0.  0.
    9900012    2    3    3    0    0  0.26998200504E+02 -0.37246114200E+00  0.25034510622E+02  0.54367241184E+02  0.40000357925E+02 0.  0.
         12    1    3    3    0    0 -0.26998200504E+02  0.37246114200E+00 -0.25034510622E+02  0.36820758816E+02  0.00000000000E+00 0. -1.
         11    1    4    4    0    0  0.15449061950E+02 -0.66128660914E+01  0.49513581530E+01  0.17519117012E+02  0.51100000000E-03 0. -1.
        -11    1    4    4    0    0 -0.98277683605E+00 -0.52263041875E+01  0.19107615040E+02  0.19833836203E+02  0.51100000000E-03 0.  1.
         12    1    4    4    0    0  0.12531915390E+02  0.11466709137E+02  0.97553742889E+00  0.17014287968E+02  0.00000000000E+00 0. -1.
</event>
<event>
 8    1  0.2450026E-006  0.9118800E+02  0.7816164E-02  0.1184000E+00
        -11   -1    0    0    0    0  0.00000000000E+00  0.00000000000E+00  0.45593999997E+02  0.45594000000E+02  0.51100000000E-03 0. -1.
         11   -1    0    0    0    0 -0.00000000000E+00 -0.00000000000E+00 -0.45593999997E+02  0.45594000000E+02  0.51100000000E-03 0.  1.
         23    2    1    2    0    0  0.35527136788E-14 -0.35527136788E-14  0.00000000000E+00  0.91188000000E+02  0.91188000000E+02 0.  0.
    9900012    2    3    3    0    0  0.31752468518E+02 -0.17571894720E+02  0.62280664014E+01  0.54367088114E+02  0.40000008972E+02 0.  0.
        -12    1    3    3    0    0 -0.31752468518E+02  0.17571894720E+02 -0.62280664014E+01  0.36820911886E+02  0.00000000000E+00 0.  1.
         11    1    4    4    0    0  0.52157146458E+01 -0.20979259442E+02 -0.22276897369E+01  0.21732363144E+02  0.51100000000E-03 0. -1.
        -11    1    4    4    0    0  0.16532327560E+02  0.10089367291E+02  0.38150621241E+01  0.19740007248E+02  0.51100000000E-03 0.  1.
        -12    1    4    4    0    0  0.10004426312E+02 -0.66820025687E+01  0.46406940142E+01  0.12894717721E+02  0.00000000000E+00 0.  1.
</event>
<event>
 8    1  0.2450026E-006  0.9118800E+02  0.7816164E-02  0.1184000E+00
        -11   -1    0    0    0    0  0.00000000000E+00  0.00000000000E+00  0.45593999997E+02  0.45594000000E+02  0.51100000000E-03 0.  1.
         11   -1    0    0    0    0 -0.00000000000E+00 -0.00000000000E+00 -0.45593999997E+02  0.45594000000E+02  0.51100000000E-03 0. -1.
         23    2    1    2    0    0  0.35527136788E-14  0.00000000000E+00  0.00000000000E+00  0.91188000000E+02  0.91188000000E+02 0.  0.
    9900012    2    3    3    0    0 -0.26347448412E+02 -0.23465795416E+02  0.10533286065E+02  0.54367058844E+02  0.39999942246E+02 0.  0.
        -12    1    3    3    0    0  0.26347448412E+02  0.23465795416E+02 -0.10533286065E+02  0.36820941156E+02  0.00000000000E+00 0.  1.
         11    1    4    4    0    0 -0.62571532437E+00 -0.22353737584E+02  0.52606802463E+01  0.22972937569E+02  0.51100000000E-03 0.  1.
        -11    1    4    4    0    0  0.99330453376E+00  0.34796235902E+01 -0.57436849186E+00  0.36639232596E+01  0.51100000000E-03 0. -1.
         12    1    4    4    0    0 -0.26715037621E+02 -0.45916814223E+01  0.58469743110E+01  0.27730198015E+02  0.00000000000E+00 0. -1.
</event>
<event>
 8    1  0.2450026E-006  0.9118800E+02  0.7816164E-02  0.1184000E+00
        -11   -1    0    0    0    0  0.00000000000E+00  0.00000000000E+00  0.45593999997E+02  0.45594000000E+02  0.51100000000E-03 0. -1.
         11   -1    0    0    0    0 -0.00000000000E+00 -0.00000000000E+00 -0.45593999997E+02  0.45594000000E+02  0.51100000000E-03 0.  1.
         23    2    1    2    0    0 -0.35527136788E-14  0.17763568394E-14 -0.35527136788E-14  0.91188000000E+02  0.91188000000E+02 0.  0.
    9900012    2    3    3    0    0  0.19517976467E+02 -0.13310570230E+02  0.28243131278E+02  0.54366849154E+02  0.39999464214E+02 0.  0.
        -12    1    3    3    0    0 -0.19517976467E+02  0.13310570230E+02 -0.28243131278E+02  0.36821150846E+02  0.00000000000E+00 0.  1.
         11    1    4    4    0    0  0.70946258052E+01 -0.30862519568E+00  0.22187419322E+02  0.23296148636E+02  0.51100000000E-03 0. -1.
        -11    1    4    4    0    0 -0.27410625968E+01 -0.10192390120E+02  0.10634349904E+02  0.14982911555E+02  0.51100000000E-03 0.  1.
        -12    1    4    4    0    0  0.15164413258E+02 -0.28095549144E+01 -0.45786379480E+01  0.16087788964E+02  0.00000000000E+00 0.  1.
</event>
<event>
 8    1  0.2450026E-006  0.9118800E+02  0.7816164E-02  0.1184000E+00
        -11   -1    0    0    0    0  0.00000000000E+00  0.00000000000E+00  0.45593999997E+02  0.45594000000E+02  0.51100000000E-03 0.  1.
         11   -1    0    0    0    0 -0.00000000000E+00 -0.00000000000E+00 -0.45593999997E+02  0.45594000000E+02  0.51100000000E-03 0. -1.
         23    2    1    2    0    0  0.00000000000E+00  0.00000000000E+00  0.35527136788E-14  0.91188000000E+02  0.91188000000E+02 0.  0.
    9900012    2    3    3    0    0  0.20468353821E+01 -0.21121128593E+02  0.30091462477E+02  0.54366977172E+02  0.39999756058E+02 0.  0.
         12    1    3    3    0    0 -0.20468353821E+01  0.21121128593E+02 -0.30091462477E+02  0.36821022828E+02  0.00000000000E+00 0. -1.
         11    1    4    4    0    0  0.17270707913E+02 -0.16314826578E+02  0.20359583093E+02  0.31288393089E+02  0.51100000000E-03 0.  1.
        -11    1    4    4    0    0 -0.13064190240E+02 -0.62016832536E+01  0.15997925959E+01  0.14549683104E+02  0.51100000000E-03 0. -1.
         12    1    4    4    0    0 -0.21596822905E+01  0.13953812392E+01  0.81320867874E+01  0.85289009794E+01  0.00000000000E+00 0. -1.
</event>
<event>
 8    1  0.2450026E-006  0.9118800E+02  0.7816164E-02  0.1184000E+00
        -11   -1    0    0    0    0  0.00000000000E+00  0.00000000000E+00  0.45593999997E+02  0.45594000000E+02  0.51100000000E-03 0.  1.
         11   -1    0    0    0    0 -0.00000000000E+00 -0.00000000000E+00 -0.45593999997E+02  0.45594000000E+02  0.51100000000E-03 0. -1.
         23    2    1    2    0    0  0.15265566589E-14  0.17763568394E-14  0.00000000000E+00  0.91188000000E+02  0.91188000000E+02 0.  0.
    9900012    2    3    3    0    0 -0.80960648765E-01  0.12732891472E+02 -0.34549220421E+02  0.54367058791E+02  0.39999942125E+02 0.  0.
        -12    1    3    3    0    0  0.80960648765E-01 -0.12732891472E+02  0.34549220421E+02  0.36820941209E+02  0.00000000000E+00 0.  1.
         11    1    4    4    0    0 -0.10973453399E+02  0.18391548208E+02 -0.28388764712E+02  0.35561041705E+02  0.51100000000E-03 0. -1.
        -11    1    4    4    0    0 -0.25034567675E+01 -0.73090780235E+00  0.10538890265E+01  0.28128640820E+01  0.51100000000E-03 0.  1.
         12    1    4    4    0    0  0.13395949518E+02 -0.49277489335E+01 -0.72143447349E+01  0.15993153004E+02  0.00000000000E+00 0. -1.
</event>
<event>
 8    1  0.2450026E-006  0.9118800E+02  0.7816164E-02  0.1184000E+00
        -11   -1    0    0    0    0  0.00000000000E+00  0.00000000000E+00  0.45593999997E+02  0.45594000000E+02  0.51100000000E-03 0. -1.
         11   -1    0    0    0    0 -0.00000000000E+00 -0.00000000000E+00 -0.45593999997E+02  0.45594000000E+02  0.51100000000E-03 0.  1.
         23    2    1    2    0    0  0.00000000000E+00  0.17763568394E-14 -0.35527136788E-14  0.91188000000E+02  0.91188000000E+02 0.  0.
    9900012    2    3    3    0    0  0.26924219115E+02 -0.14520740556E+02  0.20494303598E+02  0.54367055400E+02  0.39999934396E+02 0.  0.
        -12    1    3    3    0    0 -0.26924219115E+02  0.14520740556E+02 -0.20494303598E+02  0.36820944600E+02  0.00000000000E+00 0.  1.
         11    1    4    4    0    0  0.20930946272E+02 -0.44222691978E+01  0.18436494759E+01  0.21472308221E+02  0.51100000000E-03 0. -1.
        -11    1    4    4    0    0  0.13709850725E+01  0.81606670288E+00 -0.56427551862E+01  0.58639791341E+01  0.51100000000E-03 0.  1.
         12    1    4    4    0    0  0.46222877707E+01 -0.10914538061E+02  0.24293409308E+02  0.27030768045E+02  0.00000000000E+00 0. -1.
</event>
<event>
 8    1  0.2450026E-006  0.9118800E+02  0.7816164E-02  0.1184000E+00
        -11   -1    0    0    0    0  0.00000000000E+00  0.00000000000E+00  0.45593999997E+02  0.45594000000E+02  0.51100000000E-03 0.  1.
         11   -1    0    0    0    0 -0.00000000000E+00 -0.00000000000E+00 -0.45593999997E+02  0.45594000000E+02  0.51100000000E-03 0. -1.
         23    2    1    2    0    0  0.00000000000E+00  0.00000000000E+00 -0.35527136788E-14  0.91188000000E+02  0.91188000000E+02 0.  0.
    9900012    2    3    3    0    0 -0.10674549318E+02 -0.27063691460E+02 -0.22569676791E+02  0.54367085983E+02  0.40000004115E+02 0.  0.
        -12    1    3    3    0    0  0.10674549318E+02  0.27063691460E+02  0.22569676791E+02  0.36820914017E+02  0.00000000000E+00 0.  1.
         11    1    4    4    0    0 -0.54191732286E+01 -0.14390515760E+02  0.52140543509E+01  0.16237017748E+02  0.51100000000E-03 0. -1.
        -11    1    4    4    0    0 -0.31043066420E+01 -0.12286693345E+02 -0.27075085463E+01  0.12958786821E+02  0.51100000000E-03 0.  1.
         12    1    4    4    0    0 -0.21510694477E+01 -0.38648235561E+00 -0.25076222595E+02  0.25171281414E+02  0.00000000000E+00 0. -1.
</event>
<event>
 8    1  0.2450026E-006  0.9118800E+02  0.7816164E-02  0.1184000E+00
        -11   -1    0    0    0    0  0.00000000000E+00  0.00000000000E+00  0.45593999997E+02  0.45594000000E+02  0.51100000000E-03 0. -1.
         11   -1    0    0    0    0 -0.00000000000E+00 -0.00000000000E+00 -0.45593999997E+02  0.45594000000E+02  0.51100000000E-03 0.  1.
         23    2    1    2    0    0  0.17763568394E-14 -0.35527136788E-14  0.00000000000E+00  0.91188000000E+02  0.91188000000E+02 0.  0.
    9900012    2    3    3    0    0 -0.14639230436E+02 -0.19809361586E+02  0.27368988354E+02  0.54367090211E+02  0.40000013754E+02 0.  0.
        -12    1    3    3    0    0  0.14639230436E+02  0.19809361586E+02 -0.27368988354E+02  0.36820909789E+02  0.00000000000E+00 0.  1.
         11    1    4    4    0    0 -0.10386159380E+02 -0.16717475655E+02  0.77929356170E+01  0.21167809162E+02  0.51100000000E-03 0. -1.
        -11    1    4    4    0    0  0.95730734703E+01  0.37577358639E+01  0.33691593036E+01  0.10821993770E+02  0.51100000000E-03 0.  1.
        -12    1    4    4    0    0 -0.13826144525E+02 -0.68496217955E+01  0.16206893433E+02  0.22377287278E+02  0.00000000000E+00 0.  1.
</event>
<event>
 8    1  0.2450026E-006  0.9118800E+02  0.7816164E-02  0.1184000E+00
        -11   -1    0    0    0    0  0.00000000000E+00  0.00000000000E+00  0.45593999997E+02  0.45594000000E+02  0.51100000000E-03 0. -1.
         11   -1    0    0    0    0 -0.00000000000E+00 -0.00000000000E+00 -0.45593999997E+02  0.45594000000E+02  0.51100000000E-03 0.  1.
         23    2    1    2    0    0  0.00000000000E+00 -0.44408920985E-15  0.35527136788E-14  0.91188000000E+02  0.91188000000E+02 0.  0.
    9900012    2    3    3    0    0 -0.29120932103E+02 -0.15766520655E+01 -0.22478116391E+02  0.54367078844E+02  0.39999987842E+02 0.  0.
         12    1    3    3    0    0  0.29120932103E+02  0.15766520655E+01  0.22478116391E+02  0.36820921156E+02  0.00000000000E+00 0. -1.
         11    1    4    4    0    0 -0.22184784390E+02 -0.71663781793E+01  0.49940983702E+01  0.23842454853E+02  0.51100000000E-03 0. -1.
        -11    1    4    4    0    0 -0.99161206087E-01  0.63553276356E+01 -0.11642242473E+02  0.13264306705E+02  0.51100000000E-03 0.  1.
        -12    1    4    4    0    0 -0.68369865064E+01 -0.76560152180E+00 -0.15829972288E+02  0.17260317286E+02  0.00000000000E+00 0.  1.
</event>
<event>
 8    1  0.2450026E-006  0.9118800E+02  0.7816164E-02  0.1184000E+00
        -11   -1    0    0    0    0  0.00000000000E+00  0.00000000000E+00  0.45593999997E+02  0.45594000000E+02  0.51100000000E-03 0. -1.
         11   -1    0    0    0    0 -0.00000000000E+00 -0.00000000000E+00 -0.45593999997E+02  0.45594000000E+02  0.51100000000E-03 0.  1.
         23    2    1    2    0    0  0.00000000000E+00  0.35527136788E-14  0.00000000000E+00  0.91188000000E+02  0.91188000000E+02 0.  0.
    9900012    2    3    3    0    0  0.18179786519E+02 -0.23220108594E+02  0.22047763803E+02  0.54367055285E+02  0.39999934133E+02 0.  0.
        -12    1    3    3    0    0 -0.18179786519E+02  0.23220108594E+02 -0.22047763803E+02  0.36820944715E+02  0.00000000000E+00 0.  1.
         11    1    4    4    0    0  0.20371330515E+02 -0.15191713807E+02  0.46658132940E+01  0.25836971365E+02  0.51100000000E-03 0.  1.
        -11    1    4    4    0    0  0.32223021954E+01  0.29940045655E+01 -0.25755248292E+01  0.50971191063E+01  0.51100000000E-03 0. -1.
         12    1    4    4    0    0 -0.54138461913E+01 -0.11022399352E+02  0.19957475339E+02  0.23432964813E+02  0.00000000000E+00 0. -1.
</event>
<event>
 8    1  0.2450026E-006  0.9118800E+02  0.7816164E-02  0.1184000E+00
        -11   -1    0    0    0    0  0.00000000000E+00  0.00000000000E+00  0.45593999997E+02  0.45594000000E+02  0.51100000000E-03 0. -1.
         11   -1    0    0    0    0 -0.00000000000E+00 -0.00000000000E+00 -0.45593999997E+02  0.45594000000E+02  0.51100000000E-03 0.  1.
         23    2    1    2    0    0  0.00000000000E+00  0.88817841970E-15  0.00000000000E+00  0.91188000000E+02  0.91188000000E+02 0.  0.
    9900012    2    3    3    0    0  0.19690846443E+02  0.78597976028E+01 -0.30104501050E+02  0.54366989212E+02  0.39999783505E+02 0.  0.
         12    1    3    3    0    0 -0.19690846443E+02 -0.78597976028E+01  0.30104501050E+02  0.36821010788E+02  0.00000000000E+00 0. -1.
         11    1    4    4    0    0  0.71523409460E+01  0.43588195558E+01  0.53237040026E+01  0.99245711996E+01  0.51100000000E-03 0. -1.
        -11    1    4    4    0    0  0.11930375119E+02  0.88088685104E+01 -0.87171234096E+01  0.17202274725E+02  0.51100000000E-03 0.  1.
        -12    1    4    4    0    0  0.60813037762E+00 -0.53078904634E+01 -0.26711081643E+02  0.27240143287E+02  0.00000000000E+00 0.  1.
</event>
<event>
 8    1  0.2450026E-006  0.9118800E+02  0.7816164E-02  0.1184000E+00
        -11   -1    0    0    0    0  0.00000000000E+00  0.00000000000E+00  0.45593999997E+02  0.45594000000E+02  0.51100000000E-03 0. -1.
         11   -1    0    0    0    0 -0.00000000000E+00 -0.00000000000E+00 -0.45593999997E+02  0.45594000000E+02  0.51100000000E-03 0.  1.
         23    2    1    2    0    0  0.00000000000E+00 -0.35527136788E-14  0.00000000000E+00  0.91188000000E+02  0.91188000000E+02 0.  0.
    9900012    2    3    3    0    0 -0.30695502005E+02 -0.16471622447E+02  0.11926946032E+02  0.54367078895E+02  0.39999987957E+02 0.  0.
        -12    1    3    3    0    0  0.30695502005E+02  0.16471622447E+02 -0.11926946032E+02  0.36820921105E+02  0.00000000000E+00 0.  1.
         11    1    4    4    0    0 -0.21282024312E+01 -0.95537632821E+01  0.77453933500E+01  0.12481776991E+02  0.51100000000E-03 0. -1.
        -11    1    4    4    0    0 -0.19337145887E+02  0.17788149001E+01  0.15531686271E+02  0.24866094832E+02  0.51100000000E-03 0.  1.
        -12    1    4    4    0    0 -0.92301536869E+01 -0.86966740654E+01 -0.11350133589E+02  0.17019207073E+02  0.00000000000E+00 0.  1.
</event>
<event>
 8    1  0.2450026E-006  0.9118800E+02  0.7816164E-02  0.1184000E+00
        -11   -1    0    0    0    0  0.00000000000E+00  0.00000000000E+00  0.45593999997E+02  0.45594000000E+02  0.51100000000E-03 0. -1.
         11   -1    0    0    0    0 -0.00000000000E+00 -0.00000000000E+00 -0.45593999997E+02  0.45594000000E+02  0.51100000000E-03 0.  1.
         23    2    1    2    0    0 -0.17763568394E-14  0.88817841970E-15  0.71054273576E-14  0.91188000000E+02  0.91188000000E+02 0.  0.
    9900012    2    3    3    0    0  0.10474107862E+02  0.48631131720E+01 -0.34963234183E+02  0.54367020250E+02  0.39999854264E+02 0.  0.
         12    1    3    3    0    0 -0.10474107862E+02 -0.48631131720E+01  0.34963234183E+02  0.36820979750E+02  0.00000000000E+00 0. -1.
         11    1    4    4    0    0  0.87226480856E+01  0.18387229523E+02 -0.62145354979E+01  0.21278986134E+02  0.51100000000E-03 0. -1.
        -11    1    4    4    0    0  0.33258478126E+01 -0.75590331171E+00 -0.46026192509E+01  0.57285912508E+01  0.51100000000E-03 0.  1.
        -12    1    4    4    0    0 -0.15743880359E+01 -0.12768213039E+02 -0.24146079434E+02  0.27359442866E+02  0.00000000000E+00 0.  1.
</event>
<event>
 8    1  0.2450026E-006  0.9118800E+02  0.7816164E-02  0.1184000E+00
        -11   -1    0    0    0    0  0.00000000000E+00  0.00000000000E+00  0.45593999997E+02  0.45594000000E+02  0.51100000000E-03 0. -1.
         11   -1    0    0    0    0 -0.00000000000E+00 -0.00000000000E+00 -0.45593999997E+02  0.45594000000E+02  0.51100000000E-03 0.  1.
         23    2    1    2    0    0  0.00000000000E+00  0.44408920985E-15  0.00000000000E+00  0.91188000000E+02  0.91188000000E+02 0.  0.
    9900012    2    3    3    0    0  0.27236552924E+02 -0.19201985638E+01  0.24703469201E+02  0.54367104189E+02  0.40000045620E+02 0.  0.
        -12    1    3    3    0    0 -0.27236552924E+02  0.19201985638E+01 -0.24703469201E+02  0.36820895811E+02  0.00000000000E+00 0.  1.
         11    1    4    4    0    0  0.39070739563E+01 -0.30826769777E-01  0.12891308674E+02  0.13470412644E+02  0.51100000000E-03 0. -1.
        -11    1    4    4    0    0  0.28597172072E+02  0.45271850018E+01  0.35260427883E+01  0.29167218457E+02  0.51100000000E-03 0.  1.
        -12    1    4    4    0    0 -0.52676931035E+01 -0.64165567958E+01  0.82861177387E+01  0.11729473088E+02  0.00000000000E+00 0.  1.
</event>
<event>
 8    1  0.2450026E-006  0.9118800E+02  0.7816164E-02  0.1184000E+00
        -11   -1    0    0    0    0  0.00000000000E+00  0.00000000000E+00  0.45593999997E+02  0.45594000000E+02  0.51100000000E-03 0.  1.
         11   -1    0    0    0    0 -0.00000000000E+00 -0.00000000000E+00 -0.45593999997E+02  0.45594000000E+02  0.51100000000E-03 0. -1.
         23    2    1    2    0    0 -0.24424906542E-14  0.00000000000E+00  0.00000000000E+00  0.91188000000E+02  0.91188000000E+02 0.  0.
    9900012    2    3    3    0    0  0.15001948169E+01 -0.32569292592E+02  0.17110432169E+02  0.54367132365E+02  0.40000109852E+02 0.  0.
         12    1    3    3    0    0 -0.15001948169E+01  0.32569292592E+02 -0.17110432169E+02  0.36820867635E+02  0.00000000000E+00 0. -1.
         11    1    4    4    0    0  0.90269176004E+01 -0.98709738656E+01 -0.74844043799E+01  0.15327676784E+02  0.51100000000E-03 0. -1.
        -11    1    4    4    0    0 -0.12851065153E+02 -0.92303507503E+01  0.12265061154E+02  0.20019514877E+02  0.51100000000E-03 0.  1.
        -12    1    4    4    0    0  0.53243423699E+01 -0.13467967976E+02  0.12329775395E+02  0.19019940703E+02  0.00000000000E+00 0.  1.
</event>
<event>
 8    1  0.2450026E-006  0.9118800E+02  0.7816164E-02  0.1184000E+00
        -11   -1    0    0    0    0  0.00000000000E+00  0.00000000000E+00  0.45593999997E+02  0.45594000000E+02  0.51100000000E-03 0.  1.
         11   -1    0    0    0    0 -0.00000000000E+00 -0.00000000000E+00 -0.45593999997E+02  0.45594000000E+02  0.51100000000E-03 0. -1.
         23    2    1    2    0    0  0.00000000000E+00  0.00000000000E+00  0.00000000000E+00  0.91188000000E+02  0.91188000000E+02 0.  0.
    9900012    2    3    3    0    0 -0.29876626803E+02  0.18258892870E+02  0.11392125099E+02  0.54367075077E+02  0.39999979252E+02 0.  0.
         12    1    3    3    0    0  0.29876626803E+02 -0.18258892870E+02 -0.11392125099E+02  0.36820924923E+02  0.00000000000E+00 0. -1.
         11    1    4    4    0    0 -0.13769329583E+02 -0.84823215739E+00  0.29783607814E+01  0.14113276309E+02  0.51100000000E-03 0. -1.
        -11    1    4    4    0    0 -0.82612773772E+01  0.26883756166E+02  0.42284520562E+01  0.28440549513E+02  0.51100000000E-03 0.  1.
        -12    1    4    4    0    0 -0.78460198428E+01 -0.77766311394E+01  0.41853122612E+01  0.11813249256E+02  0.00000000000E+00 0.  1.
</event>
<event>
 8    1  0.2450026E-006  0.9118800E+02  0.7816164E-02  0.1184000E+00
        -11   -1    0    0    0    0  0.00000000000E+00  0.00000000000E+00  0.45593999997E+02  0.45594000000E+02  0.51100000000E-03 0. -1.
         11   -1    0    0    0    0 -0.00000000000E+00 -0.00000000000E+00 -0.45593999997E+02  0.45594000000E+02  0.51100000000E-03 0.  1.
         23    2    1    2    0    0  0.00000000000E+00  0.00000000000E+00  0.00000000000E+00  0.91188000000E+02  0.91188000000E+02 0.  0.
    9900012    2    3    3    0    0  0.19750623699E+02  0.19215392279E+02  0.24422553494E+02  0.54367088060E+02  0.40000008851E+02 0.  0.
        -12    1    3    3    0    0 -0.19750623699E+02 -0.19215392279E+02 -0.24422553494E+02  0.36820911940E+02  0.00000000000E+00 0.  1.
         11    1    4    4    0    0  0.13658226261E+02  0.11303770084E+01  0.20019196136E+01  0.13850363865E+02  0.51100000000E-03 0. -1.
        -11    1    4    4    0    0  0.16833264350E+02  0.11661562086E+02  0.96560995650E+01  0.22640474334E+02  0.51100000000E-03 0.  1.
         12    1    4    4    0    0 -0.10740866913E+02  0.64234531842E+01  0.12764534315E+02  0.17876249862E+02  0.00000000000E+00 0. -1.
</event>
<event>
 8    1  0.2450026E-006  0.9118800E+02  0.7816164E-02  0.1184000E+00
        -11   -1    0    0    0    0  0.00000000000E+00  0.00000000000E+00  0.45593999997E+02  0.45594000000E+02  0.51100000000E-03 0.  1.
         11   -1    0    0    0    0 -0.00000000000E+00 -0.00000000000E+00 -0.45593999997E+02  0.45594000000E+02  0.51100000000E-03 0. -1.
         23    2    1    2    0    0  0.00000000000E+00  0.00000000000E+00  0.00000000000E+00  0.91188000000E+02  0.91188000000E+02 0.  0.
    9900012    2    3    3    0    0  0.27330741294E+02 -0.16819278714E+02 -0.18053235320E+02  0.54367124648E+02  0.40000092261E+02 0.  0.
        -12    1    3    3    0    0 -0.27330741294E+02  0.16819278714E+02  0.18053235320E+02  0.36820875352E+02  0.00000000000E+00 0.  1.
         11    1    4    4    0    0  0.10759785249E+02 -0.98057468656E+01 -0.54989796151E+01  0.15561633181E+02  0.51100000000E-03 0. -1.
        -11    1    4    4    0    0  0.12154871745E+02 -0.17888445069E+02 -0.11257959568E-01  0.21627239794E+02  0.51100000000E-03 0.  1.
        -12    1    4    4    0    0  0.44160842996E+01  0.10874913220E+02 -0.12542997745E+02  0.17178251673E+02  0.00000000000E+00 0.  1.
</event>
<event>
 8    1  0.2450026E-006  0.9118800E+02  0.7816164E-02  0.1184000E+00
        -11   -1    0    0    0    0  0.00000000000E+00  0.00000000000E+00  0.45593999997E+02  0.45594000000E+02  0.51100000000E-03 0. -1.
         11   -1    0    0    0    0 -0.00000000000E+00 -0.00000000000E+00 -0.45593999997E+02  0.45594000000E+02  0.51100000000E-03 0.  1.
         23    2    1    2    0    0  0.00000000000E+00 -0.71054273576E-14  0.00000000000E+00  0.91188000000E+02  0.91188000000E+02 0.  0.
    9900012    2    3    3    0    0  0.20161722976E+02 -0.25350512421E+02  0.17511023281E+02  0.54367088961E+02  0.40000010905E+02 0.  0.
        -12    1    3    3    0    0 -0.20161722976E+02  0.25350512421E+02 -0.17511023281E+02  0.36820911039E+02  0.00000000000E+00 0.  1.
         11    1    4    4    0    0  0.51756284009E+01 -0.13437603680E+00  0.19161092932E+02  0.19848240952E+02  0.51100000000E-03 0. -1.
        -11    1    4    4    0    0 -0.36514897052E+01 -0.21930850377E+01  0.19406590536E+01  0.46807218326E+01  0.51100000000E-03 0.  1.
         12    1    4    4    0    0  0.18637584280E+02 -0.23023051347E+02 -0.35907287044E+01  0.29838126177E+02  0.00000000000E+00 0. -1.
</event>
<event>
 8    1  0.2450026E-006  0.9118800E+02  0.7816164E-02  0.1184000E+00
        -11   -1    0    0    0    0  0.00000000000E+00  0.00000000000E+00  0.45593999997E+02  0.45594000000E+02  0.51100000000E-03 0.  1.
         11   -1    0    0    0    0 -0.00000000000E+00 -0.00000000000E+00 -0.45593999997E+02  0.45594000000E+02  0.51100000000E-03 0. -1.
         23    2    1    2    0    0 -0.35527136788E-14  0.00000000000E+00  0.35527136788E-14  0.91188000000E+02  0.91188000000E+02 0.  0.
    9900012    2    3    3    0    0  0.25568339106E+02  0.24308431986E+02 -0.10542616577E+02  0.54366992483E+02  0.39999790963E+02 0.  0.
        -12    1    3    3    0    0 -0.25568339106E+02 -0.24308431986E+02  0.10542616577E+02  0.36821007517E+02  0.00000000000E+00 0.  1.
         11    1    4    4    0    0  0.58380504529E+01  0.69415137036E+01 -0.19754587316E+02  0.21737321957E+02  0.51100000000E-03 0. -1.
        -11    1    4    4    0    0 -0.67382260421E+00 -0.22722922956E+01 -0.93330360902E+00  0.25472347882E+01  0.51100000000E-03 0.  1.
        -12    1    4    4    0    0  0.20404111257E+02  0.19639210578E+02  0.10145274348E+02  0.30082435738E+02  0.00000000000E+00 0.  1.
</event>
<event>
 8    1  0.2450026E-006  0.9118800E+02  0.7816164E-02  0.1184000E+00
        -11   -1    0    0    0    0  0.00000000000E+00  0.00000000000E+00  0.45593999997E+02  0.45594000000E+02  0.51100000000E-03 0.  1.
         11   -1    0    0    0    0 -0.00000000000E+00 -0.00000000000E+00 -0.45593999997E+02  0.45594000000E+02  0.51100000000E-03 0. -1.
         23    2    1    2    0    0  0.00000000000E+00  0.00000000000E+00  0.00000000000E+00  0.91188000000E+02  0.91188000000E+02 0.  0.
    9900012    2    3    3    0    0 -0.19383478929E+02  0.25054702713E+02  0.18770283192E+02  0.54367069614E+02  0.39999966798E+02 0.  0.
         12    1    3    3    0    0  0.19383478929E+02 -0.25054702713E+02 -0.18770283192E+02  0.36820930386E+02  0.00000000000E+00 0. -1.
         11    1    4    4    0    0 -0.13977049436E+02  0.21199721388E+02  0.16446039864E+02  0.30253236609E+02  0.51100000000E-03 0. -1.
        -11    1    4    4    0    0 -0.64653047132E+01  0.74519361274E+01 -0.82714046600E+01  0.12874302016E+02  0.51100000000E-03 0.  1.
         12    1    4    4    0    0  0.10588752199E+01 -0.35969548021E+01  0.10595647987E+02  0.11239530989E+02  0.00000000000E+00 0. -1.
</event>
<event>
 8    1  0.2450026E-006  0.9118800E+02  0.7816164E-02  0.1184000E+00
        -11   -1    0    0    0    0  0.00000000000E+00  0.00000000000E+00  0.45593999997E+02  0.45594000000E+02  0.51100000000E-03 0.  1.
         11   -1    0    0    0    0 -0.00000000000E+00 -0.00000000000E+00 -0.45593999997E+02  0.45594000000E+02  0.51100000000E-03 0. -1.
         23    2    1    2    0    0  0.43021142204E-15  0.00000000000E+00  0.35527136788E-14  0.91188000000E+02  0.91188000000E+02 0.  0.
    9900012    2    3    3    0    0 -0.90704774356E-01 -0.32333029224E+02 -0.17616642702E+02  0.54367094168E+02  0.40000022775E+02 0.  0.
        -12    1    3    3    0    0  0.90704774356E-01  0.32333029224E+02  0.17616642702E+02  0.36820905832E+02  0.00000000000E+00 0.  1.
         11    1    4    4    0    0  0.22812174251E+01  0.16207604547E+01 -0.21529252214E+01  0.35307088045E+01  0.51100000000E-03 0. -1.
        -11    1    4    4    0    0  0.13082971078E+01 -0.16340850520E+02 -0.25438612168E+02  0.30263146339E+02  0.51100000000E-03 0.  1.
         12    1    4    4    0    0 -0.36802193073E+01 -0.17612939159E+02  0.99748946869E+01  0.20573239025E+02  0.00000000000E+00 0. -1.
</event>
<event>
 8    1  0.2450026E-006  0.9118800E+02  0.7816164E-02  0.1184000E+00
        -11   -1    0    0    0    0  0.00000000000E+00  0.00000000000E+00  0.45593999997E+02  0.45594000000E+02  0.51100000000E-03 0. -1.
         11   -1    0    0    0    0 -0.00000000000E+00 -0.00000000000E+00 -0.45593999997E+02  0.45594000000E+02  0.51100000000E-03 0.  1.
         23    2    1    2    0    0  0.00000000000E+00 -0.35527136788E-14  0.00000000000E+00  0.91188000000E+02  0.91188000000E+02 0.  0.
    9900012    2    3    3    0    0 -0.10258298027E+02 -0.18625877696E+02  0.30060345219E+02  0.54367077238E+02  0.39999984179E+02 0.  0.
        -12    1    3    3    0    0  0.10258298027E+02  0.18625877696E+02 -0.30060345219E+02  0.36820922762E+02  0.00000000000E+00 0.  1.
         11    1    4    4    0    0  0.33785894612E-01  0.88340388654E+00  0.55221001816E+01  0.55924175980E+01  0.51100000000E-03 0. -1.
        -11    1    4    4    0    0 -0.15188450292E+02  0.38921026871E+01  0.18032642971E+01  0.15782561516E+02  0.51100000000E-03 0.  1.
        -12    1    4    4    0    0  0.48963663709E+01 -0.23401384270E+02  0.22734980740E+02  0.32992098124E+02  0.00000000000E+00 0.  1.
</event>
<event>
 8    1  0.2450026E-006  0.9118800E+02  0.7816164E-02  0.1184000E+00
        -11   -1    0    0    0    0  0.00000000000E+00  0.00000000000E+00  0.45593999997E+02  0.45594000000E+02  0.51100000000E-03 0. -1.
         11   -1    0    0    0    0 -0.00000000000E+00 -0.00000000000E+00 -0.45593999997E+02  0.45594000000E+02  0.51100000000E-03 0.  1.
         23    2    1    2    0    0  0.00000000000E+00  0.00000000000E+00  0.00000000000E+00  0.91188000000E+02  0.91188000000E+02 0.  0.
    9900012    2    3    3    0    0 -0.14644830899E+02  0.16988493519E+02 -0.29200977259E+02  0.54367121995E+02  0.40000086213E+02 0.  0.
         12    1    3    3    0    0  0.14644830899E+02 -0.16988493519E+02  0.29200977259E+02  0.36820878005E+02  0.00000000000E+00 0. -1.
         11    1    4    4    0    0 -0.11985872259E+02  0.15041024273E+01 -0.49982304672E+01  0.13073093207E+02  0.51100000000E-03 0.  1.
        -11    1    4    4    0    0  0.13398600476E+02  0.51531470372E+01 -0.10846481299E+02  0.17992319915E+02  0.51100000000E-03 0. -1.
         12    1    4    4    0    0 -0.16057559116E+02  0.10331244055E+02 -0.13356265493E+02  0.23301708873E+02  0.00000000000E+00 0. -1.
</event>
<event>
 8    1  0.2450026E-006  0.9118800E+02  0.7816164E-02  0.1184000E+00
        -11   -1    0    0    0    0  0.00000000000E+00  0.00000000000E+00  0.45593999997E+02  0.45594000000E+02  0.51100000000E-03 0. -1.
         11   -1    0    0    0    0 -0.00000000000E+00 -0.00000000000E+00 -0.45593999997E+02  0.45594000000E+02  0.51100000000E-03 0.  1.
         23    2    1    2    0    0  0.88817841970E-15  0.88817841970E-15  0.00000000000E+00  0.91188000000E+02  0.91188000000E+02 0.  0.
    9900012    2    3    3    0    0  0.73797829598E+01  0.28183774541E+01  0.35963533026E+02  0.54367079917E+02  0.39999990288E+02 0.  0.
        -12    1    3    3    0    0 -0.73797829598E+01 -0.28183774541E+01 -0.35963533026E+02  0.36820920083E+02  0.00000000000E+00 0.  1.
         11    1    4    4    0    0  0.46444450098E+01 -0.11666591230E+02  0.10893422272E+02  0.16623683991E+02  0.51100000000E-03 0. -1.
        -11    1    4    4    0    0  0.67514961176E+01  0.10584863612E+02  0.52261948844E+00  0.12565634441E+02  0.51100000000E-03 0.  1.
         12    1    4    4    0    0 -0.40161581676E+01  0.39001050717E+01  0.24547491265E+02  0.25177761485E+02  0.00000000000E+00 0. -1.
</event>
<event>
 8    1  0.2450026E-006  0.9118800E+02  0.7816164E-02  0.1184000E+00
        -11   -1    0    0    0    0  0.00000000000E+00  0.00000000000E+00  0.45593999997E+02  0.45594000000E+02  0.51100000000E-03 0.  1.
         11   -1    0    0    0    0 -0.00000000000E+00 -0.00000000000E+00 -0.45593999997E+02  0.45594000000E+02  0.51100000000E-03 0. -1.
         23    2    1    2    0    0  0.17763568394E-14  0.00000000000E+00  0.00000000000E+00  0.91188000000E+02  0.91188000000E+02 0.  0.
    9900012    2    3    3    0    0  0.71423321041E+01  0.33503553807E+02  0.13501071679E+02  0.54367082547E+02  0.39999996282E+02 0.  0.
         12    1    3    3    0    0 -0.71423321041E+01 -0.33503553807E+02 -0.13501071679E+02  0.36820917453E+02  0.00000000000E+00 0. -1.
         11    1    4    4    0    0 -0.90931720392E+01  0.13041117613E+02 -0.50145958567E+01  0.16670413858E+02  0.51100000000E-03 0. -1.
        -11    1    4    4    0    0  0.12134636912E+02  0.17528573479E+02  0.31819265059E+01  0.21555160815E+02  0.51100000000E-03 0.  1.
        -12    1    4    4    0    0  0.41008672311E+01  0.29338627152E+01  0.15333741030E+02  0.16141507874E+02  0.00000000000E+00 0.  1.
</event>
<event>
 8    1  0.2450026E-006  0.9118800E+02  0.7816164E-02  0.1184000E+00
        -11   -1    0    0    0    0  0.00000000000E+00  0.00000000000E+00  0.45593999997E+02  0.45594000000E+02  0.51100000000E-03 0. -1.
         11   -1    0    0    0    0 -0.00000000000E+00 -0.00000000000E+00 -0.45593999997E+02  0.45594000000E+02  0.51100000000E-03 0.  1.
         23    2    1    2    0    0  0.00000000000E+00  0.00000000000E+00  0.00000000000E+00  0.91188000000E+02  0.91188000000E+02 0.  0.
    9900012    2    3    3    0    0 -0.12882974260E+02  0.33627300184E+02  0.76829656289E+01  0.54366887791E+02  0.39999552294E+02 0.  0.
         12    1    3    3    0    0  0.12882974260E+02 -0.33627300184E+02 -0.76829656289E+01  0.36821112209E+02  0.00000000000E+00 0. -1.
         11    1    4    4    0    0 -0.16665625862E+01  0.94820651346E+01 -0.25242996421E+01  0.99528427605E+01  0.51100000000E-03 0. -1.
        -11    1    4    4    0    0  0.54110975947E+01  0.22073960850E+02 -0.32034751834E+01  0.22952167181E+02  0.51100000000E-03 0.  1.
         12    1    4    4    0    0 -0.16627509269E+02  0.20712741998E+01  0.13410740454E+02  0.21461877849E+02  0.00000000000E+00 0. -1.
</event>
<event>
 8    1  0.2450026E-006  0.9118800E+02  0.7816164E-02  0.1184000E+00
        -11   -1    0    0    0    0  0.00000000000E+00  0.00000000000E+00  0.45593999997E+02  0.45594000000E+02  0.51100000000E-03 0.  1.
         11   -1    0    0    0    0 -0.00000000000E+00 -0.00000000000E+00 -0.45593999997E+02  0.45594000000E+02  0.51100000000E-03 0. -1.
         23    2    1    2    0    0 -0.71054273576E-14 -0.17763568394E-14  0.00000000000E+00  0.91188000000E+02  0.91188000000E+02 0.  0.
    9900012    2    3    3    0    0  0.33587082439E+02  0.12124727911E+02  0.89821606395E+01  0.54367077368E+02  0.39999984476E+02 0.  0.
        -12    1    3    3    0    0 -0.33587082439E+02 -0.12124727911E+02 -0.89821606395E+01  0.36820922632E+02  0.00000000000E+00 0.  1.
         11    1    4    4    0    0  0.22161183681E+02  0.20645946354E+02 -0.35459160860E+01  0.30495027204E+02  0.51100000000E-03 0. -1.
        -11    1    4    4    0    0  0.13255842071E+02 -0.72172085437E+01  0.48215940551E+01  0.15844658964E+02  0.51100000000E-03 0.  1.
         12    1    4    4    0    0 -0.18299433134E+01 -0.13040098986E+01  0.77064826703E+01  0.80273912010E+01  0.00000000000E+00 0. -1.
</event>
<event>
 8    1  0.2450026E-006  0.9118800E+02  0.7816164E-02  0.1184000E+00
        -11   -1    0    0    0    0  0.00000000000E+00  0.00000000000E+00  0.45593999997E+02  0.45594000000E+02  0.51100000000E-03 0. -1.
         11   -1    0    0    0    0 -0.00000000000E+00 -0.00000000000E+00 -0.45593999997E+02  0.45594000000E+02  0.51100000000E-03 0.  1.
         23    2    1    2    0    0  0.00000000000E+00  0.17763568394E-14  0.00000000000E+00  0.91188000000E+02  0.91188000000E+02 0.  0.
    9900012    2    3    3    0    0 -0.13365182228E+02  0.13431192004E+02  0.31571461629E+02  0.54367052103E+02  0.39999926879E+02 0.  0.
        -12    1    3    3    0    0  0.13365182228E+02 -0.13431192004E+02 -0.31571461629E+02  0.36820947897E+02  0.00000000000E+00 0.  1.
         11    1    4    4    0    0  0.23294025244E+01 -0.82975405130E+01  0.23358176636E+02  0.24897383612E+02  0.51100000000E-03 0. -1.
        -11    1    4    4    0    0 -0.82717350687E+01  0.18305028953E+02  0.51186271959E+01  0.20729110706E+02  0.51100000000E-03 0.  1.
         12    1    4    4    0    0 -0.74228496836E+01  0.34237035635E+01  0.30946577973E+01  0.87405577853E+01  0.00000000000E+00 0. -1.
</event>
<event>
 8    1  0.2450026E-006  0.9118800E+02  0.7816164E-02  0.1184000E+00
        -11   -1    0    0    0    0  0.00000000000E+00  0.00000000000E+00  0.45593999997E+02  0.45594000000E+02  0.51100000000E-03 0.  1.
         11   -1    0    0    0    0 -0.00000000000E+00 -0.00000000000E+00 -0.45593999997E+02  0.45594000000E+02  0.51100000000E-03 0. -1.
         23    2    1    2    0    0  0.88817841970E-15  0.71054273576E-14 -0.17763568394E-14  0.91188000000E+02  0.91188000000E+02 0.  0.
    9900012    2    3    3    0    0 -0.26378578224E+01 -0.35352722404E+02  0.99504458662E+01  0.54367018913E+02  0.39999851215E+02 0.  0.
        -12    1    3    3    0    0  0.26378578224E+01  0.35352722404E+02 -0.99504458662E+01  0.36820981087E+02  0.00000000000E+00 0.  1.
         11    1    4    4    0    0  0.33778270048E+01  0.31512163207E+01 -0.30004239987E+01  0.55083957744E+01  0.51100000000E-03 0. -1.
        -11    1    4    4    0    0  0.73239408782E+01 -0.12332855501E+02  0.13185166011E+02  0.19483019217E+02  0.51100000000E-03 0.  1.
         12    1    4    4    0    0 -0.13339625705E+02 -0.26171083224E+02 -0.23429614645E+00  0.29375603922E+02  0.00000000000E+00 0. -1.
</event>
<event>
 8    1  0.2450026E-006  0.9118800E+02  0.7816164E-02  0.1184000E+00
        -11   -1    0    0    0    0  0.00000000000E+00  0.00000000000E+00  0.45593999997E+02  0.45594000000E+02  0.51100000000E-03 0. -1.
         11   -1    0    0    0    0 -0.00000000000E+00 -0.00000000000E+00 -0.45593999997E+02  0.45594000000E+02  0.51100000000E-03 0.  1.
         23    2    1    2    0    0  0.00000000000E+00  0.44408920985E-15  0.00000000000E+00  0.91188000000E+02  0.91188000000E+02 0.  0.
    9900012    2    3    3    0    0 -0.38203878023E+01  0.34824922401E+01 -0.36456253116E+02  0.54367061576E+02  0.39999948474E+02 0.  0.
         12    1    3    3    0    0  0.38203878023E+01 -0.34824922401E+01  0.36456253116E+02  0.36820938424E+02  0.00000000000E+00 0. -1.
         11    1    4    4    0    0 -0.33076700192E+01 -0.70563485466E+01  0.79714999348E+00  0.78337847903E+01  0.51100000000E-03 0. -1.
        -11    1    4    4    0    0 -0.72011104489E+01  0.16650845167E+01 -0.34227716327E+02  0.35016639807E+02  0.51100000000E-03 0.  1.
        -12    1    4    4    0    0  0.66883926658E+01  0.88737562701E+01 -0.30256867831E+01  0.11516636979E+02  0.00000000000E+00 0.  1.
</event>
<event>
 8    1  0.2450026E-006  0.9118800E+02  0.7816164E-02  0.1184000E+00
        -11   -1    0    0    0    0  0.00000000000E+00  0.00000000000E+00  0.45593999997E+02  0.45594000000E+02  0.51100000000E-03 0. -1.
         11   -1    0    0    0    0 -0.00000000000E+00 -0.00000000000E+00 -0.45593999997E+02  0.45594000000E+02  0.51100000000E-03 0.  1.
         23    2    1    2    0    0 -0.71054273576E-14 -0.88817841970E-15  0.17763568394E-14  0.91188000000E+02  0.91188000000E+02 0.  0.
    9900012    2    3    3    0    0 -0.35146834370E+02 -0.41873308121E+01 -0.10146279009E+02  0.54367072753E+02  0.39999973956E+02 0.  0.
         12    1    3    3    0    0  0.35146834370E+02  0.41873308121E+01  0.10146279009E+02  0.36820927247E+02  0.00000000000E+00 0. -1.
         11    1    4    4    0    0 -0.60621274811E+01  0.78433249478E+00 -0.17218247951E+00  0.61150808766E+01  0.51100000000E-03 0.  1.
        -11    1    4    4    0    0 -0.34523236721E+01  0.12790221895E+02 -0.10744735323E+02  0.17057480830E+02  0.51100000000E-03 0. -1.
         12    1    4    4    0    0 -0.25632383217E+02 -0.17761885201E+02  0.77063879293E+00  0.31194511047E+02  0.00000000000E+00 0. -1.
</event>
<event>
 8    1  0.2450026E-006  0.9118800E+02  0.7816164E-02  0.1184000E+00
        -11   -1    0    0    0    0  0.00000000000E+00  0.00000000000E+00  0.45593999997E+02  0.45594000000E+02  0.51100000000E-03 0.  1.
         11   -1    0    0    0    0 -0.00000000000E+00 -0.00000000000E+00 -0.45593999997E+02  0.45594000000E+02  0.51100000000E-03 0. -1.
         23    2    1    2    0    0  0.00000000000E+00  0.00000000000E+00  0.00000000000E+00  0.91188000000E+02  0.91188000000E+02 0.  0.
    9900012    2    3    3    0    0  0.16008538479E+02  0.26486495123E+02 -0.19949281168E+02  0.54367061022E+02  0.39999947212E+02 0.  0.
        -12    1    3    3    0    0 -0.16008538479E+02 -0.26486495123E+02  0.19949281168E+02  0.36820938978E+02  0.00000000000E+00 0.  1.
         11    1    4    4    0    0  0.11501483417E+02  0.24346991236E+02 -0.29108089975E+02  0.39652755330E+02  0.51100000000E-03 0. -1.
        -11    1    4    4    0    0  0.62886687735E+01 -0.22689356690E+01  0.45097150399E+01  0.80643012106E+01  0.51100000000E-03 0.  1.
        -12    1    4    4    0    0 -0.17816137119E+01  0.44084395560E+01  0.46490937676E+01  0.66500044810E+01  0.00000000000E+00 0.  1.
</event>
<event>
 8    1  0.2450026E-006  0.9118800E+02  0.7816164E-02  0.1184000E+00
        -11   -1    0    0    0    0  0.00000000000E+00  0.00000000000E+00  0.45593999997E+02  0.45594000000E+02  0.51100000000E-03 0. -1.
         11   -1    0    0    0    0 -0.00000000000E+00 -0.00000000000E+00 -0.45593999997E+02  0.45594000000E+02  0.51100000000E-03 0.  1.
         23    2    1    2    0    0  0.00000000000E+00  0.00000000000E+00 -0.13877787808E-14  0.91188000000E+02  0.91188000000E+02 0.  0.
    9900012    2    3    3    0    0 -0.51325652405E+01 -0.36461218247E+02  0.11966407759E+00  0.54367109442E+02  0.40000057595E+02 0.  0.
         12    1    3    3    0    0  0.51325652405E+01  0.36461218247E+02 -0.11966407759E+00  0.36820890558E+02  0.00000000000E+00 0. -1.
         11    1    4    4    0    0 -0.20879814965E+00 -0.38052092705E+00  0.10179336849E+02  0.10188586349E+02  0.51100000000E-03 0. -1.
        -11    1    4    4    0    0 -0.17455889061E+00  0.19374774313E+01  0.31068605097E+01  0.36656339276E+01  0.51100000000E-03 0.  1.
         12    1    4    4    0    0 -0.47492082002E+01 -0.38018174751E+02 -0.13166533281E+02  0.40512889166E+02  0.00000000000E+00 0. -1.
</event>
<event>
 8    1  0.2450026E-006  0.9118800E+02  0.7816164E-02  0.1184000E+00
        -11   -1    0    0    0    0  0.00000000000E+00  0.00000000000E+00  0.45593999997E+02  0.45594000000E+02  0.51100000000E-03 0. -1.
         11   -1    0    0    0    0 -0.00000000000E+00 -0.00000000000E+00 -0.45593999997E+02  0.45594000000E+02  0.51100000000E-03 0.  1.
         23    2    1    2    0    0  0.88817841970E-15 -0.17763568394E-14  0.00000000000E+00  0.91188000000E+02  0.91188000000E+02 0.  0.
    9900012    2    3    3    0    0 -0.45434093560E+01 -0.10566293157E+02 -0.34978430773E+02  0.54367085576E+02  0.40000003188E+02 0.  0.
         12    1    3    3    0    0  0.45434093560E+01  0.10566293157E+02  0.34978430773E+02  0.36820914424E+02  0.00000000000E+00 0. -1.
         11    1    4    4    0    0  0.42738885720E+00 -0.12289102937E+02 -0.51285641318E+01  0.13323170889E+02  0.51100000000E-03 0. -1.
        -11    1    4    4    0    0 -0.83569431877E+01 -0.86297788264E+01 -0.27344897775E+02  0.29867290078E+02  0.51100000000E-03 0.  1.
        -12    1    4    4    0    0  0.33861449745E+01  0.10352588606E+02 -0.25049688665E+01  0.11176624609E+02  0.00000000000E+00 0.  1.
</event>
<event>
 8    1  0.2450026E-006  0.9118800E+02  0.7816164E-02  0.1184000E+00
        -11   -1    0    0    0    0  0.00000000000E+00  0.00000000000E+00  0.45593999997E+02  0.45594000000E+02  0.51100000000E-03 0.  1.
         11   -1    0    0    0    0 -0.00000000000E+00 -0.00000000000E+00 -0.45593999997E+02  0.45594000000E+02  0.51100000000E-03 0. -1.
         23    2    1    2    0    0  0.00000000000E+00  0.13322676296E-14  0.00000000000E+00  0.91188000000E+02  0.91188000000E+02 0.  0.
    9900012    2    3    3    0    0 -0.84487491272E+01 -0.35332405630E+01  0.35663910631E+02  0.54367086484E+02  0.40000005257E+02 0.  0.
         12    1    3    3    0    0  0.84487491272E+01  0.35332405630E+01 -0.35663910631E+02  0.36820913516E+02  0.00000000000E+00 0. -1.
         11    1    4    4    0    0 -0.11654129371E+02  0.71927621574E+01  0.28177615666E+01  0.13981929028E+02  0.51100000000E-03 0. -1.
        -11    1    4    4    0    0  0.77859408028E+01 -0.14257064954E+02  0.16985989857E+02  0.23503374799E+02  0.51100000000E-03 0.  1.
        -12    1    4    4    0    0 -0.45805605590E+01  0.35310622338E+01  0.15860159208E+02  0.16881782656E+02  0.00000000000E+00 0.  1.
</event>
<event>
 8    1  0.2450026E-006  0.9118800E+02  0.7816164E-02  0.1184000E+00
        -11   -1    0    0    0    0  0.00000000000E+00  0.00000000000E+00  0.45593999997E+02  0.45594000000E+02  0.51100000000E-03 0. -1.
         11   -1    0    0    0    0 -0.00000000000E+00 -0.00000000000E+00 -0.45593999997E+02  0.45594000000E+02  0.51100000000E-03 0.  1.
         23    2    1    2    0    0 -0.35527136788E-14  0.00000000000E+00  0.35527136788E-14  0.91188000000E+02  0.91188000000E+02 0.  0.
    9900012    2    3    3    0    0 -0.16089420627E+02 -0.29016569130E+02  0.15967137868E+02  0.54367078883E+02  0.39999987930E+02 0.  0.
        -12    1    3    3    0    0  0.16089420627E+02  0.29016569130E+02 -0.15967137868E+02  0.36820921117E+02  0.00000000000E+00 0.  1.
         11    1    4    4    0    0 -0.65758226300E+01 -0.20102793428E+01  0.10609916896E+02  0.12643298742E+02  0.51100000000E-03 0. -1.
        -11    1    4    4    0    0  0.83993186046E+01 -0.89941999523E+01 -0.62410692024E+01  0.13798374211E+02  0.51100000000E-03 0.  1.
        -12    1    4    4    0    0 -0.17912916602E+02 -0.18012089835E+02  0.11598290175E+02  0.27925405930E+02  0.00000000000E+00 0.  1.
</event>
<event>
 8    1  0.2450026E-006  0.9118800E+02  0.7816164E-02  0.1184000E+00
        -11   -1    0    0    0    0  0.00000000000E+00  0.00000000000E+00  0.45593999997E+02  0.45594000000E+02  0.51100000000E-03 0.  1.
         11   -1    0    0    0    0 -0.00000000000E+00 -0.00000000000E+00 -0.45593999997E+02  0.45594000000E+02  0.51100000000E-03 0. -1.
         23    2    1    2    0    0  0.00000000000E+00  0.00000000000E+00  0.35527136788E-14  0.91188000000E+02  0.91188000000E+02 0.  0.
    9900012    2    3    3    0    0  0.27924269984E+02  0.94610039039E+01  0.22056884113E+02  0.54367060499E+02  0.39999946019E+02 0.  0.
         12    1    3    3    0    0 -0.27924269984E+02 -0.94610039039E+01 -0.22056884113E+02  0.36820939501E+02  0.00000000000E+00 0. -1.
         11    1    4    4    0    0  0.11321068612E+02  0.13809792245E+02  0.16201278382E+01  0.17930470458E+02  0.51100000000E-03 0. -1.
        -11    1    4    4    0    0  0.20703851799E+02 -0.14287501105E+01  0.67021307013E+01  0.21808469969E+02  0.51100000000E-03 0.  1.
        -12    1    4    4    0    0 -0.41006504270E+01 -0.29200382309E+01  0.13734625574E+02  0.14628120072E+02  0.00000000000E+00 0.  1.
</event>
<event>
 8    1  0.2450026E-006  0.9118800E+02  0.7816164E-02  0.1184000E+00
        -11   -1    0    0    0    0  0.00000000000E+00  0.00000000000E+00  0.45593999997E+02  0.45594000000E+02  0.51100000000E-03 0.  1.
         11   -1    0    0    0    0 -0.00000000000E+00 -0.00000000000E+00 -0.45593999997E+02  0.45594000000E+02  0.51100000000E-03 0. -1.
         23    2    1    2    0    0  0.00000000000E+00 -0.17763568394E-14  0.00000000000E+00  0.91188000000E+02  0.91188000000E+02 0.  0.
    9900012    2    3    3    0    0  0.19321071782E+02 -0.64925377863E+01 -0.30664637104E+02  0.54367125072E+02  0.40000093227E+02 0.  0.
        -12    1    3    3    0    0 -0.19321071782E+02  0.64925377863E+01  0.30664637104E+02  0.36820874928E+02  0.00000000000E+00 0.  1.
         11    1    4    4    0    0  0.12626445498E+02 -0.95251564236E+01  0.13221297106E+01  0.15871476240E+02  0.51100000000E-03 0. -1.
        -11    1    4    4    0    0  0.51237553673E+01  0.70845975905E+01 -0.30889193399E+01  0.92728536618E+01  0.51100000000E-03 0.  1.
        -12    1    4    4    0    0  0.15708709165E+01 -0.40519789533E+01 -0.28897847475E+02  0.29222795170E+02  0.00000000000E+00 0.  1.
</event>
<event>
 8    1  0.2450026E-006  0.9118800E+02  0.7816164E-02  0.1184000E+00
        -11   -1    0    0    0    0  0.00000000000E+00  0.00000000000E+00  0.45593999997E+02  0.45594000000E+02  0.51100000000E-03 0. -1.
         11   -1    0    0    0    0 -0.00000000000E+00 -0.00000000000E+00 -0.45593999997E+02  0.45594000000E+02  0.51100000000E-03 0.  1.
         23    2    1    2    0    0  0.00000000000E+00  0.00000000000E+00  0.00000000000E+00  0.91188000000E+02  0.91188000000E+02 0.  0.
    9900012    2    3    3    0    0 -0.24700027693E+02  0.15393403649E+02 -0.22555104420E+02  0.54367068733E+02  0.39999964790E+02 0.  0.
         12    1    3    3    0    0  0.24700027693E+02 -0.15393403649E+02  0.22555104420E+02  0.36820931267E+02  0.00000000000E+00 0. -1.
         11    1    4    4    0    0 -0.24649409687E+02  0.64639023347E+01 -0.17671897121E+02  0.31010826810E+02  0.51100000000E-03 0. -1.
        -11    1    4    4    0    0 -0.29660971281E+01  0.70944657382E+01 -0.12681637427E+02  0.14830816038E+02  0.51100000000E-03 0.  1.
         12    1    4    4    0    0  0.29154791215E+01  0.18350355764E+01  0.77984301269E+01  0.85254258849E+01  0.00000000000E+00 0. -1.
</event>
<event>
 8    1  0.2450026E-006  0.9118800E+02  0.7816164E-02  0.1184000E+00
        -11   -1    0    0    0    0  0.00000000000E+00  0.00000000000E+00  0.45593999997E+02  0.45594000000E+02  0.51100000000E-03 0. -1.
         11   -1    0    0    0    0 -0.00000000000E+00 -0.00000000000E+00 -0.45593999997E+02  0.45594000000E+02  0.51100000000E-03 0.  1.
         23    2    1    2    0    0  0.00000000000E+00 -0.35527136788E-14 -0.14210854715E-13  0.91188000000E+02  0.91188000000E+02 0.  0.
    9900012    2    3    3    0    0  0.26668091414E+01 -0.17374979043E+02 -0.32353957090E+02  0.54367077862E+02  0.39999985602E+02 0.  0.
         12    1    3    3    0    0 -0.26668091414E+01  0.17374979043E+02  0.32353957090E+02  0.36820922138E+02  0.00000000000E+00 0. -1.
         11    1    4    4    0    0 -0.36076966434E+01  0.96273658422E+01 -0.83226171631E-01  0.10281467550E+02  0.51100000000E-03 0. -1.
        -11    1    4    4    0    0 -0.16803476319E+01 -0.12146874944E+02 -0.19101554177E+02  0.22698887887E+02  0.51100000000E-03 0.  1.
         12    1    4    4    0    0  0.79548534168E+01 -0.14855469941E+02 -0.13169176741E+02  0.21386722425E+02  0.00000000000E+00 0. -1.
</event>
<event>
 8    1  0.2450026E-006  0.9118800E+02  0.7816164E-02  0.1184000E+00
        -11   -1    0    0    0    0  0.00000000000E+00  0.00000000000E+00  0.45593999997E+02  0.45594000000E+02  0.51100000000E-03 0. -1.
         11   -1    0    0    0    0 -0.00000000000E+00 -0.00000000000E+00 -0.45593999997E+02  0.45594000000E+02  0.51100000000E-03 0.  1.
         23    2    1    2    0    0 -0.17763568394E-14  0.17763568394E-14  0.71054273576E-14  0.91188000000E+02  0.91188000000E+02 0.  0.
    9900012    2    3    3    0    0 -0.15903915259E+02  0.81324502837E+01  0.32197959658E+02  0.54367083738E+02  0.39999998998E+02 0.  0.
        -12    1    3    3    0    0  0.15903915259E+02 -0.81324502837E+01 -0.32197959658E+02  0.36820916262E+02  0.00000000000E+00 0.  1.
         11    1    4    4    0    0  0.65271555639E+01 -0.85224640108E+01  0.21168506914E+02  0.23734823315E+02  0.51100000000E-03 0. -1.
        -11    1    4    4    0    0 -0.59952932617E+01  0.56904728235E+01  0.59123837287E+00  0.82870130520E+01  0.51100000000E-03 0.  1.
         12    1    4    4    0    0 -0.16435777562E+02  0.10964441471E+02  0.10438214371E+02  0.22345247371E+02  0.00000000000E+00 0. -1.
</event>
<event>
 8    1  0.2450026E-006  0.9118800E+02  0.7816164E-02  0.1184000E+00
        -11   -1    0    0    0    0  0.00000000000E+00  0.00000000000E+00  0.45593999997E+02  0.45594000000E+02  0.51100000000E-03 0. -1.
         11   -1    0    0    0    0 -0.00000000000E+00 -0.00000000000E+00 -0.45593999997E+02  0.45594000000E+02  0.51100000000E-03 0.  1.
         23    2    1    2    0    0  0.00000000000E+00 -0.17763568394E-14 -0.35527136788E-14  0.91188000000E+02  0.91188000000E+02 0.  0.
    9900012    2    3    3    0    0  0.18912615821E+02 -0.86437441312E+01 -0.30387162476E+02  0.54367068546E+02  0.39999964365E+02 0.  0.
         12    1    3    3    0    0 -0.18912615821E+02  0.86437441312E+01  0.30387162476E+02  0.36820931454E+02  0.00000000000E+00 0. -1.
         11    1    4    4    0    0  0.23510428193E+02 -0.71410468162E+00 -0.14546189647E+02  0.27655773590E+02  0.51100000000E-03 0. -1.
        -11    1    4    4    0    0  0.37433344092E+01  0.37403485007E+01 -0.98187793958E+01  0.11153976353E+02  0.51100000000E-03 0.  1.
        -12    1    4    4    0    0 -0.83411467814E+01 -0.11669987950E+02 -0.60221934324E+01  0.15557318603E+02  0.00000000000E+00 0.  1.
</event>
<event>
 8    1  0.2450026E-006  0.9118800E+02  0.7816164E-02  0.1184000E+00
        -11   -1    0    0    0    0  0.00000000000E+00  0.00000000000E+00  0.45593999997E+02  0.45594000000E+02  0.51100000000E-03 0. -1.
         11   -1    0    0    0    0 -0.00000000000E+00 -0.00000000000E+00 -0.45593999997E+02  0.45594000000E+02  0.51100000000E-03 0.  1.
         23    2    1    2    0    0  0.71054273576E-14  0.17763568394E-14  0.00000000000E+00  0.91188000000E+02  0.91188000000E+02 0.  0.
    9900012    2    3    3    0    0 -0.32572454459E+02 -0.14828286440E+02 -0.86566422620E+01  0.54367077639E+02  0.39999985093E+02 0.  0.
        -12    1    3    3    0    0  0.32572454459E+02  0.14828286440E+02  0.86566422620E+01  0.36820922361E+02  0.00000000000E+00 0.  1.
         11    1    4    4    0    0 -0.39853882858E+01  0.18481376931E+01  0.50092772639E+01  0.66627165397E+01  0.51100000000E-03 0. -1.
        -11    1    4    4    0    0 -0.32398970914E+02 -0.14041160120E+02 -0.22484131329E+01  0.35382239269E+02  0.51100000000E-03 0.  1.
        -12    1    4    4    0    0  0.38119047403E+01 -0.26352640137E+01 -0.11417506393E+02  0.12322121830E+02  0.00000000000E+00 0.  1.
</event>
<event>
 8    1  0.2450026E-006  0.9118800E+02  0.7816164E-02  0.1184000E+00
        -11   -1    0    0    0    0  0.00000000000E+00  0.00000000000E+00  0.45593999997E+02  0.45594000000E+02  0.51100000000E-03 0. -1.
         11   -1    0    0    0    0 -0.00000000000E+00 -0.00000000000E+00 -0.45593999997E+02  0.45594000000E+02  0.51100000000E-03 0.  1.
         23    2    1    2    0    0  0.00000000000E+00 -0.17763568394E-14  0.00000000000E+00  0.91188000000E+02  0.91188000000E+02 0.  0.
    9900012    2    3    3    0    0  0.20011927685E+02  0.15094531940E+02 -0.26971417244E+02  0.54367088926E+02  0.40000010824E+02 0.  0.
         12    1    3    3    0    0 -0.20011927685E+02 -0.15094531940E+02  0.26971417244E+02  0.36820911074E+02  0.00000000000E+00 0. -1.
         11    1    4    4    0    0 -0.76078409796E+01  0.15426587958E+02 -0.97256736190E+01  0.19759746658E+02  0.51100000000E-03 0. -1.
        -11    1    4    4    0    0  0.34741832170E+01 -0.39744442360E+01 -0.50786323476E+01  0.73252073550E+01  0.51100000000E-03 0.  1.
         12    1    4    4    0    0  0.24145585448E+02  0.36423882178E+01 -0.12167111278E+02  0.27282134912E+02  0.00000000000E+00 0. -1.
</event>
<event>
 8    1  0.2450026E-006  0.9118800E+02  0.7816164E-02  0.1184000E+00
        -11   -1    0    0    0    0  0.00000000000E+00  0.00000000000E+00  0.45593999997E+02  0.45594000000E+02  0.51100000000E-03 0. -1.
         11   -1    0    0    0    0 -0.00000000000E+00 -0.00000000000E+00 -0.45593999997E+02  0.45594000000E+02  0.51100000000E-03 0.  1.
         23    2    1    2    0    0 -0.71054273576E-14  0.00000000000E+00  0.00000000000E+00  0.91188000000E+02  0.91188000000E+02 0.  0.
    9900012    2    3    3    0    0  0.32571402069E+02  0.55612386090E+01  0.16246730354E+02  0.54367084004E+02  0.39999999604E+02 0.  0.
        -12    1    3    3    0    0 -0.32571402069E+02 -0.55612386090E+01 -0.16246730354E+02  0.36820915996E+02  0.00000000000E+00 0.  1.
         11    1    4    4    0    0  0.26853092121E+02 -0.17197031314E+01  0.10690957643E+02  0.28954144970E+02  0.51100000000E-03 0. -1.
        -11    1    4    4    0    0  0.10410185291E+02 -0.41702269033E+01 -0.12601215837E+01  0.11284974829E+02  0.51100000000E-03 0.  1.
        -12    1    4    4    0    0 -0.46918753439E+01  0.11451168644E+02  0.68158942949E+01  0.14127964205E+02  0.00000000000E+00 0.  1.
</event>
<event>
 8    1  0.2450026E-006  0.9118800E+02  0.7816164E-02  0.1184000E+00
        -11   -1    0    0    0    0  0.00000000000E+00  0.00000000000E+00  0.45593999997E+02  0.45594000000E+02  0.51100000000E-03 0.  1.
         11   -1    0    0    0    0 -0.00000000000E+00 -0.00000000000E+00 -0.45593999997E+02  0.45594000000E+02  0.51100000000E-03 0. -1.
         23    2    1    2    0    0  0.22204460493E-15  0.00000000000E+00  0.00000000000E+00  0.91188000000E+02  0.91188000000E+02 0.  0.
    9900012    2    3    3    0    0  0.52632169857E+00 -0.35456931099E+02 -0.99151343943E+01  0.54367070252E+02  0.39999968253E+02 0.  0.
        -12    1    3    3    0    0 -0.52632169857E+00  0.35456931099E+02  0.99151343943E+01  0.36820929748E+02  0.00000000000E+00 0.  1.
         11    1    4    4    0    0  0.35610027776E+01 -0.13611709281E+02 -0.53276904710E+01  0.15044721877E+02  0.51100000000E-03 0. -1.
        -11    1    4    4    0    0  0.96797658616E+01  0.13225765047E+01  0.52893781317E+01  0.11109662327E+02  0.51100000000E-03 0.  1.
        -12    1    4    4    0    0 -0.12714446941E+02 -0.23167798323E+02 -0.98768220550E+01  0.28212686048E+02  0.00000000000E+00 0.  1.
</event>
<event>
 8    1  0.2450026E-006  0.9118800E+02  0.7816164E-02  0.1184000E+00
        -11   -1    0    0    0    0  0.00000000000E+00  0.00000000000E+00  0.45593999997E+02  0.45594000000E+02  0.51100000000E-03 0. -1.
         11   -1    0    0    0    0 -0.00000000000E+00 -0.00000000000E+00 -0.45593999997E+02  0.45594000000E+02  0.51100000000E-03 0.  1.
         23    2    1    2    0    0  0.00000000000E+00  0.66613381478E-15  0.00000000000E+00  0.91188000000E+02  0.91188000000E+02 0.  0.
    9900012    2    3    3    0    0  0.39248552016E+01 -0.18314310446E+01  0.36565320250E+02  0.54367064746E+02  0.39999955701E+02 0.  0.
        -12    1    3    3    0    0 -0.39248552016E+01  0.18314310446E+01 -0.36565320250E+02  0.36820935254E+02  0.00000000000E+00 0.  1.
         11    1    4    4    0    0  0.44771340664E-01 -0.77540281423E+01 -0.41270433673E+01  0.87840448610E+01  0.51100000000E-03 0. -1.
        -11    1    4    4    0    0 -0.37551713605E+01 -0.21210772648E+01  0.10779849494E+01  0.44454845093E+01  0.51100000000E-03 0.  1.
         12    1    4    4    0    0  0.76352552215E+01  0.80436743625E+01  0.39614378668E+02  0.41137535375E+02  0.00000000000E+00 0. -1.
</event>
<event>
 8    1  0.2450026E-006  0.9118800E+02  0.7816164E-02  0.1184000E+00
        -11   -1    0    0    0    0  0.00000000000E+00  0.00000000000E+00  0.45593999997E+02  0.45594000000E+02  0.51100000000E-03 0.  1.
         11   -1    0    0    0    0 -0.00000000000E+00 -0.00000000000E+00 -0.45593999997E+02  0.45594000000E+02  0.51100000000E-03 0. -1.
         23    2    1    2    0    0 -0.17763568394E-14  0.17763568394E-14  0.00000000000E+00  0.91188000000E+02  0.91188000000E+02 0.  0.
    9900012    2    3    3    0    0  0.14412420743E+02  0.10487015009E+02  0.32219319491E+02  0.54367083337E+02  0.39999998083E+02 0.  0.
         12    1    3    3    0    0 -0.14412420743E+02 -0.10487015009E+02 -0.32219319491E+02  0.36820916663E+02  0.00000000000E+00 0. -1.
         11    1    4    4    0    0 -0.26187085839E+01  0.61344019620E+01 -0.10591713579E+01  0.67535447215E+01  0.51100000000E-03 0. -1.
        -11    1    4    4    0    0  0.82578265128E+01  0.16649577887E+02  0.14877254424E+02  0.23806151348E+02  0.51100000000E-03 0.  1.
        -12    1    4    4    0    0  0.87733028137E+01 -0.12296964840E+02  0.18401236425E+02  0.23807387268E+02  0.00000000000E+00 0.  1.
</event>
<event>
 8    1  0.2450026E-006  0.9118800E+02  0.7816164E-02  0.1184000E+00
        -11   -1    0    0    0    0  0.00000000000E+00  0.00000000000E+00  0.45593999997E+02  0.45594000000E+02  0.51100000000E-03 0. -1.
         11   -1    0    0    0    0 -0.00000000000E+00 -0.00000000000E+00 -0.45593999997E+02  0.45594000000E+02  0.51100000000E-03 0.  1.
         23    2    1    2    0    0  0.00000000000E+00 -0.88817841970E-15  0.00000000000E+00  0.91188000000E+02  0.91188000000E+02 0.  0.
    9900012    2    3    3    0    0 -0.33032965814E+02 -0.18224767221E+01 -0.16164191559E+02  0.54367090986E+02  0.40000015521E+02 0.  0.
        -12    1    3    3    0    0  0.33032965814E+02  0.18224767221E+01  0.16164191559E+02  0.36820909014E+02  0.00000000000E+00 0.  1.
         11    1    4    4    0    0  0.37549051044E+01 -0.37452902814E+01  0.69670071486E+01  0.87558951858E+01  0.51100000000E-03 0. -1.
        -11    1    4    4    0    0 -0.86350724288E+01  0.62364728454E+01 -0.82736975119E+01  0.13487480869E+02  0.51100000000E-03 0.  1.
         12    1    4    4    0    0 -0.28152798489E+02 -0.43136592861E+01 -0.14857501196E+02  0.32123714932E+02  0.00000000000E+00 0. -1.
</event>
<event>
 8    1  0.2450026E-006  0.9118800E+02  0.7816164E-02  0.1184000E+00
        -11   -1    0    0    0    0  0.00000000000E+00  0.00000000000E+00  0.45593999997E+02  0.45594000000E+02  0.51100000000E-03 0.  1.
         11   -1    0    0    0    0 -0.00000000000E+00 -0.00000000000E+00 -0.45593999997E+02  0.45594000000E+02  0.51100000000E-03 0. -1.
         23    2    1    2    0    0  0.00000000000E+00  0.44408920985E-15  0.00000000000E+00  0.91188000000E+02  0.91188000000E+02 0.  0.
    9900012    2    3    3    0    0 -0.34955502179E+02  0.14124599465E+01  0.11484662111E+02  0.54367086928E+02  0.40000006269E+02 0.  0.
        -12    1    3    3    0    0  0.34955502179E+02 -0.14124599465E+01 -0.11484662111E+02  0.36820913072E+02  0.00000000000E+00 0.  1.
         11    1    4    4    0    0 -0.10036894461E+02 -0.38386192311E-01 -0.81540312883E+01  0.12931703307E+02  0.51100000000E-03 0. -1.
        -11    1    4    4    0    0 -0.26511825154E+02  0.77906337404E+01  0.21063020065E+02  0.34745095504E+02  0.51100000000E-03 0.  1.
        -12    1    4    4    0    0  0.15932174356E+01 -0.63397876016E+01 -0.14243266664E+01  0.66902881165E+01  0.00000000000E+00 0.  1.
</event>
<event>
 8    1  0.2450026E-006  0.9118800E+02  0.7816164E-02  0.1184000E+00
        -11   -1    0    0    0    0  0.00000000000E+00  0.00000000000E+00  0.45593999997E+02  0.45594000000E+02  0.51100000000E-03 0.  1.
         11   -1    0    0    0    0 -0.00000000000E+00 -0.00000000000E+00 -0.45593999997E+02  0.45594000000E+02  0.51100000000E-03 0. -1.
         23    2    1    2    0    0  0.88817841970E-15  0.00000000000E+00 -0.88817841970E-15  0.91188000000E+02  0.91188000000E+02 0.  0.
    9900012    2    3    3    0    0  0.57222395690E+01  0.35858239834E+02 -0.61009894915E+01  0.54367089332E+02  0.40000011750E+02 0.  0.
         12    1    3    3    0    0 -0.57222395690E+01 -0.35858239834E+02  0.61009894915E+01  0.36820910668E+02  0.00000000000E+00 0. -1.
         11    1    4    4    0    0  0.82923250128E+01  0.70427387597E+01 -0.12274057385E+02  0.16401686142E+02  0.51100000000E-03 0. -1.
        -11    1    4    4    0    0  0.26293628578E+01  0.20435895891E+02 -0.67748977055E+01  0.21689597255E+02  0.51100000000E-03 0.  1.
        -12    1    4    4    0    0 -0.51994483017E+01  0.83796051831E+01  0.12947965599E+02  0.16275805935E+02  0.00000000000E+00 0.  1.
</event>
<event>
 8    1  0.2450026E-006  0.9118800E+02  0.7816164E-02  0.1184000E+00
        -11   -1    0    0    0    0  0.00000000000E+00  0.00000000000E+00  0.45593999997E+02  0.45594000000E+02  0.51100000000E-03 0.  1.
         11   -1    0    0    0    0 -0.00000000000E+00 -0.00000000000E+00 -0.45593999997E+02  0.45594000000E+02  0.51100000000E-03 0. -1.
         23    2    1    2    0    0  0.00000000000E+00  0.00000000000E+00  0.00000000000E+00  0.91188000000E+02  0.91188000000E+02 0.  0.
    9900012    2    3    3    0    0  0.58431916368E+01 -0.32784472637E+02 -0.15710364061E+02  0.54367081034E+02  0.39999992833E+02 0.  0.
        -12    1    3    3    0    0 -0.58431916368E+01  0.32784472637E+02  0.15710364061E+02  0.36820918966E+02  0.00000000000E+00 0.  1.
         11    1    4    4    0    0  0.10544363827E+02 -0.67393316537E+01 -0.11734194558E+02  0.17154985335E+02  0.51100000000E-03 0. -1.
        -11    1    4    4    0    0  0.16259864599E+01 -0.29504425140E+02 -0.14982342817E+01  0.29587153311E+02  0.51100000000E-03 0.  1.
        -12    1    4    4    0    0 -0.63271586505E+01  0.34592841563E+01 -0.24779352212E+01  0.76249423882E+01  0.00000000000E+00 0.  1.
</event>
<event>
 8    1  0.2450026E-006  0.9118800E+02  0.7816164E-02  0.1184000E+00
        -11   -1    0    0    0    0  0.00000000000E+00  0.00000000000E+00  0.45593999997E+02  0.45594000000E+02  0.51100000000E-03 0.  1.
         11   -1    0    0    0    0 -0.00000000000E+00 -0.00000000000E+00 -0.45593999997E+02  0.45594000000E+02  0.51100000000E-03 0. -1.
         23    2    1    2    0    0 -0.71054273576E-14  0.00000000000E+00  0.00000000000E+00  0.91188000000E+02  0.91188000000E+02 0.  0.
    9900012    2    3    3    0    0 -0.32859527166E+02 -0.10390154475E+02  0.12964472451E+02  0.54367063272E+02  0.39999952342E+02 0.  0.
         12    1    3    3    0    0  0.32859527166E+02  0.10390154475E+02 -0.12964472451E+02  0.36820936728E+02  0.00000000000E+00 0. -1.
         11    1    4    4    0    0 -0.20050290971E+02  0.49949094792E+01  0.14877558651E+02  0.25461834977E+02  0.51100000000E-03 0. -1.
        -11    1    4    4    0    0  0.21418802795E+00 -0.23715816821E+01  0.77535005040E+01  0.81109214342E+01  0.51100000000E-03 0.  1.
        -12    1    4    4    0    0 -0.13023424223E+02 -0.13013482272E+02 -0.96665867042E+01  0.20794306861E+02  0.00000000000E+00 0.  1.
</event>
<event>
 8    1  0.2450026E-006  0.9118800E+02  0.7816164E-02  0.1184000E+00
        -11   -1    0    0    0    0  0.00000000000E+00  0.00000000000E+00  0.45593999997E+02  0.45594000000E+02  0.51100000000E-03 0.  1.
         11   -1    0    0    0    0 -0.00000000000E+00 -0.00000000000E+00 -0.45593999997E+02  0.45594000000E+02  0.51100000000E-03 0. -1.
         23    2    1    2    0    0 -0.35527136788E-14  0.00000000000E+00  0.00000000000E+00  0.91188000000E+02  0.91188000000E+02 0.  0.
    9900012    2    3    3    0    0 -0.31456489032E+02 -0.66912336867E+01 -0.17930313408E+02  0.54367089509E+02  0.40000012154E+02 0.  0.
        -12    1    3    3    0    0  0.31456489032E+02  0.66912336867E+01  0.17930313408E+02  0.36820910491E+02  0.00000000000E+00 0.  1.
         11    1    4    4    0    0 -0.30542012098E+01  0.11328489983E+02  0.25942927004E+00  0.11735848249E+02  0.51100000000E-03 0.  1.
        -11    1    4    4    0    0 -0.58877682609E+01 -0.33258812839E+01 -0.13830255262E+02  0.15394910272E+02  0.51100000000E-03 0. -1.
        -12    1    4    4    0    0 -0.22514519562E+02 -0.14693842386E+02 -0.43594874158E+01  0.27236330988E+02  0.00000000000E+00 0.  1.
</event>
<event>
 8    1  0.2450026E-006  0.9118800E+02  0.7816164E-02  0.1184000E+00
        -11   -1    0    0    0    0  0.00000000000E+00  0.00000000000E+00  0.45593999997E+02  0.45594000000E+02  0.51100000000E-03 0.  1.
         11   -1    0    0    0    0 -0.00000000000E+00 -0.00000000000E+00 -0.45593999997E+02  0.45594000000E+02  0.51100000000E-03 0. -1.
         23    2    1    2    0    0  0.00000000000E+00  0.00000000000E+00  0.00000000000E+00  0.91188000000E+02  0.91188000000E+02 0.  0.
    9900012    2    3    3    0    0 -0.25148593866E+02  0.16876249149E+02 -0.20940898465E+02  0.54367071341E+02  0.39999970736E+02 0.  0.
        -12    1    3    3    0    0  0.25148593866E+02 -0.16876249149E+02  0.20940898465E+02  0.36820928659E+02  0.00000000000E+00 0.  1.
         11    1    4    4    0    0  0.53636931996E+01  0.23162124756E+01 -0.82234711210E+01  0.10087592503E+02  0.51100000000E-03 0. -1.
        -11    1    4    4    0    0 -0.15979059345E+02  0.13593703639E+02  0.47763757607E+01  0.21515875112E+02  0.51100000000E-03 0.  1.
         12    1    4    4    0    0 -0.14533227721E+02  0.96633303453E+00 -0.17493803104E+02  0.22763603726E+02  0.00000000000E+00 0. -1.
</event>
<event>
 8    1  0.2450026E-006  0.9118800E+02  0.7816164E-02  0.1184000E+00
        -11   -1    0    0    0    0  0.00000000000E+00  0.00000000000E+00  0.45593999997E+02  0.45594000000E+02  0.51100000000E-03 0.  1.
         11   -1    0    0    0    0 -0.00000000000E+00 -0.00000000000E+00 -0.45593999997E+02  0.45594000000E+02  0.51100000000E-03 0. -1.
         23    2    1    2    0    0 -0.35527136788E-14  0.35527136788E-14 -0.44408920985E-15  0.91188000000E+02  0.91188000000E+02 0.  0.
    9900012    2    3    3    0    0  0.31936293806E+02 -0.18168221566E+02 -0.24018510765E+01  0.54367081685E+02  0.39999994317E+02 0.  0.
         12    1    3    3    0    0 -0.31936293806E+02  0.18168221566E+02  0.24018510765E+01  0.36820918315E+02  0.00000000000E+00 0. -1.
         11    1    4    4    0    0 -0.26300937950E+01  0.47111659974E+01  0.11536814339E+01  0.55175592010E+01  0.51100000000E-03 0. -1.
        -11    1    4    4    0    0  0.26283819831E+02 -0.16039793827E+02 -0.14038226896E+02  0.33840596708E+02  0.51100000000E-03 0.  1.
        -12    1    4    4    0    0  0.82825677703E+01 -0.68395937364E+01  0.10482694386E+02  0.15008925776E+02  0.00000000000E+00 0.  1.
</event>
<event>
 8    1  0.2450026E-006  0.9118800E+02  0.7816164E-02  0.1184000E+00
        -11   -1    0    0    0    0  0.00000000000E+00  0.00000000000E+00  0.45593999997E+02  0.45594000000E+02  0.51100000000E-03 0.  1.
         11   -1    0    0    0    0 -0.00000000000E+00 -0.00000000000E+00 -0.45593999997E+02  0.45594000000E+02  0.51100000000E-03 0. -1.
         23    2    1    2    0    0 -0.35527136788E-14  0.00000000000E+00  0.17763568394E-14  0.91188000000E+02  0.91188000000E+02 0.  0.
    9900012    2    3    3    0    0 -0.24526634689E+02 -0.24981936077E+02  0.11407220820E+02  0.54367114268E+02  0.40000068596E+02 0.  0.
         12    1    3    3    0    0  0.24526634689E+02  0.24981936077E+02 -0.11407220820E+02  0.36820885732E+02  0.00000000000E+00 0. -1.
         11    1    4    4    0    0 -0.55262490543E+01  0.92421148332E+01  0.66899327080E+01  0.12677196658E+02  0.51100000000E-03 0. -1.
        -11    1    4    4    0    0 -0.96293701559E+01 -0.26380969035E+02  0.76823794671E+01  0.29115275224E+02  0.51100000000E-03 0.  1.
         12    1    4    4    0    0 -0.93710154784E+01 -0.78430818745E+01 -0.29650913551E+01  0.12574642386E+02  0.00000000000E+00 0. -1.
</event>
<event>
 8    1  0.2450026E-006  0.9118800E+02  0.7816164E-02  0.1184000E+00
        -11   -1    0    0    0    0  0.00000000000E+00  0.00000000000E+00  0.45593999997E+02  0.45594000000E+02  0.51100000000E-03 0.  1.
         11   -1    0    0    0    0 -0.00000000000E+00 -0.00000000000E+00 -0.45593999997E+02  0.45594000000E+02  0.51100000000E-03 0. -1.
         23    2    1    2    0    0  0.35527136788E-14 -0.35527136788E-14  0.35527136788E-14  0.91188000000E+02  0.91188000000E+02 0.  0.
    9900012    2    3    3    0    0 -0.17009809715E+02  0.26850200218E+02 -0.18587949473E+02  0.54367099089E+02  0.40000033993E+02 0.  0.
        -12    1    3    3    0    0  0.17009809715E+02 -0.26850200218E+02  0.18587949473E+02  0.36820900911E+02  0.00000000000E+00 0.  1.
         11    1    4    4    0    0 -0.59429840427E+01  0.24698602512E+01 -0.13009454524E+02  0.14514309362E+02  0.51100000000E-03 0. -1.
        -11    1    4    4    0    0  0.43977248264E+01  0.17468712669E-01  0.70857395916E+01  0.83395440298E+01  0.51100000000E-03 0.  1.
        -12    1    4    4    0    0 -0.15464550498E+02  0.24362871254E+02 -0.12664234540E+02  0.31513245697E+02  0.00000000000E+00 0.  1.
</event>
<event>
 8    1  0.2450026E-006  0.9118800E+02  0.7816164E-02  0.1184000E+00
        -11   -1    0    0    0    0  0.00000000000E+00  0.00000000000E+00  0.45593999997E+02  0.45594000000E+02  0.51100000000E-03 0. -1.
         11   -1    0    0    0    0 -0.00000000000E+00 -0.00000000000E+00 -0.45593999997E+02  0.45594000000E+02  0.51100000000E-03 0.  1.
         23    2    1    2    0    0 -0.22204460493E-15  0.00000000000E+00  0.00000000000E+00  0.91188000000E+02  0.91188000000E+02 0.  0.
    9900012    2    3    3    0    0  0.59911452720E+00 -0.30817960872E+02  0.20141375071E+02  0.54367073338E+02  0.39999975289E+02 0.  0.
         12    1    3    3    0    0 -0.59911452720E+00  0.30817960872E+02 -0.20141375071E+02  0.36820926662E+02  0.00000000000E+00 0. -1.
         11    1    4    4    0    0 -0.61790888418E+01 -0.68862958198E+01 -0.19475391528E+01  0.94548991558E+01  0.51100000000E-03 0. -1.
        -11    1    4    4    0    0 -0.10601693365E+02 -0.55350313222E+01  0.10580380776E+01  0.12006328280E+02  0.51100000000E-03 0.  1.
         12    1    4    4    0    0  0.17379896734E+02 -0.18396633730E+02  0.21030876146E+02  0.32905845902E+02  0.00000000000E+00 0. -1.
</event>
<event>
 8    1  0.2450026E-006  0.9118800E+02  0.7816164E-02  0.1184000E+00
        -11   -1    0    0    0    0  0.00000000000E+00  0.00000000000E+00  0.45593999997E+02  0.45594000000E+02  0.51100000000E-03 0. -1.
         11   -1    0    0    0    0 -0.00000000000E+00 -0.00000000000E+00 -0.45593999997E+02  0.45594000000E+02  0.51100000000E-03 0.  1.
         23    2    1    2    0    0  0.00000000000E+00  0.00000000000E+00  0.35527136788E-14  0.91188000000E+02  0.91188000000E+02 0.  0.
    9900012    2    3    3    0    0  0.27050916381E+02  0.23116346384E+01 -0.24873522663E+02  0.54366975280E+02  0.39999751744E+02 0.  0.
         12    1    3    3    0    0 -0.27050916381E+02 -0.23116346384E+01  0.24873522663E+02  0.36821024720E+02  0.00000000000E+00 0. -1.
         11    1    4    4    0    0 -0.17052799945E+01  0.20026730145E+01  0.51297519135E+01  0.57648099724E+01  0.51100000000E-03 0. -1.
        -11    1    4    4    0    0  0.19296960358E+02 -0.39679813190E+01 -0.32426399847E+02  0.37941915636E+02  0.51100000000E-03 0.  1.
        -12    1    4    4    0    0  0.94592360177E+01  0.42769429428E+01  0.24231252704E+01  0.10660249671E+02  0.00000000000E+00 0.  1.
</event>
<event>
 8    1  0.2450026E-006  0.9118800E+02  0.7816164E-02  0.1184000E+00
        -11   -1    0    0    0    0  0.00000000000E+00  0.00000000000E+00  0.45593999997E+02  0.45594000000E+02  0.51100000000E-03 0.  1.
         11   -1    0    0    0    0 -0.00000000000E+00 -0.00000000000E+00 -0.45593999997E+02  0.45594000000E+02  0.51100000000E-03 0. -1.
         23    2    1    2    0    0  0.00000000000E+00  0.17763568394E-14  0.00000000000E+00  0.91188000000E+02  0.91188000000E+02 0.  0.
    9900012    2    3    3    0    0  0.29972022984E+02  0.59835161622E+01 -0.20534214221E+02  0.54367101300E+02  0.40000039033E+02 0.  0.
        -12    1    3    3    0    0 -0.29972022984E+02 -0.59835161622E+01  0.20534214221E+02  0.36820898700E+02  0.00000000000E+00 0.  1.
         11    1    4    4    0    0  0.11765766391E+02  0.19161479933E+02 -0.11843385998E+02  0.25413802631E+02  0.51100000000E-03 0.  1.
        -11    1    4    4    0    0  0.15442257182E+02 -0.21958723122E+01 -0.81913791109E+01  0.17617714213E+02  0.51100000000E-03 0. -1.
        -12    1    4    4    0    0  0.27639994110E+01 -0.10982091459E+02 -0.49944911305E+00  0.11335584457E+02  0.00000000000E+00 0.  1.
</event>
<event>
 8    1  0.2450026E-006  0.9118800E+02  0.7816164E-02  0.1184000E+00
        -11   -1    0    0    0    0  0.00000000000E+00  0.00000000000E+00  0.45593999997E+02  0.45594000000E+02  0.51100000000E-03 0.  1.
         11   -1    0    0    0    0 -0.00000000000E+00 -0.00000000000E+00 -0.45593999997E+02  0.45594000000E+02  0.51100000000E-03 0. -1.
         23    2    1    2    0    0  0.35527136788E-14  0.00000000000E+00  0.11102230246E-14  0.91188000000E+02  0.91188000000E+02 0.  0.
    9900012    2    3    3    0    0 -0.31211193875E+02  0.19446037919E+02  0.18688504899E+01  0.54367087246E+02  0.40000006996E+02 0.  0.
         12    1    3    3    0    0  0.31211193875E+02 -0.19446037919E+02 -0.18688504899E+01  0.36820912754E+02  0.00000000000E+00 0. -1.
         11    1    4    4    0    0  0.75729007903E+00 -0.59119564412E+01  0.95613156139E+01  0.11266919444E+02  0.51100000000E-03 0. -1.
        -11    1    4    4    0    0 -0.16429802814E+02  0.10163362913E+02  0.17625036667E+01  0.19399453231E+02  0.51100000000E-03 0.  1.
         12    1    4    4    0    0 -0.15538681140E+02  0.15194631447E+02 -0.94549687907E+01  0.23700714572E+02  0.00000000000E+00 0. -1.
</event>
<event>
 8    1  0.2450026E-006  0.9118800E+02  0.7816164E-02  0.1184000E+00
        -11   -1    0    0    0    0  0.00000000000E+00  0.00000000000E+00  0.45593999997E+02  0.45594000000E+02  0.51100000000E-03 0. -1.
         11   -1    0    0    0    0 -0.00000000000E+00 -0.00000000000E+00 -0.45593999997E+02  0.45594000000E+02  0.51100000000E-03 0.  1.
         23    2    1    2    0    0 -0.26645352591E-14  0.00000000000E+00  0.00000000000E+00  0.91188000000E+02  0.91188000000E+02 0.  0.
    9900012    2    3    3    0    0 -0.63576006823E+01 -0.15199731162E+02 -0.32929142539E+02  0.54367090965E+02  0.40000015472E+02 0.  0.
         12    1    3    3    0    0  0.63576006823E+01  0.15199731162E+02  0.32929142539E+02  0.36820909035E+02  0.00000000000E+00 0. -1.
         11    1    4    4    0    0 -0.22257169862E+02 -0.44273344132E+01 -0.19850367858E+02  0.30149958617E+02  0.51100000000E-03 0. -1.
        -11    1    4    4    0    0  0.63576907104E+01 -0.69248451947E+01 -0.31374764913E+01  0.99104728007E+01  0.51100000000E-03 0.  1.
        -12    1    4    4    0    0  0.95418784690E+01 -0.38475515537E+01 -0.99412981898E+01  0.14306659546E+02  0.00000000000E+00 0.  1.
</event>
<event>
 8    1  0.2450026E-006  0.9118800E+02  0.7816164E-02  0.1184000E+00
        -11   -1    0    0    0    0  0.00000000000E+00  0.00000000000E+00  0.45593999997E+02  0.45594000000E+02  0.51100000000E-03 0.  1.
         11   -1    0    0    0    0 -0.00000000000E+00 -0.00000000000E+00 -0.45593999997E+02  0.45594000000E+02  0.51100000000E-03 0. -1.
         23    2    1    2    0    0  0.00000000000E+00  0.44408920985E-15  0.00000000000E+00  0.91188000000E+02  0.91188000000E+02 0.  0.
    9900012    2    3    3    0    0 -0.18417736315E+02  0.75931522572E+00 -0.31874542588E+02  0.54367135864E+02  0.40000117828E+02 0.  0.
        -12    1    3    3    0    0  0.18417736315E+02 -0.75931522572E+00  0.31874542588E+02  0.36820864136E+02  0.00000000000E+00 0.  1.
         11    1    4    4    0    0 -0.54157740414E+01 -0.15220248363E+01 -0.30554864642E+02  0.31068423224E+02  0.51100000000E-03 0. -1.
        -11    1    4    4    0    0 -0.13299408903E+02 -0.62709262180E+01 -0.79110895764E+00  0.14724966772E+02  0.51100000000E-03 0.  1.
         12    1    4    4    0    0  0.29744662905E+00  0.85522662800E+01 -0.52856898762E+00  0.85737458672E+01  0.00000000000E+00 0. -1.
</event>
<event>
 8    1  0.2450026E-006  0.9118800E+02  0.7816164E-02  0.1184000E+00
        -11   -1    0    0    0    0  0.00000000000E+00  0.00000000000E+00  0.45593999997E+02  0.45594000000E+02  0.51100000000E-03 0.  1.
         11   -1    0    0    0    0 -0.00000000000E+00 -0.00000000000E+00 -0.45593999997E+02  0.45594000000E+02  0.51100000000E-03 0. -1.
         23    2    1    2    0    0  0.13322676296E-14 -0.71054273576E-14  0.88817841970E-15  0.91188000000E+02  0.91188000000E+02 0.  0.
    9900012    2    3    3    0    0 -0.39206446865E+01  0.36334996929E+02  0.44918241652E+01  0.54367082834E+02  0.39999996937E+02 0.  0.
         12    1    3    3    0    0  0.39206446865E+01 -0.36334996929E+02 -0.44918241652E+01  0.36820917166E+02  0.00000000000E+00 0. -1.
         11    1    4    4    0    0 -0.25025759420E+01  0.31814162866E+00 -0.40825896760E+01  0.47991290007E+01  0.51100000000E-03 0. -1.
        -11    1    4    4    0    0  0.10209768213E+02  0.35759165220E+02  0.63460388983E+01  0.37725713700E+02  0.51100000000E-03 0.  1.
        -12    1    4    4    0    0 -0.11627836958E+02  0.25769008091E+00  0.22283749428E+01  0.11842240134E+02  0.00000000000E+00 0.  1.
</event>
<event>
 8    1  0.2450026E-006  0.9118800E+02  0.7816164E-02  0.1184000E+00
        -11   -1    0    0    0    0  0.00000000000E+00  0.00000000000E+00  0.45593999997E+02  0.45594000000E+02  0.51100000000E-03 0.  1.
         11   -1    0    0    0    0 -0.00000000000E+00 -0.00000000000E+00 -0.45593999997E+02  0.45594000000E+02  0.51100000000E-03 0. -1.
         23    2    1    2    0    0 -0.17763568394E-14 -0.71054273576E-14 -0.17763568394E-14  0.91188000000E+02  0.91188000000E+02 0.  0.
    9900012    2    3    3    0    0  0.12481031434E+02  0.32809118243E+02  0.11115933224E+02  0.54367104343E+02  0.40000045970E+02 0.  0.
         12    1    3    3    0    0 -0.12481031434E+02 -0.32809118243E+02 -0.11115933224E+02  0.36820895657E+02  0.00000000000E+00 0. -1.
         11    1    4    4    0    0 -0.40115667804E+01  0.83261580138E+00 -0.70369808401E+01  0.81427892464E+01  0.51100000000E-03 0. -1.
        -11    1    4    4    0    0  0.14149501892E+02  0.35008144069E+02  0.13282814587E+02  0.40027636934E+02  0.51100000000E-03 0.  1.
        -12    1    4    4    0    0  0.23430963225E+01 -0.30316416268E+01  0.48700994769E+01  0.61966781621E+01  0.00000000000E+00 0.  1.
</event>
<event>
 8    1  0.2450026E-006  0.9118800E+02  0.7816164E-02  0.1184000E+00
        -11   -1    0    0    0    0  0.00000000000E+00  0.00000000000E+00  0.45593999997E+02  0.45594000000E+02  0.51100000000E-03 0. -1.
         11   -1    0    0    0    0 -0.00000000000E+00 -0.00000000000E+00 -0.45593999997E+02  0.45594000000E+02  0.51100000000E-03 0.  1.
         23    2    1    2    0    0 -0.35527136788E-14  0.44408920985E-15  0.00000000000E+00  0.91188000000E+02  0.91188000000E+02 0.  0.
    9900012    2    3    3    0    0  0.31702659827E+02  0.21651243562E+01 -0.18601945489E+02  0.54367098604E+02  0.40000032888E+02 0.  0.
         12    1    3    3    0    0 -0.31702659827E+02 -0.21651243562E+01  0.18601945489E+02  0.36820901396E+02  0.00000000000E+00 0. -1.
         11    1    4    4    0    0  0.20439214213E+02  0.46488980920E+01  0.41674604094E+01  0.21371510420E+02  0.51100000000E-03 0. -1.
        -11    1    4    4    0    0  0.30562979716E+01 -0.11370141959E+02 -0.11707180973E+02  0.16603589132E+02  0.51100000000E-03 0.  1.
        -12    1    4    4    0    0  0.82071476426E+01  0.88863682232E+01 -0.11062224925E+02  0.16391999052E+02  0.00000000000E+00 0.  1.
</event>
<event>
 8    1  0.2450026E-006  0.9118800E+02  0.7816164E-02  0.1184000E+00
        -11   -1    0    0    0    0  0.00000000000E+00  0.00000000000E+00  0.45593999997E+02  0.45594000000E+02  0.51100000000E-03 0. -1.
         11   -1    0    0    0    0 -0.00000000000E+00 -0.00000000000E+00 -0.45593999997E+02  0.45594000000E+02  0.51100000000E-03 0.  1.
         23    2    1    2    0    0 -0.35527136788E-14  0.17763568394E-14  0.35527136788E-14  0.91188000000E+02  0.91188000000E+02 0.  0.
    9900012    2    3    3    0    0  0.19520968615E+02  0.94825237208E+01  0.29745471887E+02  0.54367087877E+02  0.40000008434E+02 0.  0.
        -12    1    3    3    0    0 -0.19520968615E+02 -0.94825237208E+01 -0.29745471887E+02  0.36820912123E+02  0.00000000000E+00 0.  1.
         11    1    4    4    0    0  0.14684175831E+02  0.95496424052E+01  0.35500257650E+02  0.39586474753E+02  0.51100000000E-03 0. -1.
        -11    1    4    4    0    0  0.46701649956E-02  0.39000923295E+01  0.23432947644E+01  0.45499200655E+01  0.51100000000E-03 0.  1.
        -12    1    4    4    0    0  0.48321226192E+01 -0.39672110138E+01 -0.80980805273E+01  0.10230693059E+02  0.00000000000E+00 0.  1.
</event>
<event>
 8    1  0.2450026E-006  0.9118800E+02  0.7816164E-02  0.1184000E+00
        -11   -1    0    0    0    0  0.00000000000E+00  0.00000000000E+00  0.45593999997E+02  0.45594000000E+02  0.51100000000E-03 0. -1.
         11   -1    0    0    0    0 -0.00000000000E+00 -0.00000000000E+00 -0.45593999997E+02  0.45594000000E+02  0.51100000000E-03 0.  1.
         23    2    1    2    0    0 -0.22204460493E-15  0.00000000000E+00  0.35527136788E-14  0.91188000000E+02  0.91188000000E+02 0.  0.
    9900012    2    3    3    0    0 -0.81398199557E+00 -0.25074757095E+02 -0.26951326364E+02  0.54367081994E+02  0.39999995021E+02 0.  0.
         12    1    3    3    0    0  0.81398199557E+00  0.25074757095E+02  0.26951326364E+02  0.36820918006E+02  0.00000000000E+00 0. -1.
         11    1    4    4    0    0  0.26201829037E+01 -0.25549429573E+01  0.56052818441E+01  0.66941972466E+01  0.51100000000E-03 0. -1.
        -11    1    4    4    0    0 -0.74578905405E+01 -0.17842106061E+02 -0.57637704819E+01  0.20178749476E+02  0.51100000000E-03 0.  1.
        -12    1    4    4    0    0  0.40237256413E+01 -0.46777080766E+01 -0.26792837726E+02  0.27494135271E+02  0.00000000000E+00 0.  1.
</event>
<event>
 8    1  0.2450026E-006  0.9118800E+02  0.7816164E-02  0.1184000E+00
        -11   -1    0    0    0    0  0.00000000000E+00  0.00000000000E+00  0.45593999997E+02  0.45594000000E+02  0.51100000000E-03 0. -1.
         11   -1    0    0    0    0 -0.00000000000E+00 -0.00000000000E+00 -0.45593999997E+02  0.45594000000E+02  0.51100000000E-03 0.  1.
         23    2    1    2    0    0  0.00000000000E+00  0.00000000000E+00  0.00000000000E+00  0.91188000000E+02  0.91188000000E+02 0.  0.
    9900012    2    3    3    0    0 -0.15317180017E+02  0.19180733550E+02 -0.27445639210E+02  0.54367086719E+02  0.40000005794E+02 0.  0.
        -12    1    3    3    0    0  0.15317180017E+02 -0.19180733550E+02  0.27445639210E+02  0.36820913281E+02  0.00000000000E+00 0.  1.
         11    1    4    4    0    0 -0.12247892961E+02  0.26933402854E+02 -0.16718563304E+02  0.33984252684E+02  0.51100000000E-03 0. -1.
        -11    1    4    4    0    0  0.36691958753E+01 -0.35642871577E+01 -0.11324549375E+02  0.12426285049E+02  0.51100000000E-03 0.  1.
         12    1    4    4    0    0 -0.67384829315E+01 -0.41883821465E+01  0.59747346957E+00  0.79565489862E+01  0.00000000000E+00 0. -1.
</event>
<event>
 8    1  0.2450026E-006  0.9118800E+02  0.7816164E-02  0.1184000E+00
        -11   -1    0    0    0    0  0.00000000000E+00  0.00000000000E+00  0.45593999997E+02  0.45594000000E+02  0.51100000000E-03 0.  1.
         11   -1    0    0    0    0 -0.00000000000E+00 -0.00000000000E+00 -0.45593999997E+02  0.45594000000E+02  0.51100000000E-03 0. -1.
         23    2    1    2    0    0  0.88817841970E-15  0.00000000000E+00 -0.17763568394E-14  0.91188000000E+02  0.91188000000E+02 0.  0.
    9900012    2    3    3    0    0 -0.54524119415E+01  0.36268986893E+02  0.32576459858E+01  0.54367075737E+02  0.39999980757E+02 0.  0.
         12    1    3    3    0    0  0.54524119415E+01 -0.36268986893E+02 -0.32576459858E+01  0.36820924263E+02  0.00000000000E+00 0. -1.
         11    1    4    4    0    0  0.69695558435E+01  0.12639812670E+00 -0.60320227668E+01  0.92182419182E+01  0.51100000000E-03 0. -1.
        -11    1    4    4    0    0 -0.11611569518E+02  0.18063128280E+02 -0.50495449237E+01  0.22059080990E+02  0.51100000000E-03 0.  1.
        -12    1    4    4    0    0 -0.81039826739E+00  0.18079460487E+02  0.14339213676E+02  0.23089752829E+02  0.00000000000E+00 0.  1.
</event>
<event>
 8    1  0.2450026E-006  0.9118800E+02  0.7816164E-02  0.1184000E+00
        -11   -1    0    0    0    0  0.00000000000E+00  0.00000000000E+00  0.45593999997E+02  0.45594000000E+02  0.51100000000E-03 0.  1.
         11   -1    0    0    0    0 -0.00000000000E+00 -0.00000000000E+00 -0.45593999997E+02  0.45594000000E+02  0.51100000000E-03 0. -1.
         23    2    1    2    0    0  0.00000000000E+00 -0.35527136788E-14 -0.17763568394E-14  0.91188000000E+02  0.91188000000E+02 0.  0.
    9900012    2    3    3    0    0 -0.20997974008E+02  0.26423213620E+02 -0.14720048523E+02  0.54367069010E+02  0.39999965421E+02 0.  0.
        -12    1    3    3    0    0  0.20997974008E+02 -0.26423213620E+02  0.14720048523E+02  0.36820930990E+02  0.00000000000E+00 0.  1.
         11    1    4    4    0    0 -0.79682713310E+01 -0.48505721566E+01 -0.90424319605E+01  0.12991804119E+02  0.51100000000E-03 0. -1.
        -11    1    4    4    0    0 -0.10403702549E+02  0.10582071999E+01  0.30294953095E+00  0.10461768870E+02  0.51100000000E-03 0.  1.
        -12    1    4    4    0    0 -0.26260001287E+01  0.30215578577E+02 -0.59805660933E+01  0.30913496021E+02  0.00000000000E+00 0.  1.
</event>
<event>
 8    1  0.2450026E-006  0.9118800E+02  0.7816164E-02  0.1184000E+00
        -11   -1    0    0    0    0  0.00000000000E+00  0.00000000000E+00  0.45593999997E+02  0.45594000000E+02  0.51100000000E-03 0.  1.
         11   -1    0    0    0    0 -0.00000000000E+00 -0.00000000000E+00 -0.45593999997E+02  0.45594000000E+02  0.51100000000E-03 0. -1.
         23    2    1    2    0    0  0.00000000000E+00  0.00000000000E+00  0.17763568394E-14  0.91188000000E+02  0.91188000000E+02 0.  0.
    9900012    2    3    3    0    0  0.31785385822E+02  0.10423115640E+02 -0.15389200759E+02  0.54367087579E+02  0.40000007754E+02 0.  0.
        -12    1    3    3    0    0 -0.31785385822E+02 -0.10423115640E+02  0.15389200759E+02  0.36820912421E+02  0.00000000000E+00 0.  1.
         11    1    4    4    0    0  0.28583546679E+02  0.15603532161E+02 -0.77681259310E+01  0.33478846118E+02  0.51100000000E-03 0. -1.
        -11    1    4    4    0    0  0.10780248111E+02 -0.15593096770E+01 -0.56078020310E+01  0.12251230137E+02  0.51100000000E-03 0.  1.
        -12    1    4    4    0    0 -0.75784089672E+01 -0.36211068442E+01 -0.20132727975E+01  0.86370113239E+01  0.00000000000E+00 0.  1.
</event>
<event>
 8    1  0.2450026E-006  0.9118800E+02  0.7816164E-02  0.1184000E+00
        -11   -1    0    0    0    0  0.00000000000E+00  0.00000000000E+00  0.45593999997E+02  0.45594000000E+02  0.51100000000E-03 0.  1.
         11   -1    0    0    0    0 -0.00000000000E+00 -0.00000000000E+00 -0.45593999997E+02  0.45594000000E+02  0.51100000000E-03 0. -1.
         23    2    1    2    0    0  0.27755575616E-15 -0.17763568394E-14  0.00000000000E+00  0.91188000000E+02  0.91188000000E+02 0.  0.
    9900012    2    3    3    0    0  0.49274460742E+00  0.67386931804E+01  0.36195657321E+02  0.54367103868E+02  0.40000044889E+02 0.  0.
         12    1    3    3    0    0 -0.49274460742E+00 -0.67386931804E+01 -0.36195657321E+02  0.36820896132E+02  0.00000000000E+00 0. -1.
         11    1    4    4    0    0  0.44654584639E+01  0.28838715691E+00 -0.67635961236E+00  0.45255882525E+01  0.51100000000E-03 0. -1.
        -11    1    4    4    0    0  0.76573192153E+01 -0.10487956594E+02  0.14609923684E+02  0.19546908742E+02  0.51100000000E-03 0.  1.
         12    1    4    4    0    0 -0.11630033072E+02  0.16938262617E+02  0.22262093250E+02  0.30294606873E+02  0.00000000000E+00 0. -1.
</event>
<event>
 8    1  0.2450026E-006  0.9118800E+02  0.7816164E-02  0.1184000E+00
        -11   -1    0    0    0    0  0.00000000000E+00  0.00000000000E+00  0.45593999997E+02  0.45594000000E+02  0.51100000000E-03 0. -1.
         11   -1    0    0    0    0 -0.00000000000E+00 -0.00000000000E+00 -0.45593999997E+02  0.45594000000E+02  0.51100000000E-03 0.  1.
         23    2    1    2    0    0  0.00000000000E+00 -0.17763568394E-14  0.00000000000E+00  0.91188000000E+02  0.91188000000E+02 0.  0.
    9900012    2    3    3    0    0 -0.25090471600E+02  0.14009236704E+02 -0.23021502071E+02  0.54367081547E+02  0.39999994002E+02 0.  0.
         12    1    3    3    0    0  0.25090471600E+02 -0.14009236704E+02  0.23021502071E+02  0.36820918453E+02  0.00000000000E+00 0. -1.
         11    1    4    4    0    0  0.40662297414E+00  0.24315553862E+01  0.98208598778E+01  0.10125566297E+02  0.51100000000E-03 0. -1.
        -11    1    4    4    0    0  0.19621610288E+00  0.23218767245E+00 -0.38980815531E+01  0.39099171257E+01  0.51100000000E-03 0.  1.
        -12    1    4    4    0    0 -0.25693310677E+02  0.11345493646E+02 -0.28944280396E+02  0.40331598124E+02  0.00000000000E+00 0.  1.
</event>
<event>
 8    1  0.2450026E-006  0.9118800E+02  0.7816164E-02  0.1184000E+00
        -11   -1    0    0    0    0  0.00000000000E+00  0.00000000000E+00  0.45593999997E+02  0.45594000000E+02  0.51100000000E-03 0.  1.
         11   -1    0    0    0    0 -0.00000000000E+00 -0.00000000000E+00 -0.45593999997E+02  0.45594000000E+02  0.51100000000E-03 0. -1.
         23    2    1    2    0    0  0.00000000000E+00  0.00000000000E+00  0.00000000000E+00  0.91188000000E+02  0.91188000000E+02 0.  0.
    9900012    2    3    3    0    0  0.26302539177E+02  0.25065924541E+02  0.59712506822E+01  0.54367082372E+02  0.39999995883E+02 0.  0.
        -12    1    3    3    0    0 -0.26302539177E+02 -0.25065924541E+02 -0.59712506822E+01  0.36820917628E+02  0.00000000000E+00 0.  1.
         11    1    4    4    0    0  0.26015560932E+02  0.14063758501E+02 -0.25576834804E+01  0.29684010154E+02  0.51100000000E-03 0. -1.
        -11    1    4    4    0    0 -0.81450286800E+01  0.11457495569E+02  0.24287301869E+01  0.14265848292E+02  0.51100000000E-03 0.  1.
        -12    1    4    4    0    0  0.84320069251E+01 -0.45532952916E+00  0.61002039757E+01  0.10417223925E+02  0.00000000000E+00 0.  1.
</event>
<event>
 8    1  0.2450026E-006  0.9118800E+02  0.7816164E-02  0.1184000E+00
        -11   -1    0    0    0    0  0.00000000000E+00  0.00000000000E+00  0.45593999997E+02  0.45594000000E+02  0.51100000000E-03 0.  1.
         11   -1    0    0    0    0 -0.00000000000E+00 -0.00000000000E+00 -0.45593999997E+02  0.45594000000E+02  0.51100000000E-03 0. -1.
         23    2    1    2    0    0  0.00000000000E+00  0.17763568394E-14  0.00000000000E+00  0.91188000000E+02  0.91188000000E+02 0.  0.
    9900012    2    3    3    0    0  0.24686530088E+02  0.15689902778E+02  0.22364773257E+02  0.54367069813E+02  0.39999967254E+02 0.  0.
         12    1    3    3    0    0 -0.24686530088E+02 -0.15689902778E+02 -0.22364773257E+02  0.36820930187E+02  0.00000000000E+00 0. -1.
         11    1    4    4    0    0  0.22295797891E+02  0.83626072073E+01  0.93227168698E+01  0.25572423682E+02  0.51100000000E-03 0. -1.
        -11    1    4    4    0    0  0.16764508558E+01  0.15094382114E+02  0.14340068705E+02  0.20887518512E+02  0.51100000000E-03 0.  1.
         12    1    4    4    0    0  0.71428134173E+00 -0.77670865430E+01 -0.12980123184E+01  0.79071276188E+01  0.00000000000E+00 0. -1.
</event>
<event>
 8    1  0.2450026E-006  0.9118800E+02  0.7816164E-02  0.1184000E+00
        -11   -1    0    0    0    0  0.00000000000E+00  0.00000000000E+00  0.45593999997E+02  0.45594000000E+02  0.51100000000E-03 0.  1.
         11   -1    0    0    0    0 -0.00000000000E+00 -0.00000000000E+00 -0.45593999997E+02  0.45594000000E+02  0.51100000000E-03 0. -1.
         23    2    1    2    0    0 -0.17763568394E-14  0.00000000000E+00  0.00000000000E+00  0.91188000000E+02  0.91188000000E+02 0.  0.
    9900012    2    3    3    0    0 -0.43555573475E+01 -0.90327562611E+01 -0.35429069156E+02  0.54367075151E+02  0.39999979421E+02 0.  0.
        -12    1    3    3    0    0  0.43555573475E+01  0.90327562611E+01  0.35429069156E+02  0.36820924849E+02  0.00000000000E+00 0.  1.
         11    1    4    4    0    0 -0.29323615052E+01 -0.68953264490E+00 -0.49105232757E+01  0.57608539617E+01  0.51100000000E-03 0. -1.
        -11    1    4    4    0    0  0.12314275142E+01  0.61218140607E+01  0.63541377804E+01  0.89088769388E+01  0.51100000000E-03 0.  1.
        -12    1    4    4    0    0 -0.26546233565E+01 -0.14465037677E+02 -0.36872683661E+02  0.39697344250E+02  0.00000000000E+00 0.  1.
</event>
<event>
 8    1  0.2450026E-006  0.9118800E+02  0.7816164E-02  0.1184000E+00
        -11   -1    0    0    0    0  0.00000000000E+00  0.00000000000E+00  0.45593999997E+02  0.45594000000E+02  0.51100000000E-03 0. -1.
         11   -1    0    0    0    0 -0.00000000000E+00 -0.00000000000E+00 -0.45593999997E+02  0.45594000000E+02  0.51100000000E-03 0.  1.
         23    2    1    2    0    0  0.13322676296E-14  0.00000000000E+00  0.35527136788E-14  0.91188000000E+02  0.91188000000E+02 0.  0.
    9900012    2    3    3    0    0  0.20933936510E+01 -0.24762958571E+02  0.27169723904E+02  0.54367077807E+02  0.39999985476E+02 0.  0.
        -12    1    3    3    0    0 -0.20933936510E+01  0.24762958571E+02 -0.27169723904E+02  0.36820922193E+02  0.00000000000E+00 0.  1.
         11    1    4    4    0    0 -0.11928573227E+02  0.42833013243E+01  0.75709212619E+01  0.14763345775E+02  0.51100000000E-03 0. -1.
        -11    1    4    4    0    0  0.61132125751E+01 -0.23151184093E+01  0.36160862326E+01  0.74704230898E+01  0.51100000000E-03 0.  1.
         12    1    4    4    0    0  0.79087543024E+01 -0.26731141486E+02  0.15982716409E+02  0.32133308942E+02  0.00000000000E+00 0. -1.
</event>
<event>
 8    1  0.2450026E-006  0.9118800E+02  0.7816164E-02  0.1184000E+00
        -11   -1    0    0    0    0  0.00000000000E+00  0.00000000000E+00  0.45593999997E+02  0.45594000000E+02  0.51100000000E-03 0.  1.
         11   -1    0    0    0    0 -0.00000000000E+00 -0.00000000000E+00 -0.45593999997E+02  0.45594000000E+02  0.51100000000E-03 0. -1.
         23    2    1    2    0    0  0.00000000000E+00  0.35527136788E-14 -0.35527136788E-14  0.91188000000E+02  0.91188000000E+02 0.  0.
    9900012    2    3    3    0    0 -0.40884583024E+01  0.24621646517E+02 -0.27071004098E+02  0.54367078890E+02  0.39999987946E+02 0.  0.
        -12    1    3    3    0    0  0.40884583024E+01 -0.24621646517E+02  0.27071004098E+02  0.36820921110E+02  0.00000000000E+00 0.  1.
         11    1    4    4    0    0 -0.63901008529E+01  0.16978670799E+01 -0.77074036203E+01  0.10154812276E+02  0.51100000000E-03 0. -1.
        -11    1    4    4    0    0  0.88693601602E+01  0.26014022847E+02 -0.23231621012E+02  0.35987541586E+02  0.51100000000E-03 0.  1.
         12    1    4    4    0    0 -0.65677176097E+01 -0.30902434096E+01  0.38680205343E+01  0.82247250279E+01  0.00000000000E+00 0. -1.
</event>
<event>
 8    1  0.2450026E-006  0.9118800E+02  0.7816164E-02  0.1184000E+00
        -11   -1    0    0    0    0  0.00000000000E+00  0.00000000000E+00  0.45593999997E+02  0.45594000000E+02  0.51100000000E-03 0. -1.
         11   -1    0    0    0    0 -0.00000000000E+00 -0.00000000000E+00 -0.45593999997E+02  0.45594000000E+02  0.51100000000E-03 0.  1.
         23    2    1    2    0    0  0.17763568394E-14  0.17763568394E-14  0.00000000000E+00  0.91188000000E+02  0.91188000000E+02 0.  0.
    9900012    2    3    3    0    0  0.80117859066E+01  0.14434748626E+02  0.32912436807E+02  0.54367093196E+02  0.40000020558E+02 0.  0.
        -12    1    3    3    0    0 -0.80117859066E+01 -0.14434748626E+02 -0.32912436807E+02  0.36820906804E+02  0.00000000000E+00 0.  1.
         11    1    4    4    0    0 -0.38688184365E+01  0.13056337341E+02  0.16963751120E+02  0.21753265345E+02  0.51100000000E-03 0. -1.
        -11    1    4    4    0    0 -0.80860986536E+00 -0.94413775760E+01  0.12328665664E+02  0.15549580630E+02  0.51100000000E-03 0.  1.
        -12    1    4    4    0    0  0.12689214208E+02  0.10819788861E+02  0.36200200230E+01  0.17064247220E+02  0.00000000000E+00 0.  1.
</event>
<event>
 8    1  0.2450026E-006  0.9118800E+02  0.7816164E-02  0.1184000E+00
        -11   -1    0    0    0    0  0.00000000000E+00  0.00000000000E+00  0.45593999997E+02  0.45594000000E+02  0.51100000000E-03 0.  1.
         11   -1    0    0    0    0 -0.00000000000E+00 -0.00000000000E+00 -0.45593999997E+02  0.45594000000E+02  0.51100000000E-03 0. -1.
         23    2    1    2    0    0  0.00000000000E+00  0.00000000000E+00  0.17763568394E-14  0.91188000000E+02  0.91188000000E+02 0.  0.
    9900012    2    3    3    0    0  0.36287982541E+02 -0.37380229607E+01 -0.49988928185E+01  0.54367089881E+02  0.40000013002E+02 0.  0.
        -12    1    3    3    0    0 -0.36287982541E+02  0.37380229607E+01  0.49988928185E+01  0.36820910119E+02  0.00000000000E+00 0.  1.
         11    1    4    4    0    0  0.17450863404E+02 -0.45729170803E+01 -0.17624241943E+02  0.25220192475E+02  0.51100000000E-03 0. -1.
        -11    1    4    4    0    0  0.42818665837E+01 -0.71282608474E+01  0.28503740648E-01  0.83154853660E+01  0.51100000000E-03 0.  1.
         12    1    4    4    0    0  0.14555252554E+02  0.79631549670E+01  0.12596845384E+02  0.20831412039E+02  0.00000000000E+00 0. -1.
</event>
<event>
 8    1  0.2450026E-006  0.9118800E+02  0.7816164E-02  0.1184000E+00
        -11   -1    0    0    0    0  0.00000000000E+00  0.00000000000E+00  0.45593999997E+02  0.45594000000E+02  0.51100000000E-03 0.  1.
         11   -1    0    0    0    0 -0.00000000000E+00 -0.00000000000E+00 -0.45593999997E+02  0.45594000000E+02  0.51100000000E-03 0. -1.
         23    2    1    2    0    0  0.44408920985E-15 -0.35527136788E-14 -0.35527136788E-14  0.91188000000E+02  0.91188000000E+02 0.  0.
    9900012    2    3    3    0    0  0.25383492886E+01  0.24859001203E+02  0.27043789582E+02  0.54367085931E+02  0.40000003997E+02 0.  0.
         12    1    3    3    0    0 -0.25383492886E+01 -0.24859001203E+02 -0.27043789582E+02  0.36820914069E+02  0.00000000000E+00 0. -1.
         11    1    4    4    0    0 -0.64421366849E+01 -0.18084659737E+01 -0.95911173877E+00  0.67595539670E+01  0.51100000000E-03 0. -1.
        -11    1    4    4    0    0 -0.45547260462E+01 -0.20544984081E+01  0.98204901950E+01  0.11018553489E+02  0.51100000000E-03 0.  1.
        -12    1    4    4    0    0  0.13535212020E+02  0.28721965585E+02  0.18182411126E+02  0.36588978475E+02  0.00000000000E+00 0.  1.
</event>
<event>
 8    1  0.2450026E-006  0.9118800E+02  0.7816164E-02  0.1184000E+00
        -11   -1    0    0    0    0  0.00000000000E+00  0.00000000000E+00  0.45593999997E+02  0.45594000000E+02  0.51100000000E-03 0.  1.
         11   -1    0    0    0    0 -0.00000000000E+00 -0.00000000000E+00 -0.45593999997E+02  0.45594000000E+02  0.51100000000E-03 0. -1.
         23    2    1    2    0    0 -0.88817841970E-15  0.00000000000E+00  0.00000000000E+00  0.91188000000E+02  0.91188000000E+02 0.  0.
    9900012    2    3    3    0    0 -0.58394387758E+01  0.35507142207E+02 -0.78053850684E+01  0.54367078923E+02  0.39999988020E+02 0.  0.
        -12    1    3    3    0    0  0.58394387758E+01 -0.35507142207E+02  0.78053850684E+01  0.36820921077E+02  0.00000000000E+00 0.  1.
         11    1    4    4    0    0  0.55507009828E+01  0.19366797704E+02 -0.15147454782E+02  0.25205723980E+02  0.51100000000E-03 0. -1.
        -11    1    4    4    0    0 -0.12936632461E+02  0.20138200635E+02  0.62245852800E+01  0.24731539508E+02  0.51100000000E-03 0.  1.
        -12    1    4    4    0    0  0.15464927028E+01 -0.39978561317E+01  0.11174844338E+01  0.44298154352E+01  0.00000000000E+00 0.  1.
</event>
<event>
 8    1  0.2450026E-006  0.9118800E+02  0.7816164E-02  0.1184000E+00
        -11   -1    0    0    0    0  0.00000000000E+00  0.00000000000E+00  0.45593999997E+02  0.45594000000E+02  0.51100000000E-03 0. -1.
         11   -1    0    0    0    0 -0.00000000000E+00 -0.00000000000E+00 -0.45593999997E+02  0.45594000000E+02  0.51100000000E-03 0.  1.
         23    2    1    2    0    0 -0.35527136788E-14  0.00000000000E+00  0.88817841970E-15  0.91188000000E+02  0.91188000000E+02 0.  0.
    9900012    2    3    3    0    0  0.27294615099E+02  0.24542141371E+02  0.29095538954E+01  0.54367106198E+02  0.40000050201E+02 0.  0.
         12    1    3    3    0    0 -0.27294615099E+02 -0.24542141371E+02 -0.29095538954E+01  0.36820893802E+02  0.00000000000E+00 0. -1.
         11    1    4    4    0    0  0.12799933602E+02  0.11127695945E+02  0.57445687163E+01  0.17907093211E+02  0.51100000000E-03 0. -1.
        -11    1    4    4    0    0  0.18002728668E+02  0.13543863701E+02  0.88912311188E+01  0.24219588653E+02  0.51100000000E-03 0.  1.
         12    1    4    4    0    0 -0.35080471716E+01 -0.12941827511E+00 -0.11726245940E+02  0.12240424334E+02  0.00000000000E+00 0. -1.
</event>
<event>
 8    1  0.2450026E-006  0.9118800E+02  0.7816164E-02  0.1184000E+00
        -11   -1    0    0    0    0  0.00000000000E+00  0.00000000000E+00  0.45593999997E+02  0.45594000000E+02  0.51100000000E-03 0.  1.
         11   -1    0    0    0    0 -0.00000000000E+00 -0.00000000000E+00 -0.45593999997E+02  0.45594000000E+02  0.51100000000E-03 0. -1.
         23    2    1    2    0    0  0.71054273576E-14  0.22204460493E-15 -0.17763568394E-14  0.91188000000E+02  0.91188000000E+02 0.  0.
    9900012    2    3    3    0    0  0.36505724727E+02 -0.92801842861E+00 -0.47171348654E+01  0.54367075006E+02  0.39999979092E+02 0.  0.
         12    1    3    3    0    0 -0.36505724727E+02  0.92801842861E+00  0.47171348654E+01  0.36820924994E+02  0.00000000000E+00 0. -1.
         11    1    4    4    0    0  0.61740288657E+01  0.13183837509E+01 -0.15242879503E+02  0.16498549753E+02  0.51100000000E-03 0. -1.
        -11    1    4    4    0    0  0.25618512244E+02  0.34917319486E+01  0.14291812694E+02  0.29542448645E+02  0.51100000000E-03 0.  1.
         12    1    4    4    0    0  0.47131836174E+01 -0.57381341281E+01 -0.37660680569E+01  0.83260766086E+01  0.00000000000E+00 0. -1.
</event>
<event>
 8    1  0.2450026E-006  0.9118800E+02  0.7816164E-02  0.1184000E+00
        -11   -1    0    0    0    0  0.00000000000E+00  0.00000000000E+00  0.45593999997E+02  0.45594000000E+02  0.51100000000E-03 0. -1.
         11   -1    0    0    0    0 -0.00000000000E+00 -0.00000000000E+00 -0.45593999997E+02  0.45594000000E+02  0.51100000000E-03 0.  1.
         23    2    1    2    0    0 -0.35527136788E-14  0.00000000000E+00  0.00000000000E+00  0.91188000000E+02  0.91188000000E+02 0.  0.
    9900012    2    3    3    0    0  0.26280121158E+02 -0.24732910069E+02  0.73087211957E+01  0.54367095420E+02  0.40000025629E+02 0.  0.
         12    1    3    3    0    0 -0.26280121158E+02  0.24732910069E+02 -0.73087211957E+01  0.36820904580E+02  0.00000000000E+00 0. -1.
         11    1    4    4    0    0  0.50709093338E+01  0.14315606928E+01  0.29328070622E+01  0.60303271067E+01  0.51100000000E-03 0. -1.
        -11    1    4    4    0    0  0.21792466002E+02 -0.33869890114E+02  0.23267374097E+01  0.40342220291E+02  0.51100000000E-03 0.  1.
        -12    1    4    4    0    0 -0.58325417828E+00  0.77054193522E+01  0.20491767237E+01  0.79945480219E+01  0.00000000000E+00 0.  1.
</event>
<event>
 8    1  0.2450026E-006  0.9118800E+02  0.7816164E-02  0.1184000E+00
        -11   -1    0    0    0    0  0.00000000000E+00  0.00000000000E+00  0.45593999997E+02  0.45594000000E+02  0.51100000000E-03 0.  1.
         11   -1    0    0    0    0 -0.00000000000E+00 -0.00000000000E+00 -0.45593999997E+02  0.45594000000E+02  0.51100000000E-03 0. -1.
         23    2    1    2    0    0  0.00000000000E+00  0.35527136788E-14  0.00000000000E+00  0.91188000000E+02  0.91188000000E+02 0.  0.
    9900012    2    3    3    0    0  0.10029784676E+02 -0.23670111809E+02  0.26361128394E+02  0.54367083881E+02  0.39999999323E+02 0.  0.
         12    1    3    3    0    0 -0.10029784676E+02  0.23670111809E+02 -0.26361128394E+02  0.36820916119E+02  0.00000000000E+00 0. -1.
         11    1    4    4    0    0  0.95697290931E+00 -0.95254749208E+01 -0.48282130240E+01  0.10722038560E+02  0.51100000000E-03 0. -1.
        -11    1    4    4    0    0  0.10406123894E+02 -0.15596663205E+02  0.34801005921E+02  0.39530410205E+02  0.51100000000E-03 0.  1.
        -12    1    4    4    0    0 -0.13333121276E+01  0.14520263167E+01 -0.36116645029E+01  0.41146351157E+01  0.00000000000E+00 0.  1.
</event>
<event>
 8    1  0.2450026E-006  0.9118800E+02  0.7816164E-02  0.1184000E+00
        -11   -1    0    0    0    0  0.00000000000E+00  0.00000000000E+00  0.45593999997E+02  0.45594000000E+02  0.51100000000E-03 0.  1.
         11   -1    0    0    0    0 -0.00000000000E+00 -0.00000000000E+00 -0.45593999997E+02  0.45594000000E+02  0.51100000000E-03 0. -1.
         23    2    1    2    0    0 -0.35527136788E-14  0.00000000000E+00  0.71054273576E-14  0.91188000000E+02  0.91188000000E+02 0.  0.
    9900012    2    3    3    0    0  0.19505587220E+02  0.90091538907E+01 -0.29902303095E+02  0.54367075011E+02  0.39999979103E+02 0.  0.
        -12    1    3    3    0    0 -0.19505587220E+02 -0.90091538907E+01  0.29902303095E+02  0.36820924989E+02  0.00000000000E+00 0.  1.
         11    1    4    4    0    0 -0.50832019504E+01 -0.91226576719E+01 -0.67212711844E+00  0.10464873635E+02  0.51100000000E-03 0. -1.
        -11    1    4    4    0    0 -0.58680455011E+00  0.34985138715E+01 -0.22216467279E+01  0.41856484962E+01  0.51100000000E-03 0.  1.
        -12    1    4    4    0    0  0.25175593721E+02  0.14633297691E+02 -0.27008529249E+02  0.39716552880E+02  0.00000000000E+00 0.  1.
</event>
<event>
 8    1  0.2450026E-006  0.9118800E+02  0.7816164E-02  0.1184000E+00
        -11   -1    0    0    0    0  0.00000000000E+00  0.00000000000E+00  0.45593999997E+02  0.45594000000E+02  0.51100000000E-03 0. -1.
         11   -1    0    0    0    0 -0.00000000000E+00 -0.00000000000E+00 -0.45593999997E+02  0.45594000000E+02  0.51100000000E-03 0.  1.
         23    2    1    2    0    0  0.00000000000E+00  0.00000000000E+00  0.00000000000E+00  0.91188000000E+02  0.91188000000E+02 0.  0.
    9900012    2    3    3    0    0  0.27998504410E+02 -0.16448603865E+02  0.17358201707E+02  0.54367082238E+02  0.39999995579E+02 0.  0.
        -12    1    3    3    0    0 -0.27998504410E+02  0.16448603865E+02 -0.17358201707E+02  0.36820917762E+02  0.00000000000E+00 0.  1.
         11    1    4    4    0    0  0.18256996749E+01  0.27450200958E+01  0.19897073600E+02  0.20168337877E+02  0.51100000000E-03 0. -1.
        -11    1    4    4    0    0  0.31637433403E+01 -0.54941273162E+01 -0.37981121215E+01  0.73905590342E+01  0.51100000000E-03 0.  1.
         12    1    4    4    0    0  0.23009061394E+02 -0.13699496645E+02  0.12592402290E+01  0.26808185327E+02  0.00000000000E+00 0. -1.
</event>
<event>
 8    1  0.2450026E-006  0.9118800E+02  0.7816164E-02  0.1184000E+00
        -11   -1    0    0    0    0  0.00000000000E+00  0.00000000000E+00  0.45593999997E+02  0.45594000000E+02  0.51100000000E-03 0. -1.
         11   -1    0    0    0    0 -0.00000000000E+00 -0.00000000000E+00 -0.45593999997E+02  0.45594000000E+02  0.51100000000E-03 0.  1.
         23    2    1    2    0    0 -0.11153187748E-14  0.00000000000E+00 -0.35527136788E-14  0.91188000000E+02  0.91188000000E+02 0.  0.
    9900012    2    3    3    0    0  0.72490147274E-03 -0.32353601532E+02  0.17578919229E+02  0.54367164406E+02  0.40000182895E+02 0.  0.
        -12    1    3    3    0    0 -0.72490147274E-03  0.32353601532E+02 -0.17578919229E+02  0.36820835594E+02  0.00000000000E+00 0.  1.
         11    1    4    4    0    0 -0.97829234405E+01 -0.15862154257E+02  0.18809413201E+02  0.26478435640E+02  0.51100000000E-03 0. -1.
        -11    1    4    4    0    0 -0.26142684441E+01 -0.28127929461E+01 -0.74720173170E+01  0.84010265266E+01  0.51100000000E-03 0.  1.
        -12    1    4    4    0    0  0.12397916786E+02 -0.13678654329E+02  0.62415233446E+01  0.19487702239E+02  0.00000000000E+00 0.  1.
</event>
<event>
 8    1  0.2450026E-006  0.9118800E+02  0.7816164E-02  0.1184000E+00
        -11   -1    0    0    0    0  0.00000000000E+00  0.00000000000E+00  0.45593999997E+02  0.45594000000E+02  0.51100000000E-03 0.  1.
         11   -1    0    0    0    0 -0.00000000000E+00 -0.00000000000E+00 -0.45593999997E+02  0.45594000000E+02  0.51100000000E-03 0. -1.
         23    2    1    2    0    0  0.17763568394E-14  0.00000000000E+00  0.00000000000E+00  0.91188000000E+02  0.91188000000E+02 0.  0.
    9900012    2    3    3    0    0  0.55531038913E+01 -0.30753207872E+02 -0.19472619356E+02  0.54367086625E+02  0.40000005578E+02 0.  0.
        -12    1    3    3    0    0 -0.55531038913E+01  0.30753207872E+02  0.19472619356E+02  0.36820913375E+02  0.00000000000E+00 0.  1.
         11    1    4    4    0    0  0.76588314276E+01 -0.33360238555E+02 -0.15510225811E+02  0.37578322478E+02  0.51100000000E-03 0. -1.
        -11    1    4    4    0    0 -0.89664122848E+01  0.26964646114E+01 -0.31539921264E+01  0.98800373105E+01  0.51100000000E-03 0.  1.
         12    1    4    4    0    0  0.68606847485E+01 -0.89433927776E-01 -0.80840141882E+00  0.69087268364E+01  0.00000000000E+00 0. -1.
</event>
<event>
 8    1  0.2450026E-006  0.9118800E+02  0.7816164E-02  0.1184000E+00
        -11   -1    0    0    0    0  0.00000000000E+00  0.00000000000E+00  0.45593999997E+02  0.45594000000E+02  0.51100000000E-03 0.  1.
         11   -1    0    0    0    0 -0.00000000000E+00 -0.00000000000E+00 -0.45593999997E+02  0.45594000000E+02  0.51100000000E-03 0. -1.
         23    2    1    2    0    0  0.00000000000E+00  0.00000000000E+00 -0.35527136788E-14  0.91188000000E+02  0.91188000000E+02 0.  0.
    9900012    2    3    3    0    0 -0.31946054335E+02 -0.53219402575E+01 -0.17518739157E+02  0.54367086685E+02  0.40000005717E+02 0.  0.
        -12    1    3    3    0    0  0.31946054335E+02  0.53219402575E+01  0.17518739157E+02  0.36820913315E+02  0.00000000000E+00 0.  1.
         11    1    4    4    0    0  0.22024716494E+01  0.10973923939E+01 -0.23816677346E+00  0.24722206831E+01  0.51100000000E-03 0. -1.
        -11    1    4    4    0    0 -0.30003352531E+02  0.93289083051E+01 -0.57517204644E+01  0.31942322737E+02  0.51100000000E-03 0.  1.
         12    1    4    4    0    0 -0.41451734532E+01 -0.15748240956E+02 -0.11528851919E+02  0.19952543265E+02  0.00000000000E+00 0. -1.
</event>
<event>
 8    1  0.2450026E-006  0.9118800E+02  0.7816164E-02  0.1184000E+00
        -11   -1    0    0    0    0  0.00000000000E+00  0.00000000000E+00  0.45593999997E+02  0.45594000000E+02  0.51100000000E-03 0.  1.
         11   -1    0    0    0    0 -0.00000000000E+00 -0.00000000000E+00 -0.45593999997E+02  0.45594000000E+02  0.51100000000E-03 0. -1.
         23    2    1    2    0    0  0.17763568394E-14 -0.71054273576E-14 -0.35527136788E-14  0.91188000000E+02  0.91188000000E+02 0.  0.
    9900012    2    3    3    0    0 -0.11166765499E+02  0.31633693364E+02  0.15178350806E+02  0.54367224061E+02  0.40000318890E+02 0.  0.
         12    1    3    3    0    0  0.11166765499E+02 -0.31633693364E+02 -0.15178350806E+02  0.36820775939E+02  0.00000000000E+00 0. -1.
         11    1    4    4    0    0 -0.17945792673E+01  0.42085973599E+00  0.36613926722E+01  0.40991992176E+01  0.51100000000E-03 0. -1.
        -11    1    4    4    0    0  0.11128503656E+02  0.13787049943E+02  0.14899756776E+02  0.23150142375E+02  0.51100000000E-03 0.  1.
         12    1    4    4    0    0 -0.20500689888E+02  0.17425783686E+02 -0.33827986416E+01  0.27117882468E+02  0.00000000000E+00 0. -1.
</event>
<event>
 8    1  0.2450026E-006  0.9118800E+02  0.7816164E-02  0.1184000E+00
        -11   -1    0    0    0    0  0.00000000000E+00  0.00000000000E+00  0.45593999997E+02  0.45594000000E+02  0.51100000000E-03 0. -1.
         11   -1    0    0    0    0 -0.00000000000E+00 -0.00000000000E+00 -0.45593999997E+02  0.45594000000E+02  0.51100000000E-03 0.  1.
         23    2    1    2    0    0 -0.44408920985E-15  0.00000000000E+00 -0.88817841970E-15  0.91188000000E+02  0.91188000000E+02 0.  0.
    9900012    2    3    3    0    0 -0.25023071179E+01 -0.36431724210E+02 -0.47165969172E+01  0.54367104352E+02  0.40000045992E+02 0.  0.
        -12    1    3    3    0    0  0.25023071179E+01  0.36431724210E+02  0.47165969172E+01  0.36820895648E+02  0.00000000000E+00 0.  1.
         11    1    4    4    0    0  0.82191375028E+01 -0.32815443919E+02  0.51673677277E+01  0.34221473820E+02  0.51100000000E-03 0. -1.
        -11    1    4    4    0    0 -0.36518056288E+01  0.49625995697E+01 -0.52769001286E+01  0.81122594921E+01  0.51100000000E-03 0.  1.
        -12    1    4    4    0    0 -0.70696389918E+01 -0.85788798605E+01 -0.46070645163E+01  0.12033371040E+02  0.00000000000E+00 0.  1.
</event>
<event>
 8    1  0.2450026E-006  0.9118800E+02  0.7816164E-02  0.1184000E+00
        -11   -1    0    0    0    0  0.00000000000E+00  0.00000000000E+00  0.45593999997E+02  0.45594000000E+02  0.51100000000E-03 0. -1.
         11   -1    0    0    0    0 -0.00000000000E+00 -0.00000000000E+00 -0.45593999997E+02  0.45594000000E+02  0.51100000000E-03 0.  1.
         23    2    1    2    0    0  0.00000000000E+00  0.00000000000E+00 -0.35527136788E-14  0.91188000000E+02  0.91188000000E+02 0.  0.
    9900012    2    3    3    0    0 -0.17197750702E+02  0.94640463987E+01 -0.31152051887E+02  0.54367066549E+02  0.39999959812E+02 0.  0.
         12    1    3    3    0    0  0.17197750702E+02 -0.94640463987E+01  0.31152051887E+02  0.36820933451E+02  0.00000000000E+00 0. -1.
         11    1    4    4    0    0  0.29819956972E+01 -0.36215388957E+01 -0.46940950490E+01  0.66364426390E+01  0.51100000000E-03 0. -1.
        -11    1    4    4    0    0 -0.23059508783E+02  0.59015192898E+01 -0.30745548998E+02  0.38882613836E+02  0.51100000000E-03 0.  1.
        -12    1    4    4    0    0  0.28797623838E+01  0.71840660046E+01  0.42875921603E+01  0.88480100745E+01  0.00000000000E+00 0.  1.
</event>
<event>
 8    1  0.2450026E-006  0.9118800E+02  0.7816164E-02  0.1184000E+00
        -11   -1    0    0    0    0  0.00000000000E+00  0.00000000000E+00  0.45593999997E+02  0.45594000000E+02  0.51100000000E-03 0. -1.
         11   -1    0    0    0    0 -0.00000000000E+00 -0.00000000000E+00 -0.45593999997E+02  0.45594000000E+02  0.51100000000E-03 0.  1.
         23    2    1    2    0    0  0.00000000000E+00  0.44408920985E-15  0.00000000000E+00  0.91188000000E+02  0.91188000000E+02 0.  0.
    9900012    2    3    3    0    0 -0.51775647984E+01  0.39933165177E+01  0.36235684703E+02  0.54367101044E+02  0.40000038449E+02 0.  0.
        -12    1    3    3    0    0  0.51775647984E+01 -0.39933165177E+01 -0.36235684703E+02  0.36820898956E+02  0.00000000000E+00 0.  1.
         11    1    4    4    0    0 -0.13572138840E+02  0.31841327152E+00  0.32126186070E+02  0.34876871582E+02  0.51100000000E-03 0. -1.
        -11    1    4    4    0    0  0.12755716854E+01 -0.57448287389E+01  0.48983655138E+01  0.76566392975E+01  0.51100000000E-03 0.  1.
         12    1    4    4    0    0  0.71190023559E+01  0.94197319850E+01 -0.78886688060E+00  0.11833590164E+02  0.00000000000E+00 0. -1.
</event>
<event>
 8    1  0.2450026E-006  0.9118800E+02  0.7816164E-02  0.1184000E+00
        -11   -1    0    0    0    0  0.00000000000E+00  0.00000000000E+00  0.45593999997E+02  0.45594000000E+02  0.51100000000E-03 0.  1.
         11   -1    0    0    0    0 -0.00000000000E+00 -0.00000000000E+00 -0.45593999997E+02  0.45594000000E+02  0.51100000000E-03 0. -1.
         23    2    1    2    0    0  0.00000000000E+00  0.00000000000E+00  0.00000000000E+00  0.91188000000E+02  0.91188000000E+02 0.  0.
    9900012    2    3    3    0    0 -0.16766368004E+02  0.28127270327E+02 -0.16838230987E+02  0.54367075855E+02  0.39999981027E+02 0.  0.
         12    1    3    3    0    0  0.16766368004E+02 -0.28127270327E+02  0.16838230987E+02  0.36820924145E+02  0.00000000000E+00 0. -1.
         11    1    4    4    0    0  0.25701995173E+01  0.14913498889E+02  0.98532109728E+01  0.18058353785E+02  0.51100000000E-03 0. -1.
        -11    1    4    4    0    0 -0.10880053058E+02  0.53715850778E+01 -0.86708183728E+01  0.14913503020E+02  0.51100000000E-03 0.  1.
         12    1    4    4    0    0 -0.84565144635E+01  0.78421863603E+01 -0.18020623587E+02  0.21395219051E+02  0.00000000000E+00 0. -1.
</event>
<event>
 8    1  0.2450026E-006  0.9118800E+02  0.7816164E-02  0.1184000E+00
        -11   -1    0    0    0    0  0.00000000000E+00  0.00000000000E+00  0.45593999997E+02  0.45594000000E+02  0.51100000000E-03 0. -1.
         11   -1    0    0    0    0 -0.00000000000E+00 -0.00000000000E+00 -0.45593999997E+02  0.45594000000E+02  0.51100000000E-03 0.  1.
         23    2    1    2    0    0  0.44408920985E-15 -0.71054273576E-14  0.00000000000E+00  0.91188000000E+02  0.91188000000E+02 0.  0.
    9900012    2    3    3    0    0 -0.10971153177E+01  0.33099469793E+02 -0.16093566955E+02  0.54367062208E+02  0.39999949914E+02 0.  0.
         12    1    3    3    0    0  0.10971153177E+01 -0.33099469793E+02  0.16093566955E+02  0.36820937792E+02  0.00000000000E+00 0. -1.
         11    1    4    4    0    0  0.13037100760E+02  0.20471405896E+01  0.33768856376E+01  0.13622046017E+02  0.51100000000E-03 0. -1.
        -11    1    4    4    0    0 -0.86844962053E+00  0.65128631988E+01 -0.85615762687E+01  0.10792227771E+02  0.51100000000E-03 0.  1.
        -12    1    4    4    0    0 -0.13265766457E+02  0.24539466004E+02 -0.10908876324E+02  0.29952788420E+02  0.00000000000E+00 0.  1.
</event>
<event>
 8    1  0.2450026E-006  0.9118800E+02  0.7816164E-02  0.1184000E+00
        -11   -1    0    0    0    0  0.00000000000E+00  0.00000000000E+00  0.45593999997E+02  0.45594000000E+02  0.51100000000E-03 0. -1.
         11   -1    0    0    0    0 -0.00000000000E+00 -0.00000000000E+00 -0.45593999997E+02  0.45594000000E+02  0.51100000000E-03 0.  1.
         23    2    1    2    0    0  0.00000000000E+00  0.00000000000E+00 -0.88817841970E-15  0.91188000000E+02  0.91188000000E+02 0.  0.
    9900012    2    3    3    0    0 -0.14447126477E+02  0.32957233298E+02  0.78027043302E+01  0.54367070015E+02  0.39999967714E+02 0.  0.
         12    1    3    3    0    0  0.14447126477E+02 -0.32957233298E+02 -0.78027043302E+01  0.36820929985E+02  0.00000000000E+00 0. -1.
         11    1    4    4    0    0 -0.57706133613E+01  0.74865922163E+01  0.97241304394E+01  0.13561259331E+02  0.51100000000E-03 0. -1.
        -11    1    4    4    0    0  0.97431642124E+01  0.15660541411E+02  0.44735742655E+01  0.18978795355E+02  0.51100000000E-03 0.  1.
         12    1    4    4    0    0 -0.18419677328E+02  0.98100996705E+01 -0.63950003747E+01  0.21827015330E+02  0.00000000000E+00 0. -1.
</event>
<event>
 8    1  0.2450026E-006  0.9118800E+02  0.7816164E-02  0.1184000E+00
        -11   -1    0    0    0    0  0.00000000000E+00  0.00000000000E+00  0.45593999997E+02  0.45594000000E+02  0.51100000000E-03 0. -1.
         11   -1    0    0    0    0 -0.00000000000E+00 -0.00000000000E+00 -0.45593999997E+02  0.45594000000E+02  0.51100000000E-03 0.  1.
         23    2    1    2    0    0  0.00000000000E+00  0.00000000000E+00 -0.88817841970E-15  0.91188000000E+02  0.91188000000E+02 0.  0.
    9900012    2    3    3    0    0 -0.17554679505E+02 -0.32245958833E+02  0.27949487530E+01  0.54367076979E+02  0.39999983590E+02 0.  0.
        -12    1    3    3    0    0  0.17554679505E+02  0.32245958833E+02 -0.27949487530E+01  0.36820923021E+02  0.00000000000E+00 0.  1.
         11    1    4    4    0    0  0.61093224084E+00 -0.27595987298E+01  0.59463513775E+01  0.65838984134E+01  0.51100000000E-03 0. -1.
        -11    1    4    4    0    0 -0.81255426562E+00 -0.20252944297E+02  0.11465654377E+02  0.23287404915E+02  0.51100000000E-03 0.  1.
        -12    1    4    4    0    0 -0.17353057480E+02 -0.92334158062E+01 -0.14617057002E+02  0.24495773651E+02  0.00000000000E+00 0.  1.
</event>
<event>
 8    1  0.2450026E-006  0.9118800E+02  0.7816164E-02  0.1184000E+00
        -11   -1    0    0    0    0  0.00000000000E+00  0.00000000000E+00  0.45593999997E+02  0.45594000000E+02  0.51100000000E-03 0. -1.
         11   -1    0    0    0    0 -0.00000000000E+00 -0.00000000000E+00 -0.45593999997E+02  0.45594000000E+02  0.51100000000E-03 0.  1.
         23    2    1    2    0    0  0.00000000000E+00  0.00000000000E+00 -0.71054273576E-14  0.91188000000E+02  0.91188000000E+02 0.  0.
    9900012    2    3    3    0    0 -0.26700409900E+01  0.16082602964E+02  0.33015445092E+02  0.54366826043E+02  0.39999411526E+02 0.  0.
        -12    1    3    3    0    0  0.26700409900E+01 -0.16082602964E+02 -0.33015445092E+02  0.36821173957E+02  0.00000000000E+00 0.  1.
         11    1    4    4    0    0  0.16715656260E+01  0.57912679072E+01  0.54313533927E+01  0.81137239016E+01  0.51100000000E-03 0. -1.
        -11    1    4    4    0    0 -0.33990955275E+01  0.24191712972E+01 -0.84143655502E+01  0.93919001296E+01  0.51100000000E-03 0.  1.
         12    1    4    4    0    0 -0.94251108839E+00  0.78721637593E+01  0.35998457249E+02  0.36861202012E+02  0.00000000000E+00 0. -1.
</event>
<event>
 8    1  0.2450026E-006  0.9118800E+02  0.7816164E-02  0.1184000E+00
        -11   -1    0    0    0    0  0.00000000000E+00  0.00000000000E+00  0.45593999997E+02  0.45594000000E+02  0.51100000000E-03 0. -1.
         11   -1    0    0    0    0 -0.00000000000E+00 -0.00000000000E+00 -0.45593999997E+02  0.45594000000E+02  0.51100000000E-03 0.  1.
         23    2    1    2    0    0  0.35527136788E-14 -0.17763568394E-14  0.00000000000E+00  0.91188000000E+02  0.91188000000E+02 0.  0.
    9900012    2    3    3    0    0  0.17565863329E+02 -0.15934995305E+02 -0.28165516768E+02  0.54367082512E+02  0.39999996202E+02 0.  0.
         12    1    3    3    0    0 -0.17565863329E+02  0.15934995305E+02  0.28165516768E+02  0.36820917488E+02  0.00000000000E+00 0. -1.
         11    1    4    4    0    0  0.12140812533E+01  0.15256847428E+01 -0.66603846673E+01  0.69399158065E+01  0.51100000000E-03 0. -1.
        -11    1    4    4    0    0 -0.10557993761E+01 -0.38683224222E+01 -0.24777974230E+02  0.25100331429E+02  0.51100000000E-03 0.  1.
         12    1    4    4    0    0  0.17407581452E+02 -0.13592357626E+02  0.32728421287E+01  0.22326835276E+02  0.00000000000E+00 0. -1.
</event>
<event>
 8    1  0.2450026E-006  0.9118800E+02  0.7816164E-02  0.1184000E+00
        -11   -1    0    0    0    0  0.00000000000E+00  0.00000000000E+00  0.45593999997E+02  0.45594000000E+02  0.51100000000E-03 0. -1.
         11   -1    0    0    0    0 -0.00000000000E+00 -0.00000000000E+00 -0.45593999997E+02  0.45594000000E+02  0.51100000000E-03 0.  1.
         23    2    1    2    0    0  0.00000000000E+00  0.00000000000E+00  0.00000000000E+00  0.91188000000E+02  0.91188000000E+02 0.  0.
    9900012    2    3    3    0    0  0.29403861155E+02 -0.19566302793E+02 -0.10409191194E+02  0.54367102168E+02  0.40000041013E+02 0.  0.
         12    1    3    3    0    0 -0.29403861155E+02  0.19566302793E+02  0.10409191194E+02  0.36820897832E+02  0.00000000000E+00 0. -1.
         11    1    4    4    0    0  0.28389457200E+02 -0.10607856685E+02 -0.18007996773E+02  0.35253026134E+02  0.51100000000E-03 0. -1.
        -11    1    4    4    0    0  0.18350732671E+00 -0.55795921025E+01 -0.40886118061E+01  0.69197015637E+01  0.51100000000E-03 0.  1.
         12    1    4    4    0    0  0.83089662810E+00 -0.33788540054E+01  0.11687417385E+02  0.12194374470E+02  0.00000000000E+00 0. -1.
</event>
<event>
 8    1  0.2450026E-006  0.9118800E+02  0.7816164E-02  0.1184000E+00
        -11   -1    0    0    0    0  0.00000000000E+00  0.00000000000E+00  0.45593999997E+02  0.45594000000E+02  0.51100000000E-03 0. -1.
         11   -1    0    0    0    0 -0.00000000000E+00 -0.00000000000E+00 -0.45593999997E+02  0.45594000000E+02  0.51100000000E-03 0.  1.
         23    2    1    2    0    0  0.00000000000E+00  0.00000000000E+00  0.00000000000E+00  0.91188000000E+02  0.91188000000E+02 0.  0.
    9900012    2    3    3    0    0  0.14528174361E+02  0.22109750937E+02 -0.25609949325E+02  0.54367103199E+02  0.40000043363E+02 0.  0.
         12    1    3    3    0    0 -0.14528174361E+02 -0.22109750937E+02  0.25609949325E+02  0.36820896801E+02  0.00000000000E+00 0. -1.
         11    1    4    4    0    0 -0.31641956874E+01 -0.26703514928E+01  0.77210297467E+01  0.87611193379E+01  0.51100000000E-03 0. -1.
        -11    1    4    4    0    0  0.53234306282E+01  0.12996703203E+02 -0.15043298918E+02  0.20580428819E+02  0.51100000000E-03 0.  1.
         12    1    4    4    0    0  0.12368939420E+02  0.11783399227E+02 -0.18287680155E+02  0.25025555042E+02  0.00000000000E+00 0. -1.
</event>
<event>
 8    1  0.2450026E-006  0.9118800E+02  0.7816164E-02  0.1184000E+00
        -11   -1    0    0    0    0  0.00000000000E+00  0.00000000000E+00  0.45593999997E+02  0.45594000000E+02  0.51100000000E-03 0.  1.
         11   -1    0    0    0    0 -0.00000000000E+00 -0.00000000000E+00 -0.45593999997E+02  0.45594000000E+02  0.51100000000E-03 0. -1.
         23    2    1    2    0    0  0.35527136788E-14  0.00000000000E+00  0.00000000000E+00  0.91188000000E+02  0.91188000000E+02 0.  0.
    9900012    2    3    3    0    0 -0.16228010717E+02 -0.29153657625E+01  0.32923120220E+02  0.54367088355E+02  0.40000009522E+02 0.  0.
         12    1    3    3    0    0  0.16228010717E+02  0.29153657625E+01 -0.32923120220E+02  0.36820911645E+02  0.00000000000E+00 0. -1.
         11    1    4    4    0    0 -0.10034906198E+02 -0.58714860292E+01  0.17860134588E+02  0.21310985392E+02  0.51100000000E-03 0. -1.
        -11    1    4    4    0    0 -0.80853697716E+01  0.14917538739E+02  0.62650871268E+01  0.18087495220E+02  0.51100000000E-03 0.  1.
         12    1    4    4    0    0  0.18922652525E+01 -0.11961418472E+02  0.87978985052E+01  0.14968607743E+02  0.00000000000E+00 0. -1.
</event>
<event>
 8    1  0.2450026E-006  0.9118800E+02  0.7816164E-02  0.1184000E+00
        -11   -1    0    0    0    0  0.00000000000E+00  0.00000000000E+00  0.45593999997E+02  0.45594000000E+02  0.51100000000E-03 0.  1.
         11   -1    0    0    0    0 -0.00000000000E+00 -0.00000000000E+00 -0.45593999997E+02  0.45594000000E+02  0.51100000000E-03 0. -1.
         23    2    1    2    0    0  0.17763568394E-14 -0.71054273576E-14  0.17763568394E-14  0.91188000000E+02  0.91188000000E+02 0.  0.
    9900012    2    3    3    0    0  0.12504197214E+02  0.32600190116E+02  0.11689769232E+02  0.54367108536E+02  0.40000055529E+02 0.  0.
        -12    1    3    3    0    0 -0.12504197214E+02 -0.32600190116E+02 -0.11689769232E+02  0.36820891464E+02  0.00000000000E+00 0.  1.
         11    1    4    4    0    0  0.24286839766E+01  0.14101216007E+01 -0.11501157727E+02  0.11839069985E+02  0.51100000000E-03 0. -1.
        -11    1    4    4    0    0  0.10716589926E+02  0.10728824771E+02  0.10437813034E+02  0.18409261848E+02  0.51100000000E-03 0.  1.
         12    1    4    4    0    0 -0.64107668857E+00  0.20461243744E+02  0.12753113924E+02  0.24118776703E+02  0.00000000000E+00 0. -1.
</event>
<event>
 8    1  0.2450026E-006  0.9118800E+02  0.7816164E-02  0.1184000E+00
        -11   -1    0    0    0    0  0.00000000000E+00  0.00000000000E+00  0.45593999997E+02  0.45594000000E+02  0.51100000000E-03 0. -1.
         11   -1    0    0    0    0 -0.00000000000E+00 -0.00000000000E+00 -0.45593999997E+02  0.45594000000E+02  0.51100000000E-03 0.  1.
         23    2    1    2    0    0  0.17763568394E-14  0.00000000000E+00 -0.35527136788E-14  0.91188000000E+02  0.91188000000E+02 0.  0.
    9900012    2    3    3    0    0 -0.97422640469E+01  0.21273238664E+02  0.28430938488E+02  0.54367073133E+02  0.39999974821E+02 0.  0.
        -12    1    3    3    0    0  0.97422640469E+01 -0.21273238664E+02 -0.28430938488E+02  0.36820926867E+02  0.00000000000E+00 0.  1.
         11    1    4    4    0    0 -0.13988352472E+02  0.53473239038E+01  0.50970964038E+01  0.15819237333E+02  0.51100000000E-03 0. -1.
        -11    1    4    4    0    0  0.24359517668E+01  0.23033126902E+02  0.15824917941E+02  0.28051503062E+02  0.51100000000E-03 0.  1.
         12    1    4    4    0    0  0.18101366579E+01 -0.71072121417E+01  0.75089241433E+01  0.10496332738E+02  0.00000000000E+00 0. -1.
</event>
<event>
 8    1  0.2450026E-006  0.9118800E+02  0.7816164E-02  0.1184000E+00
        -11   -1    0    0    0    0  0.00000000000E+00  0.00000000000E+00  0.45593999997E+02  0.45594000000E+02  0.51100000000E-03 0. -1.
         11   -1    0    0    0    0 -0.00000000000E+00 -0.00000000000E+00 -0.45593999997E+02  0.45594000000E+02  0.51100000000E-03 0.  1.
         23    2    1    2    0    0  0.13322676296E-14  0.00000000000E+00  0.00000000000E+00  0.91188000000E+02  0.91188000000E+02 0.  0.
    9900012    2    3    3    0    0  0.29891068398E+01 -0.36577347252E+02  0.29905038672E+01  0.54367079248E+02  0.39999988761E+02 0.  0.
         12    1    3    3    0    0 -0.29891068398E+01  0.36577347252E+02 -0.29905038672E+01  0.36820920752E+02  0.00000000000E+00 0. -1.
         11    1    4    4    0    0  0.16610983206E+02 -0.29550551619E+02  0.83266047735E+01  0.34906907789E+02  0.51100000000E-03 0. -1.
        -11    1    4    4    0    0 -0.39507384762E+01 -0.20624014917E+01 -0.71635832401E+01  0.84367505309E+01  0.51100000000E-03 0.  1.
         12    1    4    4    0    0 -0.96711378901E+01 -0.49643941414E+01  0.18274823338E+01  0.11023420928E+02  0.00000000000E+00 0. -1.
</event>
<event>
 8    1  0.2450026E-006  0.9118800E+02  0.7816164E-02  0.1184000E+00
        -11   -1    0    0    0    0  0.00000000000E+00  0.00000000000E+00  0.45593999997E+02  0.45594000000E+02  0.51100000000E-03 0. -1.
         11   -1    0    0    0    0 -0.00000000000E+00 -0.00000000000E+00 -0.45593999997E+02  0.45594000000E+02  0.51100000000E-03 0.  1.
         23    2    1    2    0    0  0.35527136788E-14  0.00000000000E+00  0.00000000000E+00  0.91188000000E+02  0.91188000000E+02 0.  0.
    9900012    2    3    3    0    0 -0.20910375056E+02 -0.22697725153E+01 -0.30222244273E+02  0.54367086091E+02  0.40000004361E+02 0.  0.
         12    1    3    3    0    0  0.20910375056E+02  0.22697725153E+01  0.30222244273E+02  0.36820913909E+02  0.00000000000E+00 0. -1.
         11    1    4    4    0    0  0.22469794413E+01 -0.54707448050E+01 -0.19726944259E+02  0.20594423891E+02  0.51100000000E-03 0. -1.
        -11    1    4    4    0    0 -0.23652355553E+02 -0.47235230993E+01 -0.71510074912E+01  0.25157156081E+02  0.51100000000E-03 0.  1.
         12    1    4    4    0    0  0.49500105556E+00  0.79244953890E+01 -0.33442925221E+01  0.86155061192E+01  0.00000000000E+00 0. -1.
</event>
<event>
 8    1  0.2450026E-006  0.9118800E+02  0.7816164E-02  0.1184000E+00
        -11   -1    0    0    0    0  0.00000000000E+00  0.00000000000E+00  0.45593999997E+02  0.45594000000E+02  0.51100000000E-03 0. -1.
         11   -1    0    0    0    0 -0.00000000000E+00 -0.00000000000E+00 -0.45593999997E+02  0.45594000000E+02  0.51100000000E-03 0.  1.
         23    2    1    2    0    0  0.17763568394E-14 -0.35527136788E-14 -0.71054273576E-14  0.91188000000E+02  0.91188000000E+02 0.  0.
    9900012    2    3    3    0    0 -0.93972359960E+01  0.15951084900E+02  0.31828210286E+02  0.54367080350E+02  0.39999991274E+02 0.  0.
        -12    1    3    3    0    0  0.93972359960E+01 -0.15951084900E+02 -0.31828210286E+02  0.36820919650E+02  0.00000000000E+00 0.  1.
         11    1    4    4    0    0  0.84846133192E+01  0.13886708460E+02  0.56413690306E+01  0.17223657563E+02  0.51100000000E-03 0. -1.
        -11    1    4    4    0    0 -0.12989151968E+02  0.10353073641E+02  0.14944621863E+02  0.22343811796E+02  0.51100000000E-03 0.  1.
        -12    1    4    4    0    0 -0.48926973468E+01 -0.82886972018E+01  0.11242219392E+02  0.14799610991E+02  0.00000000000E+00 0.  1.
</event>
<event>
 8    1  0.2450026E-006  0.9118800E+02  0.7816164E-02  0.1184000E+00
        -11   -1    0    0    0    0  0.00000000000E+00  0.00000000000E+00  0.45593999997E+02  0.45594000000E+02  0.51100000000E-03 0.  1.
         11   -1    0    0    0    0 -0.00000000000E+00 -0.00000000000E+00 -0.45593999997E+02  0.45594000000E+02  0.51100000000E-03 0. -1.
         23    2    1    2    0    0 -0.71054273576E-14  0.88817841970E-15 -0.88817841970E-15  0.91188000000E+02  0.91188000000E+02 0.  0.
    9900012    2    3    3    0    0 -0.35768695981E+02  0.63626671090E+01 -0.59914103476E+01  0.54367080092E+02  0.39999990686E+02 0.  0.
        -12    1    3    3    0    0  0.35768695981E+02 -0.63626671090E+01  0.59914103476E+01  0.36820919908E+02  0.00000000000E+00 0.  1.
         11    1    4    4    0    0 -0.33963205335E+02 -0.50369593145E+01 -0.11055565093E+02  0.36070705505E+02  0.51100000000E-03 0. -1.
        -11    1    4    4    0    0 -0.57623440185E+01  0.48639637163E+00  0.29687476354E+01  0.65003578980E+01  0.51100000000E-03 0.  1.
        -12    1    4    4    0    0  0.39568533730E+01  0.10913230052E+02  0.20954071104E+01  0.11796016690E+02  0.00000000000E+00 0.  1.
</event>
<event>
 8    1  0.2450026E-006  0.9118800E+02  0.7816164E-02  0.1184000E+00
        -11   -1    0    0    0    0  0.00000000000E+00  0.00000000000E+00  0.45593999997E+02  0.45594000000E+02  0.51100000000E-03 0. -1.
         11   -1    0    0    0    0 -0.00000000000E+00 -0.00000000000E+00 -0.45593999997E+02  0.45594000000E+02  0.51100000000E-03 0.  1.
         23    2    1    2    0    0  0.71054273576E-14  0.88817841970E-15  0.35527136788E-14  0.91188000000E+02  0.91188000000E+02 0.  0.
    9900012    2    3    3    0    0  0.33413294592E+02  0.17555389166E+01  0.15370430990E+02  0.54367077671E+02  0.39999985166E+02 0.  0.
        -12    1    3    3    0    0 -0.33413294592E+02 -0.17555389166E+01 -0.15370430990E+02  0.36820922329E+02  0.00000000000E+00 0.  1.
         11    1    4    4    0    0  0.59947451843E+01 -0.39595630181E+01 -0.74373484830E+01  0.10340660609E+02  0.51100000000E-03 0. -1.
        -11    1    4    4    0    0  0.13850552580E+01 -0.61718094907E+01 -0.14736462468E+01  0.64947089218E+01  0.51100000000E-03 0.  1.
         12    1    4    4    0    0  0.26033494150E+02  0.11886911425E+02  0.24281425720E+02  0.37531708139E+02  0.00000000000E+00 0. -1.
</event>
<event>
 8    1  0.2450026E-006  0.9118800E+02  0.7816164E-02  0.1184000E+00
        -11   -1    0    0    0    0  0.00000000000E+00  0.00000000000E+00  0.45593999997E+02  0.45594000000E+02  0.51100000000E-03 0. -1.
         11   -1    0    0    0    0 -0.00000000000E+00 -0.00000000000E+00 -0.45593999997E+02  0.45594000000E+02  0.51100000000E-03 0.  1.
         23    2    1    2    0    0 -0.35527136788E-14  0.00000000000E+00  0.35527136788E-14  0.91188000000E+02  0.91188000000E+02 0.  0.
    9900012    2    3    3    0    0 -0.20951542894E+02 -0.20402963812E+02  0.22372685690E+02  0.54367012140E+02  0.39999835776E+02 0.  0.
        -12    1    3    3    0    0  0.20951542894E+02  0.20402963812E+02 -0.22372685690E+02  0.36820987860E+02  0.00000000000E+00 0.  1.
         11    1    4    4    0    0 -0.13577539607E+02 -0.18651330610E+02  0.36758806011E+01  0.23360946337E+02  0.51100000000E-03 0. -1.
        -11    1    4    4    0    0 -0.12766547417E+02 -0.72499752877E+01  0.54060023686E+01  0.15645182533E+02  0.51100000000E-03 0.  1.
         12    1    4    4    0    0  0.53925441298E+01  0.54983420853E+01  0.13290802721E+02  0.15360883270E+02  0.00000000000E+00 0. -1.
</event>
<event>
 8    1  0.2450026E-006  0.9118800E+02  0.7816164E-02  0.1184000E+00
        -11   -1    0    0    0    0  0.00000000000E+00  0.00000000000E+00  0.45593999997E+02  0.45594000000E+02  0.51100000000E-03 0.  1.
         11   -1    0    0    0    0 -0.00000000000E+00 -0.00000000000E+00 -0.45593999997E+02  0.45594000000E+02  0.51100000000E-03 0. -1.
         23    2    1    2    0    0  0.88817841970E-15 -0.71054273576E-14  0.35527136788E-14  0.91188000000E+02  0.91188000000E+02 0.  0.
    9900012    2    3    3    0    0  0.50827383935E+01 -0.32188467011E+02  0.17142024728E+02  0.54367073208E+02  0.39999974991E+02 0.  0.
         12    1    3    3    0    0 -0.50827383935E+01  0.32188467011E+02 -0.17142024728E+02  0.36820926792E+02  0.00000000000E+00 0. -1.
         11    1    4    4    0    0 -0.11854347171E+02 -0.99246851381E+01  0.64123347005E+00  0.15473722970E+02  0.51100000000E-03 0. -1.
        -11    1    4    4    0    0  0.17616923020E+02 -0.23971078302E+02  0.88674352951E+01  0.31041906846E+02  0.51100000000E-03 0.  1.
         12    1    4    4    0    0 -0.67983745569E+00  0.17072964296E+01  0.76333559632E+01  0.78514433912E+01  0.00000000000E+00 0. -1.
</event>
<event>
 8    1  0.2450026E-006  0.9118800E+02  0.7816164E-02  0.1184000E+00
        -11   -1    0    0    0    0  0.00000000000E+00  0.00000000000E+00  0.45593999997E+02  0.45594000000E+02  0.51100000000E-03 0.  1.
         11   -1    0    0    0    0 -0.00000000000E+00 -0.00000000000E+00 -0.45593999997E+02  0.45594000000E+02  0.51100000000E-03 0. -1.
         23    2    1    2    0    0  0.00000000000E+00 -0.13877787808E-15  0.71054273576E-14  0.91188000000E+02  0.91188000000E+02 0.  0.
    9900012    2    3    3    0    0 -0.57471789125E+01  0.11087899190E+00 -0.36369449090E+02  0.54367093076E+02  0.40000020285E+02 0.  0.
        -12    1    3    3    0    0  0.57471789125E+01 -0.11087899190E+00  0.36369449090E+02  0.36820906924E+02  0.00000000000E+00 0.  1.
         11    1    4    4    0    0  0.71468557974E+01  0.53213060759E+01 -0.22961974904E+02  0.24630187533E+02  0.51100000000E-03 0. -1.
        -11    1    4    4    0    0 -0.88474597200E+01 -0.84978994081E+00  0.51340492157E+01  0.10264411725E+02  0.51100000000E-03 0.  1.
        -12    1    4    4    0    0 -0.40465749898E+01 -0.43606371432E+01 -0.18541523402E+02  0.19472493818E+02  0.00000000000E+00 0.  1.
</event>
<event>
 8    1  0.2450026E-006  0.9118800E+02  0.7816164E-02  0.1184000E+00
        -11   -1    0    0    0    0  0.00000000000E+00  0.00000000000E+00  0.45593999997E+02  0.45594000000E+02  0.51100000000E-03 0.  1.
         11   -1    0    0    0    0 -0.00000000000E+00 -0.00000000000E+00 -0.45593999997E+02  0.45594000000E+02  0.51100000000E-03 0. -1.
         23    2    1    2    0    0  0.00000000000E+00  0.00000000000E+00 -0.35527136788E-14  0.91188000000E+02  0.91188000000E+02 0.  0.
    9900012    2    3    3    0    0  0.14706844777E+02  0.20543764818E+02  0.26785219825E+02  0.54367006569E+02  0.39999823075E+02 0.  0.
         12    1    3    3    0    0 -0.14706844777E+02 -0.20543764818E+02 -0.26785219825E+02  0.36820993431E+02  0.00000000000E+00 0. -1.
         11    1    4    4    0    0  0.75231851793E+01  0.37220614920E+01 -0.72432860341E+00  0.84247676039E+01  0.51100000000E-03 0. -1.
        -11    1    4    4    0    0  0.17641387582E+02  0.16976921057E+02  0.25388351043E+02  0.35270423492E+02  0.51100000000E-03 0.  1.
         12    1    4    4    0    0 -0.10457727984E+02 -0.15521773174E+00  0.21211973862E+01  0.10671815473E+02  0.00000000000E+00 0. -1.
</event>
<event>
 8    1  0.2450026E-006  0.9118800E+02  0.7816164E-02  0.1184000E+00
        -11   -1    0    0    0    0  0.00000000000E+00  0.00000000000E+00  0.45593999997E+02  0.45594000000E+02  0.51100000000E-03 0. -1.
         11   -1    0    0    0    0 -0.00000000000E+00 -0.00000000000E+00 -0.45593999997E+02  0.45594000000E+02  0.51100000000E-03 0.  1.
         23    2    1    2    0    0 -0.17763568394E-14 -0.44408920985E-15  0.00000000000E+00  0.91188000000E+02  0.91188000000E+02 0.  0.
    9900012    2    3    3    0    0 -0.12887984958E+02 -0.10417963861E+01  0.34475963081E+02  0.54367115622E+02  0.40000071684E+02 0.  0.
        -12    1    3    3    0    0  0.12887984958E+02  0.10417963861E+01 -0.34475963081E+02  0.36820884378E+02  0.00000000000E+00 0.  1.
         11    1    4    4    0    0 -0.49193253615E+01 -0.82241467910E+01  0.28601419382E+02  0.30164176491E+02  0.51100000000E-03 0. -1.
        -11    1    4    4    0    0 -0.13973282099E+02  0.86612545310E+01  0.70848733812E+01  0.17901546686E+02  0.51100000000E-03 0.  1.
         12    1    4    4    0    0  0.60046225018E+01 -0.14789041260E+01 -0.12103296827E+01  0.63013924449E+01  0.00000000000E+00 0. -1.
</event>
<event>
 8    1  0.2450026E-006  0.9118800E+02  0.7816164E-02  0.1184000E+00
        -11   -1    0    0    0    0  0.00000000000E+00  0.00000000000E+00  0.45593999997E+02  0.45594000000E+02  0.51100000000E-03 0.  1.
         11   -1    0    0    0    0 -0.00000000000E+00 -0.00000000000E+00 -0.45593999997E+02  0.45594000000E+02  0.51100000000E-03 0. -1.
         23    2    1    2    0    0  0.00000000000E+00  0.35527136788E-14  0.00000000000E+00  0.91188000000E+02  0.91188000000E+02 0.  0.
    9900012    2    3    3    0    0  0.26445817611E+02  0.25011542189E+02  0.55516985954E+01  0.54367083810E+02  0.39999999161E+02 0.  0.
         12    1    3    3    0    0 -0.26445817611E+02 -0.25011542189E+02 -0.55516985954E+01  0.36820916190E+02  0.00000000000E+00 0. -1.
         11    1    4    4    0    0 -0.57503255956E+01 -0.20780855718E+01  0.33475618565E+01  0.69707140771E+01  0.51100000000E-03 0. -1.
        -11    1    4    4    0    0  0.78626707323E+01  0.20750098808E+02  0.15081546464E+01  0.22241014417E+02  0.51100000000E-03 0.  1.
        -12    1    4    4    0    0  0.24333472474E+02  0.63395289529E+01  0.69598209243E+00  0.25155355316E+02  0.00000000000E+00 0.  1.
</event>
<event>
 8    1  0.2450026E-006  0.9118800E+02  0.7816164E-02  0.1184000E+00
        -11   -1    0    0    0    0  0.00000000000E+00  0.00000000000E+00  0.45593999997E+02  0.45594000000E+02  0.51100000000E-03 0. -1.
         11   -1    0    0    0    0 -0.00000000000E+00 -0.00000000000E+00 -0.45593999997E+02  0.45594000000E+02  0.51100000000E-03 0.  1.
         23    2    1    2    0    0  0.00000000000E+00  0.00000000000E+00 -0.35527136788E-14  0.91188000000E+02  0.91188000000E+02 0.  0.
    9900012    2    3    3    0    0 -0.21032535553E+02  0.61603038506E+01  0.29588222057E+02  0.54367085023E+02  0.40000001926E+02 0.  0.
        -12    1    3    3    0    0  0.21032535553E+02 -0.61603038506E+01 -0.29588222057E+02  0.36820914977E+02  0.00000000000E+00 0.  1.
         11    1    4    4    0    0 -0.12021669171E+02 -0.11482035112E+02  0.11122571889E+02  0.20001731566E+02  0.51100000000E-03 0. -1.
        -11    1    4    4    0    0 -0.59388755441E+01  0.41661499595E+01 -0.37763486454E+01  0.81784997136E+01  0.51100000000E-03 0.  1.
        -12    1    4    4    0    0 -0.30719908375E+01  0.13476189003E+02  0.22241998813E+02  0.26186853742E+02  0.00000000000E+00 0.  1.
</event>
<event>
 8    1  0.2450026E-006  0.9118800E+02  0.7816164E-02  0.1184000E+00
        -11   -1    0    0    0    0  0.00000000000E+00  0.00000000000E+00  0.45593999997E+02  0.45594000000E+02  0.51100000000E-03 0. -1.
         11   -1    0    0    0    0 -0.00000000000E+00 -0.00000000000E+00 -0.45593999997E+02  0.45594000000E+02  0.51100000000E-03 0.  1.
         23    2    1    2    0    0  0.71054273576E-14 -0.11102230246E-15  0.22204460493E-14  0.91188000000E+02  0.91188000000E+02 0.  0.
    9900012    2    3    3    0    0 -0.36648684729E+02  0.86898793925E+00  0.34494261487E+01  0.54367085112E+02  0.40000002130E+02 0.  0.
         12    1    3    3    0    0  0.36648684729E+02 -0.86898793925E+00 -0.34494261487E+01  0.36820914888E+02  0.00000000000E+00 0. -1.
         11    1    4    4    0    0 -0.29540493564E+01 -0.91877808142E+00  0.14102462869E+02  0.14437798308E+02  0.51100000000E-03 0. -1.
        -11    1    4    4    0    0  0.18767566057E+01 -0.18598028617E+01 -0.14154756947E+01  0.29974411996E+01  0.51100000000E-03 0.  1.
         12    1    4    4    0    0 -0.35571391978E+02  0.36475688824E+01 -0.92375610256E+01  0.36931845604E+02  0.00000000000E+00 0. -1.
</event>
<event>
 8    1  0.2450026E-006  0.9118800E+02  0.7816164E-02  0.1184000E+00
        -11   -1    0    0    0    0  0.00000000000E+00  0.00000000000E+00  0.45593999997E+02  0.45594000000E+02  0.51100000000E-03 0.  1.
         11   -1    0    0    0    0 -0.00000000000E+00 -0.00000000000E+00 -0.45593999997E+02  0.45594000000E+02  0.51100000000E-03 0. -1.
         23    2    1    2    0    0  0.95756735874E-15  0.00000000000E+00  0.00000000000E+00  0.91188000000E+02  0.91188000000E+02 0.  0.
    9900012    2    3    3    0    0 -0.44636167953E-01  0.32645607504E+02  0.17030606308E+02  0.54367092448E+02  0.40000018854E+02 0.  0.
         12    1    3    3    0    0  0.44636167953E-01 -0.32645607504E+02 -0.17030606308E+02  0.36820907552E+02  0.00000000000E+00 0. -1.
         11    1    4    4    0    0  0.93870151477E+01  0.10362086813E+02 -0.24098053106E+01  0.14187884211E+02  0.51100000000E-03 0. -1.
        -11    1    4    4    0    0 -0.86362264197E+01  0.16540156878E+02  0.25627012886E+02  0.31700236372E+02  0.51100000000E-03 0.  1.
        -12    1    4    4    0    0 -0.79542489596E+00  0.57433638131E+01 -0.61866012667E+01  0.84789718651E+01  0.00000000000E+00 0.  1.
</event>
<event>
 8    1  0.2450026E-006  0.9118800E+02  0.7816164E-02  0.1184000E+00
        -11   -1    0    0    0    0  0.00000000000E+00  0.00000000000E+00  0.45593999997E+02  0.45594000000E+02  0.51100000000E-03 0.  1.
         11   -1    0    0    0    0 -0.00000000000E+00 -0.00000000000E+00 -0.45593999997E+02  0.45594000000E+02  0.51100000000E-03 0. -1.
         23    2    1    2    0    0 -0.35527136788E-14  0.00000000000E+00 -0.35527136788E-14  0.91188000000E+02  0.91188000000E+02 0.  0.
    9900012    2    3    3    0    0  0.18054687817E+02  0.23840626754E+02  0.21480976565E+02  0.54367087595E+02  0.40000007790E+02 0.  0.
         12    1    3    3    0    0 -0.18054687817E+02 -0.23840626754E+02 -0.21480976565E+02  0.36820912405E+02  0.00000000000E+00 0. -1.
         11    1    4    4    0    0  0.88495103598E+01  0.64951582140E+01  0.33779909673E+01  0.11485283500E+02  0.51100000000E-03 0. -1.
        -11    1    4    4    0    0 -0.16516237579E+01 -0.74391788344E+01  0.13403803833E+02  0.15418534309E+02  0.51100000000E-03 0.  1.
         12    1    4    4    0    0  0.10856801215E+02  0.24784647374E+02  0.46991817640E+01  0.27463269786E+02  0.00000000000E+00 0. -1.
</event>
<event>
 8    1  0.2450026E-006  0.9118800E+02  0.7816164E-02  0.1184000E+00
        -11   -1    0    0    0    0  0.00000000000E+00  0.00000000000E+00  0.45593999997E+02  0.45594000000E+02  0.51100000000E-03 0.  1.
         11   -1    0    0    0    0 -0.00000000000E+00 -0.00000000000E+00 -0.45593999997E+02  0.45594000000E+02  0.51100000000E-03 0. -1.
         23    2    1    2    0    0  0.88817841970E-15 -0.14210854715E-13  0.00000000000E+00  0.91188000000E+02  0.91188000000E+02 0.  0.
    9900012    2    3    3    0    0 -0.70193084501E+01  0.35309744669E+02 -0.77285737506E+01  0.54367087302E+02  0.40000007123E+02 0.  0.
        -12    1    3    3    0    0  0.70193084501E+01 -0.35309744669E+02  0.77285737506E+01  0.36820912698E+02  0.00000000000E+00 0.  1.
         11    1    4    4    0    0  0.37696850579E+01 -0.47389163598E+00 -0.80559337754E+00  0.38838228164E+01  0.51100000000E-03 0. -1.
        -11    1    4    4    0    0 -0.38855352691E+01 -0.59913064319E+01 -0.36387075262E+01  0.80145698456E+01  0.51100000000E-03 0.  1.
         12    1    4    4    0    0 -0.69034582389E+01  0.41774942737E+02 -0.32842728468E+01  0.42468694640E+02  0.00000000000E+00 0. -1.
</event>
<event>
 8    1  0.2450026E-006  0.9118800E+02  0.7816164E-02  0.1184000E+00
        -11   -1    0    0    0    0  0.00000000000E+00  0.00000000000E+00  0.45593999997E+02  0.45594000000E+02  0.51100000000E-03 0. -1.
         11   -1    0    0    0    0 -0.00000000000E+00 -0.00000000000E+00 -0.45593999997E+02  0.45594000000E+02  0.51100000000E-03 0.  1.
         23    2    1    2    0    0  0.00000000000E+00  0.35527136788E-14  0.35527136788E-14  0.91188000000E+02  0.91188000000E+02 0.  0.
    9900012    2    3    3    0    0  0.25538286589E+02 -0.18630081021E+02 -0.18881098247E+02  0.54367083774E+02  0.39999999079E+02 0.  0.
         12    1    3    3    0    0 -0.25538286589E+02  0.18630081021E+02  0.18881098247E+02  0.36820916226E+02  0.00000000000E+00 0. -1.
         11    1    4    4    0    0 -0.42426684758E+01 -0.14556541266E+01  0.11864740855E+01  0.46397075067E+01  0.51100000000E-03 0. -1.
        -11    1    4    4    0    0  0.20813737685E+02 -0.18841202377E+02 -0.43358014368E+00  0.28078293670E+02  0.51100000000E-03 0.  1.
        -12    1    4    4    0    0  0.89672173798E+01  0.16667754825E+01 -0.19633992189E+02  0.21649082597E+02  0.00000000000E+00 0.  1.
</event>
<event>
 8    1  0.2450026E-006  0.9118800E+02  0.7816164E-02  0.1184000E+00
        -11   -1    0    0    0    0  0.00000000000E+00  0.00000000000E+00  0.45593999997E+02  0.45594000000E+02  0.51100000000E-03 0. -1.
         11   -1    0    0    0    0 -0.00000000000E+00 -0.00000000000E+00 -0.45593999997E+02  0.45594000000E+02  0.51100000000E-03 0.  1.
         23    2    1    2    0    0  0.88817841970E-15  0.35527136788E-14  0.00000000000E+00  0.91188000000E+02  0.91188000000E+02 0.  0.
    9900012    2    3    3    0    0 -0.67266909699E+01  0.20031972869E+02  0.30153798965E+02  0.54367083384E+02  0.39999998192E+02 0.  0.
        -12    1    3    3    0    0  0.67266909699E+01 -0.20031972869E+02 -0.30153798965E+02  0.36820916616E+02  0.00000000000E+00 0.  1.
         11    1    4    4    0    0  0.98631893407E+01 -0.55903306228E+01  0.51993546967E+01  0.12472673730E+02  0.51100000000E-03 0. -1.
        -11    1    4    4    0    0 -0.10506651054E+02  0.43630754305E+01  0.65677692640E+01  0.13136275612E+02  0.51100000000E-03 0.  1.
        -12    1    4    4    0    0 -0.60832292565E+01  0.21259228061E+02  0.18386675004E+02  0.28758134043E+02  0.00000000000E+00 0.  1.
</event>
<event>
 8    1  0.2450026E-006  0.9118800E+02  0.7816164E-02  0.1184000E+00
        -11   -1    0    0    0    0  0.00000000000E+00  0.00000000000E+00  0.45593999997E+02  0.45594000000E+02  0.51100000000E-03 0. -1.
         11   -1    0    0    0    0 -0.00000000000E+00 -0.00000000000E+00 -0.45593999997E+02  0.45594000000E+02  0.51100000000E-03 0.  1.
         23    2    1    2    0    0 -0.35527136788E-14 -0.35527136788E-14  0.00000000000E+00  0.91188000000E+02  0.91188000000E+02 0.  0.
    9900012    2    3    3    0    0 -0.25320633367E+02  0.16016447200E+02  0.21403633435E+02  0.54367128483E+02  0.40000101003E+02 0.  0.
        -12    1    3    3    0    0  0.25320633367E+02 -0.16016447200E+02 -0.21403633435E+02  0.36820871517E+02  0.00000000000E+00 0.  1.
         11    1    4    4    0    0 -0.11777585241E+02 -0.44364384787E+01 -0.42464801816E+01  0.13282548501E+02  0.51100000000E-03 0. -1.
        -11    1    4    4    0    0 -0.62018772802E+01  0.22790346734E+02  0.22917222120E+02  0.32909911213E+02  0.51100000000E-03 0.  1.
        -12    1    4    4    0    0 -0.73411708450E+01 -0.23374610550E+01  0.27328914967E+01  0.81746687695E+01  0.00000000000E+00 0.  1.
</event>
<event>
 8    1  0.2450026E-006  0.9118800E+02  0.7816164E-02  0.1184000E+00
        -11   -1    0    0    0    0  0.00000000000E+00  0.00000000000E+00  0.45593999997E+02  0.45594000000E+02  0.51100000000E-03 0.  1.
         11   -1    0    0    0    0 -0.00000000000E+00 -0.00000000000E+00 -0.45593999997E+02  0.45594000000E+02  0.51100000000E-03 0. -1.
         23    2    1    2    0    0  0.35527136788E-14  0.00000000000E+00  0.00000000000E+00  0.91188000000E+02  0.91188000000E+02 0.  0.
    9900012    2    3    3    0    0  0.16652075033E+02  0.53369748342E+01 -0.32403775276E+02  0.54367088069E+02  0.40000008871E+02 0.  0.
        -12    1    3    3    0    0 -0.16652075033E+02 -0.53369748342E+01  0.32403775276E+02  0.36820911931E+02  0.00000000000E+00 0.  1.
         11    1    4    4    0    0  0.77885556734E+01  0.91627064619E+00 -0.17615151295E+02  0.19281978809E+02  0.51100000000E-03 0. -1.
        -11    1    4    4    0    0  0.34635330755E+01 -0.48072727585E+01  0.79752805790E+01  0.99353426370E+01  0.51100000000E-03 0.  1.
        -12    1    4    4    0    0  0.53999862838E+01  0.92279769465E+01 -0.22763904560E+02  0.25149766623E+02  0.00000000000E+00 0.  1.
</event>
<event>
 8    1  0.2450026E-006  0.9118800E+02  0.7816164E-02  0.1184000E+00
        -11   -1    0    0    0    0  0.00000000000E+00  0.00000000000E+00  0.45593999997E+02  0.45594000000E+02  0.51100000000E-03 0.  1.
         11   -1    0    0    0    0 -0.00000000000E+00 -0.00000000000E+00 -0.45593999997E+02  0.45594000000E+02  0.51100000000E-03 0. -1.
         23    2    1    2    0    0 -0.35527136788E-14  0.00000000000E+00  0.35527136788E-14  0.91188000000E+02  0.91188000000E+02 0.  0.
    9900012    2    3    3    0    0 -0.17473315591E+02 -0.29663698494E+02  0.13058673172E+02  0.54367072376E+02  0.39999973095E+02 0.  0.
         12    1    3    3    0    0  0.17473315591E+02  0.29663698494E+02 -0.13058673172E+02  0.36820927624E+02  0.00000000000E+00 0. -1.
         11    1    4    4    0    0 -0.21168697640E+02 -0.19282476504E+02  0.15722798357E+02  0.32667017744E+02  0.51100000000E-03 0. -1.
        -11    1    4    4    0    0 -0.17907719786E+01 -0.11987676413E+02  0.41446364723E+01  0.12809733089E+02  0.51100000000E-03 0.  1.
        -12    1    4    4    0    0  0.54861540278E+01  0.16064544222E+01 -0.68087616572E+01  0.88903215426E+01  0.00000000000E+00 0.  1.
</event>
<event>
 8    1  0.2450026E-006  0.9118800E+02  0.7816164E-02  0.1184000E+00
        -11   -1    0    0    0    0  0.00000000000E+00  0.00000000000E+00  0.45593999997E+02  0.45594000000E+02  0.51100000000E-03 0. -1.
         11   -1    0    0    0    0 -0.00000000000E+00 -0.00000000000E+00 -0.45593999997E+02  0.45594000000E+02  0.51100000000E-03 0.  1.
         23    2    1    2    0    0  0.00000000000E+00  0.71054273576E-14  0.00000000000E+00  0.91188000000E+02  0.91188000000E+02 0.  0.
    9900012    2    3    3    0    0 -0.22459656072E+02  0.18575136559E+02 -0.22501278404E+02  0.54367090466E+02  0.40000014336E+02 0.  0.
         12    1    3    3    0    0  0.22459656072E+02 -0.18575136559E+02  0.22501278404E+02  0.36820909534E+02  0.00000000000E+00 0. -1.
         11    1    4    4    0    0  0.11151107282E+01 -0.17436822087E+01  0.34165495877E+01  0.39945852009E+01  0.51100000000E-03 0. -1.
        -11    1    4    4    0    0 -0.55269532885E+01  0.24030088630E+02 -0.16603748914E+02  0.29726702650E+02  0.51100000000E-03 0.  1.
         12    1    4    4    0    0 -0.18047813512E+02 -0.37112698619E+01 -0.93140790775E+01  0.20645802615E+02  0.00000000000E+00 0. -1.
</event>
<event>
 8    1  0.2450026E-006  0.9118800E+02  0.7816164E-02  0.1184000E+00
        -11   -1    0    0    0    0  0.00000000000E+00  0.00000000000E+00  0.45593999997E+02  0.45594000000E+02  0.51100000000E-03 0. -1.
         11   -1    0    0    0    0 -0.00000000000E+00 -0.00000000000E+00 -0.45593999997E+02  0.45594000000E+02  0.51100000000E-03 0.  1.
         23    2    1    2    0    0 -0.35527136788E-14  0.00000000000E+00  0.00000000000E+00  0.91188000000E+02  0.91188000000E+02 0.  0.
    9900012    2    3    3    0    0 -0.25657807413E+02  0.20820287252E+02 -0.16247181629E+02  0.54367104392E+02  0.40000046082E+02 0.  0.
         12    1    3    3    0    0  0.25657807413E+02 -0.20820287252E+02  0.16247181629E+02  0.36820895608E+02  0.00000000000E+00 0. -1.
         11    1    4    4    0    0  0.37385384426E+01  0.15726597022E+02 -0.42304797692E+01  0.16709263386E+02  0.51100000000E-03 0. -1.
        -11    1    4    4    0    0  0.23930965063E+01  0.14139183489E+01 -0.36363783392E+01  0.45770431146E+01  0.51100000000E-03 0.  1.
        -12    1    4    4    0    0 -0.31789442362E+02  0.36797718812E+01 -0.83803235209E+01  0.33080797891E+02  0.00000000000E+00 0.  1.
</event>
<event>
 8    1  0.2450026E-006  0.9118800E+02  0.7816164E-02  0.1184000E+00
        -11   -1    0    0    0    0  0.00000000000E+00  0.00000000000E+00  0.45593999997E+02  0.45594000000E+02  0.51100000000E-03 0.  1.
         11   -1    0    0    0    0 -0.00000000000E+00 -0.00000000000E+00 -0.45593999997E+02  0.45594000000E+02  0.51100000000E-03 0. -1.
         23    2    1    2    0    0  0.00000000000E+00  0.00000000000E+00  0.35527136788E-14  0.91188000000E+02  0.91188000000E+02 0.  0.
    9900012    2    3    3    0    0  0.83977200002E+01 -0.23366357417E+02 -0.27189545030E+02  0.54367085847E+02  0.40000003804E+02 0.  0.
        -12    1    3    3    0    0 -0.83977200002E+01  0.23366357417E+02  0.27189545030E+02  0.36820914153E+02  0.00000000000E+00 0.  1.
         11    1    4    4    0    0  0.11405927654E+02 -0.91059231941E+01  0.38049851159E+01  0.15082802619E+02  0.51100000000E-03 0.  1.
        -11    1    4    4    0    0  0.16135787980E+01  0.86862694566E+00  0.19883199323E+01  0.27039907031E+01  0.51100000000E-03 0. -1.
         12    1    4    4    0    0 -0.46217864517E+01 -0.15129061169E+02 -0.32982850078E+02  0.36580292524E+02  0.00000000000E+00 0. -1.
</event>
<event>
 8    1  0.2450026E-006  0.9118800E+02  0.7816164E-02  0.1184000E+00
        -11   -1    0    0    0    0  0.00000000000E+00  0.00000000000E+00  0.45593999997E+02  0.45594000000E+02  0.51100000000E-03 0.  1.
         11   -1    0    0    0    0 -0.00000000000E+00 -0.00000000000E+00 -0.45593999997E+02  0.45594000000E+02  0.51100000000E-03 0. -1.
         23    2    1    2    0    0  0.00000000000E+00  0.00000000000E+00  0.35527136788E-14  0.91188000000E+02  0.91188000000E+02 0.  0.
    9900012    2    3    3    0    0  0.13126976894E+02 -0.24228264053E+02  0.24422383880E+02  0.54367093768E+02  0.40000021863E+02 0.  0.
         12    1    3    3    0    0 -0.13126976894E+02  0.24228264053E+02 -0.24422383880E+02  0.36820906232E+02  0.00000000000E+00 0. -1.
         11    1    4    4    0    0  0.17878379804E+01 -0.46970425171E+01  0.23302672456E+02  0.23838479753E+02  0.51100000000E-03 0. -1.
        -11    1    4    4    0    0  0.35093508482E+01 -0.87372802469E+01  0.10591982860E+02  0.14172004468E+02  0.51100000000E-03 0.  1.
         12    1    4    4    0    0  0.78297880656E+01 -0.10793941289E+02 -0.94722714365E+01  0.16356609547E+02  0.00000000000E+00 0. -1.
</event>
<event>
 8    1  0.2450026E-006  0.9118800E+02  0.7816164E-02  0.1184000E+00
        -11   -1    0    0    0    0  0.00000000000E+00  0.00000000000E+00  0.45593999997E+02  0.45594000000E+02  0.51100000000E-03 0.  1.
         11   -1    0    0    0    0 -0.00000000000E+00 -0.00000000000E+00 -0.45593999997E+02  0.45594000000E+02  0.51100000000E-03 0. -1.
         23    2    1    2    0    0  0.00000000000E+00  0.00000000000E+00 -0.88817841970E-15  0.91188000000E+02  0.91188000000E+02 0.  0.
    9900012    2    3    3    0    0 -0.36063105437E+02  0.44946391841E+01 -0.59187810330E+01  0.54367064052E+02  0.39999954120E+02 0.  0.
         12    1    3    3    0    0  0.36063105437E+02 -0.44946391841E+01  0.59187810330E+01  0.36820935948E+02  0.00000000000E+00 0. -1.
         11    1    4    4    0    0 -0.10568178433E+02 -0.93336799425E+01 -0.15426333210E+02  0.20899180205E+02  0.51100000000E-03 0. -1.
        -11    1    4    4    0    0 -0.11042245166E+02  0.36709361989E+01 -0.27621599917E+01  0.11959785908E+02  0.51100000000E-03 0.  1.
        -12    1    4    4    0    0 -0.14452681838E+02  0.10157382928E+02  0.12269712169E+02  0.21508097939E+02  0.00000000000E+00 0.  1.
</event>
<event>
 8    1  0.2450026E-006  0.9118800E+02  0.7816164E-02  0.1184000E+00
        -11   -1    0    0    0    0  0.00000000000E+00  0.00000000000E+00  0.45593999997E+02  0.45594000000E+02  0.51100000000E-03 0.  1.
         11   -1    0    0    0    0 -0.00000000000E+00 -0.00000000000E+00 -0.45593999997E+02  0.45594000000E+02  0.51100000000E-03 0. -1.
         23    2    1    2    0    0  0.88817841970E-15  0.35527136788E-14 -0.35527136788E-14  0.91188000000E+02  0.91188000000E+02 0.  0.
    9900012    2    3    3    0    0  0.59746667815E+01  0.26305070609E+02 -0.25062457966E+02  0.54367079558E+02  0.39999989468E+02 0.  0.
        -12    1    3    3    0    0 -0.59746667815E+01 -0.26305070609E+02  0.25062457966E+02  0.36820920442E+02  0.00000000000E+00 0.  1.
         11    1    4    4    0    0 -0.10578618328E+02  0.49922731798E+01 -0.19510462698E+02  0.22748365044E+02  0.51100000000E-03 0. -1.
        -11    1    4    4    0    0 -0.58689843287E+00  0.48580548333E+01  0.36855401901E+01  0.61260389558E+01  0.51100000000E-03 0.  1.
         12    1    4    4    0    0  0.17140183542E+02  0.16454742596E+02 -0.92375354578E+01  0.25492675558E+02  0.00000000000E+00 0. -1.
</event>
<event>
 8    1  0.2450026E-006  0.9118800E+02  0.7816164E-02  0.1184000E+00
        -11   -1    0    0    0    0  0.00000000000E+00  0.00000000000E+00  0.45593999997E+02  0.45594000000E+02  0.51100000000E-03 0.  1.
         11   -1    0    0    0    0 -0.00000000000E+00 -0.00000000000E+00 -0.45593999997E+02  0.45594000000E+02  0.51100000000E-03 0. -1.
         23    2    1    2    0    0  0.00000000000E+00 -0.35527136788E-14  0.00000000000E+00  0.91188000000E+02  0.91188000000E+02 0.  0.
    9900012    2    3    3    0    0 -0.13690080952E+02 -0.28773075959E+02  0.18451884534E+02  0.54367078509E+02  0.39999987077E+02 0.  0.
         12    1    3    3    0    0  0.13690080952E+02  0.28773075959E+02 -0.18451884534E+02  0.36820921491E+02  0.00000000000E+00 0. -1.
         11    1    4    4    0    0 -0.35288325104E+01  0.37032778702E+01  0.96076362594E+01  0.10884557897E+02  0.51100000000E-03 0. -1.
        -11    1    4    4    0    0  0.37354232739E+01 -0.19002537826E+02 -0.46129456421E+01  0.19908015939E+02  0.51100000000E-03 0.  1.
        -12    1    4    4    0    0 -0.13896671715E+02 -0.13473816003E+02  0.13457193917E+02  0.23574504673E+02  0.00000000000E+00 0.  1.
</event>
<event>
 8    1  0.2450026E-006  0.9118800E+02  0.7816164E-02  0.1184000E+00
        -11   -1    0    0    0    0  0.00000000000E+00  0.00000000000E+00  0.45593999997E+02  0.45594000000E+02  0.51100000000E-03 0. -1.
         11   -1    0    0    0    0 -0.00000000000E+00 -0.00000000000E+00 -0.45593999997E+02  0.45594000000E+02  0.51100000000E-03 0.  1.
         23    2    1    2    0    0  0.17763568394E-14  0.35527136788E-14  0.00000000000E+00  0.91188000000E+02  0.91188000000E+02 0.  0.
    9900012    2    3    3    0    0 -0.14967430665E+02 -0.30395241083E+02  0.14418212593E+02  0.54367088610E+02  0.40000010104E+02 0.  0.
         12    1    3    3    0    0  0.14967430665E+02  0.30395241083E+02 -0.14418212593E+02  0.36820911390E+02  0.00000000000E+00 0. -1.
         11    1    4    4    0    0 -0.12488431553E+02 -0.98375002177E+01 -0.78674669309E+01  0.17737935882E+02  0.51100000000E-03 0. -1.
        -11    1    4    4    0    0 -0.26295775552E+01  0.16827247443E+01 -0.19925500071E+01  0.37035788740E+01  0.51100000000E-03 0.  1.
        -12    1    4    4    0    0  0.15057844375E+00 -0.22240465610E+02  0.24278229531E+02  0.32925573854E+02  0.00000000000E+00 0.  1.
</event>
<event>
 8    1  0.2450026E-006  0.9118800E+02  0.7816164E-02  0.1184000E+00
        -11   -1    0    0    0    0  0.00000000000E+00  0.00000000000E+00  0.45593999997E+02  0.45594000000E+02  0.51100000000E-03 0.  1.
         11   -1    0    0    0    0 -0.00000000000E+00 -0.00000000000E+00 -0.45593999997E+02  0.45594000000E+02  0.51100000000E-03 0. -1.
         23    2    1    2    0    0  0.00000000000E+00  0.00000000000E+00  0.00000000000E+00  0.91188000000E+02  0.91188000000E+02 0.  0.
    9900012    2    3    3    0    0 -0.44017988717E+01  0.30302034067E+02  0.20449700744E+02  0.54367090690E+02  0.40000014845E+02 0.  0.
         12    1    3    3    0    0  0.44017988717E+01 -0.30302034067E+02 -0.20449700744E+02  0.36820909310E+02  0.00000000000E+00 0. -1.
         11    1    4    4    0    0 -0.86267832020E+01  0.80380823036E+01  0.95845162366E+01  0.15195233045E+02  0.51100000000E-03 0. -1.
        -11    1    4    4    0    0  0.10670493897E+01  0.26559667801E+02  0.16602246478E+02  0.31339896880E+02  0.51100000000E-03 0.  1.
        -12    1    4    4    0    0  0.31579349405E+01 -0.42957160374E+01 -0.57370619706E+01  0.78319607646E+01  0.00000000000E+00 0.  1.
</event>
<event>
 8    1  0.2450026E-006  0.9118800E+02  0.7816164E-02  0.1184000E+00
        -11   -1    0    0    0    0  0.00000000000E+00  0.00000000000E+00  0.45593999997E+02  0.45594000000E+02  0.51100000000E-03 0.  1.
         11   -1    0    0    0    0 -0.00000000000E+00 -0.00000000000E+00 -0.45593999997E+02  0.45594000000E+02  0.51100000000E-03 0. -1.
         23    2    1    2    0    0  0.00000000000E+00  0.35527136788E-14  0.17763568394E-14  0.91188000000E+02  0.91188000000E+02 0.  0.
    9900012    2    3    3    0    0 -0.18001671696E+02  0.30669642080E+02 -0.95442731921E+01  0.54367078231E+02  0.39999986443E+02 0.  0.
        -12    1    3    3    0    0  0.18001671696E+02 -0.30669642080E+02  0.95442731921E+01  0.36820921769E+02  0.00000000000E+00 0.  1.
         11    1    4    4    0    0 -0.29591320334E+01  0.29417895272E+00 -0.13475918182E+02  0.13800122273E+02  0.51100000000E-03 0. -1.
        -11    1    4    4    0    0  0.17889877313E+01 -0.22590499641E+01 -0.18077864042E+01  0.34017459910E+01  0.51100000000E-03 0.  1.
        -12    1    4    4    0    0 -0.16831527394E+02  0.32634513091E+02  0.57394313943E+01  0.37165209966E+02  0.00000000000E+00 0.  1.
</event>
<event>
 8    1  0.2450026E-006  0.9118800E+02  0.7816164E-02  0.1184000E+00
        -11   -1    0    0    0    0  0.00000000000E+00  0.00000000000E+00  0.45593999997E+02  0.45594000000E+02  0.51100000000E-03 0. -1.
         11   -1    0    0    0    0 -0.00000000000E+00 -0.00000000000E+00 -0.45593999997E+02  0.45594000000E+02  0.51100000000E-03 0.  1.
         23    2    1    2    0    0  0.00000000000E+00  0.88817841970E-15  0.00000000000E+00  0.91188000000E+02  0.91188000000E+02 0.  0.
    9900012    2    3    3    0    0  0.34427278397E+02 -0.63832889637E+01  0.11392792860E+02  0.54367087396E+02  0.40000007337E+02 0.  0.
        -12    1    3    3    0    0 -0.34427278397E+02  0.63832889637E+01 -0.11392792860E+02  0.36820912604E+02  0.00000000000E+00 0.  1.
         11    1    4    4    0    0  0.26059403118E+02 -0.12965262568E+02  0.14436769592E+02  0.32490165294E+02  0.51100000000E-03 0. -1.
        -11    1    4    4    0    0  0.95822557616E+01  0.57483752950E+01  0.60209398326E+01  0.12693114698E+02  0.51100000000E-03 0.  1.
        -12    1    4    4    0    0 -0.12143804825E+01  0.83359830887E+00 -0.90649165649E+01  0.91838074035E+01  0.00000000000E+00 0.  1.
</event>
<event>
 8    1  0.2450026E-006  0.9118800E+02  0.7816164E-02  0.1184000E+00
        -11   -1    0    0    0    0  0.00000000000E+00  0.00000000000E+00  0.45593999997E+02  0.45594000000E+02  0.51100000000E-03 0.  1.
         11   -1    0    0    0    0 -0.00000000000E+00 -0.00000000000E+00 -0.45593999997E+02  0.45594000000E+02  0.51100000000E-03 0. -1.
         23    2    1    2    0    0 -0.35527136788E-14  0.00000000000E+00 -0.17763568394E-14  0.91188000000E+02  0.91188000000E+02 0.  0.
    9900012    2    3    3    0    0 -0.20074640796E+02 -0.27387115887E+02  0.14238479478E+02  0.54367087225E+02  0.40000006948E+02 0.  0.
         12    1    3    3    0    0  0.20074640796E+02  0.27387115887E+02 -0.14238479478E+02  0.36820912775E+02  0.00000000000E+00 0. -1.
         11    1    4    4    0    0  0.38768447599E+01 -0.21652790016E+01  0.50254173774E+01  0.67062044798E+01  0.51100000000E-03 0. -1.
        -11    1    4    4    0    0 -0.69640115662E+01 -0.21820977748E+02 -0.69816858319E+01  0.23945698242E+02  0.51100000000E-03 0.  1.
        -12    1    4    4    0    0 -0.16987473990E+02 -0.34008591372E+01  0.16194747933E+02  0.23715184503E+02  0.00000000000E+00 0.  1.
</event>
<event>
 8    1  0.2450026E-006  0.9118800E+02  0.7816164E-02  0.1184000E+00
        -11   -1    0    0    0    0  0.00000000000E+00  0.00000000000E+00  0.45593999997E+02  0.45594000000E+02  0.51100000000E-03 0.  1.
         11   -1    0    0    0    0 -0.00000000000E+00 -0.00000000000E+00 -0.45593999997E+02  0.45594000000E+02  0.51100000000E-03 0. -1.
         23    2    1    2    0    0  0.00000000000E+00  0.35527136788E-14 -0.71054273576E-14  0.91188000000E+02  0.91188000000E+02 0.  0.
    9900012    2    3    3    0    0 -0.80151973921E+01  0.25141175334E+02 -0.25679907427E+02  0.54367085673E+02  0.40000003409E+02 0.  0.
        -12    1    3    3    0    0  0.80151973921E+01 -0.25141175334E+02  0.25679907427E+02  0.36820914327E+02  0.00000000000E+00 0.  1.
         11    1    4    4    0    0  0.68112071666E+01  0.23589554823E+02 -0.16786246173E+02  0.29742859658E+02  0.51100000000E-03 0. -1.
        -11    1    4    4    0    0 -0.15316010926E+02  0.29133095704E+01  0.23274094625E-01  0.15590641593E+02  0.51100000000E-03 0.  1.
        -12    1    4    4    0    0  0.48960636733E+00 -0.13616890594E+01 -0.89169353490E+01  0.90335844219E+01  0.00000000000E+00 0.  1.
</event>
<event>
 8    1  0.2450026E-006  0.9118800E+02  0.7816164E-02  0.1184000E+00
        -11   -1    0    0    0    0  0.00000000000E+00  0.00000000000E+00  0.45593999997E+02  0.45594000000E+02  0.51100000000E-03 0.  1.
         11   -1    0    0    0    0 -0.00000000000E+00 -0.00000000000E+00 -0.45593999997E+02  0.45594000000E+02  0.51100000000E-03 0. -1.
         23    2    1    2    0    0  0.00000000000E+00 -0.35527136788E-14  0.35527136788E-14  0.91188000000E+02  0.91188000000E+02 0.  0.
    9900012    2    3    3    0    0  0.20059555457E+02 -0.17162936209E+02 -0.25667648713E+02  0.54367077484E+02  0.39999984740E+02 0.  0.
        -12    1    3    3    0    0 -0.20059555457E+02  0.17162936209E+02  0.25667648713E+02  0.36820922516E+02  0.00000000000E+00 0.  1.
         11    1    4    4    0    0  0.51100341441E+01  0.55936249758E+01 -0.20123905345E+02  0.21502852274E+02  0.51100000000E-03 0. -1.
        -11    1    4    4    0    0  0.21631647753E+01 -0.44558101045E+01 -0.90002483860E+01  0.10273168781E+02  0.51100000000E-03 0.  1.
        -12    1    4    4    0    0  0.12786356538E+02 -0.18300751081E+02  0.34565050180E+01  0.22591056429E+02  0.00000000000E+00 0.  1.
</event>
<event>
 8    1  0.2450026E-006  0.9118800E+02  0.7816164E-02  0.1184000E+00
        -11   -1    0    0    0    0  0.00000000000E+00  0.00000000000E+00  0.45593999997E+02  0.45594000000E+02  0.51100000000E-03 0.  1.
         11   -1    0    0    0    0 -0.00000000000E+00 -0.00000000000E+00 -0.45593999997E+02  0.45594000000E+02  0.51100000000E-03 0. -1.
         23    2    1    2    0    0  0.00000000000E+00 -0.88817841970E-15  0.00000000000E+00  0.91188000000E+02  0.91188000000E+02 0.  0.
    9900012    2    3    3    0    0 -0.32225930710E+02 -0.75404976279E+01 -0.16136865179E+02  0.54367243185E+02  0.40000362488E+02 0.  0.
        -12    1    3    3    0    0  0.32225930710E+02  0.75404976279E+01  0.16136865179E+02  0.36820756815E+02  0.00000000000E+00 0.  1.
         11    1    4    4    0    0 -0.17415735039E+02 -0.19943749844E+02 -0.12795248261E+02  0.29407131161E+02  0.51100000000E-03 0. -1.
        -11    1    4    4    0    0 -0.79611626192E+01 -0.20572980525E+01  0.12421108035E+01  0.83159740882E+01  0.51100000000E-03 0.  1.
         12    1    4    4    0    0 -0.68490330514E+01  0.14460550269E+02 -0.45837277214E+01  0.16644137936E+02  0.00000000000E+00 0. -1.
</event>
<event>
 8    1  0.2450026E-006  0.9118800E+02  0.7816164E-02  0.1184000E+00
        -11   -1    0    0    0    0  0.00000000000E+00  0.00000000000E+00  0.45593999997E+02  0.45594000000E+02  0.51100000000E-03 0. -1.
         11   -1    0    0    0    0 -0.00000000000E+00 -0.00000000000E+00 -0.45593999997E+02  0.45594000000E+02  0.51100000000E-03 0.  1.
         23    2    1    2    0    0  0.00000000000E+00 -0.17763568394E-14 -0.44408920985E-15  0.91188000000E+02  0.91188000000E+02 0.  0.
    9900012    2    3    3    0    0  0.34457021588E+02  0.12913091397E+02  0.13222418421E+01  0.54367046867E+02  0.39999914942E+02 0.  0.
         12    1    3    3    0    0 -0.34457021588E+02 -0.12913091397E+02 -0.13222418421E+01  0.36820953133E+02  0.00000000000E+00 0. -1.
         11    1    4    4    0    0  0.14865068710E+02  0.50772008940E+01  0.98651829306E+01  0.18549125887E+02  0.51100000000E-03 0. -1.
        -11    1    4    4    0    0  0.26174411195E+02  0.93402981319E+01 -0.51611804399E+01  0.28266212240E+02  0.51100000000E-03 0.  1.
         12    1    4    4    0    0 -0.65824583164E+01 -0.15044076290E+01 -0.33817606486E+01  0.75517087394E+01  0.00000000000E+00 0. -1.
</event>
<event>
 8    1  0.2450026E-006  0.9118800E+02  0.7816164E-02  0.1184000E+00
        -11   -1    0    0    0    0  0.00000000000E+00  0.00000000000E+00  0.45593999997E+02  0.45594000000E+02  0.51100000000E-03 0.  1.
         11   -1    0    0    0    0 -0.00000000000E+00 -0.00000000000E+00 -0.45593999997E+02  0.45594000000E+02  0.51100000000E-03 0. -1.
         23    2    1    2    0    0  0.00000000000E+00  0.00000000000E+00  0.00000000000E+00  0.91188000000E+02  0.91188000000E+02 0.  0.
    9900012    2    3    3    0    0  0.71521331579E+01  0.97439332154E+01  0.34780498312E+02  0.54367077876E+02  0.39999985635E+02 0.  0.
         12    1    3    3    0    0 -0.71521331579E+01 -0.97439332154E+01 -0.34780498312E+02  0.36820922124E+02  0.00000000000E+00 0. -1.
         11    1    4    4    0    0 -0.40086156029E+01  0.73429424421E+01 -0.61292611788E+01  0.10370903799E+02  0.51100000000E-03 0. -1.
        -11    1    4    4    0    0  0.11895966621E+02 -0.14613992532E+01  0.26984052563E+02  0.29526069880E+02  0.51100000000E-03 0.  1.
         12    1    4    4    0    0 -0.73521786015E+00  0.38623900265E+01  0.13925706928E+02  0.14470104197E+02  0.00000000000E+00 0. -1.
</event>
<event>
 8    1  0.2450026E-006  0.9118800E+02  0.7816164E-02  0.1184000E+00
        -11   -1    0    0    0    0  0.00000000000E+00  0.00000000000E+00  0.45593999997E+02  0.45594000000E+02  0.51100000000E-03 0. -1.
         11   -1    0    0    0    0 -0.00000000000E+00 -0.00000000000E+00 -0.45593999997E+02  0.45594000000E+02  0.51100000000E-03 0.  1.
         23    2    1    2    0    0 -0.11102230246E-15  0.00000000000E+00  0.17763568394E-14  0.91188000000E+02  0.91188000000E+02 0.  0.
    9900012    2    3    3    0    0 -0.31729240138E+00 -0.36767240374E+02  0.19618657120E+01  0.54367088058E+02  0.40000008845E+02 0.  0.
        -12    1    3    3    0    0  0.31729240138E+00  0.36767240374E+02 -0.19618657120E+01  0.36820911942E+02  0.00000000000E+00 0.  1.
         11    1    4    4    0    0 -0.22043938122E+01 -0.10820016561E+02 -0.16141151931E+02  0.19556812020E+02  0.51100000000E-03 0. -1.
        -11    1    4    4    0    0  0.20780196025E+01 -0.98326062395E+01 -0.66592833502E+00  0.10071830605E+02  0.51100000000E-03 0.  1.
         12    1    4    4    0    0 -0.19091819173E+00 -0.16114617573E+02  0.18768945978E+02  0.24738445432E+02  0.00000000000E+00 0. -1.
</event>
<event>
 8    1  0.2450026E-006  0.9118800E+02  0.7816164E-02  0.1184000E+00
        -11   -1    0    0    0    0  0.00000000000E+00  0.00000000000E+00  0.45593999997E+02  0.45594000000E+02  0.51100000000E-03 0.  1.
         11   -1    0    0    0    0 -0.00000000000E+00 -0.00000000000E+00 -0.45593999997E+02  0.45594000000E+02  0.51100000000E-03 0. -1.
         23    2    1    2    0    0  0.00000000000E+00  0.00000000000E+00 -0.35527136788E-14  0.91188000000E+02  0.91188000000E+02 0.  0.
    9900012    2    3    3    0    0  0.60282135667E+01 -0.27695590753E+02 -0.23503087020E+02  0.54367079242E+02  0.39999988748E+02 0.  0.
        -12    1    3    3    0    0 -0.60282135667E+01  0.27695590753E+02  0.23503087020E+02  0.36820920758E+02  0.00000000000E+00 0.  1.
         11    1    4    4    0    0  0.52817409832E+01 -0.15174088631E+02 -0.15410763623E+02  0.22263004947E+02  0.51100000000E-03 0.  1.
        -11    1    4    4    0    0 -0.73596675654E+01 -0.19180843760E+02 -0.60469603481E+01  0.21415769978E+02  0.51100000000E-03 0. -1.
        -12    1    4    4    0    0  0.81061401489E+01  0.66593416375E+01 -0.20453630493E+01  0.10688304317E+02  0.00000000000E+00 0.  1.
</event>
<event>
 8    1  0.2450026E-006  0.9118800E+02  0.7816164E-02  0.1184000E+00
        -11   -1    0    0    0    0  0.00000000000E+00  0.00000000000E+00  0.45593999997E+02  0.45594000000E+02  0.51100000000E-03 0. -1.
         11   -1    0    0    0    0 -0.00000000000E+00 -0.00000000000E+00 -0.45593999997E+02  0.45594000000E+02  0.51100000000E-03 0.  1.
         23    2    1    2    0    0  0.00000000000E+00  0.71054273576E-14 -0.88817841970E-15  0.91188000000E+02  0.91188000000E+02 0.  0.
    9900012    2    3    3    0    0  0.19239705600E+02  0.30926640379E+02 -0.53996591844E+01  0.54367086431E+02  0.40000005137E+02 0.  0.
         12    1    3    3    0    0 -0.19239705600E+02 -0.30926640379E+02  0.53996591844E+01  0.36820913569E+02  0.00000000000E+00 0. -1.
         11    1    4    4    0    0  0.63488703724E+01  0.43946068394E+01  0.33201790675E+01  0.84050171671E+01  0.51100000000E-03 0. -1.
        -11    1    4    4    0    0  0.11436166664E+02  0.17215233161E+02 -0.21667997408E+02  0.29944152562E+02  0.51100000000E-03 0.  1.
         12    1    4    4    0    0  0.14546685639E+01  0.93168003791E+01  0.12948159156E+02  0.16017916702E+02  0.00000000000E+00 0. -1.
</event>
<event>
 8    1  0.2450026E-006  0.9118800E+02  0.7816164E-02  0.1184000E+00
        -11   -1    0    0    0    0  0.00000000000E+00  0.00000000000E+00  0.45593999997E+02  0.45594000000E+02  0.51100000000E-03 0.  1.
         11   -1    0    0    0    0 -0.00000000000E+00 -0.00000000000E+00 -0.45593999997E+02  0.45594000000E+02  0.51100000000E-03 0. -1.
         23    2    1    2    0    0 -0.35527136788E-14 -0.88817841970E-15  0.00000000000E+00  0.91188000000E+02  0.91188000000E+02 0.  0.
    9900012    2    3    3    0    0 -0.24743094939E+02  0.77829223682E+01  0.26133980185E+02  0.54367088169E+02  0.40000009100E+02 0.  0.
         12    1    3    3    0    0  0.24743094939E+02 -0.77829223682E+01 -0.26133980185E+02  0.36820911831E+02  0.00000000000E+00 0. -1.
         11    1    4    4    0    0 -0.58102630596E+01 -0.58063473760E+01  0.18679160026E+02  0.20405485689E+02  0.51100000000E-03 0. -1.
        -11    1    4    4    0    0 -0.23967709145E+02  0.11136639831E+02  0.26116205977E+01  0.26557416870E+02  0.51100000000E-03 0.  1.
         12    1    4    4    0    0  0.50348772655E+01  0.24526299128E+01  0.48431995612E+01  0.74041856107E+01  0.00000000000E+00 0. -1.
</event>
<event>
 8    1  0.2450026E-006  0.9118800E+02  0.7816164E-02  0.1184000E+00
        -11   -1    0    0    0    0  0.00000000000E+00  0.00000000000E+00  0.45593999997E+02  0.45594000000E+02  0.51100000000E-03 0.  1.
         11   -1    0    0    0    0 -0.00000000000E+00 -0.00000000000E+00 -0.45593999997E+02  0.45594000000E+02  0.51100000000E-03 0. -1.
         23    2    1    2    0    0  0.00000000000E+00  0.00000000000E+00  0.00000000000E+00  0.91188000000E+02  0.91188000000E+02 0.  0.
    9900012    2    3    3    0    0  0.20813627247E+02 -0.16464082335E+02 -0.25524617374E+02  0.54367093189E+02  0.40000020543E+02 0.  0.
        -12    1    3    3    0    0 -0.20813627247E+02  0.16464082335E+02  0.25524617374E+02  0.36820906811E+02  0.00000000000E+00 0.  1.
         11    1    4    4    0    0  0.14444448946E+02  0.62826535671E+01 -0.47718745393E+01  0.16458573088E+02  0.51100000000E-03 0. -1.
        -11    1    4    4    0    0 -0.47932362130E+01 -0.17946274508E+02 -0.77942645011E+01  0.20144340185E+02  0.51100000000E-03 0.  1.
         12    1    4    4    0    0  0.11162414514E+02 -0.48004613936E+01 -0.12958478334E+02  0.17764179916E+02  0.00000000000E+00 0. -1.
</event>
<event>
 8    1  0.2450026E-006  0.9118800E+02  0.7816164E-02  0.1184000E+00
        -11   -1    0    0    0    0  0.00000000000E+00  0.00000000000E+00  0.45593999997E+02  0.45594000000E+02  0.51100000000E-03 0.  1.
         11   -1    0    0    0    0 -0.00000000000E+00 -0.00000000000E+00 -0.45593999997E+02  0.45594000000E+02  0.51100000000E-03 0. -1.
         23    2    1    2    0    0  0.00000000000E+00  0.00000000000E+00  0.00000000000E+00  0.91188000000E+02  0.91188000000E+02 0.  0.
    9900012    2    3    3    0    0 -0.46668629957E+01  0.36102807294E+02 -0.55305850078E+01  0.54367086442E+02  0.40000005162E+02 0.  0.
        -12    1    3    3    0    0  0.46668629957E+01 -0.36102807294E+02  0.55305850078E+01  0.36820913558E+02  0.00000000000E+00 0.  1.
         11    1    4    4    0    0 -0.91125663768E+01  0.22364154210E+02 -0.46424412489E+01  0.24591594510E+02  0.51100000000E-03 0. -1.
        -11    1    4    4    0    0 -0.73659282288E+01 -0.38847475511E+01 -0.18787128925E+01  0.85368451199E+01  0.51100000000E-03 0.  1.
         12    1    4    4    0    0  0.11811631610E+02  0.17623400635E+02  0.99056913363E+00  0.21238646812E+02  0.00000000000E+00 0. -1.
</event>
<event>
 8    1  0.2450026E-006  0.9118800E+02  0.7816164E-02  0.1184000E+00
        -11   -1    0    0    0    0  0.00000000000E+00  0.00000000000E+00  0.45593999997E+02  0.45594000000E+02  0.51100000000E-03 0.  1.
         11   -1    0    0    0    0 -0.00000000000E+00 -0.00000000000E+00 -0.45593999997E+02  0.45594000000E+02  0.51100000000E-03 0. -1.
         23    2    1    2    0    0  0.00000000000E+00  0.00000000000E+00  0.00000000000E+00  0.91188000000E+02  0.91188000000E+02 0.  0.
    9900012    2    3    3    0    0  0.26059612826E+02 -0.24088478221E+02  0.98194822022E+01  0.54367076134E+02  0.39999981662E+02 0.  0.
         12    1    3    3    0    0 -0.26059612826E+02  0.24088478221E+02 -0.98194822022E+01  0.36820923866E+02  0.00000000000E+00 0. -1.
         11    1    4    4    0    0  0.92860376567E+01 -0.12119809813E+02  0.10667708816E+01  0.15305498542E+02  0.51100000000E-03 0. -1.
        -11    1    4    4    0    0 -0.35828623448E+01 -0.13656521310E+02  0.11811095477E+02  0.18407592278E+02  0.51100000000E-03 0.  1.
         12    1    4    4    0    0  0.20356437514E+02  0.16878529008E+01 -0.30583841561E+01  0.20653985313E+02  0.00000000000E+00 0. -1.
</event>
<event>
 8    1  0.2450026E-006  0.9118800E+02  0.7816164E-02  0.1184000E+00
        -11   -1    0    0    0    0  0.00000000000E+00  0.00000000000E+00  0.45593999997E+02  0.45594000000E+02  0.51100000000E-03 0.  1.
         11   -1    0    0    0    0 -0.00000000000E+00 -0.00000000000E+00 -0.45593999997E+02  0.45594000000E+02  0.51100000000E-03 0. -1.
         23    2    1    2    0    0  0.00000000000E+00 -0.35527136788E-14  0.00000000000E+00  0.91188000000E+02  0.91188000000E+02 0.  0.
    9900012    2    3    3    0    0  0.31412484651E+02  0.16734879413E+02 -0.94329365056E+01  0.54367072907E+02  0.39999974305E+02 0.  0.
         12    1    3    3    0    0 -0.31412484651E+02 -0.16734879413E+02  0.94329365056E+01  0.36820927093E+02  0.00000000000E+00 0. -1.
         11    1    4    4    0    0 -0.45361597573E+00  0.18915824516E+01 -0.71826203335E+01  0.74413632313E+01  0.51100000000E-03 0. -1.
        -11    1    4    4    0    0  0.28198310341E+02  0.18283672509E+02  0.88384755265E+01  0.34749906998E+02  0.51100000000E-03 0.  1.
        -12    1    4    4    0    0  0.36677902856E+01 -0.34403755476E+01 -0.11088791699E+02  0.12175802677E+02  0.00000000000E+00 0.  1.
</event>
<event>
 8    1  0.2450026E-006  0.9118800E+02  0.7816164E-02  0.1184000E+00
        -11   -1    0    0    0    0  0.00000000000E+00  0.00000000000E+00  0.45593999997E+02  0.45594000000E+02  0.51100000000E-03 0. -1.
         11   -1    0    0    0    0 -0.00000000000E+00 -0.00000000000E+00 -0.45593999997E+02  0.45594000000E+02  0.51100000000E-03 0.  1.
         23    2    1    2    0    0  0.00000000000E+00  0.17763568394E-14 -0.35527136788E-14  0.91188000000E+02  0.91188000000E+02 0.  0.
    9900012    2    3    3    0    0  0.24514946666E+02 -0.14678683513E+02 -0.23223648366E+02  0.54367024957E+02  0.39999864994E+02 0.  0.
         12    1    3    3    0    0 -0.24514946666E+02  0.14678683513E+02  0.23223648366E+02  0.36820975043E+02  0.00000000000E+00 0. -1.
         11    1    4    4    0    0  0.21856752517E+01 -0.86088000828E+01  0.81335307300E+00  0.89190895642E+01  0.51100000000E-03 0. -1.
        -11    1    4    4    0    0  0.29754784745E+02 -0.38563588183E+01 -0.22610471889E+02  0.37569298075E+02  0.51100000000E-03 0.  1.
         12    1    4    4    0    0 -0.74255133307E+01 -0.22135246118E+01 -0.14265295499E+01  0.78786373180E+01  0.00000000000E+00 0. -1.
</event>
<event>
 8    1  0.2450026E-006  0.9118800E+02  0.7816164E-02  0.1184000E+00
        -11   -1    0    0    0    0  0.00000000000E+00  0.00000000000E+00  0.45593999997E+02  0.45594000000E+02  0.51100000000E-03 0. -1.
         11   -1    0    0    0    0 -0.00000000000E+00 -0.00000000000E+00 -0.45593999997E+02  0.45594000000E+02  0.51100000000E-03 0.  1.
         23    2    1    2    0    0 -0.21094237468E-14 -0.35527136788E-14 -0.71054273576E-14  0.91188000000E+02  0.91188000000E+02 0.  0.
    9900012    2    3    3    0    0  0.84499288314E+00 -0.25421222638E+02 -0.26623806942E+02  0.54367086520E+02  0.40000005340E+02 0.  0.
         12    1    3    3    0    0 -0.84499288314E+00  0.25421222638E+02  0.26623806942E+02  0.36820913480E+02  0.00000000000E+00 0. -1.
         11    1    4    4    0    0  0.12899626382E+02 -0.56710561816E+01 -0.82821090711E+00  0.14115494061E+02  0.51100000000E-03 0. -1.
        -11    1    4    4    0    0 -0.80817917280E+00  0.23490001386E+01 -0.11213596173E+02  0.11485455786E+02  0.51100000000E-03 0.  1.
         12    1    4    4    0    0 -0.11246454327E+02 -0.22099166595E+02 -0.14581999862E+02  0.28766136673E+02  0.00000000000E+00 0. -1.
</event>
<event>
 8    1  0.2450026E-006  0.9118800E+02  0.7816164E-02  0.1184000E+00
        -11   -1    0    0    0    0  0.00000000000E+00  0.00000000000E+00  0.45593999997E+02  0.45594000000E+02  0.51100000000E-03 0.  1.
         11   -1    0    0    0    0 -0.00000000000E+00 -0.00000000000E+00 -0.45593999997E+02  0.45594000000E+02  0.51100000000E-03 0. -1.
         23    2    1    2    0    0 -0.88817841970E-15  0.35527136788E-14  0.00000000000E+00  0.91188000000E+02  0.91188000000E+02 0.  0.
    9900012    2    3    3    0    0  0.18354833218E+01 -0.26734847703E+02 -0.25251902342E+02  0.54367086750E+02  0.40000005863E+02 0.  0.
        -12    1    3    3    0    0 -0.18354833218E+01  0.26734847703E+02  0.25251902342E+02  0.36820913250E+02  0.00000000000E+00 0.  1.
         11    1    4    4    0    0  0.10530277022E+02 -0.31085534884E+02 -0.23015539155E+02  0.40086310083E+02  0.51100000000E-03 0. -1.
        -11    1    4    4    0    0 -0.34533367374E+01  0.71770957505E+01 -0.13466028593E+00  0.79658252359E+01  0.51100000000E-03 0.  1.
         12    1    4    4    0    0 -0.52414569628E+01 -0.28264085686E+01 -0.21017029006E+01  0.63149514307E+01  0.00000000000E+00 0. -1.
</event>
<event>
 8    1  0.2450026E-006  0.9118800E+02  0.7816164E-02  0.1184000E+00
        -11   -1    0    0    0    0  0.00000000000E+00  0.00000000000E+00  0.45593999997E+02  0.45594000000E+02  0.51100000000E-03 0.  1.
         11   -1    0    0    0    0 -0.00000000000E+00 -0.00000000000E+00 -0.45593999997E+02  0.45594000000E+02  0.51100000000E-03 0. -1.
         23    2    1    2    0    0  0.00000000000E+00  0.00000000000E+00  0.35527136788E-14  0.91188000000E+02  0.91188000000E+02 0.  0.
    9900012    2    3    3    0    0  0.20632201019E+02 -0.11982102326E+01 -0.30473810957E+02  0.54367128461E+02  0.40000100953E+02 0.  0.
        -12    1    3    3    0    0 -0.20632201019E+02  0.11982102326E+01  0.30473810957E+02  0.36820871539E+02  0.00000000000E+00 0.  1.
         11    1    4    4    0    0  0.20916393378E+02 -0.24486309495E+01 -0.10191237173E+02  0.23395568402E+02  0.51100000000E-03 0. -1.
        -11    1    4    4    0    0 -0.18119186670E+01 -0.48114723442E+01  0.36051587286E+01  0.62793698008E+01  0.51100000000E-03 0.  1.
         12    1    4    4    0    0  0.15277263074E+01  0.60618930611E+01 -0.23887732513E+02  0.24692190258E+02  0.00000000000E+00 0. -1.
</event>
<event>
 8    1  0.2450026E-006  0.9118800E+02  0.7816164E-02  0.1184000E+00
        -11   -1    0    0    0    0  0.00000000000E+00  0.00000000000E+00  0.45593999997E+02  0.45594000000E+02  0.51100000000E-03 0. -1.
         11   -1    0    0    0    0 -0.00000000000E+00 -0.00000000000E+00 -0.45593999997E+02  0.45594000000E+02  0.51100000000E-03 0.  1.
         23    2    1    2    0    0  0.00000000000E+00  0.88817841970E-15  0.00000000000E+00  0.91188000000E+02  0.91188000000E+02 0.  0.
    9900012    2    3    3    0    0  0.36067807001E+02  0.59748697278E+01  0.43809240085E+01  0.54367105588E+02  0.40000048810E+02 0.  0.
         12    1    3    3    0    0 -0.36067807001E+02 -0.59748697278E+01 -0.43809240085E+01  0.36820894412E+02  0.00000000000E+00 0. -1.
         11    1    4    4    0    0  0.10060140838E+02 -0.11274357752E+02 -0.39338128787E+01  0.15613854759E+02  0.51100000000E-03 0. -1.
        -11    1    4    4    0    0  0.45502315904E+01  0.14781390134E+02  0.73740191450E+01  0.17133892156E+02  0.51100000000E-03 0.  1.
        -12    1    4    4    0    0  0.21457434572E+02  0.24678373457E+01  0.94071774218E+00  0.21619358673E+02  0.00000000000E+00 0.  1.
</event>
<event>
 8    1  0.2450026E-006  0.9118800E+02  0.7816164E-02  0.1184000E+00
        -11   -1    0    0    0    0  0.00000000000E+00  0.00000000000E+00  0.45593999997E+02  0.45594000000E+02  0.51100000000E-03 0.  1.
         11   -1    0    0    0    0 -0.00000000000E+00 -0.00000000000E+00 -0.45593999997E+02  0.45594000000E+02  0.51100000000E-03 0. -1.
         23    2    1    2    0    0  0.00000000000E+00 -0.17763568394E-14  0.71054273576E-14  0.91188000000E+02  0.91188000000E+02 0.  0.
    9900012    2    3    3    0    0 -0.11733196413E+02 -0.15249484975E+02  0.31393669128E+02  0.54367120713E+02  0.40000083290E+02 0.  0.
         12    1    3    3    0    0  0.11733196413E+02  0.15249484975E+02 -0.31393669128E+02  0.36820879287E+02  0.00000000000E+00 0. -1.
         11    1    4    4    0    0  0.13304635864E+02 -0.31505898991E+01  0.48011857684E+01  0.14491064047E+02  0.51100000000E-03 0. -1.
        -11    1    4    4    0    0 -0.13794179835E+01  0.15895051715E+01  0.67817634648E+00  0.22111635130E+01  0.51100000000E-03 0.  1.
        -12    1    4    4    0    0 -0.23658414294E+02 -0.13688400248E+02  0.25914307014E+02  0.37664893153E+02  0.00000000000E+00 0.  1.
</event>
<event>
 8    1  0.2450026E-006  0.9118800E+02  0.7816164E-02  0.1184000E+00
        -11   -1    0    0    0    0  0.00000000000E+00  0.00000000000E+00  0.45593999997E+02  0.45594000000E+02  0.51100000000E-03 0.  1.
         11   -1    0    0    0    0 -0.00000000000E+00 -0.00000000000E+00 -0.45593999997E+02  0.45594000000E+02  0.51100000000E-03 0. -1.
         23    2    1    2    0    0 -0.71054273576E-14  0.00000000000E+00 -0.17763568394E-14  0.91188000000E+02  0.91188000000E+02 0.  0.
    9900012    2    3    3    0    0  0.35589678099E+02  0.52053638541E+01  0.78777177831E+01  0.54367089670E+02  0.40000012522E+02 0.  0.
        -12    1    3    3    0    0 -0.35589678099E+02 -0.52053638541E+01 -0.78777177831E+01  0.36820910330E+02  0.00000000000E+00 0.  1.
         11    1    4    4    0    0  0.21069980173E+02 -0.26279185641E+01 -0.40447091181E+01  0.21615033948E+02  0.51100000000E-03 0. -1.
        -11    1    4    4    0    0  0.10880302775E+02  0.46048456060E+01 -0.66468677468E+01  0.13556048194E+02  0.51100000000E-03 0.  1.
        -12    1    4    4    0    0  0.36393951510E+01  0.32284368123E+01  0.18569294648E+02  0.19196007529E+02  0.00000000000E+00 0.  1.
</event>
<event>
 8    1  0.2450026E-006  0.9118800E+02  0.7816164E-02  0.1184000E+00
        -11   -1    0    0    0    0  0.00000000000E+00  0.00000000000E+00  0.45593999997E+02  0.45594000000E+02  0.51100000000E-03 0.  1.
         11   -1    0    0    0    0 -0.00000000000E+00 -0.00000000000E+00 -0.45593999997E+02  0.45594000000E+02  0.51100000000E-03 0. -1.
         23    2    1    2    0    0  0.00000000000E+00 -0.35527136788E-14  0.71054273576E-14  0.91188000000E+02  0.91188000000E+02 0.  0.
    9900012    2    3    3    0    0 -0.18080777445E+02 -0.20309424179E+02  0.24827203298E+02  0.54367119414E+02  0.40000080329E+02 0.  0.
         12    1    3    3    0    0  0.18080777445E+02  0.20309424179E+02 -0.24827203298E+02  0.36820880586E+02  0.00000000000E+00 0. -1.
         11    1    4    4    0    0 -0.13636571418E+02  0.73630692161E+01  0.90537697300E+00  0.15523871168E+02  0.51100000000E-03 0. -1.
        -11    1    4    4    0    0 -0.24898768002E+01 -0.11735925001E+02  0.28138936594E+01  0.12322719663E+02  0.51100000000E-03 0.  1.
         12    1    4    4    0    0 -0.19543292273E+01 -0.15936568394E+02  0.21107932666E+02  0.26520528583E+02  0.00000000000E+00 0. -1.
</event>
<event>
 8    1  0.2450026E-006  0.9118800E+02  0.7816164E-02  0.1184000E+00
        -11   -1    0    0    0    0  0.00000000000E+00  0.00000000000E+00  0.45593999997E+02  0.45594000000E+02  0.51100000000E-03 0. -1.
         11   -1    0    0    0    0 -0.00000000000E+00 -0.00000000000E+00 -0.45593999997E+02  0.45594000000E+02  0.51100000000E-03 0.  1.
         23    2    1    2    0    0  0.88817841970E-15  0.00000000000E+00  0.71054273576E-14  0.91188000000E+02  0.91188000000E+02 0.  0.
    9900012    2    3    3    0    0  0.79926046408E+01 -0.16167622078E+02  0.32101539836E+02  0.54367046829E+02  0.39999914856E+02 0.  0.
        -12    1    3    3    0    0 -0.79926046408E+01  0.16167622078E+02 -0.32101539836E+02  0.36820953171E+02  0.00000000000E+00 0.  1.
         11    1    4    4    0    0  0.12352743126E+02 -0.10162246908E+02  0.22089117655E+02  0.27272525443E+02  0.51100000000E-03 0. -1.
        -11    1    4    4    0    0 -0.22304394593E+01 -0.82630783822E+01  0.17229586435E+02  0.19238294454E+02  0.51100000000E-03 0.  1.
        -12    1    4    4    0    0 -0.21296990263E+01  0.22577032123E+01 -0.72171642542E+01  0.78562269321E+01  0.00000000000E+00 0.  1.
</event>
<event>
 8    1  0.2450026E-006  0.9118800E+02  0.7816164E-02  0.1184000E+00
        -11   -1    0    0    0    0  0.00000000000E+00  0.00000000000E+00  0.45593999997E+02  0.45594000000E+02  0.51100000000E-03 0.  1.
         11   -1    0    0    0    0 -0.00000000000E+00 -0.00000000000E+00 -0.45593999997E+02  0.45594000000E+02  0.51100000000E-03 0. -1.
         23    2    1    2    0    0  0.00000000000E+00  0.35527136788E-14 -0.35527136788E-14  0.91188000000E+02  0.91188000000E+02 0.  0.
    9900012    2    3    3    0    0  0.41892356089E+01 -0.19922425966E+02  0.30681063892E+02  0.54367076154E+02  0.39999981707E+02 0.  0.
         12    1    3    3    0    0 -0.41892356089E+01  0.19922425966E+02 -0.30681063892E+02  0.36820923846E+02  0.00000000000E+00 0. -1.
         11    1    4    4    0    0 -0.31582503585E+01 -0.12273989175E+02  0.18179749510E+02  0.22161422520E+02  0.51100000000E-03 0. -1.
        -11    1    4    4    0    0  0.52027292727E+00 -0.12396134031E+02  0.18270260451E+02  0.22084773941E+02  0.51100000000E-03 0.  1.
         12    1    4    4    0    0  0.68272130402E+01  0.47476972404E+01 -0.57689460695E+01  0.10120879692E+02  0.00000000000E+00 0. -1.
</event>
<event>
 8    1  0.2450026E-006  0.9118800E+02  0.7816164E-02  0.1184000E+00
        -11   -1    0    0    0    0  0.00000000000E+00  0.00000000000E+00  0.45593999997E+02  0.45594000000E+02  0.51100000000E-03 0.  1.
         11   -1    0    0    0    0 -0.00000000000E+00 -0.00000000000E+00 -0.45593999997E+02  0.45594000000E+02  0.51100000000E-03 0. -1.
         23    2    1    2    0    0  0.00000000000E+00 -0.17763568394E-14  0.00000000000E+00  0.91188000000E+02  0.91188000000E+02 0.  0.
    9900012    2    3    3    0    0 -0.11664427818E+02  0.15119638571E+02  0.31482003869E+02  0.54367096773E+02  0.40000028713E+02 0.  0.
         12    1    3    3    0    0  0.11664427818E+02 -0.15119638571E+02 -0.31482003869E+02  0.36820903227E+02  0.00000000000E+00 0. -1.
         11    1    4    4    0    0  0.85543947273E-01  0.17484180768E+02 -0.23477378154E+01  0.17641308569E+02  0.51100000000E-03 0. -1.
        -11    1    4    4    0    0 -0.11586334023E+02 -0.18259825961E+01  0.22425942544E+02  0.25308106365E+02  0.51100000000E-03 0.  1.
         12    1    4    4    0    0 -0.16363774294E+00 -0.53855960094E+00  0.11403799140E+02  0.11417681839E+02  0.00000000000E+00 0. -1.
</event>
<event>
 8    1  0.2450026E-006  0.9118800E+02  0.7816164E-02  0.1184000E+00
        -11   -1    0    0    0    0  0.00000000000E+00  0.00000000000E+00  0.45593999997E+02  0.45594000000E+02  0.51100000000E-03 0. -1.
         11   -1    0    0    0    0 -0.00000000000E+00 -0.00000000000E+00 -0.45593999997E+02  0.45594000000E+02  0.51100000000E-03 0.  1.
         23    2    1    2    0    0 -0.17763568394E-14  0.00000000000E+00  0.00000000000E+00  0.91188000000E+02  0.91188000000E+02 0.  0.
    9900012    2    3    3    0    0 -0.40710136264E+01  0.35563531500E+02 -0.86279666228E+01  0.54367085662E+02  0.40000003383E+02 0.  0.
         12    1    3    3    0    0  0.40710136264E+01 -0.35563531500E+02  0.86279666228E+01  0.36820914338E+02  0.00000000000E+00 0. -1.
         11    1    4    4    0    0 -0.12486627009E+02  0.23343116423E+02  0.23706863524E+01  0.26578884334E+02  0.51100000000E-03 0. -1.
        -11    1    4    4    0    0  0.25792794001E+01  0.15466404308E+02 -0.13466009844E+02  0.20668714663E+02  0.51100000000E-03 0.  1.
         12    1    4    4    0    0  0.58363339826E+01 -0.32459892314E+01  0.24673568691E+01  0.71194866645E+01  0.00000000000E+00 0. -1.
</event>
<event>
 8    1  0.2450026E-006  0.9118800E+02  0.7816164E-02  0.1184000E+00
        -11   -1    0    0    0    0  0.00000000000E+00  0.00000000000E+00  0.45593999997E+02  0.45594000000E+02  0.51100000000E-03 0.  1.
         11   -1    0    0    0    0 -0.00000000000E+00 -0.00000000000E+00 -0.45593999997E+02  0.45594000000E+02  0.51100000000E-03 0. -1.
         23    2    1    2    0    0  0.17763568394E-14  0.00000000000E+00  0.00000000000E+00  0.91188000000E+02  0.91188000000E+02 0.  0.
    9900012    2    3    3    0    0  0.85430012318E+01  0.53236569749E+01  0.35418300093E+02  0.54367079654E+02  0.39999989688E+02 0.  0.
         12    1    3    3    0    0 -0.85430012318E+01 -0.53236569749E+01 -0.35418300093E+02  0.36820920346E+02  0.00000000000E+00 0. -1.
         11    1    4    4    0    0 -0.55552231993E+01  0.15668268494E+00 -0.53914609845E+01  0.77429261953E+01  0.51100000000E-03 0. -1.
        -11    1    4    4    0    0  0.10410660355E+02 -0.48403731675E+01  0.25504943670E+02  0.27969862590E+02  0.51100000000E-03 0.  1.
        -12    1    4    4    0    0  0.36875640764E+01  0.10007347457E+02  0.15304817408E+02  0.18654290869E+02  0.00000000000E+00 0.  1.
</event>
<event>
 8    1  0.2450026E-006  0.9118800E+02  0.7816164E-02  0.1184000E+00
        -11   -1    0    0    0    0  0.00000000000E+00  0.00000000000E+00  0.45593999997E+02  0.45594000000E+02  0.51100000000E-03 0.  1.
         11   -1    0    0    0    0 -0.00000000000E+00 -0.00000000000E+00 -0.45593999997E+02  0.45594000000E+02  0.51100000000E-03 0. -1.
         23    2    1    2    0    0  0.00000000000E+00  0.35527136788E-14  0.00000000000E+00  0.91188000000E+02  0.91188000000E+02 0.  0.
    9900012    2    3    3    0    0 -0.25338002103E+02  0.26107105546E+02  0.56730774691E+01  0.54367094002E+02  0.40000022397E+02 0.  0.
         12    1    3    3    0    0  0.25338002103E+02 -0.26107105546E+02 -0.56730774691E+01  0.36820905998E+02  0.00000000000E+00 0. -1.
         11    1    4    4    0    0  0.30208917306E+01  0.10731105794E+02 -0.80421091186E-01  0.11148492554E+02  0.51100000000E-03 0. -1.
        -11    1    4    4    0    0  0.19133794012E+01  0.10143658141E+02  0.70000501527E+01  0.12472190009E+02  0.51100000000E-03 0.  1.
        -12    1    4    4    0    0 -0.30272273235E+02  0.52323416106E+01 -0.12465515924E+01  0.30746411439E+02  0.00000000000E+00 0.  1.
</event>
<event>
 8    1  0.2450026E-006  0.9118800E+02  0.7816164E-02  0.1184000E+00
        -11   -1    0    0    0    0  0.00000000000E+00  0.00000000000E+00  0.45593999997E+02  0.45594000000E+02  0.51100000000E-03 0. -1.
         11   -1    0    0    0    0 -0.00000000000E+00 -0.00000000000E+00 -0.45593999997E+02  0.45594000000E+02  0.51100000000E-03 0.  1.
         23    2    1    2    0    0 -0.22204460493E-14  0.00000000000E+00  0.17763568394E-14  0.91188000000E+02  0.91188000000E+02 0.  0.
    9900012    2    3    3    0    0 -0.29768914439E+01  0.34599131727E+02 -0.12240017003E+02  0.54367084542E+02  0.40000000830E+02 0.  0.
         12    1    3    3    0    0  0.29768914439E+01 -0.34599131727E+02  0.12240017003E+02  0.36820915458E+02  0.00000000000E+00 0. -1.
         11    1    4    4    0    0  0.10115278150E+02  0.31118987079E+02 -0.44291514168E+01  0.33020108895E+02  0.51100000000E-03 0. -1.
        -11    1    4    4    0    0 -0.11947571260E+02  0.49529951092E+01 -0.11439681854E+02  0.17266816173E+02  0.51100000000E-03 0.  1.
         12    1    4    4    0    0 -0.11445983337E+01 -0.14728504612E+01  0.36288162682E+01  0.40801594742E+01  0.00000000000E+00 0. -1.
</event>
<event>
 8    1  0.2450026E-006  0.9118800E+02  0.7816164E-02  0.1184000E+00
        -11   -1    0    0    0    0  0.00000000000E+00  0.00000000000E+00  0.45593999997E+02  0.45594000000E+02  0.51100000000E-03 0.  1.
         11   -1    0    0    0    0 -0.00000000000E+00 -0.00000000000E+00 -0.45593999997E+02  0.45594000000E+02  0.51100000000E-03 0. -1.
         23    2    1    2    0    0 -0.17763568394E-14  0.35527136788E-14  0.00000000000E+00  0.91188000000E+02  0.91188000000E+02 0.  0.
    9900012    2    3    3    0    0  0.10892709993E+02 -0.27425414192E+02  0.22022173876E+02  0.54367073656E+02  0.39999976014E+02 0.  0.
         12    1    3    3    0    0 -0.10892709993E+02  0.27425414192E+02 -0.22022173876E+02  0.36820926344E+02  0.00000000000E+00 0. -1.
         11    1    4    4    0    0 -0.57865434499E+01 -0.58744697334E+01 -0.25959015305E-01  0.82458567704E+01  0.51100000000E-03 0. -1.
        -11    1    4    4    0    0  0.38552999947E+01 -0.23690070239E+02  0.47255964737E+01  0.24462502494E+02  0.51100000000E-03 0.  1.
         12    1    4    4    0    0  0.12823953449E+02  0.21391257806E+01  0.17322536418E+02  0.21658714391E+02  0.00000000000E+00 0. -1.
</event>
<event>
 8    1  0.2450026E-006  0.9118800E+02  0.7816164E-02  0.1184000E+00
        -11   -1    0    0    0    0  0.00000000000E+00  0.00000000000E+00  0.45593999997E+02  0.45594000000E+02  0.51100000000E-03 0.  1.
         11   -1    0    0    0    0 -0.00000000000E+00 -0.00000000000E+00 -0.45593999997E+02  0.45594000000E+02  0.51100000000E-03 0. -1.
         23    2    1    2    0    0  0.35527136788E-14  0.00000000000E+00  0.35527136788E-14  0.91188000000E+02  0.91188000000E+02 0.  0.
    9900012    2    3    3    0    0  0.18342554854E+02  0.21303439048E+02  0.23780138469E+02  0.54367070905E+02  0.39999969741E+02 0.  0.
         12    1    3    3    0    0 -0.18342554854E+02 -0.21303439048E+02 -0.23780138469E+02  0.36820929095E+02  0.00000000000E+00 0. -1.
         11    1    4    4    0    0  0.19083348849E+01 -0.37209993877E+01 -0.40782209609E+01  0.58411869464E+01  0.51100000000E-03 0. -1.
        -11    1    4    4    0    0  0.13022609714E+02  0.30257700510E+02  0.20194648221E+02  0.38638589790E+02  0.51100000000E-03 0.  1.
        -12    1    4    4    0    0  0.34116102557E+01 -0.52332620746E+01  0.76637112090E+01  0.98872941684E+01  0.00000000000E+00 0.  1.
</event>
<event>
 8    1  0.2450026E-006  0.9118800E+02  0.7816164E-02  0.1184000E+00
        -11   -1    0    0    0    0  0.00000000000E+00  0.00000000000E+00  0.45593999997E+02  0.45594000000E+02  0.51100000000E-03 0.  1.
         11   -1    0    0    0    0 -0.00000000000E+00 -0.00000000000E+00 -0.45593999997E+02  0.45594000000E+02  0.51100000000E-03 0. -1.
         23    2    1    2    0    0 -0.35527136788E-14 -0.22204460493E-14  0.00000000000E+00  0.91188000000E+02  0.91188000000E+02 0.  0.
    9900012    2    3    3    0    0  0.15400366288E+02 -0.24074317311E+01 -0.33358850173E+02  0.54367083468E+02  0.39999998382E+02 0.  0.
        -12    1    3    3    0    0 -0.15400366288E+02  0.24074317311E+01  0.33358850173E+02  0.36820916532E+02  0.00000000000E+00 0.  1.
         11    1    4    4    0    0  0.51742704874E+01  0.69507143707E+01 -0.27126625931E+02  0.28476996681E+02  0.51100000000E-03 0. -1.
        -11    1    4    4    0    0  0.17935223555E+01 -0.14919149324E+02 -0.38444938676E+01  0.15510572921E+02  0.51100000000E-03 0.  1.
        -12    1    4    4    0    0  0.84325734455E+01  0.55610032218E+01 -0.23877303751E+01  0.10379513866E+02  0.00000000000E+00 0.  1.
</event>
<event>
 8    1  0.2450026E-006  0.9118800E+02  0.7816164E-02  0.1184000E+00
        -11   -1    0    0    0    0  0.00000000000E+00  0.00000000000E+00  0.45593999997E+02  0.45594000000E+02  0.51100000000E-03 0.  1.
         11   -1    0    0    0    0 -0.00000000000E+00 -0.00000000000E+00 -0.45593999997E+02  0.45594000000E+02  0.51100000000E-03 0. -1.
         23    2    1    2    0    0  0.71054273576E-14 -0.35527136788E-14  0.35527136788E-14  0.91188000000E+02  0.91188000000E+02 0.  0.
    9900012    2    3    3    0    0  0.13198183127E+02 -0.24859925329E+02  0.23739668069E+02  0.54367085220E+02  0.40000002376E+02 0.  0.
         12    1    3    3    0    0 -0.13198183127E+02  0.24859925329E+02 -0.23739668069E+02  0.36820914780E+02  0.00000000000E+00 0. -1.
         11    1    4    4    0    0 -0.33875869977E+01 -0.16328944231E+01  0.15368346081E+02  0.15821761955E+02  0.51100000000E-03 0. -1.
        -11    1    4    4    0    0 -0.45688188560E+01 -0.33470084806E+01  0.76347919343E+01  0.95061358947E+01  0.51100000000E-03 0.  1.
        -12    1    4    4    0    0  0.21154588981E+02 -0.19880022425E+02  0.73653005453E+00  0.29039187370E+02  0.00000000000E+00 0.  1.
</event>
<event>
 8    1  0.2450026E-006  0.9118800E+02  0.7816164E-02  0.1184000E+00
        -11   -1    0    0    0    0  0.00000000000E+00  0.00000000000E+00  0.45593999997E+02  0.45594000000E+02  0.51100000000E-03 0. -1.
         11   -1    0    0    0    0 -0.00000000000E+00 -0.00000000000E+00 -0.45593999997E+02  0.45594000000E+02  0.51100000000E-03 0.  1.
         23    2    1    2    0    0  0.00000000000E+00  0.35527136788E-14 -0.13322676296E-14  0.91188000000E+02  0.91188000000E+02 0.  0.
    9900012    2    3    3    0    0  0.28687719447E+02 -0.22877290517E+02  0.30700648352E+01  0.54367068907E+02  0.39999965187E+02 0.  0.
         12    1    3    3    0    0 -0.28687719447E+02  0.22877290517E+02 -0.30700648352E+01  0.36820931093E+02  0.00000000000E+00 0. -1.
         11    1    4    4    0    0  0.12217273054E+02 -0.19558001647E+02  0.93656208461E+01  0.24889597092E+02  0.51100000000E-03 0. -1.
        -11    1    4    4    0    0  0.57405038796E+01 -0.13010498413E+02 -0.44553443317E+01  0.14902232958E+02  0.51100000000E-03 0.  1.
        -12    1    4    4    0    0  0.10729942513E+02  0.96912095426E+01 -0.18402116791E+01  0.14575238858E+02  0.00000000000E+00 0.  1.
</event>
<event>
 8    1  0.2450026E-006  0.9118800E+02  0.7816164E-02  0.1184000E+00
        -11   -1    0    0    0    0  0.00000000000E+00  0.00000000000E+00  0.45593999997E+02  0.45594000000E+02  0.51100000000E-03 0.  1.
         11   -1    0    0    0    0 -0.00000000000E+00 -0.00000000000E+00 -0.45593999997E+02  0.45594000000E+02  0.51100000000E-03 0. -1.
         23    2    1    2    0    0  0.00000000000E+00  0.00000000000E+00 -0.35527136788E-14  0.91188000000E+02  0.91188000000E+02 0.  0.
    9900012    2    3    3    0    0  0.15701665797E+02 -0.16331093038E+02 -0.29026428779E+02  0.54367075565E+02  0.39999980366E+02 0.  0.
        -12    1    3    3    0    0 -0.15701665797E+02  0.16331093038E+02  0.29026428779E+02  0.36820924435E+02  0.00000000000E+00 0.  1.
         11    1    4    4    0    0  0.12943073559E+02 -0.70925954679E+01 -0.20574792291E+02  0.25320942748E+02  0.51100000000E-03 0. -1.
        -11    1    4    4    0    0  0.14987225522E+00 -0.17253473724E+02 -0.20682221668E+00  0.17255364178E+02  0.51100000000E-03 0.  1.
        -12    1    4    4    0    0  0.26087199833E+01  0.80149761544E+01 -0.82448142714E+01  0.11790768638E+02  0.00000000000E+00 0.  1.
</event>
<event>
 8    1  0.2450026E-006  0.9118800E+02  0.7816164E-02  0.1184000E+00
        -11   -1    0    0    0    0  0.00000000000E+00  0.00000000000E+00  0.45593999997E+02  0.45594000000E+02  0.51100000000E-03 0.  1.
         11   -1    0    0    0    0 -0.00000000000E+00 -0.00000000000E+00 -0.45593999997E+02  0.45594000000E+02  0.51100000000E-03 0. -1.
         23    2    1    2    0    0  0.53290705182E-14 -0.71054273576E-14  0.22204460493E-15  0.91188000000E+02  0.91188000000E+02 0.  0.
    9900012    2    3    3    0    0 -0.12102274023E+02 -0.34769710188E+02 -0.61269129999E+00  0.54367174728E+02  0.40000206426E+02 0.  0.
        -12    1    3    3    0    0  0.12102274023E+02  0.34769710188E+02  0.61269129999E+00  0.36820825272E+02  0.00000000000E+00 0.  1.
         11    1    4    4    0    0  0.19526443084E+01 -0.15397604890E+02  0.14628190267E+01  0.15589704805E+02  0.51100000000E-03 0. -1.
        -11    1    4    4    0    0 -0.21529912386E+02 -0.12999680564E+02  0.62343930071E+01  0.25911319506E+02  0.51100000000E-03 0.  1.
         12    1    4    4    0    0  0.74749940549E+01 -0.63724247348E+01 -0.83099033339E+01  0.12866150416E+02  0.00000000000E+00 0. -1.
</event>
<event>
 8    1  0.2450026E-006  0.9118800E+02  0.7816164E-02  0.1184000E+00
        -11   -1    0    0    0    0  0.00000000000E+00  0.00000000000E+00  0.45593999997E+02  0.45594000000E+02  0.51100000000E-03 0.  1.
         11   -1    0    0    0    0 -0.00000000000E+00 -0.00000000000E+00 -0.45593999997E+02  0.45594000000E+02  0.51100000000E-03 0. -1.
         23    2    1    2    0    0  0.35527136788E-14  0.00000000000E+00  0.00000000000E+00  0.91188000000E+02  0.91188000000E+02 0.  0.
    9900012    2    3    3    0    0  0.29810911199E+02 -0.87168149016E+01 -0.19776417469E+02  0.54367082352E+02  0.39999995838E+02 0.  0.
        -12    1    3    3    0    0 -0.29810911199E+02  0.87168149016E+01  0.19776417469E+02  0.36820917648E+02  0.00000000000E+00 0.  1.
         11    1    4    4    0    0  0.20251417483E+02 -0.76543293369E+01 -0.13065477109E+02  0.25286663679E+02  0.51100000000E-03 0. -1.
        -11    1    4    4    0    0  0.11054539238E+02  0.37207331503E+01  0.75972781944E+01  0.13919961536E+02  0.51100000000E-03 0.  1.
         12    1    4    4    0    0 -0.14950455221E+01 -0.47832187150E+01 -0.14308218555E+02  0.15160457137E+02  0.00000000000E+00 0. -1.
</event>
<event>
 8    1  0.2450026E-006  0.9118800E+02  0.7816164E-02  0.1184000E+00
        -11   -1    0    0    0    0  0.00000000000E+00  0.00000000000E+00  0.45593999997E+02  0.45594000000E+02  0.51100000000E-03 0.  1.
         11   -1    0    0    0    0 -0.00000000000E+00 -0.00000000000E+00 -0.45593999997E+02  0.45594000000E+02  0.51100000000E-03 0. -1.
         23    2    1    2    0    0  0.00000000000E+00  0.00000000000E+00  0.00000000000E+00  0.91188000000E+02  0.91188000000E+02 0.  0.
    9900012    2    3    3    0    0  0.32851869286E+02 -0.17210957337E+01 -0.16540059190E+02  0.54367067854E+02  0.39999962786E+02 0.  0.
        -12    1    3    3    0    0 -0.32851869286E+02  0.17210957337E+01  0.16540059190E+02  0.36820932146E+02  0.00000000000E+00 0.  1.
         11    1    4    4    0    0  0.10558730582E+02 -0.37388980734E+01 -0.53674158050E+01  0.12420760967E+02  0.51100000000E-03 0. -1.
        -11    1    4    4    0    0  0.29727915420E+02  0.52791287398E+01 -0.28621506638E+01  0.30328370582E+02  0.51100000000E-03 0.  1.
        -12    1    4    4    0    0 -0.74347767162E+01 -0.32613264002E+01 -0.83104927210E+01  0.11617936304E+02  0.00000000000E+00 0.  1.
</event>
<event>
 8    1  0.2450026E-006  0.9118800E+02  0.7816164E-02  0.1184000E+00
        -11   -1    0    0    0    0  0.00000000000E+00  0.00000000000E+00  0.45593999997E+02  0.45594000000E+02  0.51100000000E-03 0.  1.
         11   -1    0    0    0    0 -0.00000000000E+00 -0.00000000000E+00 -0.45593999997E+02  0.45594000000E+02  0.51100000000E-03 0. -1.
         23    2    1    2    0    0  0.00000000000E+00  0.17763568394E-14  0.00000000000E+00  0.91188000000E+02  0.91188000000E+02 0.  0.
    9900012    2    3    3    0    0 -0.30183369979E+02  0.13899786448E+02  0.15860019894E+02  0.54367080435E+02  0.39999991467E+02 0.  0.
         12    1    3    3    0    0  0.30183369979E+02 -0.13899786448E+02 -0.15860019894E+02  0.36820919565E+02  0.00000000000E+00 0. -1.
         11    1    4    4    0    0 -0.34567778883E+01  0.33791273635E+01 -0.39569756862E+01  0.62470370537E+01  0.51100000000E-03 0. -1.
        -11    1    4    4    0    0 -0.26164292486E+02  0.13756276312E+02  0.27117804795E+02  0.40114594307E+02  0.51100000000E-03 0.  1.
        -12    1    4    4    0    0 -0.56229960471E+00 -0.32356172271E+01 -0.73008092150E+01  0.80054490742E+01  0.00000000000E+00 0.  1.
</event>
<event>
 8    1  0.2450026E-006  0.9118800E+02  0.7816164E-02  0.1184000E+00
        -11   -1    0    0    0    0  0.00000000000E+00  0.00000000000E+00  0.45593999997E+02  0.45594000000E+02  0.51100000000E-03 0. -1.
         11   -1    0    0    0    0 -0.00000000000E+00 -0.00000000000E+00 -0.45593999997E+02  0.45594000000E+02  0.51100000000E-03 0.  1.
         23    2    1    2    0    0  0.00000000000E+00  0.00000000000E+00  0.00000000000E+00  0.91188000000E+02  0.91188000000E+02 0.  0.
    9900012    2    3    3    0    0 -0.35409671361E+02  0.83749666547E+01  0.56388561134E+01  0.54367060432E+02  0.39999945867E+02 0.  0.
        -12    1    3    3    0    0  0.35409671361E+02 -0.83749666547E+01 -0.56388561134E+01  0.36820939568E+02  0.00000000000E+00 0.  1.
         11    1    4    4    0    0 -0.18745482182E+01  0.49685324877E+01  0.89015498811E+00  0.53844797583E+01  0.51100000000E-03 0. -1.
        -11    1    4    4    0    0  0.45203765199E+01 -0.16483323473E+01 -0.73030390584E+01  0.87455807788E+01  0.51100000000E-03 0.  1.
         12    1    4    4    0    0 -0.38055499663E+02  0.50547665143E+01  0.12051740184E+02  0.40236999895E+02  0.00000000000E+00 0. -1.
</event>
<event>
 8    1  0.2450026E-006  0.9118800E+02  0.7816164E-02  0.1184000E+00
        -11   -1    0    0    0    0  0.00000000000E+00  0.00000000000E+00  0.45593999997E+02  0.45594000000E+02  0.51100000000E-03 0.  1.
         11   -1    0    0    0    0 -0.00000000000E+00 -0.00000000000E+00 -0.45593999997E+02  0.45594000000E+02  0.51100000000E-03 0. -1.
         23    2    1    2    0    0  0.00000000000E+00  0.35527136788E-14  0.00000000000E+00  0.91188000000E+02  0.91188000000E+02 0.  0.
    9900012    2    3    3    0    0 -0.29751279194E+02 -0.19645540065E+02  0.92030757113E+01  0.54367048618E+02  0.39999918934E+02 0.  0.
         12    1    3    3    0    0  0.29751279194E+02  0.19645540065E+02 -0.92030757113E+01  0.36820951382E+02  0.00000000000E+00 0. -1.
         11    1    4    4    0    0 -0.92221205987E+01 -0.11939182415E+02  0.13271612529E+02  0.20092966044E+02  0.51100000000E-03 0. -1.
        -11    1    4    4    0    0 -0.29361101225E+01  0.13878766709E+01  0.96502522954E+01  0.10182058433E+02  0.51100000000E-03 0.  1.
         12    1    4    4    0    0 -0.17593048473E+02 -0.90942343208E+01 -0.13718789113E+02  0.24092024141E+02  0.00000000000E+00 0. -1.
</event>
<event>
 8    1  0.2450026E-006  0.9118800E+02  0.7816164E-02  0.1184000E+00
        -11   -1    0    0    0    0  0.00000000000E+00  0.00000000000E+00  0.45593999997E+02  0.45594000000E+02  0.51100000000E-03 0.  1.
         11   -1    0    0    0    0 -0.00000000000E+00 -0.00000000000E+00 -0.45593999997E+02  0.45594000000E+02  0.51100000000E-03 0. -1.
         23    2    1    2    0    0  0.00000000000E+00  0.88817841970E-15  0.00000000000E+00  0.91188000000E+02  0.91188000000E+02 0.  0.
    9900012    2    3    3    0    0 -0.10482274598E+02 -0.60456290423E+01 -0.34775743247E+02  0.54367081630E+02  0.39999994192E+02 0.  0.
        -12    1    3    3    0    0  0.10482274598E+02  0.60456290423E+01  0.34775743247E+02  0.36820918370E+02  0.00000000000E+00 0.  1.
         11    1    4    4    0    0 -0.66512391458E+01 -0.13306759111E+02 -0.75015632387E+01  0.16660800446E+02  0.51100000000E-03 0. -1.
        -11    1    4    4    0    0  0.70171770489E+01  0.60847925819E+01 -0.11051935337E+01  0.93534446868E+01  0.51100000000E-03 0.  1.
         12    1    4    4    0    0 -0.10848212501E+02  0.11763374867E+01 -0.26168986474E+02  0.28352836497E+02  0.00000000000E+00 0. -1.
</event>
<event>
 8    1  0.2450026E-006  0.9118800E+02  0.7816164E-02  0.1184000E+00
        -11   -1    0    0    0    0  0.00000000000E+00  0.00000000000E+00  0.45593999997E+02  0.45594000000E+02  0.51100000000E-03 0. -1.
         11   -1    0    0    0    0 -0.00000000000E+00 -0.00000000000E+00 -0.45593999997E+02  0.45594000000E+02  0.51100000000E-03 0.  1.
         23    2    1    2    0    0 -0.71054273576E-14  0.00000000000E+00  0.44408920985E-15  0.91188000000E+02  0.91188000000E+02 0.  0.
    9900012    2    3    3    0    0  0.36307397101E+02  0.55336312268E+01  0.26328252457E+01  0.54367083015E+02  0.39999997350E+02 0.  0.
         12    1    3    3    0    0 -0.36307397101E+02 -0.55336312268E+01 -0.26328252457E+01  0.36820916985E+02  0.00000000000E+00 0. -1.
         11    1    4    4    0    0  0.81201077883E+01 -0.20810933249E+01  0.14632477226E+02  0.16863466131E+02  0.51100000000E-03 0. -1.
        -11    1    4    4    0    0  0.14523616262E+02  0.67164231297E+01  0.39505799615E+01  0.16481894650E+02  0.51100000000E-03 0.  1.
         12    1    4    4    0    0  0.13663673051E+02  0.89830142199E+00 -0.15950231941E+02  0.21021722234E+02  0.00000000000E+00 0. -1.
</event>
<event>
 8    1  0.2450026E-006  0.9118800E+02  0.7816164E-02  0.1184000E+00
        -11   -1    0    0    0    0  0.00000000000E+00  0.00000000000E+00  0.45593999997E+02  0.45594000000E+02  0.51100000000E-03 0. -1.
         11   -1    0    0    0    0 -0.00000000000E+00 -0.00000000000E+00 -0.45593999997E+02  0.45594000000E+02  0.51100000000E-03 0.  1.
         23    2    1    2    0    0  0.44408920985E-15  0.00000000000E+00 -0.35527136788E-14  0.91188000000E+02  0.91188000000E+02 0.  0.
    9900012    2    3    3    0    0 -0.31533246737E+01 -0.33645200929E+02 -0.14623206920E+02  0.54367065972E+02  0.39999958497E+02 0.  0.
         12    1    3    3    0    0  0.31533246737E+01  0.33645200929E+02  0.14623206920E+02  0.36820934028E+02  0.00000000000E+00 0. -1.
         11    1    4    4    0    0 -0.61788808514E+01 -0.26926732570E+02 -0.21224468779E+02  0.34838277378E+02  0.51100000000E-03 0.  1.
        -11    1    4    4    0    0 -0.51823904920E+01  0.12164874874E+01 -0.14994221753E+01  0.55303960201E+01  0.51100000000E-03 0. -1.
        -12    1    4    4    0    0  0.82079466697E+01 -0.79349558468E+01  0.81006840349E+01  0.13998392574E+02  0.00000000000E+00 0.  1.
</event>
<event>
 8    1  0.2450026E-006  0.9118800E+02  0.7816164E-02  0.1184000E+00
        -11   -1    0    0    0    0  0.00000000000E+00  0.00000000000E+00  0.45593999997E+02  0.45594000000E+02  0.51100000000E-03 0. -1.
         11   -1    0    0    0    0 -0.00000000000E+00 -0.00000000000E+00 -0.45593999997E+02  0.45594000000E+02  0.51100000000E-03 0.  1.
         23    2    1    2    0    0  0.00000000000E+00  0.11102230246E-14  0.00000000000E+00  0.91188000000E+02  0.91188000000E+02 0.  0.
    9900012    2    3    3    0    0  0.23423472841E+02 -0.19241760930E+01 -0.28344607566E+02  0.54367104959E+02  0.40000047375E+02 0.  0.
         12    1    3    3    0    0 -0.23423472841E+02  0.19241760930E+01  0.28344607566E+02  0.36820895041E+02  0.00000000000E+00 0. -1.
         11    1    4    4    0    0  0.47633438423E+01  0.67027962229E+01 -0.29132193210E+02  0.30270474116E+02  0.51100000000E-03 0. -1.
        -11    1    4    4    0    0  0.89240268230E+00  0.24629760569E+01 -0.15143109919E+01  0.30258505657E+01  0.51100000000E-03 0.  1.
        -12    1    4    4    0    0  0.17767726316E+02 -0.11089948373E+02  0.23018966353E+01  0.21070780277E+02  0.00000000000E+00 0.  1.
</event>
<event>
 8    1  0.2450026E-006  0.9118800E+02  0.7816164E-02  0.1184000E+00
        -11   -1    0    0    0    0  0.00000000000E+00  0.00000000000E+00  0.45593999997E+02  0.45594000000E+02  0.51100000000E-03 0.  1.
         11   -1    0    0    0    0 -0.00000000000E+00 -0.00000000000E+00 -0.45593999997E+02  0.45594000000E+02  0.51100000000E-03 0. -1.
         23    2    1    2    0    0  0.71054273576E-14 -0.44408920985E-15  0.35527136788E-14  0.91188000000E+02  0.91188000000E+02 0.  0.
    9900012    2    3    3    0    0  0.32760700147E+02 -0.37429038548E+01  0.16386193620E+02  0.54367080066E+02  0.39999990627E+02 0.  0.
        -12    1    3    3    0    0 -0.32760700147E+02  0.37429038548E+01 -0.16386193620E+02  0.36820919934E+02  0.00000000000E+00 0.  1.
         11    1    4    4    0    0  0.54979881249E+01  0.17420845192E+00 -0.19837059033E+01  0.58475047138E+01  0.51100000000E-03 0. -1.
        -11    1    4    4    0    0  0.88378390348E+01 -0.24259190020E+01 -0.10688666169E+02  0.14079775089E+02  0.51100000000E-03 0.  1.
        -12    1    4    4    0    0  0.18424872987E+02 -0.14911933047E+01  0.29058565693E+02  0.34439800264E+02  0.00000000000E+00 0.  1.
</event>
<event>
 8    1  0.2450026E-006  0.9118800E+02  0.7816164E-02  0.1184000E+00
        -11   -1    0    0    0    0  0.00000000000E+00  0.00000000000E+00  0.45593999997E+02  0.45594000000E+02  0.51100000000E-03 0. -1.
         11   -1    0    0    0    0 -0.00000000000E+00 -0.00000000000E+00 -0.45593999997E+02  0.45594000000E+02  0.51100000000E-03 0.  1.
         23    2    1    2    0    0 -0.71054273576E-14  0.00000000000E+00 -0.17763568394E-14  0.91188000000E+02  0.91188000000E+02 0.  0.
    9900012    2    3    3    0    0 -0.32969121179E+02  0.11506831256E+02 -0.11679435589E+02  0.54367091096E+02  0.40000015770E+02 0.  0.
        -12    1    3    3    0    0  0.32969121179E+02 -0.11506831256E+02  0.11679435589E+02  0.36820908904E+02  0.00000000000E+00 0.  1.
         11    1    4    4    0    0 -0.19453983545E+02  0.34765279980E+01  0.13828803817E+02  0.24120106508E+02  0.51100000000E-03 0. -1.
        -11    1    4    4    0    0 -0.31500094389E+01  0.98272581320E-01 -0.40602518876E+01  0.51398309911E+01  0.51100000000E-03 0.  1.
         12    1    4    4    0    0 -0.10365128195E+02  0.79320306770E+01 -0.21447987518E+02  0.25107153597E+02  0.00000000000E+00 0. -1.
</event>
<event>
 8    1  0.2450026E-006  0.9118800E+02  0.7816164E-02  0.1184000E+00
        -11   -1    0    0    0    0  0.00000000000E+00  0.00000000000E+00  0.45593999997E+02  0.45594000000E+02  0.51100000000E-03 0. -1.
         11   -1    0    0    0    0 -0.00000000000E+00 -0.00000000000E+00 -0.45593999997E+02  0.45594000000E+02  0.51100000000E-03 0.  1.
         23    2    1    2    0    0 -0.44408920985E-15  0.00000000000E+00  0.00000000000E+00  0.91188000000E+02  0.91188000000E+02 0.  0.
    9900012    2    3    3    0    0 -0.24227552489E+01  0.20942267357E+02 -0.30188279241E+02  0.54367075126E+02  0.39999979365E+02 0.  0.
         12    1    3    3    0    0  0.24227552489E+01 -0.20942267357E+02  0.30188279241E+02  0.36820924874E+02  0.00000000000E+00 0. -1.
         11    1    4    4    0    0 -0.65491671701E+01  0.37648555498E+00  0.31090942488E+01  0.72594627421E+01  0.51100000000E-03 0. -1.
        -11    1    4    4    0    0  0.11920169921E+02  0.12997277889E+02 -0.31493201416E+02  0.36094894641E+02  0.51100000000E-03 0.  1.
        -12    1    4    4    0    0 -0.77937579993E+01  0.75685039123E+01 -0.18041720741E+01  0.11012717743E+02  0.00000000000E+00 0.  1.
</event>
<event>
 8    1  0.2450026E-006  0.9118800E+02  0.7816164E-02  0.1184000E+00
        -11   -1    0    0    0    0  0.00000000000E+00  0.00000000000E+00  0.45593999997E+02  0.45594000000E+02  0.51100000000E-03 0.  1.
         11   -1    0    0    0    0 -0.00000000000E+00 -0.00000000000E+00 -0.45593999997E+02  0.45594000000E+02  0.51100000000E-03 0. -1.
         23    2    1    2    0    0  0.35527136788E-14 -0.35527136788E-14  0.00000000000E+00  0.91188000000E+02  0.91188000000E+02 0.  0.
    9900012    2    3    3    0    0 -0.26492585588E+02  0.25053031942E+02  0.51253053981E+01  0.54367078555E+02  0.39999987182E+02 0.  0.
        -12    1    3    3    0    0  0.26492585588E+02 -0.25053031942E+02 -0.51253053981E+01  0.36820921445E+02  0.00000000000E+00 0.  1.
         11    1    4    4    0    0 -0.16277721093E+02  0.25714112801E+02  0.83375325595E+01  0.31554623283E+02  0.51100000000E-03 0. -1.
        -11    1    4    4    0    0 -0.12610882204E+02 -0.60020589576E+01  0.29912504974E+01  0.14283089354E+02  0.51100000000E-03 0.  1.
         12    1    4    4    0    0  0.23960177083E+01  0.53409780989E+01 -0.62034776587E+01  0.85293659186E+01  0.00000000000E+00 0. -1.
</event>
<event>
 8    1  0.2450026E-006  0.9118800E+02  0.7816164E-02  0.1184000E+00
        -11   -1    0    0    0    0  0.00000000000E+00  0.00000000000E+00  0.45593999997E+02  0.45594000000E+02  0.51100000000E-03 0.  1.
         11   -1    0    0    0    0 -0.00000000000E+00 -0.00000000000E+00 -0.45593999997E+02  0.45594000000E+02  0.51100000000E-03 0. -1.
         23    2    1    2    0    0  0.71054273576E-14  0.71054273576E-14  0.00000000000E+00  0.91188000000E+02  0.91188000000E+02 0.  0.
    9900012    2    3    3    0    0 -0.31260277133E+02 -0.17302962179E+02  0.88984523273E+01  0.54367083655E+02  0.39999998809E+02 0.  0.
        -12    1    3    3    0    0  0.31260277133E+02  0.17302962179E+02 -0.88984523273E+01  0.36820916345E+02  0.00000000000E+00 0.  1.
         11    1    4    4    0    0 -0.25109765764E+02 -0.51076844875E+01  0.16327573146E+02  0.30383851347E+02  0.51100000000E-03 0. -1.
        -11    1    4    4    0    0  0.29548338213E+01 -0.85748608421E+00 -0.88528711640E+01  0.93722811206E+01  0.51100000000E-03 0.  1.
        -12    1    4    4    0    0 -0.91053451903E+01 -0.11337791607E+02  0.14237503451E+01  0.14610951188E+02  0.00000000000E+00 0.  1.
</event>
<event>
 8    1  0.2450026E-006  0.9118800E+02  0.7816164E-02  0.1184000E+00
        -11   -1    0    0    0    0  0.00000000000E+00  0.00000000000E+00  0.45593999997E+02  0.45594000000E+02  0.51100000000E-03 0.  1.
         11   -1    0    0    0    0 -0.00000000000E+00 -0.00000000000E+00 -0.45593999997E+02  0.45594000000E+02  0.51100000000E-03 0. -1.
         23    2    1    2    0    0  0.71054273576E-14 -0.17763568394E-14 -0.17763568394E-14  0.91188000000E+02  0.91188000000E+02 0.  0.
    9900012    2    3    3    0    0  0.33196643246E+02 -0.83605791688E+01 -0.13559586952E+02  0.54367098257E+02  0.40000032096E+02 0.  0.
         12    1    3    3    0    0 -0.33196643246E+02  0.83605791688E+01  0.13559586952E+02  0.36820901743E+02  0.00000000000E+00 0. -1.
         11    1    4    4    0    0  0.20261123421E+02 -0.21699852242E+01 -0.14893518108E+02  0.25239628366E+02  0.51100000000E-03 0. -1.
        -11    1    4    4    0    0 -0.35824700130E+01 -0.89380521506E+01 -0.54453126956E+01  0.11062291727E+02  0.51100000000E-03 0.  1.
         12    1    4    4    0    0  0.16517989838E+02  0.27474582059E+01  0.67792438515E+01  0.18065178164E+02  0.00000000000E+00 0. -1.
</event>
<event>
 8    1  0.2450026E-006  0.9118800E+02  0.7816164E-02  0.1184000E+00
        -11   -1    0    0    0    0  0.00000000000E+00  0.00000000000E+00  0.45593999997E+02  0.45594000000E+02  0.51100000000E-03 0.  1.
         11   -1    0    0    0    0 -0.00000000000E+00 -0.00000000000E+00 -0.45593999997E+02  0.45594000000E+02  0.51100000000E-03 0. -1.
         23    2    1    2    0    0 -0.35527136788E-14  0.00000000000E+00  0.00000000000E+00  0.91188000000E+02  0.91188000000E+02 0.  0.
    9900012    2    3    3    0    0  0.17408881282E+02  0.31796341766E+02  0.64578351023E+01  0.54367080248E+02  0.39999991041E+02 0.  0.
         12    1    3    3    0    0 -0.17408881282E+02 -0.31796341766E+02 -0.64578351023E+01  0.36820919752E+02  0.00000000000E+00 0. -1.
         11    1    4    4    0    0 -0.79773644239E+01  0.17959599704E+01  0.38403905661E+00  0.81860430993E+01  0.51100000000E-03 0. -1.
        -11    1    4    4    0    0  0.19598755150E+02  0.29019286067E+02  0.12772566322E+02  0.37274235310E+02  0.51100000000E-03 0.  1.
        -12    1    4    4    0    0  0.57874905563E+01  0.98109572854E+00 -0.66987702765E+01  0.89068018382E+01  0.00000000000E+00 0.  1.
</event>
<event>
 8    1  0.2450026E-006  0.9118800E+02  0.7816164E-02  0.1184000E+00
        -11   -1    0    0    0    0  0.00000000000E+00  0.00000000000E+00  0.45593999997E+02  0.45594000000E+02  0.51100000000E-03 0.  1.
         11   -1    0    0    0    0 -0.00000000000E+00 -0.00000000000E+00 -0.45593999997E+02  0.45594000000E+02  0.51100000000E-03 0. -1.
         23    2    1    2    0    0  0.00000000000E+00  0.88817841970E-15  0.00000000000E+00  0.91188000000E+02  0.91188000000E+02 0.  0.
    9900012    2    3    3    0    0  0.17001613609E+02 -0.46284490187E+01  0.32331160546E+02  0.54367063729E+02  0.39999953383E+02 0.  0.
         12    1    3    3    0    0 -0.17001613609E+02  0.46284490187E+01 -0.32331160546E+02  0.36820936271E+02  0.00000000000E+00 0. -1.
         11    1    4    4    0    0  0.17524123333E+02  0.49512163936E+01  0.39570976855E+01  0.18635129855E+02  0.51100000000E-03 0. -1.
        -11    1    4    4    0    0  0.82442910810E+01  0.20900551786E+00  0.80127572993E+01  0.11498534625E+02  0.51100000000E-03 0.  1.
        -12    1    4    4    0    0 -0.87668008055E+01 -0.97886709303E+01  0.20361305562E+02  0.24233399248E+02  0.00000000000E+00 0.  1.
</event>
<event>
 8    1  0.2450026E-006  0.9118800E+02  0.7816164E-02  0.1184000E+00
        -11   -1    0    0    0    0  0.00000000000E+00  0.00000000000E+00  0.45593999997E+02  0.45594000000E+02  0.51100000000E-03 0. -1.
         11   -1    0    0    0    0 -0.00000000000E+00 -0.00000000000E+00 -0.45593999997E+02  0.45594000000E+02  0.51100000000E-03 0.  1.
         23    2    1    2    0    0  0.35527136788E-14  0.00000000000E+00  0.22204460493E-15  0.91188000000E+02  0.91188000000E+02 0.  0.
    9900012    2    3    3    0    0  0.25685201813E+02  0.26356343060E+02 -0.11810977261E+01  0.54367062974E+02  0.39999951661E+02 0.  0.
         12    1    3    3    0    0 -0.25685201813E+02 -0.26356343060E+02  0.11810977261E+01  0.36820937026E+02  0.00000000000E+00 0. -1.
         11    1    4    4    0    0  0.69347911377E+01  0.21337006252E+02  0.74854759737E+01  0.23651459040E+02  0.51100000000E-03 0. -1.
        -11    1    4    4    0    0  0.17037442320E+02  0.12210170273E+02 -0.25392461094E+01  0.21114224351E+02  0.51100000000E-03 0.  1.
         12    1    4    4    0    0  0.17129683550E+01 -0.71908334639E+01 -0.61273275904E+01  0.96013795826E+01  0.00000000000E+00 0. -1.
</event>
<event>
 8    1  0.2450026E-006  0.9118800E+02  0.7816164E-02  0.1184000E+00
        -11   -1    0    0    0    0  0.00000000000E+00  0.00000000000E+00  0.45593999997E+02  0.45594000000E+02  0.51100000000E-03 0. -1.
         11   -1    0    0    0    0 -0.00000000000E+00 -0.00000000000E+00 -0.45593999997E+02  0.45594000000E+02  0.51100000000E-03 0.  1.
         23    2    1    2    0    0  0.00000000000E+00  0.00000000000E+00  0.00000000000E+00  0.91188000000E+02  0.91188000000E+02 0.  0.
    9900012    2    3    3    0    0  0.18166559259E+02  0.20643661820E+02 -0.24486646284E+02  0.54367075312E+02  0.39999979789E+02 0.  0.
         12    1    3    3    0    0 -0.18166559259E+02 -0.20643661820E+02  0.24486646284E+02  0.36820924688E+02  0.00000000000E+00 0. -1.
         11    1    4    4    0    0  0.13590594707E+02  0.19621327603E+02 -0.64478183597E+01  0.24723978710E+02  0.51100000000E-03 0. -1.
        -11    1    4    4    0    0  0.77560165892E+01 -0.63118497370E+01 -0.19119330530E+02  0.21576469605E+02  0.51100000000E-03 0.  1.
         12    1    4    4    0    0 -0.31800520370E+01  0.73341839544E+01  0.10805026056E+01  0.80666269974E+01  0.00000000000E+00 0. -1.
</event>
<event>
 8    1  0.2450026E-006  0.9118800E+02  0.7816164E-02  0.1184000E+00
        -11   -1    0    0    0    0  0.00000000000E+00  0.00000000000E+00  0.45593999997E+02  0.45594000000E+02  0.51100000000E-03 0. -1.
         11   -1    0    0    0    0 -0.00000000000E+00 -0.00000000000E+00 -0.45593999997E+02  0.45594000000E+02  0.51100000000E-03 0.  1.
         23    2    1    2    0    0  0.00000000000E+00  0.72164496601E-15  0.71054273576E-14  0.91188000000E+02  0.91188000000E+02 0.  0.
    9900012    2    3    3    0    0  0.67379739567E+01 -0.32542516075E+00 -0.36197477192E+02  0.54367305417E+02  0.40000504355E+02 0.  0.
         12    1    3    3    0    0 -0.67379739567E+01  0.32542516075E+00  0.36197477192E+02  0.36820694583E+02  0.00000000000E+00 0. -1.
         11    1    4    4    0    0  0.17341520281E+02 -0.81806025110E+01 -0.14311694256E+02  0.23926453474E+02  0.51100000000E-03 0. -1.
        -11    1    4    4    0    0 -0.21279567892E+01  0.11504407462E+02 -0.99818372911E+01  0.15379098384E+02  0.51100000000E-03 0.  1.
         12    1    4    4    0    0 -0.84755895347E+01 -0.36492301113E+01 -0.11903945644E+02  0.15061753559E+02  0.00000000000E+00 0. -1.
</event>
<event>
 8    1  0.2450026E-006  0.9118800E+02  0.7816164E-02  0.1184000E+00
        -11   -1    0    0    0    0  0.00000000000E+00  0.00000000000E+00  0.45593999997E+02  0.45594000000E+02  0.51100000000E-03 0. -1.
         11   -1    0    0    0    0 -0.00000000000E+00 -0.00000000000E+00 -0.45593999997E+02  0.45594000000E+02  0.51100000000E-03 0.  1.
         23    2    1    2    0    0  0.00000000000E+00  0.00000000000E+00  0.00000000000E+00  0.91188000000E+02  0.91188000000E+02 0.  0.
    9900012    2    3    3    0    0  0.15186898105E+02 -0.19459115504E+02 -0.27321785249E+02  0.54367095619E+02  0.40000026083E+02 0.  0.
         12    1    3    3    0    0 -0.15186898105E+02  0.19459115504E+02  0.27321785249E+02  0.36820904381E+02  0.00000000000E+00 0. -1.
         11    1    4    4    0    0 -0.98527779581E+00 -0.36148467371E+00  0.39047090295E+01  0.40432902902E+01  0.51100000000E-03 0. -1.
        -11    1    4    4    0    0  0.15924800109E+02  0.32732995528E+01 -0.18327986791E+02  0.24499568334E+02  0.51100000000E-03 0.  1.
        -12    1    4    4    0    0  0.24737579198E+00 -0.22370930383E+02 -0.12898507487E+02  0.25824236995E+02  0.00000000000E+00 0.  1.
</event>
<event>
 8    1  0.2450026E-006  0.9118800E+02  0.7816164E-02  0.1184000E+00
        -11   -1    0    0    0    0  0.00000000000E+00  0.00000000000E+00  0.45593999997E+02  0.45594000000E+02  0.51100000000E-03 0.  1.
         11   -1    0    0    0    0 -0.00000000000E+00 -0.00000000000E+00 -0.45593999997E+02  0.45594000000E+02  0.51100000000E-03 0. -1.
         23    2    1    2    0    0 -0.71054273576E-14  0.00000000000E+00 -0.22204460493E-15  0.91188000000E+02  0.91188000000E+02 0.  0.
    9900012    2    3    3    0    0 -0.36514148295E+02 -0.43053809221E+01 -0.19901062392E+01  0.54367084023E+02  0.39999999646E+02 0.  0.
         12    1    3    3    0    0  0.36514148295E+02  0.43053809221E+01  0.19901062392E+01  0.36820915977E+02  0.00000000000E+00 0. -1.
         11    1    4    4    0    0 -0.94331085566E+01 -0.62649716322E+01  0.44528308134E+01  0.12168036370E+02  0.51100000000E-03 0. -1.
        -11    1    4    4    0    0 -0.29328272441E+02 -0.74471908118E+01 -0.10038676531E+02  0.31880766021E+02  0.51100000000E-03 0.  1.
         12    1    4    4    0    0  0.22472327026E+01  0.94067815220E+01  0.35957394784E+01  0.10318281631E+02  0.00000000000E+00 0. -1.
</event>
<event>
 8    1  0.2450026E-006  0.9118800E+02  0.7816164E-02  0.1184000E+00
        -11   -1    0    0    0    0  0.00000000000E+00  0.00000000000E+00  0.45593999997E+02  0.45594000000E+02  0.51100000000E-03 0.  1.
         11   -1    0    0    0    0 -0.00000000000E+00 -0.00000000000E+00 -0.45593999997E+02  0.45594000000E+02  0.51100000000E-03 0. -1.
         23    2    1    2    0    0  0.00000000000E+00  0.00000000000E+00  0.00000000000E+00  0.91188000000E+02  0.91188000000E+02 0.  0.
    9900012    2    3    3    0    0 -0.11096692678E+02 -0.13919671397E+02  0.32231734881E+02  0.54367101401E+02  0.40000039264E+02 0.  0.
        -12    1    3    3    0    0  0.11096692678E+02  0.13919671397E+02 -0.32231734881E+02  0.36820898599E+02  0.00000000000E+00 0.  1.
         11    1    4    4    0    0  0.20221130685E+01 -0.65282410453E+01  0.84063261456E+01  0.10833890895E+02  0.51100000000E-03 0. -1.
        -11    1    4    4    0    0  0.51652527150E+01  0.37781911770E+01  0.20961695659E+02  0.21916825713E+02  0.51100000000E-03 0.  1.
         12    1    4    4    0    0 -0.18284058462E+02 -0.11169621529E+02  0.28637130771E+01  0.21616384793E+02  0.00000000000E+00 0. -1.
</event>
<event>
 8    1  0.2450026E-006  0.9118800E+02  0.7816164E-02  0.1184000E+00
        -11   -1    0    0    0    0  0.00000000000E+00  0.00000000000E+00  0.45593999997E+02  0.45594000000E+02  0.51100000000E-03 0.  1.
         11   -1    0    0    0    0 -0.00000000000E+00 -0.00000000000E+00 -0.45593999997E+02  0.45594000000E+02  0.51100000000E-03 0. -1.
         23    2    1    2    0    0  0.00000000000E+00  0.00000000000E+00  0.00000000000E+00  0.91188000000E+02  0.91188000000E+02 0.  0.
    9900012    2    3    3    0    0  0.33823120183E+02 -0.74198522760E+01  0.12519078798E+02  0.54367014127E+02  0.39999840304E+02 0.  0.
        -12    1    3    3    0    0 -0.33823120183E+02  0.74198522760E+01 -0.12519078798E+02  0.36820985873E+02  0.00000000000E+00 0.  1.
         11    1    4    4    0    0  0.26977993398E+01  0.39304239012E+01 -0.33319080019E+01  0.58161812657E+01  0.51100000000E-03 0. -1.
        -11    1    4    4    0    0  0.22192331186E+02 -0.84517065352E+01  0.25665809958E+02  0.34966622769E+02  0.51100000000E-03 0.  1.
        -12    1    4    4    0    0  0.89329896579E+01 -0.28985696419E+01 -0.98148231582E+01  0.13584210092E+02  0.00000000000E+00 0.  1.
</event>
<event>
 8    1  0.2450026E-006  0.9118800E+02  0.7816164E-02  0.1184000E+00
        -11   -1    0    0    0    0  0.00000000000E+00  0.00000000000E+00  0.45593999997E+02  0.45594000000E+02  0.51100000000E-03 0. -1.
         11   -1    0    0    0    0 -0.00000000000E+00 -0.00000000000E+00 -0.45593999997E+02  0.45594000000E+02  0.51100000000E-03 0.  1.
         23    2    1    2    0    0  0.00000000000E+00  0.00000000000E+00 -0.35527136788E-14  0.91188000000E+02  0.91188000000E+02 0.  0.
    9900012    2    3    3    0    0  0.27485523911E+02 -0.91456010902E+01 -0.22730676474E+02  0.54367086147E+02  0.40000004490E+02 0.  0.
         12    1    3    3    0    0 -0.27485523911E+02  0.91456010902E+01  0.22730676474E+02  0.36820913853E+02  0.00000000000E+00 0. -1.
         11    1    4    4    0    0  0.14004926663E+02 -0.48286069622E+01 -0.27998417024E+01  0.15076223992E+02  0.51100000000E-03 0. -1.
        -11    1    4    4    0    0  0.20686613153E+02 -0.38120362465E+00 -0.22615844461E+02  0.30652205481E+02  0.51100000000E-03 0.  1.
         12    1    4    4    0    0 -0.72060159046E+01 -0.39357905034E+01  0.26850096893E+01  0.86386566742E+01  0.00000000000E+00 0. -1.
</event>
<event>
 8    1  0.2450026E-006  0.9118800E+02  0.7816164E-02  0.1184000E+00
        -11   -1    0    0    0    0  0.00000000000E+00  0.00000000000E+00  0.45593999997E+02  0.45594000000E+02  0.51100000000E-03 0.  1.
         11   -1    0    0    0    0 -0.00000000000E+00 -0.00000000000E+00 -0.45593999997E+02  0.45594000000E+02  0.51100000000E-03 0. -1.
         23    2    1    2    0    0  0.00000000000E+00  0.53290705182E-14  0.00000000000E+00  0.91188000000E+02  0.91188000000E+02 0.  0.
    9900012    2    3    3    0    0  0.41030181847E+01 -0.12409180480E+02 -0.34423212653E+02  0.54367080840E+02  0.39999992391E+02 0.  0.
        -12    1    3    3    0    0 -0.41030181847E+01  0.12409180480E+02  0.34423212653E+02  0.36820919160E+02  0.00000000000E+00 0.  1.
         11    1    4    4    0    0  0.30150519176E+00 -0.11075000655E+00 -0.59983868288E+00  0.68042461096E+00  0.51100000000E-03 0. -1.
        -11    1    4    4    0    0  0.23589455648E+01  0.91931491817E+01 -0.30436643990E+02  0.31882093935E+02  0.51100000000E-03 0.  1.
        -12    1    4    4    0    0  0.14425674281E+01 -0.21491579655E+02 -0.33867299803E+01  0.21804562294E+02  0.00000000000E+00 0.  1.
</event>
<event>
 8    1  0.2450026E-006  0.9118800E+02  0.7816164E-02  0.1184000E+00
        -11   -1    0    0    0    0  0.00000000000E+00  0.00000000000E+00  0.45593999997E+02  0.45594000000E+02  0.51100000000E-03 0.  1.
         11   -1    0    0    0    0 -0.00000000000E+00 -0.00000000000E+00 -0.45593999997E+02  0.45594000000E+02  0.51100000000E-03 0. -1.
         23    2    1    2    0    0  0.00000000000E+00  0.17763568394E-14  0.00000000000E+00  0.91188000000E+02  0.91188000000E+02 0.  0.
    9900012    2    3    3    0    0  0.33216202113E+02 -0.13637149938E+02  0.81542502237E+01  0.54367085591E+02  0.40000003221E+02 0.  0.
        -12    1    3    3    0    0 -0.33216202113E+02  0.13637149938E+02 -0.81542502237E+01  0.36820914409E+02  0.00000000000E+00 0.  1.
         11    1    4    4    0    0  0.57815234046E+01  0.57164199704E+01 -0.56311957922E+01  0.98900877887E+01  0.51100000000E-03 0. -1.
        -11    1    4    4    0    0  0.11878507762E+02 -0.21659939541E+02  0.14661335960E+02  0.28726411192E+02  0.51100000000E-03 0.  1.
         12    1    4    4    0    0  0.15556170946E+02  0.23063696325E+01 -0.87588994399E+00  0.15750586610E+02  0.00000000000E+00 0. -1.
</event>
<event>
 8    1  0.2450026E-006  0.9118800E+02  0.7816164E-02  0.1184000E+00
        -11   -1    0    0    0    0  0.00000000000E+00  0.00000000000E+00  0.45593999997E+02  0.45594000000E+02  0.51100000000E-03 0.  1.
         11   -1    0    0    0    0 -0.00000000000E+00 -0.00000000000E+00 -0.45593999997E+02  0.45594000000E+02  0.51100000000E-03 0. -1.
         23    2    1    2    0    0  0.00000000000E+00  0.00000000000E+00 -0.88817841970E-15  0.91188000000E+02  0.91188000000E+02 0.  0.
    9900012    2    3    3    0    0  0.24369607981E+02 -0.27273980413E+02  0.42460779970E+01  0.54367123054E+02  0.40000088626E+02 0.  0.
         12    1    3    3    0    0 -0.24369607981E+02  0.27273980413E+02 -0.42460779970E+01  0.36820876946E+02  0.00000000000E+00 0. -1.
         11    1    4    4    0    0  0.56541629491E+01 -0.24301807540E+02  0.85054246513E+01  0.26360759798E+02  0.51100000000E-03 0. -1.
        -11    1    4    4    0    0  0.43004314330E+01 -0.18145877970E+01  0.78577753164E+01  0.91395334983E+01  0.51100000000E-03 0.  1.
         12    1    4    4    0    0  0.14415013599E+02 -0.11575850758E+01 -0.12117121971E+02  0.18866829758E+02  0.00000000000E+00 0. -1.
</event>
<event>
 8    1  0.2450026E-006  0.9118800E+02  0.7816164E-02  0.1184000E+00
        -11   -1    0    0    0    0  0.00000000000E+00  0.00000000000E+00  0.45593999997E+02  0.45594000000E+02  0.51100000000E-03 0.  1.
         11   -1    0    0    0    0 -0.00000000000E+00 -0.00000000000E+00 -0.45593999997E+02  0.45594000000E+02  0.51100000000E-03 0. -1.
         23    2    1    2    0    0  0.00000000000E+00  0.00000000000E+00  0.00000000000E+00  0.91188000000E+02  0.91188000000E+02 0.  0.
    9900012    2    3    3    0    0  0.11021919812E+02  0.28691403877E+02  0.20275609829E+02  0.54367085743E+02  0.40000003569E+02 0.  0.
         12    1    3    3    0    0 -0.11021919812E+02 -0.28691403877E+02 -0.20275609829E+02  0.36820914257E+02  0.00000000000E+00 0. -1.
         11    1    4    4    0    0  0.28888392558E+01  0.96564289224E+01  0.75034519716E-01  0.10079565577E+02  0.51100000000E-03 0. -1.
        -11    1    4    4    0    0  0.19133833381E+02  0.21533453010E+01  0.10316552398E+02  0.21844260790E+02  0.51100000000E-03 0.  1.
        -12    1    4    4    0    0 -0.11000752825E+02  0.16881629654E+02  0.98840229108E+01  0.22443259376E+02  0.00000000000E+00 0.  1.
</event>
<event>
 8    1  0.2450026E-006  0.9118800E+02  0.7816164E-02  0.1184000E+00
        -11   -1    0    0    0    0  0.00000000000E+00  0.00000000000E+00  0.45593999997E+02  0.45594000000E+02  0.51100000000E-03 0.  1.
         11   -1    0    0    0    0 -0.00000000000E+00 -0.00000000000E+00 -0.45593999997E+02  0.45594000000E+02  0.51100000000E-03 0. -1.
         23    2    1    2    0    0  0.00000000000E+00 -0.71054273576E-14  0.00000000000E+00  0.91188000000E+02  0.91188000000E+02 0.  0.
    9900012    2    3    3    0    0  0.20062252553E+02 -0.22995059898E+02 -0.20603700393E+02  0.54367092528E+02  0.40000019035E+02 0.  0.
        -12    1    3    3    0    0 -0.20062252553E+02  0.22995059898E+02  0.20603700393E+02  0.36820907472E+02  0.00000000000E+00 0.  1.
         11    1    4    4    0    0  0.15279718756E+02 -0.16732791472E+02 -0.66019951317E+01  0.23601746878E+02  0.51100000000E-03 0. -1.
        -11    1    4    4    0    0 -0.10634640702E+02  0.27843817517E+00 -0.50563652428E+01  0.11778791976E+02  0.51100000000E-03 0.  1.
        -12    1    4    4    0    0  0.15417174498E+02 -0.65407066016E+01 -0.89453400183E+01  0.18986553674E+02  0.00000000000E+00 0.  1.
</event>
<event>
 8    1  0.2450026E-006  0.9118800E+02  0.7816164E-02  0.1184000E+00
        -11   -1    0    0    0    0  0.00000000000E+00  0.00000000000E+00  0.45593999997E+02  0.45594000000E+02  0.51100000000E-03 0.  1.
         11   -1    0    0    0    0 -0.00000000000E+00 -0.00000000000E+00 -0.45593999997E+02  0.45594000000E+02  0.51100000000E-03 0. -1.
         23    2    1    2    0    0  0.88817841970E-15  0.00000000000E+00  0.00000000000E+00  0.91188000000E+02  0.91188000000E+02 0.  0.
    9900012    2    3    3    0    0  0.45300245627E+01  0.43099088491E+01 -0.36286112938E+02  0.54367103365E+02  0.40000043742E+02 0.  0.
        -12    1    3    3    0    0 -0.45300245627E+01 -0.43099088491E+01  0.36286112938E+02  0.36820896635E+02  0.00000000000E+00 0.  1.
         11    1    4    4    0    0  0.86749369979E+01  0.45655825360E+01 -0.34219527993E+02  0.35595999384E+02  0.51100000000E-03 0. -1.
        -11    1    4    4    0    0  0.45697504506E+01 -0.34588192475E+01  0.45934232660E+01  0.73447659820E+01  0.51100000000E-03 0.  1.
        -12    1    4    4    0    0 -0.87146628859E+01  0.32031455606E+01 -0.66600082108E+01  0.11426337999E+02  0.00000000000E+00 0.  1.
</event>
<event>
 8    1  0.2450026E-006  0.9118800E+02  0.7816164E-02  0.1184000E+00
        -11   -1    0    0    0    0  0.00000000000E+00  0.00000000000E+00  0.45593999997E+02  0.45594000000E+02  0.51100000000E-03 0.  1.
         11   -1    0    0    0    0 -0.00000000000E+00 -0.00000000000E+00 -0.45593999997E+02  0.45594000000E+02  0.51100000000E-03 0. -1.
         23    2    1    2    0    0 -0.88817841970E-15  0.71054273576E-14  0.00000000000E+00  0.91188000000E+02  0.91188000000E+02 0.  0.
    9900012    2    3    3    0    0  0.69116286849E+01 -0.36136055416E+02 -0.14829925356E+01  0.54367022569E+02  0.39999859551E+02 0.  0.
        -12    1    3    3    0    0 -0.69116286849E+01  0.36136055416E+02  0.14829925356E+01  0.36820977431E+02  0.00000000000E+00 0.  1.
         11    1    4    4    0    0  0.89154718243E+01 -0.10963200899E+01 -0.36399608228E+01  0.96921035199E+01  0.51100000000E-03 0. -1.
        -11    1    4    4    0    0  0.84805550979E+01 -0.65873163024E+00 -0.11301919567E+01  0.85808552167E+01  0.51100000000E-03 0.  1.
        -12    1    4    4    0    0 -0.10484398237E+02 -0.34381003695E+02  0.32871602438E+01  0.36094063833E+02  0.00000000000E+00 0.  1.
</event>
<event>
 8    1  0.2450026E-006  0.9118800E+02  0.7816164E-02  0.1184000E+00
        -11   -1    0    0    0    0  0.00000000000E+00  0.00000000000E+00  0.45593999997E+02  0.45594000000E+02  0.51100000000E-03 0.  1.
         11   -1    0    0    0    0 -0.00000000000E+00 -0.00000000000E+00 -0.45593999997E+02  0.45594000000E+02  0.51100000000E-03 0. -1.
         23    2    1    2    0    0  0.35527136788E-14  0.44408920985E-15 -0.35527136788E-14  0.91188000000E+02  0.91188000000E+02 0.  0.
    9900012    2    3    3    0    0  0.25682533077E+02 -0.25110929317E+01  0.26265592244E+02  0.54367089788E+02  0.40000012789E+02 0.  0.
         12    1    3    3    0    0 -0.25682533077E+02  0.25110929317E+01 -0.26265592244E+02  0.36820910212E+02  0.00000000000E+00 0. -1.
         11    1    4    4    0    0  0.78063622648E+01  0.59356537951E+00  0.12031475213E+02  0.14354372426E+02  0.51100000000E-03 0. -1.
        -11    1    4    4    0    0 -0.71552255733E+01 -0.60053511470E+01  0.11273006502E+02  0.14640429340E+02  0.51100000000E-03 0.  1.
         12    1    4    4    0    0  0.25031396385E+02  0.29006928358E+01  0.29611105285E+01  0.25372288022E+02  0.00000000000E+00 0. -1.
</event>
<event>
 8    1  0.2450026E-006  0.9118800E+02  0.7816164E-02  0.1184000E+00
        -11   -1    0    0    0    0  0.00000000000E+00  0.00000000000E+00  0.45593999997E+02  0.45594000000E+02  0.51100000000E-03 0.  1.
         11   -1    0    0    0    0 -0.00000000000E+00 -0.00000000000E+00 -0.45593999997E+02  0.45594000000E+02  0.51100000000E-03 0. -1.
         23    2    1    2    0    0  0.55511151231E-15 -0.35527136788E-14  0.35527136788E-14  0.91188000000E+02  0.91188000000E+02 0.  0.
    9900012    2    3    3    0    0 -0.90607364943E+00 -0.27812972018E+02  0.24112171950E+02  0.54367092650E+02  0.40000019314E+02 0.  0.
         12    1    3    3    0    0  0.90607364943E+00  0.27812972018E+02 -0.24112171950E+02  0.36820907350E+02  0.00000000000E+00 0. -1.
         11    1    4    4    0    0 -0.81419713924E+01 -0.46696470352E+01 -0.55782993134E+01  0.10918549587E+02  0.51100000000E-03 0.  1.
        -11    1    4    4    0    0  0.11706737102E+02 -0.50684503388E+01  0.89909861479E+01  0.15606880361E+02  0.51100000000E-03 0. -1.
        -12    1    4    4    0    0 -0.44708393594E+01 -0.18074874644E+02  0.20699485115E+02  0.27841662702E+02  0.00000000000E+00 0.  1.
</event>
<event>
 8    1  0.2450026E-006  0.9118800E+02  0.7816164E-02  0.1184000E+00
        -11   -1    0    0    0    0  0.00000000000E+00  0.00000000000E+00  0.45593999997E+02  0.45594000000E+02  0.51100000000E-03 0.  1.
         11   -1    0    0    0    0 -0.00000000000E+00 -0.00000000000E+00 -0.45593999997E+02  0.45594000000E+02  0.51100000000E-03 0. -1.
         23    2    1    2    0    0  0.00000000000E+00  0.44408920985E-15  0.00000000000E+00  0.91188000000E+02  0.91188000000E+02 0.  0.
    9900012    2    3    3    0    0  0.31807822401E+02 -0.20185365635E+01 -0.18438257010E+02  0.54367063329E+02  0.39999952471E+02 0.  0.
        -12    1    3    3    0    0 -0.31807822401E+02  0.20185365635E+01  0.18438257010E+02  0.36820936671E+02  0.00000000000E+00 0.  1.
         11    1    4    4    0    0  0.33024328798E+02 -0.50878520316E+01 -0.94123403233E+01  0.34714329627E+02  0.51100000000E-03 0.  1.
        -11    1    4    4    0    0 -0.80148003437E+01  0.30673274221E+01 -0.29440523110E+00  0.85867454117E+01  0.51100000000E-03 0. -1.
         12    1    4    4    0    0  0.67982939473E+01  0.19880460489E-02 -0.87315114552E+01  0.11065988290E+02  0.00000000000E+00 0. -1.
</event>
<event>
 8    1  0.2450026E-006  0.9118800E+02  0.7816164E-02  0.1184000E+00
        -11   -1    0    0    0    0  0.00000000000E+00  0.00000000000E+00  0.45593999997E+02  0.45594000000E+02  0.51100000000E-03 0.  1.
         11   -1    0    0    0    0 -0.00000000000E+00 -0.00000000000E+00 -0.45593999997E+02  0.45594000000E+02  0.51100000000E-03 0. -1.
         23    2    1    2    0    0  0.13322676296E-14 -0.88817841970E-15  0.00000000000E+00  0.91188000000E+02  0.91188000000E+02 0.  0.
    9900012    2    3    3    0    0 -0.34145432976E+01  0.42404116485E+01  0.36416202889E+02  0.54367081628E+02  0.39999994188E+02 0.  0.
         12    1    3    3    0    0  0.34145432976E+01 -0.42404116485E+01 -0.36416202889E+02  0.36820918372E+02  0.00000000000E+00 0. -1.
         11    1    4    4    0    0  0.13685135273E+02 -0.27961981226E+01  0.44837814622E+01  0.14669899381E+02  0.51100000000E-03 0. -1.
        -11    1    4    4    0    0 -0.18098201254E+02  0.65610014159E+01  0.32971275452E+02  0.38179793523E+02  0.51100000000E-03 0.  1.
        -12    1    4    4    0    0  0.99852268377E+00  0.47560835516E+00 -0.10388540254E+01  0.15173887253E+01  0.00000000000E+00 0.  1.
</event>
<event>
 8    1  0.2450026E-006  0.9118800E+02  0.7816164E-02  0.1184000E+00
        -11   -1    0    0    0    0  0.00000000000E+00  0.00000000000E+00  0.45593999997E+02  0.45594000000E+02  0.51100000000E-03 0.  1.
         11   -1    0    0    0    0 -0.00000000000E+00 -0.00000000000E+00 -0.45593999997E+02  0.45594000000E+02  0.51100000000E-03 0. -1.
         23    2    1    2    0    0  0.00000000000E+00  0.22204460493E-15 -0.35527136788E-14  0.91188000000E+02  0.91188000000E+02 0.  0.
    9900012    2    3    3    0    0 -0.27279940295E+02 -0.17040542382E+01  0.24671484911E+02  0.54367066944E+02  0.39999960713E+02 0.  0.
         12    1    3    3    0    0  0.27279940295E+02  0.17040542382E+01 -0.24671484911E+02  0.36820933056E+02  0.00000000000E+00 0. -1.
         11    1    4    4    0    0  0.35578529742E+01  0.12928189162E+01 -0.36379813930E+01  0.52502007021E+01  0.51100000000E-03 0. -1.
        -11    1    4    4    0    0 -0.99303279819E+01 -0.12896314418E+02  0.71914132064E+01  0.17794458788E+02  0.51100000000E-03 0.  1.
        -12    1    4    4    0    0 -0.20907465288E+02  0.98994412636E+01  0.21118053098E+02  0.31322407454E+02  0.00000000000E+00 0.  1.
</event>
<event>
 8    1  0.2450026E-006  0.9118800E+02  0.7816164E-02  0.1184000E+00
        -11   -1    0    0    0    0  0.00000000000E+00  0.00000000000E+00  0.45593999997E+02  0.45594000000E+02  0.51100000000E-03 0. -1.
         11   -1    0    0    0    0 -0.00000000000E+00 -0.00000000000E+00 -0.45593999997E+02  0.45594000000E+02  0.51100000000E-03 0.  1.
         23    2    1    2    0    0  0.00000000000E+00  0.00000000000E+00  0.00000000000E+00  0.91188000000E+02  0.91188000000E+02 0.  0.
    9900012    2    3    3    0    0 -0.24091061775E+02  0.19517510890E+02  0.19861209541E+02  0.54367080222E+02  0.39999990983E+02 0.  0.
        -12    1    3    3    0    0  0.24091061775E+02 -0.19517510890E+02 -0.19861209541E+02  0.36820919778E+02  0.00000000000E+00 0.  1.
         11    1    4    4    0    0 -0.97753695798E+01  0.47842269420E+01  0.16988030018E+02  0.20175228425E+02  0.51100000000E-03 0. -1.
        -11    1    4    4    0    0  0.79472142619E+01  0.59876202100E+01 -0.84204427635E+00  0.99859325618E+01  0.51100000000E-03 0.  1.
        -12    1    4    4    0    0 -0.22262906458E+02  0.87456637381E+01  0.37152237999E+01  0.24205919236E+02  0.00000000000E+00 0.  1.
</event>
<event>
 8    1  0.2450026E-006  0.9118800E+02  0.7816164E-02  0.1184000E+00
        -11   -1    0    0    0    0  0.00000000000E+00  0.00000000000E+00  0.45593999997E+02  0.45594000000E+02  0.51100000000E-03 0. -1.
         11   -1    0    0    0    0 -0.00000000000E+00 -0.00000000000E+00 -0.45593999997E+02  0.45594000000E+02  0.51100000000E-03 0.  1.
         23    2    1    2    0    0  0.27755575616E-15  0.26645352591E-14  0.00000000000E+00  0.91188000000E+02  0.91188000000E+02 0.  0.
    9900012    2    3    3    0    0  0.31955457459E+00  0.47214394750E+01 -0.36515560495E+02  0.54367078446E+02  0.39999986933E+02 0.  0.
         12    1    3    3    0    0 -0.31955457459E+00 -0.47214394750E+01  0.36515560495E+02  0.36820921554E+02  0.00000000000E+00 0. -1.
         11    1    4    4    0    0 -0.49975788418E+01  0.20007635018E+01 -0.20799657314E+00  0.53872174363E+01  0.51100000000E-03 0. -1.
        -11    1    4    4    0    0 -0.85039660515E+01 -0.99812633081E+01 -0.21002878202E+02  0.24760128208E+02  0.51100000000E-03 0.  1.
        -12    1    4    4    0    0  0.13821099468E+02  0.12701939281E+02 -0.15304685720E+02  0.24219732802E+02  0.00000000000E+00 0.  1.
</event>
<event>
 8    1  0.2450026E-006  0.9118800E+02  0.7816164E-02  0.1184000E+00
        -11   -1    0    0    0    0  0.00000000000E+00  0.00000000000E+00  0.45593999997E+02  0.45594000000E+02  0.51100000000E-03 0. -1.
         11   -1    0    0    0    0 -0.00000000000E+00 -0.00000000000E+00 -0.45593999997E+02  0.45594000000E+02  0.51100000000E-03 0.  1.
         23    2    1    2    0    0  0.00000000000E+00 -0.35527136788E-14  0.00000000000E+00  0.91188000000E+02  0.91188000000E+02 0.  0.
    9900012    2    3    3    0    0 -0.25903271718E+02  0.17633782823E+02 -0.19335210073E+02  0.54367080254E+02  0.39999991056E+02 0.  0.
         12    1    3    3    0    0  0.25903271718E+02 -0.17633782823E+02  0.19335210073E+02  0.36820919746E+02  0.00000000000E+00 0. -1.
         11    1    4    4    0    0 -0.61948264221E+01 -0.81942900838E+01 -0.12620019296E+02  0.16272281698E+02  0.51100000000E-03 0. -1.
        -11    1    4    4    0    0 -0.11563311687E+01  0.15960508413E+02 -0.59341817946E+01  0.17067203766E+02  0.51100000000E-03 0.  1.
        -12    1    4    4    0    0 -0.18552114127E+02  0.98675644944E+01 -0.78100898255E+00  0.21027594790E+02  0.00000000000E+00 0.  1.
</event>
<event>
 8    1  0.2450026E-006  0.9118800E+02  0.7816164E-02  0.1184000E+00
        -11   -1    0    0    0    0  0.00000000000E+00  0.00000000000E+00  0.45593999997E+02  0.45594000000E+02  0.51100000000E-03 0. -1.
         11   -1    0    0    0    0 -0.00000000000E+00 -0.00000000000E+00 -0.45593999997E+02  0.45594000000E+02  0.51100000000E-03 0.  1.
         23    2    1    2    0    0 -0.35527136788E-14  0.00000000000E+00  0.00000000000E+00  0.91188000000E+02  0.91188000000E+02 0.  0.
    9900012    2    3    3    0    0  0.24243954839E+02 -0.59670429570E+01 -0.27062975277E+02  0.54367087753E+02  0.40000008150E+02 0.  0.
         12    1    3    3    0    0 -0.24243954839E+02  0.59670429570E+01  0.27062975277E+02  0.36820912247E+02  0.00000000000E+00 0. -1.
         11    1    4    4    0    0  0.41889610332E+01 -0.45915471365E+01 -0.39071477198E+01  0.73413556793E+01  0.51100000000E-03 0. -1.
        -11    1    4    4    0    0  0.42397869721E+01  0.62824153969E+01 -0.27829494905E+02  0.28843115708E+02  0.51100000000E-03 0.  1.
        -12    1    4    4    0    0  0.15815206834E+02 -0.76579112174E+01  0.46736673483E+01  0.18182616366E+02  0.00000000000E+00 0.  1.
</event>
<event>
 8    1  0.2450026E-006  0.9118800E+02  0.7816164E-02  0.1184000E+00
        -11   -1    0    0    0    0  0.00000000000E+00  0.00000000000E+00  0.45593999997E+02  0.45594000000E+02  0.51100000000E-03 0. -1.
         11   -1    0    0    0    0 -0.00000000000E+00 -0.00000000000E+00 -0.45593999997E+02  0.45594000000E+02  0.51100000000E-03 0.  1.
         23    2    1    2    0    0 -0.71054273576E-14 -0.17763568394E-14  0.17763568394E-14  0.91188000000E+02  0.91188000000E+02 0.  0.
    9900012    2    3    3    0    0  0.33353715021E+02  0.12407003635E+02 -0.94539088745E+01  0.54367076086E+02  0.39999981553E+02 0.  0.
         12    1    3    3    0    0 -0.33353715021E+02 -0.12407003635E+02  0.94539088745E+01  0.36820923914E+02  0.00000000000E+00 0. -1.
         11    1    4    4    0    0  0.45735706430E+01  0.51929513713E+01  0.94153307893E+01  0.11684722783E+02  0.51100000000E-03 0. -1.
        -11    1    4    4    0    0  0.23726959674E+02  0.28236809245E+01 -0.13553651553E+01  0.23932797670E+02  0.51100000000E-03 0.  1.
        -12    1    4    4    0    0  0.50531847034E+01  0.43903713389E+01 -0.17513874509E+02  0.18749555633E+02  0.00000000000E+00 0.  1.
</event>
<event>
 8    1  0.2450026E-006  0.9118800E+02  0.7816164E-02  0.1184000E+00
        -11   -1    0    0    0    0  0.00000000000E+00  0.00000000000E+00  0.45593999997E+02  0.45594000000E+02  0.51100000000E-03 0.  1.
         11   -1    0    0    0    0 -0.00000000000E+00 -0.00000000000E+00 -0.45593999997E+02  0.45594000000E+02  0.51100000000E-03 0. -1.
         23    2    1    2    0    0 -0.35527136788E-14  0.35527136788E-14  0.17763568394E-14  0.91188000000E+02  0.91188000000E+02 0.  0.
    9900012    2    3    3    0    0  0.24050710222E+02 -0.25482807765E+02  0.11312355355E+02  0.54367088313E+02  0.40000009427E+02 0.  0.
         12    1    3    3    0    0 -0.24050710222E+02  0.25482807765E+02 -0.11312355355E+02  0.36820911687E+02  0.00000000000E+00 0. -1.
         11    1    4    4    0    0  0.18205692663E+02 -0.85838790654E+01  0.65026382855E+00  0.20138348205E+02  0.51100000000E-03 0. -1.
        -11    1    4    4    0    0 -0.44022443648E+01 -0.18388264228E+02 -0.61606572326E+00  0.18917916217E+02  0.51100000000E-03 0.  1.
        -12    1    4    4    0    0  0.10247261924E+02  0.14893355280E+01  0.11278157250E+02  0.15310823890E+02  0.00000000000E+00 0.  1.
</event>
<event>
 8    1  0.2450026E-006  0.9118800E+02  0.7816164E-02  0.1184000E+00
        -11   -1    0    0    0    0  0.00000000000E+00  0.00000000000E+00  0.45593999997E+02  0.45594000000E+02  0.51100000000E-03 0.  1.
         11   -1    0    0    0    0 -0.00000000000E+00 -0.00000000000E+00 -0.45593999997E+02  0.45594000000E+02  0.51100000000E-03 0. -1.
         23    2    1    2    0    0  0.00000000000E+00  0.17763568394E-14  0.00000000000E+00  0.91188000000E+02  0.91188000000E+02 0.  0.
    9900012    2    3    3    0    0  0.23279425916E+02 -0.11909725015E+02  0.25923093517E+02  0.54367082054E+02  0.39999995159E+02 0.  0.
         12    1    3    3    0    0 -0.23279425916E+02  0.11909725015E+02 -0.25923093517E+02  0.36820917946E+02  0.00000000000E+00 0. -1.
         11    1    4    4    0    0  0.24062428655E+02 -0.99162629625E+01  0.82946729645E+01  0.27315459794E+02  0.51100000000E-03 0. -1.
        -11    1    4    4    0    0  0.49601899178E+01 -0.66402228312E+01  0.17828928901E+02  0.19661300804E+02  0.51100000000E-03 0.  1.
         12    1    4    4    0    0 -0.57431926570E+01  0.46467607792E+01 -0.20050834890E+00  0.73903214566E+01  0.00000000000E+00 0. -1.
</event>
<event>
 8    1  0.2450026E-006  0.9118800E+02  0.7816164E-02  0.1184000E+00
        -11   -1    0    0    0    0  0.00000000000E+00  0.00000000000E+00  0.45593999997E+02  0.45594000000E+02  0.51100000000E-03 0.  1.
         11   -1    0    0    0    0 -0.00000000000E+00 -0.00000000000E+00 -0.45593999997E+02  0.45594000000E+02  0.51100000000E-03 0. -1.
         23    2    1    2    0    0  0.00000000000E+00  0.71054273576E-14  0.17763568394E-14  0.91188000000E+02  0.91188000000E+02 0.  0.
    9900012    2    3    3    0    0 -0.14585188734E+02 -0.33568976960E+02  0.40219848456E+01  0.54367077868E+02  0.39999985616E+02 0.  0.
        -12    1    3    3    0    0  0.14585188734E+02  0.33568976960E+02 -0.40219848456E+01  0.36820922132E+02  0.00000000000E+00 0.  1.
         11    1    4    4    0    0 -0.15693906343E+02 -0.18800926908E+02 -0.43462691473E+01  0.24872949255E+02  0.51100000000E-03 0. -1.
        -11    1    4    4    0    0 -0.97026705564E+01 -0.12212114130E+02  0.96026659828E+01  0.18316351757E+02  0.51100000000E-03 0.  1.
        -12    1    4    4    0    0  0.10811388164E+02 -0.25559359219E+01 -0.12344119899E+01  0.11177776856E+02  0.00000000000E+00 0.  1.
</event>
<event>
 8    1  0.2450026E-006  0.9118800E+02  0.7816164E-02  0.1184000E+00
        -11   -1    0    0    0    0  0.00000000000E+00  0.00000000000E+00  0.45593999997E+02  0.45594000000E+02  0.51100000000E-03 0.  1.
         11   -1    0    0    0    0 -0.00000000000E+00 -0.00000000000E+00 -0.45593999997E+02  0.45594000000E+02  0.51100000000E-03 0. -1.
         23    2    1    2    0    0 -0.99920072216E-15  0.00000000000E+00  0.00000000000E+00  0.91188000000E+02  0.91188000000E+02 0.  0.
    9900012    2    3    3    0    0 -0.50130329511E+00  0.36767284521E+01 -0.36633409659E+02  0.54367131727E+02  0.40000108399E+02 0.  0.
        -12    1    3    3    0    0  0.50130329511E+00 -0.36767284521E+01  0.36633409659E+02  0.36820868273E+02  0.00000000000E+00 0.  1.
         11    1    4    4    0    0  0.45452031263E+01  0.54152045529E+01 -0.25777341796E+01  0.75251595047E+01  0.51100000000E-03 0. -1.
        -11    1    4    4    0    0 -0.18391680363E+02  0.11134969871E+01 -0.17820115593E+02  0.25632992454E+02  0.51100000000E-03 0.  1.
        -12    1    4    4    0    0  0.13345173942E+02 -0.28519730878E+01 -0.16235559886E+02  0.21208979769E+02  0.00000000000E+00 0.  1.
</event>
<event>
 8    1  0.2450026E-006  0.9118800E+02  0.7816164E-02  0.1184000E+00
        -11   -1    0    0    0    0  0.00000000000E+00  0.00000000000E+00  0.45593999997E+02  0.45594000000E+02  0.51100000000E-03 0.  1.
         11   -1    0    0    0    0 -0.00000000000E+00 -0.00000000000E+00 -0.45593999997E+02  0.45594000000E+02  0.51100000000E-03 0. -1.
         23    2    1    2    0    0 -0.99920072216E-15  0.00000000000E+00  0.00000000000E+00  0.91188000000E+02  0.91188000000E+02 0.  0.
    9900012    2    3    3    0    0 -0.88946644896E+00 -0.13236443775E+02  0.34348045446E+02  0.54367043734E+02  0.39999907801E+02 0.  0.
         12    1    3    3    0    0  0.88946644896E+00  0.13236443775E+02 -0.34348045446E+02  0.36820956266E+02  0.00000000000E+00 0. -1.
         11    1    4    4    0    0 -0.11784563599E+02 -0.98166155171E+01  0.11613648585E+02  0.19238469616E+02  0.51100000000E-03 0. -1.
        -11    1    4    4    0    0  0.86339131698E+01 -0.75698936976E+01  0.26632452815E+02  0.29002332500E+02  0.51100000000E-03 0.  1.
        -12    1    4    4    0    0  0.22611839800E+01  0.41500654397E+01 -0.38980559549E+01  0.61262416189E+01  0.00000000000E+00 0.  1.
</event>
<event>
 8    1  0.2450026E-006  0.9118800E+02  0.7816164E-02  0.1184000E+00
        -11   -1    0    0    0    0  0.00000000000E+00  0.00000000000E+00  0.45593999997E+02  0.45594000000E+02  0.51100000000E-03 0. -1.
         11   -1    0    0    0    0 -0.00000000000E+00 -0.00000000000E+00 -0.45593999997E+02  0.45594000000E+02  0.51100000000E-03 0.  1.
         23    2    1    2    0    0  0.00000000000E+00  0.17763568394E-14  0.00000000000E+00  0.91188000000E+02  0.91188000000E+02 0.  0.
    9900012    2    3    3    0    0  0.13633445258E+02  0.72839741614E+01  0.33419329272E+02  0.54367099982E+02  0.40000036028E+02 0.  0.
        -12    1    3    3    0    0 -0.13633445258E+02 -0.72839741614E+01 -0.33419329272E+02  0.36820900018E+02  0.00000000000E+00 0.  1.
         11    1    4    4    0    0 -0.50337896740E+01  0.13749645776E+02  0.17499232834E+02  0.22816988134E+02  0.51100000000E-03 0. -1.
        -11    1    4    4    0    0  0.37765738719E+01 -0.33268503635E+01 -0.40376652055E+01  0.64523781758E+01  0.51100000000E-03 0.  1.
        -12    1    4    4    0    0  0.14890661060E+02 -0.31388212514E+01  0.19957761643E+02  0.25097733672E+02  0.00000000000E+00 0.  1.
</event>
<event>
 8    1  0.2450026E-006  0.9118800E+02  0.7816164E-02  0.1184000E+00
        -11   -1    0    0    0    0  0.00000000000E+00  0.00000000000E+00  0.45593999997E+02  0.45594000000E+02  0.51100000000E-03 0. -1.
         11   -1    0    0    0    0 -0.00000000000E+00 -0.00000000000E+00 -0.45593999997E+02  0.45594000000E+02  0.51100000000E-03 0.  1.
         23    2    1    2    0    0  0.00000000000E+00 -0.88817841970E-15  0.00000000000E+00  0.91188000000E+02  0.91188000000E+02 0.  0.
    9900012    2    3    3    0    0  0.89864949080E+01  0.43913511420E+01  0.35436399805E+02  0.54367089002E+02  0.40000010997E+02 0.  0.
        -12    1    3    3    0    0 -0.89864949080E+01 -0.43913511420E+01 -0.35436399805E+02  0.36820910998E+02  0.00000000000E+00 0.  1.
         11    1    4    4    0    0  0.45668837846E+01 -0.63370244728E+01  0.17851428941E+02  0.19485579852E+02  0.51100000000E-03 0. -1.
        -11    1    4    4    0    0 -0.41817884077E+01  0.10325865637E+00 -0.61815653105E+01  0.74638975466E+01  0.51100000000E-03 0.  1.
         12    1    4    4    0    0  0.86013995311E+01  0.10625116958E+02  0.23766536175E+02  0.27417611603E+02  0.00000000000E+00 0. -1.
</event>
<event>
 8    1  0.2450026E-006  0.9118800E+02  0.7816164E-02  0.1184000E+00
        -11   -1    0    0    0    0  0.00000000000E+00  0.00000000000E+00  0.45593999997E+02  0.45594000000E+02  0.51100000000E-03 0. -1.
         11   -1    0    0    0    0 -0.00000000000E+00 -0.00000000000E+00 -0.45593999997E+02  0.45594000000E+02  0.51100000000E-03 0.  1.
         23    2    1    2    0    0 -0.88817841970E-15  0.00000000000E+00  0.00000000000E+00  0.91188000000E+02  0.91188000000E+02 0.  0.
    9900012    2    3    3    0    0 -0.66841626907E+01  0.12355217986E+02  0.34036013489E+02  0.54367086695E+02  0.40000005739E+02 0.  0.
        -12    1    3    3    0    0  0.66841626907E+01 -0.12355217986E+02 -0.34036013489E+02  0.36820913305E+02  0.00000000000E+00 0.  1.
         11    1    4    4    0    0 -0.87042534787E+01  0.18058816972E+02  0.26671717618E+01  0.20223716387E+02  0.51100000000E-03 0. -1.
        -11    1    4    4    0    0  0.47141847088E+01 -0.81903361161E+01  0.18663881592E+02  0.20919981346E+02  0.51100000000E-03 0.  1.
         12    1    4    4    0    0 -0.26940939208E+01  0.24867371303E+01  0.12704960135E+02  0.13223388962E+02  0.00000000000E+00 0. -1.
</event>
<event>
 8    1  0.2450026E-006  0.9118800E+02  0.7816164E-02  0.1184000E+00
        -11   -1    0    0    0    0  0.00000000000E+00  0.00000000000E+00  0.45593999997E+02  0.45594000000E+02  0.51100000000E-03 0.  1.
         11   -1    0    0    0    0 -0.00000000000E+00 -0.00000000000E+00 -0.45593999997E+02  0.45594000000E+02  0.51100000000E-03 0. -1.
         23    2    1    2    0    0  0.00000000000E+00  0.00000000000E+00  0.00000000000E+00  0.91188000000E+02  0.91188000000E+02 0.  0.
    9900012    2    3    3    0    0  0.28576586471E+02 -0.16724600019E+02 -0.16107335705E+02  0.54367084699E+02  0.40000001188E+02 0.  0.
        -12    1    3    3    0    0 -0.28576586471E+02  0.16724600019E+02  0.16107335705E+02  0.36820915301E+02  0.00000000000E+00 0.  1.
         11    1    4    4    0    0 -0.62097117559E+01 -0.11219286507E+02 -0.80372682380E+01  0.15133756666E+02  0.51100000000E-03 0. -1.
        -11    1    4    4    0    0  0.35009154486E+02 -0.79733617359E+01 -0.73199411187E+01  0.36644193721E+02  0.51100000000E-03 0.  1.
         12    1    4    4    0    0 -0.22285625941E+00  0.24680482240E+01 -0.75012634800E+00  0.25891343122E+01  0.00000000000E+00 0. -1.
</event>
<event>
 8    1  0.2450026E-006  0.9118800E+02  0.7816164E-02  0.1184000E+00
        -11   -1    0    0    0    0  0.00000000000E+00  0.00000000000E+00  0.45593999997E+02  0.45594000000E+02  0.51100000000E-03 0.  1.
         11   -1    0    0    0    0 -0.00000000000E+00 -0.00000000000E+00 -0.45593999997E+02  0.45594000000E+02  0.51100000000E-03 0. -1.
         23    2    1    2    0    0 -0.17763568394E-14  0.00000000000E+00 -0.35527136788E-14  0.91188000000E+02  0.91188000000E+02 0.  0.
    9900012    2    3    3    0    0  0.12272625044E+02  0.16087804282E+02  0.30762728948E+02  0.54367078442E+02  0.39999986923E+02 0.  0.
         12    1    3    3    0    0 -0.12272625044E+02 -0.16087804282E+02 -0.30762728948E+02  0.36820921558E+02  0.00000000000E+00 0. -1.
         11    1    4    4    0    0  0.77022081604E-01 -0.28617469272E+01  0.10087307421E+02  0.10485671135E+02  0.51100000000E-03 0. -1.
        -11    1    4    4    0    0 -0.10295357817E+02  0.10420904051E+02  0.75714658681E+01  0.16489897800E+02  0.51100000000E-03 0.  1.
        -12    1    4    4    0    0  0.22490960780E+02  0.85286471580E+01  0.13103955659E+02  0.27391509507E+02  0.00000000000E+00 0.  1.
</event>
<event>
 8    1  0.2450026E-006  0.9118800E+02  0.7816164E-02  0.1184000E+00
        -11   -1    0    0    0    0  0.00000000000E+00  0.00000000000E+00  0.45593999997E+02  0.45594000000E+02  0.51100000000E-03 0. -1.
         11   -1    0    0    0    0 -0.00000000000E+00 -0.00000000000E+00 -0.45593999997E+02  0.45594000000E+02  0.51100000000E-03 0.  1.
         23    2    1    2    0    0  0.00000000000E+00  0.00000000000E+00 -0.35527136788E-14  0.91188000000E+02  0.91188000000E+02 0.  0.
    9900012    2    3    3    0    0  0.27331528599E+02  0.14707433267E+02 -0.19810540593E+02  0.54367101485E+02  0.40000039455E+02 0.  0.
         12    1    3    3    0    0 -0.27331528599E+02 -0.14707433267E+02  0.19810540593E+02  0.36820898515E+02  0.00000000000E+00 0. -1.
         11    1    4    4    0    0  0.19967346902E+01  0.38080531916E+01  0.29326109101E+01  0.52046542195E+01  0.51100000000E-03 0. -1.
        -11    1    4    4    0    0  0.30164919586E+02  0.13573679086E+02 -0.26584071019E+02  0.42436776148E+02  0.51100000000E-03 0.  1.
        -12    1    4    4    0    0 -0.48301256772E+01 -0.26742990106E+01  0.38409195163E+01  0.67256711179E+01  0.00000000000E+00 0.  1.
</event>
<event>
 8    1  0.2450026E-006  0.9118800E+02  0.7816164E-02  0.1184000E+00
        -11   -1    0    0    0    0  0.00000000000E+00  0.00000000000E+00  0.45593999997E+02  0.45594000000E+02  0.51100000000E-03 0.  1.
         11   -1    0    0    0    0 -0.00000000000E+00 -0.00000000000E+00 -0.45593999997E+02  0.45594000000E+02  0.51100000000E-03 0. -1.
         23    2    1    2    0    0  0.17763568394E-14  0.35527136788E-14  0.00000000000E+00  0.91188000000E+02  0.91188000000E+02 0.  0.
    9900012    2    3    3    0    0  0.14685304106E+02 -0.29057999473E+02 -0.17197498548E+02  0.54367089550E+02  0.40000012248E+02 0.  0.
        -12    1    3    3    0    0 -0.14685304106E+02  0.29057999473E+02  0.17197498548E+02  0.36820910450E+02  0.00000000000E+00 0.  1.
         11    1    4    4    0    0  0.12260926703E+02 -0.12343617106E+02 -0.14109498904E+02  0.22400293892E+02  0.51100000000E-03 0. -1.
        -11    1    4    4    0    0  0.10667692971E+02  0.23659630616E+01 -0.23036570065E+01  0.11167107522E+02  0.51100000000E-03 0.  1.
        -12    1    4    4    0    0 -0.82433155677E+01 -0.19080345428E+02 -0.78434263751E+00  0.20799688136E+02  0.00000000000E+00 0.  1.
</event>
<event>
 8    1  0.2450026E-006  0.9118800E+02  0.7816164E-02  0.1184000E+00
        -11   -1    0    0    0    0  0.00000000000E+00  0.00000000000E+00  0.45593999997E+02  0.45594000000E+02  0.51100000000E-03 0. -1.
         11   -1    0    0    0    0 -0.00000000000E+00 -0.00000000000E+00 -0.45593999997E+02  0.45594000000E+02  0.51100000000E-03 0.  1.
         23    2    1    2    0    0  0.00000000000E+00  0.35527136788E-14  0.00000000000E+00  0.91188000000E+02  0.91188000000E+02 0.  0.
    9900012    2    3    3    0    0  0.13556079815E+02  0.24190627081E+02  0.24224512577E+02  0.54367071873E+02  0.39999971949E+02 0.  0.
        -12    1    3    3    0    0 -0.13556079815E+02 -0.24190627081E+02 -0.24224512577E+02  0.36820928127E+02  0.00000000000E+00 0.  1.
         11    1    4    4    0    0  0.18636907632E+01  0.19039287401E+02  0.28732047150E+02  0.34518087167E+02  0.51100000000E-03 0. -1.
        -11    1    4    4    0    0 -0.10039569273E+01 -0.27577296310E+01 -0.38966714753E+01  0.48782221226E+01  0.51100000000E-03 0.  1.
         12    1    4    4    0    0  0.12696345979E+02  0.79090693115E+01 -0.61086309778E+00  0.14970762583E+02  0.00000000000E+00 0. -1.
</event>
<event>
 8    1  0.2450026E-006  0.9118800E+02  0.7816164E-02  0.1184000E+00
        -11   -1    0    0    0    0  0.00000000000E+00  0.00000000000E+00  0.45593999997E+02  0.45594000000E+02  0.51100000000E-03 0.  1.
         11   -1    0    0    0    0 -0.00000000000E+00 -0.00000000000E+00 -0.45593999997E+02  0.45594000000E+02  0.51100000000E-03 0. -1.
         23    2    1    2    0    0 -0.71054273576E-14 -0.17763568394E-14  0.26645352591E-14  0.91188000000E+02  0.91188000000E+02 0.  0.
    9900012    2    3    3    0    0  0.33691757547E+02 -0.12615101919E+02  0.78424814014E+01  0.54367084238E+02  0.40000000138E+02 0.  0.
         12    1    3    3    0    0 -0.33691757547E+02  0.12615101919E+02 -0.78424814014E+01  0.36820915762E+02  0.00000000000E+00 0. -1.
         11    1    4    4    0    0  0.64729809012E+01 -0.42095013506E+01 -0.91162256138E+01  0.11946754918E+02  0.51100000000E-03 0. -1.
        -11    1    4    4    0    0  0.16447661158E+02 -0.35176994322E+01 -0.49410914317E+01  0.17530377967E+02  0.51100000000E-03 0.  1.
        -12    1    4    4    0    0  0.10771115487E+02 -0.48879011361E+01  0.21899798447E+02  0.24889951353E+02  0.00000000000E+00 0.  1.
</event>
<event>
 8    1  0.2450026E-006  0.9118800E+02  0.7816164E-02  0.1184000E+00
        -11   -1    0    0    0    0  0.00000000000E+00  0.00000000000E+00  0.45593999997E+02  0.45594000000E+02  0.51100000000E-03 0.  1.
         11   -1    0    0    0    0 -0.00000000000E+00 -0.00000000000E+00 -0.45593999997E+02  0.45594000000E+02  0.51100000000E-03 0. -1.
         23    2    1    2    0    0  0.00000000000E+00  0.00000000000E+00  0.16653345369E-14  0.91188000000E+02  0.91188000000E+02 0.  0.
    9900012    2    3    3    0    0 -0.16864993950E+02 -0.32721469244E+02  0.81055276662E+00  0.54367087923E+02  0.40000008538E+02 0.  0.
        -12    1    3    3    0    0  0.16864993950E+02  0.32721469244E+02 -0.81055276662E+00  0.36820912077E+02  0.00000000000E+00 0.  1.
         11    1    4    4    0    0 -0.89745923070E+01 -0.65662131015E+01  0.78248958555E+01  0.13597332716E+02  0.51100000000E-03 0. -1.
        -11    1    4    4    0    0  0.32386774130E+01 -0.10210495389E+02  0.10206454162E+02  0.14795774880E+02  0.51100000000E-03 0.  1.
         12    1    4    4    0    0 -0.11129079056E+02 -0.15944760753E+02 -0.17220797251E+02  0.25973980328E+02  0.00000000000E+00 0. -1.
</event>
<event>
 8    1  0.2450026E-006  0.9118800E+02  0.7816164E-02  0.1184000E+00
        -11   -1    0    0    0    0  0.00000000000E+00  0.00000000000E+00  0.45593999997E+02  0.45594000000E+02  0.51100000000E-03 0.  1.
         11   -1    0    0    0    0 -0.00000000000E+00 -0.00000000000E+00 -0.45593999997E+02  0.45594000000E+02  0.51100000000E-03 0. -1.
         23    2    1    2    0    0  0.00000000000E+00 -0.88817841970E-15 -0.88817841970E-15  0.91188000000E+02  0.91188000000E+02 0.  0.
    9900012    2    3    3    0    0  0.35987363899E+02  0.53619053678E+01 -0.56516064384E+01  0.54367067843E+02  0.39999962761E+02 0.  0.
        -12    1    3    3    0    0 -0.35987363899E+02 -0.53619053678E+01  0.56516064384E+01  0.36820932157E+02  0.00000000000E+00 0.  1.
         11    1    4    4    0    0  0.19426857670E+01 -0.75230639400E+01  0.36332756701E+01  0.85773662269E+01  0.51100000000E-03 0. -1.
        -11    1    4    4    0    0  0.19268921419E+02  0.18746032821E+01  0.75985459907E+01  0.20797677071E+02  0.51100000000E-03 0.  1.
        -12    1    4    4    0    0  0.14775756714E+02  0.11010366026E+02 -0.16883428099E+02  0.24992024545E+02  0.00000000000E+00 0.  1.
</event>
<event>
 8    1  0.2450026E-006  0.9118800E+02  0.7816164E-02  0.1184000E+00
        -11   -1    0    0    0    0  0.00000000000E+00  0.00000000000E+00  0.45593999997E+02  0.45594000000E+02  0.51100000000E-03 0. -1.
         11   -1    0    0    0    0 -0.00000000000E+00 -0.00000000000E+00 -0.45593999997E+02  0.45594000000E+02  0.51100000000E-03 0.  1.
         23    2    1    2    0    0  0.00000000000E+00  0.00000000000E+00  0.17763568394E-14  0.91188000000E+02  0.91188000000E+02 0.  0.
    9900012    2    3    3    0    0  0.23356924525E+02  0.26724649295E+02  0.97993930210E+01  0.54367069719E+02  0.39999967039E+02 0.  0.
        -12    1    3    3    0    0 -0.23356924525E+02 -0.26724649295E+02 -0.97993930210E+01  0.36820930281E+02  0.00000000000E+00 0.  1.
         11    1    4    4    0    0  0.21777948186E+02  0.29966247021E+02  0.12721195606E+02  0.39167381909E+02  0.51100000000E-03 0. -1.
        -11    1    4    4    0    0  0.75340411895E+01 -0.44746850919E+01 -0.24566553599E+01  0.91005351016E+01  0.51100000000E-03 0.  1.
        -12    1    4    4    0    0 -0.59550648503E+01  0.12330873654E+01 -0.46514722497E+00  0.60991527086E+01  0.00000000000E+00 0.  1.
</event>
<event>
 8    1  0.2450026E-006  0.9118800E+02  0.7816164E-02  0.1184000E+00
        -11   -1    0    0    0    0  0.00000000000E+00  0.00000000000E+00  0.45593999997E+02  0.45594000000E+02  0.51100000000E-03 0.  1.
         11   -1    0    0    0    0 -0.00000000000E+00 -0.00000000000E+00 -0.45593999997E+02  0.45594000000E+02  0.51100000000E-03 0. -1.
         23    2    1    2    0    0  0.53290705182E-14  0.00000000000E+00  0.00000000000E+00  0.91188000000E+02  0.91188000000E+02 0.  0.
    9900012    2    3    3    0    0  0.15206018646E+02 -0.11238996812E+02  0.31594960105E+02  0.54367088055E+02  0.40000008840E+02 0.  0.
         12    1    3    3    0    0 -0.15206018646E+02  0.11238996812E+02 -0.31594960105E+02  0.36820911945E+02  0.00000000000E+00 0. -1.
         11    1    4    4    0    0 -0.14569247116E+01 -0.17723651585E+01 -0.40285592393E+01  0.46360756763E+01  0.51100000000E-03 0. -1.
        -11    1    4    4    0    0  0.28993184197E+01  0.98214685892E+01  0.15843551848E+02  0.18864925867E+02  0.51100000000E-03 0.  1.
         12    1    4    4    0    0  0.13763624938E+02 -0.19288100243E+02  0.19779967496E+02  0.30866086512E+02  0.00000000000E+00 0. -1.
</event>
<event>
 8    1  0.2450026E-006  0.9118800E+02  0.7816164E-02  0.1184000E+00
        -11   -1    0    0    0    0  0.00000000000E+00  0.00000000000E+00  0.45593999997E+02  0.45594000000E+02  0.51100000000E-03 0. -1.
         11   -1    0    0    0    0 -0.00000000000E+00 -0.00000000000E+00 -0.45593999997E+02  0.45594000000E+02  0.51100000000E-03 0.  1.
         23    2    1    2    0    0 -0.17763568394E-14  0.88817841970E-15  0.71054273576E-14  0.91188000000E+02  0.91188000000E+02 0.  0.
    9900012    2    3    3    0    0  0.12094607424E+02 -0.35652660824E+01 -0.34594650298E+02  0.54367075511E+02  0.39999980243E+02 0.  0.
         12    1    3    3    0    0 -0.12094607424E+02  0.35652660824E+01  0.34594650298E+02  0.36820924489E+02  0.00000000000E+00 0. -1.
         11    1    4    4    0    0 -0.46448117646E+00  0.39290402959E+01 -0.65190794090E+01  0.76257128854E+01  0.51100000000E-03 0. -1.
        -11    1    4    4    0    0  0.84197711751E+01  0.17507268570E+01 -0.33956480824E+02  0.35028562366E+02  0.51100000000E-03 0.  1.
         12    1    4    4    0    0  0.41393174254E+01 -0.92450332352E+01  0.58809099356E+01  0.11712800260E+02  0.00000000000E+00 0. -1.
</event>
<event>
 8    1  0.2450026E-006  0.9118800E+02  0.7816164E-02  0.1184000E+00
        -11   -1    0    0    0    0  0.00000000000E+00  0.00000000000E+00  0.45593999997E+02  0.45594000000E+02  0.51100000000E-03 0. -1.
         11   -1    0    0    0    0 -0.00000000000E+00 -0.00000000000E+00 -0.45593999997E+02  0.45594000000E+02  0.51100000000E-03 0.  1.
         23    2    1    2    0    0 -0.88817841970E-15  0.00000000000E+00  0.35527136788E-14  0.91188000000E+02  0.91188000000E+02 0.  0.
    9900012    2    3    3    0    0  0.49287223859E+01  0.19219235602E+02  0.31017855845E+02  0.54367099649E+02  0.40000035269E+02 0.  0.
        -12    1    3    3    0    0 -0.49287223859E+01 -0.19219235602E+02 -0.31017855845E+02  0.36820900351E+02  0.00000000000E+00 0.  1.
         11    1    4    4    0    0 -0.70708944251E+01  0.12262259585E+02  0.16335171061E+01  0.14248822285E+02  0.51100000000E-03 0.  1.
        -11    1    4    4    0    0 -0.68326447885E+00 -0.56985339744E+01  0.17994216866E+02  0.18887349753E+02  0.51100000000E-03 0. -1.
         12    1    4    4    0    0  0.12682881290E+02  0.12655509992E+02  0.11390121872E+02  0.21230927611E+02  0.00000000000E+00 0. -1.
</event>
<event>
 8    1  0.2450026E-006  0.9118800E+02  0.7816164E-02  0.1184000E+00
        -11   -1    0    0    0    0  0.00000000000E+00  0.00000000000E+00  0.45593999997E+02  0.45594000000E+02  0.51100000000E-03 0.  1.
         11   -1    0    0    0    0 -0.00000000000E+00 -0.00000000000E+00 -0.45593999997E+02  0.45594000000E+02  0.51100000000E-03 0. -1.
         23    2    1    2    0    0  0.00000000000E+00  0.17763568394E-14  0.35527136788E-14  0.91188000000E+02  0.91188000000E+02 0.  0.
    9900012    2    3    3    0    0 -0.28268754499E+02 -0.15758491131E+02  0.17559261361E+02  0.54367079545E+02  0.39999989438E+02 0.  0.
         12    1    3    3    0    0  0.28268754499E+02  0.15758491131E+02 -0.17559261361E+02  0.36820920455E+02  0.00000000000E+00 0. -1.
         11    1    4    4    0    0  0.13983669966E+01  0.34229899715E+01 -0.44249882739E+01  0.57665251311E+01  0.51100000000E-03 0. -1.
        -11    1    4    4    0    0 -0.30596770477E+02 -0.21553109213E+02  0.24727510705E+02  0.44856980129E+02  0.51100000000E-03 0.  1.
        -12    1    4    4    0    0  0.92964898151E+00  0.23716281111E+01 -0.27432610698E+01  0.37435742844E+01  0.00000000000E+00 0.  1.
</event>
<event>
 8    1  0.2450026E-006  0.9118800E+02  0.7816164E-02  0.1184000E+00
        -11   -1    0    0    0    0  0.00000000000E+00  0.00000000000E+00  0.45593999997E+02  0.45594000000E+02  0.51100000000E-03 0. -1.
         11   -1    0    0    0    0 -0.00000000000E+00 -0.00000000000E+00 -0.45593999997E+02  0.45594000000E+02  0.51100000000E-03 0.  1.
         23    2    1    2    0    0  0.13322676296E-14  0.35527136788E-14  0.00000000000E+00  0.91188000000E+02  0.91188000000E+02 0.  0.
    9900012    2    3    3    0    0 -0.86818181501E+00 -0.29439626177E+02 -0.22098293359E+02  0.54367083411E+02  0.39999998251E+02 0.  0.
         12    1    3    3    0    0  0.86818181501E+00  0.29439626177E+02  0.22098293359E+02  0.36820916589E+02  0.00000000000E+00 0. -1.
         11    1    4    4    0    0 -0.92443152814E+01  0.29759406062E+01 -0.62660668468E+01  0.11557559496E+02  0.51100000000E-03 0. -1.
        -11    1    4    4    0    0  0.43408962823E+01 -0.34764464396E+02 -0.14773269597E+02  0.38021847142E+02  0.51100000000E-03 0.  1.
        -12    1    4    4    0    0  0.40352371841E+01  0.23488976127E+01 -0.10589569149E+01  0.47876767722E+01  0.00000000000E+00 0.  1.
</event>
<event>
 8    1  0.2450026E-006  0.9118800E+02  0.7816164E-02  0.1184000E+00
        -11   -1    0    0    0    0  0.00000000000E+00  0.00000000000E+00  0.45593999997E+02  0.45594000000E+02  0.51100000000E-03 0.  1.
         11   -1    0    0    0    0 -0.00000000000E+00 -0.00000000000E+00 -0.45593999997E+02  0.45594000000E+02  0.51100000000E-03 0. -1.
         23    2    1    2    0    0  0.17763568394E-14  0.00000000000E+00  0.00000000000E+00  0.91188000000E+02  0.91188000000E+02 0.  0.
    9900012    2    3    3    0    0 -0.83678032041E+01 -0.32401054550E+02  0.15360065536E+02  0.54367080950E+02  0.39999992642E+02 0.  0.
         12    1    3    3    0    0  0.83678032041E+01  0.32401054550E+02 -0.15360065536E+02  0.36820919050E+02  0.00000000000E+00 0. -1.
         11    1    4    4    0    0 -0.86854903014E+00 -0.21202992700E+02  0.57561547992E+01  0.21987600942E+02  0.51100000000E-03 0. -1.
        -11    1    4    4    0    0  0.14965956328E+01 -0.16346406669E+02 -0.23227972501E+01  0.16578305004E+02  0.51100000000E-03 0.  1.
        -12    1    4    4    0    0 -0.89958498067E+01  0.51483448186E+01  0.11926707987E+02  0.15801175005E+02  0.00000000000E+00 0.  1.
</event>
<event>
 8    1  0.2450026E-006  0.9118800E+02  0.7816164E-02  0.1184000E+00
        -11   -1    0    0    0    0  0.00000000000E+00  0.00000000000E+00  0.45593999997E+02  0.45594000000E+02  0.51100000000E-03 0.  1.
         11   -1    0    0    0    0 -0.00000000000E+00 -0.00000000000E+00 -0.45593999997E+02  0.45594000000E+02  0.51100000000E-03 0. -1.
         23    2    1    2    0    0 -0.71054273576E-14  0.17763568394E-14 -0.88817841970E-15  0.91188000000E+02  0.91188000000E+02 0.  0.
    9900012    2    3    3    0    0 -0.35488083150E+02  0.73200305252E+01 -0.65416636367E+01  0.54367078560E+02  0.39999987192E+02 0.  0.
        -12    1    3    3    0    0  0.35488083150E+02 -0.73200305252E+01  0.65416636367E+01  0.36820921440E+02  0.00000000000E+00 0.  1.
         11    1    4    4    0    0 -0.25065027835E+02  0.17769081009E+02 -0.56972097382E+01  0.31248264902E+02  0.51100000000E-03 0. -1.
        -11    1    4    4    0    0 -0.10437781060E+02 -0.12679709101E+02 -0.60130410180E+01  0.17489395613E+02  0.51100000000E-03 0.  1.
        -12    1    4    4    0    0  0.14725745286E-01  0.22306586171E+01  0.51685871194E+01  0.56294180450E+01  0.00000000000E+00 0.  1.
</event>
<event>
 8    1  0.2450026E-006  0.9118800E+02  0.7816164E-02  0.1184000E+00
        -11   -1    0    0    0    0  0.00000000000E+00  0.00000000000E+00  0.45593999997E+02  0.45594000000E+02  0.51100000000E-03 0. -1.
         11   -1    0    0    0    0 -0.00000000000E+00 -0.00000000000E+00 -0.45593999997E+02  0.45594000000E+02  0.51100000000E-03 0.  1.
         23    2    1    2    0    0  0.00000000000E+00  0.88817841970E-15 -0.22204460493E-15  0.91188000000E+02  0.91188000000E+02 0.  0.
    9900012    2    3    3    0    0 -0.36582348564E+02 -0.41204162723E+01  0.73079954024E+00  0.54367080339E+02  0.39999991249E+02 0.  0.
         12    1    3    3    0    0  0.36582348564E+02  0.41204162723E+01 -0.73079954024E+00  0.36820919661E+02  0.00000000000E+00 0. -1.
         11    1    4    4    0    0 -0.33733627885E+02 -0.13526729644E+02 -0.77109758035E+01  0.37153589507E+02  0.51100000000E-03 0.  1.
        -11    1    4    4    0    0 -0.23164368535E+01  0.80441506703E+01  0.11264527794E+02  0.14034380156E+02  0.51100000000E-03 0. -1.
        -12    1    4    4    0    0 -0.53228382553E+00  0.13621627010E+01 -0.28227524499E+01  0.31791106757E+01  0.00000000000E+00 0.  1.
</event>
<event>
 8    1  0.2450026E-006  0.9118800E+02  0.7816164E-02  0.1184000E+00
        -11   -1    0    0    0    0  0.00000000000E+00  0.00000000000E+00  0.45593999997E+02  0.45594000000E+02  0.51100000000E-03 0. -1.
         11   -1    0    0    0    0 -0.00000000000E+00 -0.00000000000E+00 -0.45593999997E+02  0.45594000000E+02  0.51100000000E-03 0.  1.
         23    2    1    2    0    0  0.00000000000E+00  0.00000000000E+00  0.00000000000E+00  0.91188000000E+02  0.91188000000E+02 0.  0.
    9900012    2    3    3    0    0 -0.13001839787E+02 -0.12034924280E+02 -0.32278374064E+02  0.54367072900E+02  0.39999974290E+02 0.  0.
         12    1    3    3    0    0  0.13001839787E+02  0.12034924280E+02  0.32278374064E+02  0.36820927100E+02  0.00000000000E+00 0. -1.
         11    1    4    4    0    0  0.54278813951E+01  0.55277269594E+01 -0.32800604612E+01  0.84128745781E+01  0.51100000000E-03 0. -1.
        -11    1    4    4    0    0 -0.18974349663E+02 -0.13481091281E+02 -0.32887022712E+02  0.40290470714E+02  0.51100000000E-03 0.  1.
        -12    1    4    4    0    0  0.54462848122E+00 -0.40815599584E+01  0.38887091090E+01  0.56637276074E+01  0.00000000000E+00 0.  1.
</event>
<event>
 8    1  0.2450026E-006  0.9118800E+02  0.7816164E-02  0.1184000E+00
        -11   -1    0    0    0    0  0.00000000000E+00  0.00000000000E+00  0.45593999997E+02  0.45594000000E+02  0.51100000000E-03 0.  1.
         11   -1    0    0    0    0 -0.00000000000E+00 -0.00000000000E+00 -0.45593999997E+02  0.45594000000E+02  0.51100000000E-03 0. -1.
         23    2    1    2    0    0 -0.22204460493E-15  0.17763568394E-14  0.00000000000E+00  0.91188000000E+02  0.91188000000E+02 0.  0.
    9900012    2    3    3    0    0 -0.65699613639E+00 -0.10745370324E+02 -0.35212129620E+02  0.54366963897E+02  0.39999725794E+02 0.  0.
        -12    1    3    3    0    0  0.65699613639E+00  0.10745370324E+02  0.35212129620E+02  0.36821036103E+02  0.00000000000E+00 0.  1.
         11    1    4    4    0    0  0.60833479376E+00  0.47615804699E+01 -0.36253097443E+02  0.36569520016E+02  0.51100000000E-03 0. -1.
        -11    1    4    4    0    0 -0.36080994017E+01 -0.12323503148E+02  0.32821695147E+01  0.13253669232E+02  0.51100000000E-03 0.  1.
         12    1    4    4    0    0  0.23427684715E+01 -0.31834476457E+01 -0.22412016926E+01  0.45437746479E+01  0.00000000000E+00 0. -1.
</event>
<event>
 8    1  0.2450026E-006  0.9118800E+02  0.7816164E-02  0.1184000E+00
        -11   -1    0    0    0    0  0.00000000000E+00  0.00000000000E+00  0.45593999997E+02  0.45594000000E+02  0.51100000000E-03 0. -1.
         11   -1    0    0    0    0 -0.00000000000E+00 -0.00000000000E+00 -0.45593999997E+02  0.45594000000E+02  0.51100000000E-03 0.  1.
         23    2    1    2    0    0 -0.13322676296E-14  0.00000000000E+00  0.00000000000E+00  0.91188000000E+02  0.91188000000E+02 0.  0.
    9900012    2    3    3    0    0  0.37873336932E+01  0.15556453759E+02  0.33157710444E+02  0.54367069649E+02  0.39999966878E+02 0.  0.
        -12    1    3    3    0    0 -0.37873336932E+01 -0.15556453759E+02 -0.33157710444E+02  0.36820930351E+02  0.00000000000E+00 0.  1.
         11    1    4    4    0    0  0.86627551911E+00  0.63496386611E+01  0.12487179805E+01  0.65289847034E+01  0.51100000000E-03 0.  1.
        -11    1    4    4    0    0 -0.10768973019E+02  0.13474714601E+02  0.28148588325E+02  0.33013356970E+02  0.51100000000E-03 0. -1.
         12    1    4    4    0    0  0.13690031193E+02 -0.42678995035E+01  0.37604041378E+01  0.14824727975E+02  0.00000000000E+00 0. -1.
</event>
<event>
 8    1  0.2450026E-006  0.9118800E+02  0.7816164E-02  0.1184000E+00
        -11   -1    0    0    0    0  0.00000000000E+00  0.00000000000E+00  0.45593999997E+02  0.45594000000E+02  0.51100000000E-03 0. -1.
         11   -1    0    0    0    0 -0.00000000000E+00 -0.00000000000E+00 -0.45593999997E+02  0.45594000000E+02  0.51100000000E-03 0.  1.
         23    2    1    2    0    0 -0.17763568394E-14  0.00000000000E+00 -0.35527136788E-14  0.91188000000E+02  0.91188000000E+02 0.  0.
    9900012    2    3    3    0    0 -0.10332361200E+01 -0.31782574330E+02  0.18562876037E+02  0.54367082376E+02  0.39999995892E+02 0.  0.
        -12    1    3    3    0    0  0.10332361200E+01  0.31782574330E+02 -0.18562876037E+02  0.36820917624E+02  0.00000000000E+00 0.  1.
         11    1    4    4    0    0 -0.14350045790E+02 -0.11045732219E+02  0.10376276889E+02  0.20871011877E+02  0.51100000000E-03 0. -1.
        -11    1    4    4    0    0  0.70562528179E+01 -0.23508626311E+02  0.26433597649E+01  0.24686708286E+02  0.51100000000E-03 0.  1.
         12    1    4    4    0    0  0.62605568518E+01  0.27717842001E+01  0.55432393833E+01  0.88093622134E+01  0.00000000000E+00 0. -1.
</event>
<event>
 8    1  0.2450026E-006  0.9118800E+02  0.7816164E-02  0.1184000E+00
        -11   -1    0    0    0    0  0.00000000000E+00  0.00000000000E+00  0.45593999997E+02  0.45594000000E+02  0.51100000000E-03 0. -1.
         11   -1    0    0    0    0 -0.00000000000E+00 -0.00000000000E+00 -0.45593999997E+02  0.45594000000E+02  0.51100000000E-03 0.  1.
         23    2    1    2    0    0  0.13322676296E-14  0.00000000000E+00  0.00000000000E+00  0.91188000000E+02  0.91188000000E+02 0.  0.
    9900012    2    3    3    0    0  0.33081876400E+01  0.29021804857E+01 -0.36556988581E+02  0.54367079708E+02  0.39999989810E+02 0.  0.
         12    1    3    3    0    0 -0.33081876400E+01 -0.29021804857E+01  0.36556988581E+02  0.36820920292E+02  0.00000000000E+00 0. -1.
         11    1    4    4    0    0  0.90675054327E+01  0.27757408226E+01 -0.46325932053E+01  0.10553924007E+02  0.51100000000E-03 0. -1.
        -11    1    4    4    0    0  0.93238543356E+01  0.18099182836E+01 -0.12372705559E+01  0.95781471358E+01  0.51100000000E-03 0.  1.
        -12    1    4    4    0    0 -0.15083172128E+02 -0.16834786205E+01 -0.30687124820E+02  0.34235008565E+02  0.00000000000E+00 0.  1.
</event>
<event>
 8    1  0.2450026E-006  0.9118800E+02  0.7816164E-02  0.1184000E+00
        -11   -1    0    0    0    0  0.00000000000E+00  0.00000000000E+00  0.45593999997E+02  0.45594000000E+02  0.51100000000E-03 0.  1.
         11   -1    0    0    0    0 -0.00000000000E+00 -0.00000000000E+00 -0.45593999997E+02  0.45594000000E+02  0.51100000000E-03 0. -1.
         23    2    1    2    0    0  0.00000000000E+00  0.00000000000E+00 -0.17763568394E-14  0.91188000000E+02  0.91188000000E+02 0.  0.
    9900012    2    3    3    0    0  0.17875691884E+02  0.31036074651E+02 -0.85441090765E+01  0.54367080810E+02  0.39999992323E+02 0.  0.
        -12    1    3    3    0    0 -0.17875691884E+02 -0.31036074651E+02  0.85441090765E+01  0.36820919190E+02  0.00000000000E+00 0.  1.
         11    1    4    4    0    0 -0.13333364648E+01  0.14082578636E+01 -0.51996670377E+01  0.55495507839E+01  0.51100000000E-03 0. -1.
        -11    1    4    4    0    0  0.46397013360E+01  0.15960613480E+02  0.14480746406E+02  0.22044501080E+02  0.51100000000E-03 0.  1.
         12    1    4    4    0    0  0.14569327012E+02  0.13667203308E+02 -0.17825188445E+02  0.26773028946E+02  0.00000000000E+00 0. -1.
</event>
<event>
 8    1  0.2450026E-006  0.9118800E+02  0.7816164E-02  0.1184000E+00
        -11   -1    0    0    0    0  0.00000000000E+00  0.00000000000E+00  0.45593999997E+02  0.45594000000E+02  0.51100000000E-03 0.  1.
         11   -1    0    0    0    0 -0.00000000000E+00 -0.00000000000E+00 -0.45593999997E+02  0.45594000000E+02  0.51100000000E-03 0. -1.
         23    2    1    2    0    0  0.00000000000E+00  0.35527136788E-14  0.35527136788E-14  0.91188000000E+02  0.91188000000E+02 0.  0.
    9900012    2    3    3    0    0  0.16227833562E+02  0.26657988807E+02 -0.19539312706E+02  0.54367140553E+02  0.40000128519E+02 0.  0.
        -12    1    3    3    0    0 -0.16227833562E+02 -0.26657988807E+02  0.19539312706E+02  0.36820859447E+02  0.00000000000E+00 0.  1.
         11    1    4    4    0    0  0.58584031109E+01  0.28480128750E+02 -0.21594845233E+02  0.36218447807E+02  0.51100000000E-03 0. -1.
        -11    1    4    4    0    0  0.13778098354E+02  0.69335768243E+00  0.15616341827E+01  0.13883639318E+02  0.51100000000E-03 0.  1.
        -12    1    4    4    0    0 -0.34086679029E+01 -0.25154976249E+01  0.49389834463E+00  0.42650534285E+01  0.00000000000E+00 0.  1.
</event>
<event>
 8    1  0.2450026E-006  0.9118800E+02  0.7816164E-02  0.1184000E+00
        -11   -1    0    0    0    0  0.00000000000E+00  0.00000000000E+00  0.45593999997E+02  0.45594000000E+02  0.51100000000E-03 0. -1.
         11   -1    0    0    0    0 -0.00000000000E+00 -0.00000000000E+00 -0.45593999997E+02  0.45594000000E+02  0.51100000000E-03 0.  1.
         23    2    1    2    0    0  0.35527136788E-14  0.00000000000E+00  0.00000000000E+00  0.91188000000E+02  0.91188000000E+02 0.  0.
    9900012    2    3    3    0    0  0.26591241076E+02  0.71355516625E+01  0.24449329104E+02  0.54367083483E+02  0.39999998417E+02 0.  0.
        -12    1    3    3    0    0 -0.26591241076E+02 -0.71355516625E+01 -0.24449329104E+02  0.36820916517E+02  0.00000000000E+00 0.  1.
         11    1    4    4    0    0  0.17312656486E+02  0.11290810480E+02  0.11635016949E+02  0.23718855275E+02  0.51100000000E-03 0. -1.
        -11    1    4    4    0    0  0.13537115689E+02  0.50728426467E+01  0.21143188263E+00  0.14457936830E+02  0.51100000000E-03 0.  1.
        -12    1    4    4    0    0 -0.42585310984E+01 -0.92281014642E+01  0.12602880272E+02  0.16190291378E+02  0.00000000000E+00 0.  1.
</event>
<event>
 8    1  0.2450026E-006  0.9118800E+02  0.7816164E-02  0.1184000E+00
        -11   -1    0    0    0    0  0.00000000000E+00  0.00000000000E+00  0.45593999997E+02  0.45594000000E+02  0.51100000000E-03 0.  1.
         11   -1    0    0    0    0 -0.00000000000E+00 -0.00000000000E+00 -0.45593999997E+02  0.45594000000E+02  0.51100000000E-03 0. -1.
         23    2    1    2    0    0  0.69388939039E-15  0.00000000000E+00  0.71054273576E-14  0.91188000000E+02  0.91188000000E+02 0.  0.
    9900012    2    3    3    0    0  0.11248667116E+00  0.78796081616E+01  0.35967749950E+02  0.54367083193E+02  0.39999997755E+02 0.  0.
         12    1    3    3    0    0 -0.11248667116E+00 -0.78796081616E+01 -0.35967749950E+02  0.36820916807E+02  0.00000000000E+00 0. -1.
         11    1    4    4    0    0  0.15660779829E+02  0.13704948866E+02  0.10957813123E+02  0.23519339212E+02  0.51100000000E-03 0. -1.
        -11    1    4    4    0    0 -0.69571746637E+01 -0.50228678694E+01  0.78012488917E+01  0.11597023992E+02  0.51100000000E-03 0.  1.
         12    1    4    4    0    0 -0.85911184942E+01 -0.80247283537E+00  0.17208687936E+02  0.19250719989E+02  0.00000000000E+00 0. -1.
</event>
<event>
 8    1  0.2450026E-006  0.9118800E+02  0.7816164E-02  0.1184000E+00
        -11   -1    0    0    0    0  0.00000000000E+00  0.00000000000E+00  0.45593999997E+02  0.45594000000E+02  0.51100000000E-03 0.  1.
         11   -1    0    0    0    0 -0.00000000000E+00 -0.00000000000E+00 -0.45593999997E+02  0.45594000000E+02  0.51100000000E-03 0. -1.
         23    2    1    2    0    0  0.00000000000E+00  0.88817841970E-15 -0.17763568394E-14  0.91188000000E+02  0.91188000000E+02 0.  0.
    9900012    2    3    3    0    0  0.35380660479E+02 -0.57707071684E+01 -0.84076315815E+01  0.54367075704E+02  0.39999980683E+02 0.  0.
        -12    1    3    3    0    0 -0.35380660479E+02  0.57707071684E+01  0.84076315815E+01  0.36820924296E+02  0.00000000000E+00 0.  1.
         11    1    4    4    0    0  0.17364423756E+02  0.66061733522E+01 -0.14013287998E+02  0.23270947112E+02  0.51100000000E-03 0. -1.
        -11    1    4    4    0    0  0.21659413002E+02 -0.10815869469E+02 -0.25701268704E-01  0.24209788615E+02  0.51100000000E-03 0.  1.
         12    1    4    4    0    0 -0.36431762788E+01 -0.15610110515E+01  0.56313576848E+01  0.68863399768E+01  0.00000000000E+00 0. -1.
</event>
<event>
 8    1  0.2450026E-006  0.9118800E+02  0.7816164E-02  0.1184000E+00
        -11   -1    0    0    0    0  0.00000000000E+00  0.00000000000E+00  0.45593999997E+02  0.45594000000E+02  0.51100000000E-03 0. -1.
         11   -1    0    0    0    0 -0.00000000000E+00 -0.00000000000E+00 -0.45593999997E+02  0.45594000000E+02  0.51100000000E-03 0.  1.
         23    2    1    2    0    0  0.00000000000E+00  0.00000000000E+00  0.00000000000E+00  0.91188000000E+02  0.91188000000E+02 0.  0.
    9900012    2    3    3    0    0 -0.34217768273E+02  0.12863884886E+02 -0.44096543475E+01  0.54367078618E+02  0.39999987325E+02 0.  0.
         12    1    3    3    0    0  0.34217768273E+02 -0.12863884886E+02  0.44096543475E+01  0.36820921382E+02  0.00000000000E+00 0. -1.
         11    1    4    4    0    0 -0.14776107461E+01  0.38461173015E+01  0.47342930180E+01  0.62761040826E+01  0.51100000000E-03 0. -1.
        -11    1    4    4    0    0 -0.21507540113E+02 -0.11029453953E+02 -0.59318633784E+01  0.24887951695E+02  0.51100000000E-03 0.  1.
         12    1    4    4    0    0 -0.11232617415E+02  0.20047221538E+02 -0.32120839872E+01  0.23203022840E+02  0.00000000000E+00 0. -1.
</event>
<event>
 8    1  0.2450026E-006  0.9118800E+02  0.7816164E-02  0.1184000E+00
        -11   -1    0    0    0    0  0.00000000000E+00  0.00000000000E+00  0.45593999997E+02  0.45594000000E+02  0.51100000000E-03 0.  1.
         11   -1    0    0    0    0 -0.00000000000E+00 -0.00000000000E+00 -0.45593999997E+02  0.45594000000E+02  0.51100000000E-03 0. -1.
         23    2    1    2    0    0  0.35527136788E-14  0.17763568394E-14  0.35527136788E-14  0.91188000000E+02  0.91188000000E+02 0.  0.
    9900012    2    3    3    0    0  0.19764110036E+02  0.11154896842E+02  0.28995324977E+02  0.54367073347E+02  0.39999975309E+02 0.  0.
         12    1    3    3    0    0 -0.19764110036E+02 -0.11154896842E+02 -0.28995324977E+02  0.36820926653E+02  0.00000000000E+00 0. -1.
         11    1    4    4    0    0  0.13804663773E+02  0.79667695568E+01  0.99211349749E+01  0.18774106597E+02  0.51100000000E-03 0. -1.
        -11    1    4    4    0    0  0.10758993053E+02  0.13606105036E+02  0.63747829745E+01  0.18480256600E+02  0.51100000000E-03 0.  1.
         12    1    4    4    0    0 -0.47995467903E+01 -0.10417977751E+02  0.12699407028E+02  0.17112710150E+02  0.00000000000E+00 0. -1.
</event>
<event>
 8    1  0.2450026E-006  0.9118800E+02  0.7816164E-02  0.1184000E+00
        -11   -1    0    0    0    0  0.00000000000E+00  0.00000000000E+00  0.45593999997E+02  0.45594000000E+02  0.51100000000E-03 0.  1.
         11   -1    0    0    0    0 -0.00000000000E+00 -0.00000000000E+00 -0.45593999997E+02  0.45594000000E+02  0.51100000000E-03 0. -1.
         23    2    1    2    0    0 -0.17763568394E-14  0.17763568394E-14  0.00000000000E+00  0.91188000000E+02  0.91188000000E+02 0.  0.
    9900012    2    3    3    0    0 -0.10164730119E+02 -0.39559868819E+01  0.35168284467E+02  0.54367084708E+02  0.40000001210E+02 0.  0.
         12    1    3    3    0    0  0.10164730119E+02  0.39559868819E+01 -0.35168284467E+02  0.36820915292E+02  0.00000000000E+00 0. -1.
         11    1    4    4    0    0 -0.19217885163E+01 -0.11582519362E+02  0.10915484312E+01  0.11791501351E+02  0.51100000000E-03 0. -1.
        -11    1    4    4    0    0  0.54013110666E+01  0.10240601935E+02  0.14124592782E+02  0.18263302296E+02  0.51100000000E-03 0.  1.
         12    1    4    4    0    0 -0.13644252669E+02 -0.26140694546E+01  0.19952143253E+02  0.24312281062E+02  0.00000000000E+00 0. -1.
</event>
<event>
 8    1  0.2450026E-006  0.9118800E+02  0.7816164E-02  0.1184000E+00
        -11   -1    0    0    0    0  0.00000000000E+00  0.00000000000E+00  0.45593999997E+02  0.45594000000E+02  0.51100000000E-03 0. -1.
         11   -1    0    0    0    0 -0.00000000000E+00 -0.00000000000E+00 -0.45593999997E+02  0.45594000000E+02  0.51100000000E-03 0.  1.
         23    2    1    2    0    0 -0.35527136788E-14  0.00000000000E+00 -0.35527136788E-14  0.91188000000E+02  0.91188000000E+02 0.  0.
    9900012    2    3    3    0    0  0.22591043908E+02 -0.56569188409E+01 -0.28520595634E+02  0.54367076995E+02  0.39999983626E+02 0.  0.
         12    1    3    3    0    0 -0.22591043908E+02  0.56569188409E+01  0.28520595634E+02  0.36820923005E+02  0.00000000000E+00 0. -1.
         11    1    4    4    0    0  0.51546580881E+01 -0.11452534578E+01  0.54708714159E+01  0.76034557800E+01  0.51100000000E-03 0. -1.
        -11    1    4    4    0    0 -0.43732786307E+01 -0.85050836015E+01 -0.71044936144E+01  0.11913683009E+02  0.51100000000E-03 0.  1.
         12    1    4    4    0    0  0.21809664451E+02  0.39934182184E+01 -0.26886973435E+02  0.34849938207E+02  0.00000000000E+00 0. -1.
</event>
<event>
 8    1  0.2450026E-006  0.9118800E+02  0.7816164E-02  0.1184000E+00
        -11   -1    0    0    0    0  0.00000000000E+00  0.00000000000E+00  0.45593999997E+02  0.45594000000E+02  0.51100000000E-03 0.  1.
         11   -1    0    0    0    0 -0.00000000000E+00 -0.00000000000E+00 -0.45593999997E+02  0.45594000000E+02  0.51100000000E-03 0. -1.
         23    2    1    2    0    0  0.00000000000E+00 -0.35527136788E-14  0.35527136788E-14  0.91188000000E+02  0.91188000000E+02 0.  0.
    9900012    2    3    3    0    0 -0.95459588719E+01  0.27822440218E+02 -0.22148717538E+02  0.54367092908E+02  0.40000019902E+02 0.  0.
        -12    1    3    3    0    0  0.95459588719E+01 -0.27822440218E+02  0.22148717538E+02  0.36820907092E+02  0.00000000000E+00 0.  1.
         11    1    4    4    0    0 -0.38216156626E+01  0.37107243765E+01 -0.11657568323E+02  0.12816907628E+02  0.51100000000E-03 0. -1.
        -11    1    4    4    0    0  0.92836501648E+01  0.12817524141E+01  0.44893692200E+01  0.10391510279E+02  0.51100000000E-03 0.  1.
        -12    1    4    4    0    0 -0.15007993374E+02  0.22829963427E+02 -0.14980518436E+02  0.31158675001E+02  0.00000000000E+00 0.  1.
</event>
<event>
 8    1  0.2450026E-006  0.9118800E+02  0.7816164E-02  0.1184000E+00
        -11   -1    0    0    0    0  0.00000000000E+00  0.00000000000E+00  0.45593999997E+02  0.45594000000E+02  0.51100000000E-03 0. -1.
         11   -1    0    0    0    0 -0.00000000000E+00 -0.00000000000E+00 -0.45593999997E+02  0.45594000000E+02  0.51100000000E-03 0.  1.
         23    2    1    2    0    0 -0.35527136788E-14  0.00000000000E+00  0.00000000000E+00  0.91188000000E+02  0.91188000000E+02 0.  0.
    9900012    2    3    3    0    0  0.29381737165E+02 -0.20036218683E+02 -0.95416960056E+01  0.54367075234E+02  0.39999979611E+02 0.  0.
         12    1    3    3    0    0 -0.29381737165E+02  0.20036218683E+02  0.95416960056E+01  0.36820924766E+02  0.00000000000E+00 0. -1.
         11    1    4    4    0    0 -0.66839110012E+01 -0.58440535778E+01  0.32322365211E+01  0.94485438922E+01  0.51100000000E-03 0. -1.
        -11    1    4    4    0    0  0.77936340974E+01 -0.11125098822E+02 -0.88478832580E+01  0.16210909741E+02  0.51100000000E-03 0.  1.
        -12    1    4    4    0    0  0.28272014069E+02 -0.30670662835E+01 -0.39260492687E+01  0.28707621601E+02  0.00000000000E+00 0.  1.
</event>
<event>
 8    1  0.2450026E-006  0.9118800E+02  0.7816164E-02  0.1184000E+00
        -11   -1    0    0    0    0  0.00000000000E+00  0.00000000000E+00  0.45593999997E+02  0.45594000000E+02  0.51100000000E-03 0.  1.
         11   -1    0    0    0    0 -0.00000000000E+00 -0.00000000000E+00 -0.45593999997E+02  0.45594000000E+02  0.51100000000E-03 0. -1.
         23    2    1    2    0    0  0.00000000000E+00 -0.35527136788E-14  0.17763568394E-14  0.91188000000E+02  0.91188000000E+02 0.  0.
    9900012    2    3    3    0    0 -0.20612248013E+02  0.27306871985E+02 -0.13610721136E+02  0.54367058193E+02  0.39999940762E+02 0.  0.
        -12    1    3    3    0    0  0.20612248013E+02 -0.27306871985E+02  0.13610721136E+02  0.36820941807E+02  0.00000000000E+00 0.  1.
         11    1    4    4    0    0 -0.28413174339E+02  0.13348497954E+02 -0.35493425788E+01  0.31592541946E+02  0.51100000000E-03 0. -1.
        -11    1    4    4    0    0  0.92850375335E+00  0.80672253265E+00 -0.76410543728E+01  0.77394206924E+01  0.51100000000E-03 0.  1.
        -12    1    4    4    0    0  0.68724225727E+01  0.13151651499E+02 -0.24203241844E+01  0.15035095554E+02  0.00000000000E+00 0.  1.
</event>
<event>
 8    1  0.2450026E-006  0.9118800E+02  0.7816164E-02  0.1184000E+00
        -11   -1    0    0    0    0  0.00000000000E+00  0.00000000000E+00  0.45593999997E+02  0.45594000000E+02  0.51100000000E-03 0. -1.
         11   -1    0    0    0    0 -0.00000000000E+00 -0.00000000000E+00 -0.45593999997E+02  0.45594000000E+02  0.51100000000E-03 0.  1.
         23    2    1    2    0    0 -0.71054273576E-14  0.17763568394E-14  0.00000000000E+00  0.91188000000E+02  0.91188000000E+02 0.  0.
    9900012    2    3    3    0    0 -0.34391737732E+02  0.13107221575E+02  0.10904821940E+01  0.54367081583E+02  0.39999994084E+02 0.  0.
        -12    1    3    3    0    0  0.34391737732E+02 -0.13107221575E+02 -0.10904821940E+01  0.36820918417E+02  0.00000000000E+00 0.  1.
         11    1    4    4    0    0 -0.21770588395E+02 -0.52835070289E+01  0.15148111378E+02  0.27043284641E+02  0.51100000000E-03 0. -1.
        -11    1    4    4    0    0 -0.10152901138E+02  0.14587314265E+02 -0.73615479484E+01  0.19237035308E+02  0.51100000000E-03 0.  1.
         12    1    4    4    0    0 -0.24682481990E+01  0.38034143389E+01 -0.66960812355E+01  0.80867616336E+01  0.00000000000E+00 0. -1.
</event>
<event>
 8    1  0.2450026E-006  0.9118800E+02  0.7816164E-02  0.1184000E+00
        -11   -1    0    0    0    0  0.00000000000E+00  0.00000000000E+00  0.45593999997E+02  0.45594000000E+02  0.51100000000E-03 0. -1.
         11   -1    0    0    0    0 -0.00000000000E+00 -0.00000000000E+00 -0.45593999997E+02  0.45594000000E+02  0.51100000000E-03 0.  1.
         23    2    1    2    0    0  0.17763568394E-14  0.00000000000E+00 -0.35527136788E-14  0.91188000000E+02  0.91188000000E+02 0.  0.
    9900012    2    3    3    0    0  0.11315843835E+02 -0.29696132774E+02  0.18597609430E+02  0.54367086106E+02  0.40000004396E+02 0.  0.
        -12    1    3    3    0    0 -0.11315843835E+02  0.29696132774E+02 -0.18597609430E+02  0.36820913894E+02  0.00000000000E+00 0.  1.
         11    1    4    4    0    0  0.17475273986E+02 -0.25887207178E+02 -0.12796826987E+01  0.31259723039E+02  0.51100000000E-03 0. -1.
        -11    1    4    4    0    0 -0.26492676256E+01 -0.14448270930E+01  0.18368013151E+02  0.18614243247E+02  0.51100000000E-03 0.  1.
         12    1    4    4    0    0 -0.35101625254E+01 -0.23640985028E+01  0.15092789782E+01  0.44931198203E+01  0.00000000000E+00 0. -1.
</event>
<event>
 8    1  0.2450026E-006  0.9118800E+02  0.7816164E-02  0.1184000E+00
        -11   -1    0    0    0    0  0.00000000000E+00  0.00000000000E+00  0.45593999997E+02  0.45594000000E+02  0.51100000000E-03 0.  1.
         11   -1    0    0    0    0 -0.00000000000E+00 -0.00000000000E+00 -0.45593999997E+02  0.45594000000E+02  0.51100000000E-03 0. -1.
         23    2    1    2    0    0  0.35527136788E-14  0.88817841970E-15 -0.35527136788E-14  0.91188000000E+02  0.91188000000E+02 0.  0.
    9900012    2    3    3    0    0  0.26974582835E+02  0.75021919283E+01 -0.23913777185E+02  0.54367085534E+02  0.40000003093E+02 0.  0.
        -12    1    3    3    0    0 -0.26974582835E+02 -0.75021919283E+01  0.23913777185E+02  0.36820914466E+02  0.00000000000E+00 0.  1.
         11    1    4    4    0    0  0.28048813236E+01 -0.62309367277E+01 -0.23232466597E+01  0.72172991519E+01  0.51100000000E-03 0. -1.
        -11    1    4    4    0    0 -0.74905717355E+01  0.40810950231E+01 -0.22798414799E+01  0.88295910973E+01  0.51100000000E-03 0.  1.
        -12    1    4    4    0    0  0.31660273247E+02  0.96520336329E+01 -0.19310689045E+02  0.38320195285E+02  0.00000000000E+00 0.  1.
</event>
<event>
 8    1  0.2450026E-006  0.9118800E+02  0.7816164E-02  0.1184000E+00
        -11   -1    0    0    0    0  0.00000000000E+00  0.00000000000E+00  0.45593999997E+02  0.45594000000E+02  0.51100000000E-03 0.  1.
         11   -1    0    0    0    0 -0.00000000000E+00 -0.00000000000E+00 -0.45593999997E+02  0.45594000000E+02  0.51100000000E-03 0. -1.
         23    2    1    2    0    0  0.35527136788E-14  0.00000000000E+00  0.00000000000E+00  0.91188000000E+02  0.91188000000E+02 0.  0.
    9900012    2    3    3    0    0  0.26660122139E+02 -0.93049765824E+01 -0.23631219742E+02  0.54367092241E+02  0.40000018383E+02 0.  0.
        -12    1    3    3    0    0 -0.26660122139E+02  0.93049765824E+01  0.23631219742E+02  0.36820907759E+02  0.00000000000E+00 0.  1.
         11    1    4    4    0    0  0.12882585521E+02 -0.19765340173E+02  0.63100181080E+00  0.23601437359E+02  0.51100000000E-03 0. -1.
        -11    1    4    4    0    0 -0.99122428350E+00  0.73635318639E+00 -0.16082922091E+01  0.20276453552E+01  0.51100000000E-03 0.  1.
         12    1    4    4    0    0  0.14768760902E+02  0.97240104038E+01 -0.22653929344E+02  0.28738009528E+02  0.00000000000E+00 0. -1.
</event>
<event>
 8    1  0.2450026E-006  0.9118800E+02  0.7816164E-02  0.1184000E+00
        -11   -1    0    0    0    0  0.00000000000E+00  0.00000000000E+00  0.45593999997E+02  0.45594000000E+02  0.51100000000E-03 0.  1.
         11   -1    0    0    0    0 -0.00000000000E+00 -0.00000000000E+00 -0.45593999997E+02  0.45594000000E+02  0.51100000000E-03 0. -1.
         23    2    1    2    0    0  0.00000000000E+00 -0.88817841970E-15 -0.71054273576E-14  0.91188000000E+02  0.91188000000E+02 0.  0.
    9900012    2    3    3    0    0 -0.16765455454E+02 -0.74628141536E+01 -0.31921867045E+02  0.54367086278E+02  0.40000004788E+02 0.  0.
        -12    1    3    3    0    0  0.16765455454E+02  0.74628141536E+01  0.31921867045E+02  0.36820913722E+02  0.00000000000E+00 0.  1.
         11    1    4    4    0    0 -0.43530444795E+01 -0.15982163064E+02 -0.18992034025E+02  0.25200712076E+02  0.51100000000E-03 0. -1.
        -11    1    4    4    0    0 -0.46726009917E+01  0.97776286266E+01  0.31425052712E+01  0.11283198183E+02  0.51100000000E-03 0.  1.
        -12    1    4    4    0    0 -0.77398099823E+01 -0.12582797158E+01 -0.16072338291E+02  0.17883176020E+02  0.00000000000E+00 0.  1.
</event>
<event>
 8    1  0.2450026E-006  0.9118800E+02  0.7816164E-02  0.1184000E+00
        -11   -1    0    0    0    0  0.00000000000E+00  0.00000000000E+00  0.45593999997E+02  0.45594000000E+02  0.51100000000E-03 0. -1.
         11   -1    0    0    0    0 -0.00000000000E+00 -0.00000000000E+00 -0.45593999997E+02  0.45594000000E+02  0.51100000000E-03 0.  1.
         23    2    1    2    0    0  0.00000000000E+00  0.00000000000E+00  0.00000000000E+00  0.91188000000E+02  0.91188000000E+02 0.  0.
    9900012    2    3    3    0    0 -0.19524850739E+02 -0.27330417461E+02 -0.15086642589E+02  0.54367105122E+02  0.40000047747E+02 0.  0.
         12    1    3    3    0    0  0.19524850739E+02  0.27330417461E+02  0.15086642589E+02  0.36820894878E+02  0.00000000000E+00 0. -1.
         11    1    4    4    0    0  0.12545141984E+01 -0.55821365685E+01 -0.53620576047E+01  0.78412828389E+01  0.51100000000E-03 0. -1.
        -11    1    4    4    0    0 -0.25555090934E+02 -0.16439908388E+02  0.43957778944E+01  0.30702705483E+02  0.51100000000E-03 0.  1.
        -12    1    4    4    0    0  0.47757259957E+01 -0.53083725050E+01 -0.14120362879E+02  0.15823116800E+02  0.00000000000E+00 0.  1.
</event>
<event>
 8    1  0.2450026E-006  0.9118800E+02  0.7816164E-02  0.1184000E+00
        -11   -1    0    0    0    0  0.00000000000E+00  0.00000000000E+00  0.45593999997E+02  0.45594000000E+02  0.51100000000E-03 0.  1.
         11   -1    0    0    0    0 -0.00000000000E+00 -0.00000000000E+00 -0.45593999997E+02  0.45594000000E+02  0.51100000000E-03 0. -1.
         23    2    1    2    0    0  0.00000000000E+00  0.11102230246E-14  0.00000000000E+00  0.91188000000E+02  0.91188000000E+02 0.  0.
    9900012    2    3    3    0    0  0.10541721501E+02  0.12318513528E+01  0.35258121040E+02  0.54367075932E+02  0.39999981202E+02 0.  0.
         12    1    3    3    0    0 -0.10541721501E+02 -0.12318513528E+01 -0.35258121040E+02  0.36820924068E+02  0.00000000000E+00 0. -1.
         11    1    4    4    0    0 -0.13855667228E+01  0.75518575310E+01 -0.41053530300E+01  0.87065648262E+01  0.51100000000E-03 0. -1.
        -11    1    4    4    0    0 -0.44606811960E+00  0.48562910741E+01  0.17487360160E+02  0.18154622149E+02  0.51100000000E-03 0.  1.
        -12    1    4    4    0    0  0.12373356344E+02 -0.11176297252E+02  0.21876113910E+02  0.27505888956E+02  0.00000000000E+00 0.  1.
</event>
<event>
 8    1  0.2450026E-006  0.9118800E+02  0.7816164E-02  0.1184000E+00
        -11   -1    0    0    0    0  0.00000000000E+00  0.00000000000E+00  0.45593999997E+02  0.45594000000E+02  0.51100000000E-03 0. -1.
         11   -1    0    0    0    0 -0.00000000000E+00 -0.00000000000E+00 -0.45593999997E+02  0.45594000000E+02  0.51100000000E-03 0.  1.
         23    2    1    2    0    0  0.13322676296E-14  0.00000000000E+00  0.00000000000E+00  0.91188000000E+02  0.91188000000E+02 0.  0.
    9900012    2    3    3    0    0  0.39012658998E+01 -0.51054879763E+01 -0.36255953814E+02  0.54367081080E+02  0.39999992939E+02 0.  0.
         12    1    3    3    0    0 -0.39012658998E+01  0.51054879763E+01  0.36255953814E+02  0.36820918920E+02  0.00000000000E+00 0. -1.
         11    1    4    4    0    0 -0.81262398238E+01  0.27105006848E+00 -0.16356273035E+02  0.18265730472E+02  0.51100000000E-03 0.  1.
        -11    1    4    4    0    0 -0.79059230481E+01 -0.24011256077E+01 -0.74381110216E+00  0.82959193971E+01  0.51100000000E-03 0. -1.
         12    1    4    4    0    0  0.19933428772E+02 -0.29754124371E+01 -0.19155869677E+02  0.27805431211E+02  0.00000000000E+00 0. -1.
</event>
<event>
 8    1  0.2450026E-006  0.9118800E+02  0.7816164E-02  0.1184000E+00
        -11   -1    0    0    0    0  0.00000000000E+00  0.00000000000E+00  0.45593999997E+02  0.45594000000E+02  0.51100000000E-03 0. -1.
         11   -1    0    0    0    0 -0.00000000000E+00 -0.00000000000E+00 -0.45593999997E+02  0.45594000000E+02  0.51100000000E-03 0.  1.
         23    2    1    2    0    0 -0.88817841970E-15  0.00000000000E+00  0.00000000000E+00  0.91188000000E+02  0.91188000000E+02 0.  0.
    9900012    2    3    3    0    0  0.43246241767E+01  0.21499054145E+02  0.29578242253E+02  0.54367026111E+02  0.39999867624E+02 0.  0.
        -12    1    3    3    0    0 -0.43246241767E+01 -0.21499054145E+02 -0.29578242253E+02  0.36820973889E+02  0.00000000000E+00 0.  1.
         11    1    4    4    0    0 -0.54278264946E+01  0.88041942201E+00  0.99019178854E+01  0.11326271094E+02  0.51100000000E-03 0. -1.
        -11    1    4    4    0    0 -0.24735875176E+01 -0.47312205700E+01 -0.36660350415E+01  0.64763335674E+01  0.51100000000E-03 0.  1.
         12    1    4    4    0    0  0.12226038189E+02  0.25349855293E+02  0.23342359409E+02  0.36564421450E+02  0.00000000000E+00 0. -1.
</event>
<event>
 8    1  0.2450026E-006  0.9118800E+02  0.7816164E-02  0.1184000E+00
        -11   -1    0    0    0    0  0.00000000000E+00  0.00000000000E+00  0.45593999997E+02  0.45594000000E+02  0.51100000000E-03 0. -1.
         11   -1    0    0    0    0 -0.00000000000E+00 -0.00000000000E+00 -0.45593999997E+02  0.45594000000E+02  0.51100000000E-03 0.  1.
         23    2    1    2    0    0  0.35527136788E-14  0.00000000000E+00  0.99920072216E-15  0.91188000000E+02  0.91188000000E+02 0.  0.
    9900012    2    3    3    0    0  0.29623244541E+02  0.21854580844E+02  0.78776694957E+00  0.54367083421E+02  0.39999998274E+02 0.  0.
         12    1    3    3    0    0 -0.29623244541E+02 -0.21854580844E+02 -0.78776694957E+00  0.36820916579E+02  0.00000000000E+00 0. -1.
         11    1    4    4    0    0  0.75707461487E+01 -0.69564756119E+01  0.84529563561E+01  0.13310192395E+02  0.51100000000E-03 0. -1.
        -11    1    4    4    0    0 -0.18567661499E+00 -0.19517873824E+00 -0.43484321005E+01  0.43567685891E+01  0.51100000000E-03 0.  1.
        -12    1    4    4    0    0  0.22238175007E+02  0.29006235194E+02 -0.33167573060E+01  0.36700122436E+02  0.00000000000E+00 0.  1.
</event>
<event>
 8    1  0.2450026E-006  0.9118800E+02  0.7816164E-02  0.1184000E+00
        -11   -1    0    0    0    0  0.00000000000E+00  0.00000000000E+00  0.45593999997E+02  0.45594000000E+02  0.51100000000E-03 0. -1.
         11   -1    0    0    0    0 -0.00000000000E+00 -0.00000000000E+00 -0.45593999997E+02  0.45594000000E+02  0.51100000000E-03 0.  1.
         23    2    1    2    0    0  0.17763568394E-14  0.00000000000E+00  0.00000000000E+00  0.91188000000E+02  0.91188000000E+02 0.  0.
    9900012    2    3    3    0    0 -0.12040319442E+02 -0.94778335546E+01 -0.33481062789E+02  0.54367079498E+02  0.39999989330E+02 0.  0.
         12    1    3    3    0    0  0.12040319442E+02  0.94778335546E+01  0.33481062789E+02  0.36820920502E+02  0.00000000000E+00 0. -1.
         11    1    4    4    0    0 -0.53862112361E+00 -0.69354975359E+00  0.17423853546E+01  0.19511614389E+01  0.51100000000E-03 0. -1.
        -11    1    4    4    0    0  0.59196444378E+00  0.12594266507E+02 -0.52332810173E+01  0.13651124540E+02  0.51100000000E-03 0.  1.
        -12    1    4    4    0    0 -0.12093662762E+02 -0.21378550308E+02 -0.29990167127E+02  0.38764793519E+02  0.00000000000E+00 0.  1.
</event>
<event>
 8    1  0.2450026E-006  0.9118800E+02  0.7816164E-02  0.1184000E+00
        -11   -1    0    0    0    0  0.00000000000E+00  0.00000000000E+00  0.45593999997E+02  0.45594000000E+02  0.51100000000E-03 0. -1.
         11   -1    0    0    0    0 -0.00000000000E+00 -0.00000000000E+00 -0.45593999997E+02  0.45594000000E+02  0.51100000000E-03 0.  1.
         23    2    1    2    0    0 -0.35527136788E-14  0.00000000000E+00  0.00000000000E+00  0.91188000000E+02  0.91188000000E+02 0.  0.
    9900012    2    3    3    0    0  0.28179607221E+02 -0.23245966194E+02 -0.46171502252E+01  0.54367037443E+02  0.39999893459E+02 0.  0.
         12    1    3    3    0    0 -0.28179607221E+02  0.23245966194E+02  0.46171502252E+01  0.36820962557E+02  0.00000000000E+00 0. -1.
         11    1    4    4    0    0 -0.28038808132E+01  0.59037906677E+01 -0.12167903436E+01  0.66480877600E+01  0.51100000000E-03 0. -1.
        -11    1    4    4    0    0 -0.16036367192E+01 -0.92762932845E+01 -0.11462201526E+01  0.94834112389E+01  0.51100000000E-03 0.  1.
        -12    1    4    4    0    0  0.32587124753E+02 -0.19873463577E+02 -0.22541397290E+01  0.38235538444E+02  0.00000000000E+00 0.  1.
</event>
<event>
 8    1  0.2450026E-006  0.9118800E+02  0.7816164E-02  0.1184000E+00
        -11   -1    0    0    0    0  0.00000000000E+00  0.00000000000E+00  0.45593999997E+02  0.45594000000E+02  0.51100000000E-03 0.  1.
         11   -1    0    0    0    0 -0.00000000000E+00 -0.00000000000E+00 -0.45593999997E+02  0.45594000000E+02  0.51100000000E-03 0. -1.
         23    2    1    2    0    0  0.00000000000E+00 -0.35527136788E-14 -0.35527136788E-14  0.91188000000E+02  0.91188000000E+02 0.  0.
    9900012    2    3    3    0    0  0.61203062317E+01  0.19272093161E+02 -0.30771886664E+02  0.54367072091E+02  0.39999972446E+02 0.  0.
        -12    1    3    3    0    0 -0.61203062317E+01 -0.19272093161E+02  0.30771886664E+02  0.36820927909E+02  0.00000000000E+00 0.  1.
         11    1    4    4    0    0  0.11566840925E+02  0.15938516013E+02 -0.27706130984E+02  0.33992025477E+02  0.51100000000E-03 0. -1.
        -11    1    4    4    0    0  0.71046264639E+01  0.26160958091E+01 -0.12184766138E+01  0.76684000934E+01  0.51100000000E-03 0.  1.
        -12    1    4    4    0    0 -0.12551161157E+02  0.71748133948E+00 -0.18472790668E+01  0.12706646521E+02  0.00000000000E+00 0.  1.
</event>
<event>
 8    1  0.2450026E-006  0.9118800E+02  0.7816164E-02  0.1184000E+00
        -11   -1    0    0    0    0  0.00000000000E+00  0.00000000000E+00  0.45593999997E+02  0.45594000000E+02  0.51100000000E-03 0. -1.
         11   -1    0    0    0    0 -0.00000000000E+00 -0.00000000000E+00 -0.45593999997E+02  0.45594000000E+02  0.51100000000E-03 0.  1.
         23    2    1    2    0    0 -0.17763568394E-14 -0.88817841970E-15  0.00000000000E+00  0.91188000000E+02  0.91188000000E+02 0.  0.
    9900012    2    3    3    0    0 -0.12471649002E+02 -0.32816570175E+01  0.34488688724E+02  0.54367069111E+02  0.39999965653E+02 0.  0.
        -12    1    3    3    0    0  0.12471649002E+02  0.32816570175E+01 -0.34488688724E+02  0.36820930889E+02  0.00000000000E+00 0.  1.
         11    1    4    4    0    0 -0.10805052542E+02  0.57371827807E+01  0.36182117819E+02  0.38194372318E+02  0.51100000000E-03 0. -1.
        -11    1    4    4    0    0  0.37836984935E+01 -0.33685916656E+00 -0.41555998594E+01  0.56301739618E+01  0.51100000000E-03 0.  1.
         12    1    4    4    0    0 -0.54502949532E+01 -0.86819806317E+01  0.24621707651E+01  0.10542522831E+02  0.00000000000E+00 0. -1.
</event>
<event>
 8    1  0.2450026E-006  0.9118800E+02  0.7816164E-02  0.1184000E+00
        -11   -1    0    0    0    0  0.00000000000E+00  0.00000000000E+00  0.45593999997E+02  0.45594000000E+02  0.51100000000E-03 0.  1.
         11   -1    0    0    0    0 -0.00000000000E+00 -0.00000000000E+00 -0.45593999997E+02  0.45594000000E+02  0.51100000000E-03 0. -1.
         23    2    1    2    0    0  0.26645352591E-14  0.00000000000E+00  0.00000000000E+00  0.91188000000E+02  0.91188000000E+02 0.  0.
    9900012    2    3    3    0    0  0.72177918208E+01  0.33161983987E+02  0.14281681893E+02  0.54367080152E+02  0.39999990823E+02 0.  0.
         12    1    3    3    0    0 -0.72177918208E+01 -0.33161983987E+02 -0.14281681893E+02  0.36820919848E+02  0.00000000000E+00 0. -1.
         11    1    4    4    0    0 -0.45704389020E+01 -0.73741222180E-02 -0.90130594971E+01  0.10105652274E+02  0.51100000000E-03 0. -1.
        -11    1    4    4    0    0 -0.10664373863E+01  0.97645895750E+01  0.11346561932E+02  0.15007630266E+02  0.51100000000E-03 0.  1.
         12    1    4    4    0    0  0.12854668109E+02  0.23404768534E+02  0.11948179458E+02  0.29253797612E+02  0.00000000000E+00 0. -1.
</event>
<event>
 8    1  0.2450026E-006  0.9118800E+02  0.7816164E-02  0.1184000E+00
        -11   -1    0    0    0    0  0.00000000000E+00  0.00000000000E+00  0.45593999997E+02  0.45594000000E+02  0.51100000000E-03 0. -1.
         11   -1    0    0    0    0 -0.00000000000E+00 -0.00000000000E+00 -0.45593999997E+02  0.45594000000E+02  0.51100000000E-03 0.  1.
         23    2    1    2    0    0 -0.35527136788E-14  0.00000000000E+00  0.17763568394E-14  0.91188000000E+02  0.91188000000E+02 0.  0.
    9900012    2    3    3    0    0 -0.29640185319E+02  0.19203636357E+02  0.10414306146E+02  0.54367109088E+02  0.40000056788E+02 0.  0.
        -12    1    3    3    0    0  0.29640185319E+02 -0.19203636357E+02 -0.10414306146E+02  0.36820890912E+02  0.00000000000E+00 0.  1.
         11    1    4    4    0    0 -0.36989482603E+01  0.28375664998E+01 -0.28799405317E+00  0.46708610243E+01  0.51100000000E-03 0. -1.
        -11    1    4    4    0    0 -0.34543747224E+02  0.88015214284E+01  0.27543155665E+01  0.35753650250E+02  0.51100000000E-03 0.  1.
        -12    1    4    4    0    0  0.86025101652E+01  0.75645484286E+01  0.79479846323E+01  0.13942597813E+02  0.00000000000E+00 0.  1.
</event>
<event>
 8    1  0.2450026E-006  0.9118800E+02  0.7816164E-02  0.1184000E+00
        -11   -1    0    0    0    0  0.00000000000E+00  0.00000000000E+00  0.45593999997E+02  0.45594000000E+02  0.51100000000E-03 0. -1.
         11   -1    0    0    0    0 -0.00000000000E+00 -0.00000000000E+00 -0.45593999997E+02  0.45594000000E+02  0.51100000000E-03 0.  1.
         23    2    1    2    0    0  0.00000000000E+00  0.00000000000E+00  0.00000000000E+00  0.91188000000E+02  0.91188000000E+02 0.  0.
    9900012    2    3    3    0    0 -0.35683222506E+02  0.61943450089E+01  0.66420594885E+01  0.54367092451E+02  0.40000018860E+02 0.  0.
         12    1    3    3    0    0  0.35683222506E+02 -0.61943450089E+01 -0.66420594885E+01  0.36820907549E+02  0.00000000000E+00 0. -1.
         11    1    4    4    0    0 -0.17881739464E+01  0.56820987129E+01 -0.38903236508E-01  0.59569560657E+01  0.51100000000E-03 0. -1.
        -11    1    4    4    0    0 -0.23535923570E+02  0.16549707965E+02  0.26224344660E+01  0.28891342904E+02  0.51100000000E-03 0.  1.
        -12    1    4    4    0    0 -0.10359124990E+02 -0.16037461669E+02  0.40585282590E+01  0.19518793481E+02  0.00000000000E+00 0.  1.
</event>
<event>
 8    1  0.2450026E-006  0.9118800E+02  0.7816164E-02  0.1184000E+00
        -11   -1    0    0    0    0  0.00000000000E+00  0.00000000000E+00  0.45593999997E+02  0.45594000000E+02  0.51100000000E-03 0.  1.
         11   -1    0    0    0    0 -0.00000000000E+00 -0.00000000000E+00 -0.45593999997E+02  0.45594000000E+02  0.51100000000E-03 0. -1.
         23    2    1    2    0    0  0.00000000000E+00 -0.35527136788E-14  0.00000000000E+00  0.91188000000E+02  0.91188000000E+02 0.  0.
    9900012    2    3    3    0    0 -0.22118687022E+01 -0.22829635268E+02  0.28804413380E+02  0.54367097787E+02  0.40000031026E+02 0.  0.
         12    1    3    3    0    0  0.22118687022E+01  0.22829635268E+02 -0.28804413380E+02  0.36820902213E+02  0.00000000000E+00 0. -1.
         11    1    4    4    0    0 -0.68056260954E+01 -0.34860959703E+01  0.90757492390E+00  0.77002015668E+01  0.51100000000E-03 0. -1.
        -11    1    4    4    0    0 -0.23515633378E+01 -0.25959637819E+02  0.13465751749E+02  0.29338696567E+02  0.51100000000E-03 0.  1.
        -12    1    4    4    0    0  0.69453207311E+01  0.66160985213E+01  0.14431086706E+02  0.17328199653E+02  0.00000000000E+00 0.  1.
</event>
<event>
 8    1  0.2450026E-006  0.9118800E+02  0.7816164E-02  0.1184000E+00
        -11   -1    0    0    0    0  0.00000000000E+00  0.00000000000E+00  0.45593999997E+02  0.45594000000E+02  0.51100000000E-03 0.  1.
         11   -1    0    0    0    0 -0.00000000000E+00 -0.00000000000E+00 -0.45593999997E+02  0.45594000000E+02  0.51100000000E-03 0. -1.
         23    2    1    2    0    0  0.00000000000E+00  0.00000000000E+00 -0.26645352591E-14  0.91188000000E+02  0.91188000000E+02 0.  0.
    9900012    2    3    3    0    0  0.25647450591E+02  0.25870153921E+02  0.53592842819E+01  0.54367102215E+02  0.40000041119E+02 0.  0.
         12    1    3    3    0    0 -0.25647450591E+02 -0.25870153921E+02 -0.53592842819E+01  0.36820897785E+02  0.00000000000E+00 0. -1.
         11    1    4    4    0    0  0.19702720970E+02  0.15450470796E+02 -0.99505235411E+01  0.26943035843E+02  0.51100000000E-03 0. -1.
        -11    1    4    4    0    0  0.33272430919E+01  0.27208812001E+01 -0.43705935051E+01  0.61299126377E+01  0.51100000000E-03 0.  1.
         12    1    4    4    0    0  0.26174865287E+01  0.76988019248E+01  0.19680401328E+02  0.21294153734E+02  0.00000000000E+00 0. -1.
</event>
<event>
 8    1  0.2450026E-006  0.9118800E+02  0.7816164E-02  0.1184000E+00
        -11   -1    0    0    0    0  0.00000000000E+00  0.00000000000E+00  0.45593999997E+02  0.45594000000E+02  0.51100000000E-03 0.  1.
         11   -1    0    0    0    0 -0.00000000000E+00 -0.00000000000E+00 -0.45593999997E+02  0.45594000000E+02  0.51100000000E-03 0. -1.
         23    2    1    2    0    0  0.00000000000E+00  0.00000000000E+00  0.00000000000E+00  0.91188000000E+02  0.91188000000E+02 0.  0.
    9900012    2    3    3    0    0 -0.11369556042E+02 -0.33953004056E+02 -0.85852887603E+01  0.54367075622E+02  0.39999980494E+02 0.  0.
        -12    1    3    3    0    0  0.11369556042E+02  0.33953004056E+02  0.85852887603E+01  0.36820924378E+02  0.00000000000E+00 0.  1.
         11    1    4    4    0    0 -0.13404606242E+02  0.98719234346E+00 -0.74132179388E+01  0.15349717186E+02  0.51100000000E-03 0. -1.
        -11    1    4    4    0    0  0.96718299068E+01 -0.18903022214E+02 -0.89646958576E+00  0.21252581033E+02  0.51100000000E-03 0.  1.
         12    1    4    4    0    0 -0.76367797066E+01 -0.16037174185E+02 -0.27560123572E+00  0.17764777402E+02  0.00000000000E+00 0. -1.
</event>
<event>
 8    1  0.2450026E-006  0.9118800E+02  0.7816164E-02  0.1184000E+00
        -11   -1    0    0    0    0  0.00000000000E+00  0.00000000000E+00  0.45593999997E+02  0.45594000000E+02  0.51100000000E-03 0.  1.
         11   -1    0    0    0    0 -0.00000000000E+00 -0.00000000000E+00 -0.45593999997E+02  0.45594000000E+02  0.51100000000E-03 0. -1.
         23    2    1    2    0    0  0.00000000000E+00  0.00000000000E+00 -0.88817841970E-15  0.91188000000E+02  0.91188000000E+02 0.  0.
    9900012    2    3    3    0    0 -0.29015302661E+02  0.21821116198E+02 -0.61424996988E+01  0.54367092853E+02  0.40000019776E+02 0.  0.
        -12    1    3    3    0    0  0.29015302661E+02 -0.21821116198E+02  0.61424996988E+01  0.36820907147E+02  0.00000000000E+00 0.  1.
         11    1    4    4    0    0 -0.87592161029E+01  0.21884972457E+01 -0.76038456047E+01  0.11803891527E+02  0.51100000000E-03 0.  1.
        -11    1    4    4    0    0 -0.20816239340E+02  0.21820513326E+02 -0.93069828368E+01  0.31560585417E+02  0.51100000000E-03 0. -1.
        -12    1    4    4    0    0  0.56015278248E+00 -0.21878943743E+01  0.10768328743E+02  0.11002615909E+02  0.00000000000E+00 0.  1.
</event>
<event>
 8    1  0.2450026E-006  0.9118800E+02  0.7816164E-02  0.1184000E+00
        -11   -1    0    0    0    0  0.00000000000E+00  0.00000000000E+00  0.45593999997E+02  0.45594000000E+02  0.51100000000E-03 0.  1.
         11   -1    0    0    0    0 -0.00000000000E+00 -0.00000000000E+00 -0.45593999997E+02  0.45594000000E+02  0.51100000000E-03 0. -1.
         23    2    1    2    0    0  0.17763568394E-14 -0.88817841970E-15  0.71054273576E-14  0.91188000000E+02  0.91188000000E+02 0.  0.
    9900012    2    3    3    0    0 -0.14501699442E+02  0.57334953942E+00 -0.33839975981E+02  0.54367190792E+02  0.40000243047E+02 0.  0.
        -12    1    3    3    0    0  0.14501699442E+02 -0.57334953942E+00  0.33839975981E+02  0.36820809208E+02  0.00000000000E+00 0.  1.
         11    1    4    4    0    0  0.43026048253E+00  0.47430808185E+01 -0.35931225241E+02  0.36245480923E+02  0.51100000000E-03 0. -1.
        -11    1    4    4    0    0 -0.31418126851E+01 -0.52890787971E+01  0.92992137208E+00  0.62217437660E+01  0.51100000000E-03 0.  1.
         12    1    4    4    0    0 -0.11790147239E+02  0.11193475181E+01  0.11613278883E+01  0.11899966103E+02  0.00000000000E+00 0. -1.
</event>
<event>
 8    1  0.2450026E-006  0.9118800E+02  0.7816164E-02  0.1184000E+00
        -11   -1    0    0    0    0  0.00000000000E+00  0.00000000000E+00  0.45593999997E+02  0.45594000000E+02  0.51100000000E-03 0.  1.
         11   -1    0    0    0    0 -0.00000000000E+00 -0.00000000000E+00 -0.45593999997E+02  0.45594000000E+02  0.51100000000E-03 0. -1.
         23    2    1    2    0    0 -0.35527136788E-14  0.88817841970E-15 -0.35527136788E-14  0.91188000000E+02  0.91188000000E+02 0.  0.
    9900012    2    3    3    0    0  0.21953658357E+02 -0.64448863429E+01  0.28849306636E+02  0.54367052584E+02  0.39999927977E+02 0.  0.
         12    1    3    3    0    0 -0.21953658357E+02  0.64448863429E+01 -0.28849306636E+02  0.36820947416E+02  0.00000000000E+00 0. -1.
         11    1    4    4    0    0  0.40535222482E+01  0.69949858177E+01  0.73588626160E+01  0.10932233462E+02  0.51100000000E-03 0. -1.
        -11    1    4    4    0    0  0.11739570054E+02 -0.21040636834E+02  0.23262984532E+02  0.33491675877E+02  0.51100000000E-03 0.  1.
        -12    1    4    4    0    0  0.61605660540E+01  0.76007646734E+01 -0.17725405125E+01  0.99431432452E+01  0.00000000000E+00 0.  1.
</event>
<event>
 8    1  0.2450026E-006  0.9118800E+02  0.7816164E-02  0.1184000E+00
        -11   -1    0    0    0    0  0.00000000000E+00  0.00000000000E+00  0.45593999997E+02  0.45594000000E+02  0.51100000000E-03 0.  1.
         11   -1    0    0    0    0 -0.00000000000E+00 -0.00000000000E+00 -0.45593999997E+02  0.45594000000E+02  0.51100000000E-03 0. -1.
         23    2    1    2    0    0  0.00000000000E+00  0.00000000000E+00  0.00000000000E+00  0.91188000000E+02  0.91188000000E+02 0.  0.
    9900012    2    3    3    0    0  0.32981984481E+02 -0.76327965235E+01 -0.14481313162E+02  0.54367091347E+02  0.40000016345E+02 0.  0.
        -12    1    3    3    0    0 -0.32981984481E+02  0.76327965235E+01  0.14481313162E+02  0.36820908653E+02  0.00000000000E+00 0.  1.
         11    1    4    4    0    0  0.10018495721E+02 -0.75300158452E+01 -0.21177208960E+02  0.24607835637E+02  0.51100000000E-03 0. -1.
        -11    1    4    4    0    0  0.15986891996E+01 -0.33782276477E+01 -0.41427856773E+01  0.55795073820E+01  0.51100000000E-03 0.  1.
        -12    1    4    4    0    0  0.21364799560E+02  0.32754469693E+01  0.10838681475E+02  0.24179748328E+02  0.00000000000E+00 0.  1.
</event>
<event>
 8    1  0.2450026E-006  0.9118800E+02  0.7816164E-02  0.1184000E+00
        -11   -1    0    0    0    0  0.00000000000E+00  0.00000000000E+00  0.45593999997E+02  0.45594000000E+02  0.51100000000E-03 0.  1.
         11   -1    0    0    0    0 -0.00000000000E+00 -0.00000000000E+00 -0.45593999997E+02  0.45594000000E+02  0.51100000000E-03 0. -1.
         23    2    1    2    0    0 -0.88817841970E-15  0.71054273576E-14  0.35527136788E-14  0.91188000000E+02  0.91188000000E+02 0.  0.
    9900012    2    3    3    0    0 -0.78915835167E+01 -0.31981747012E+02  0.16452014827E+02  0.54367108862E+02  0.40000056273E+02 0.  0.
         12    1    3    3    0    0  0.78915835167E+01  0.31981747012E+02 -0.16452014827E+02  0.36820891138E+02  0.00000000000E+00 0. -1.
         11    1    4    4    0    0 -0.78293525868E+01 -0.24308610447E+00  0.70513658548E+01  0.10539431363E+02  0.51100000000E-03 0. -1.
        -11    1    4    4    0    0 -0.12578179252E+01  0.33390866796E+00  0.11585677423E+02  0.11658538611E+02  0.51100000000E-03 0.  1.
        -12    1    4    4    0    0  0.11955869953E+01 -0.32072569575E+02 -0.21850284508E+01  0.32169138887E+02  0.00000000000E+00 0.  1.
</event>
<event>
 8    1  0.2450026E-006  0.9118800E+02  0.7816164E-02  0.1184000E+00
        -11   -1    0    0    0    0  0.00000000000E+00  0.00000000000E+00  0.45593999997E+02  0.45594000000E+02  0.51100000000E-03 0.  1.
         11   -1    0    0    0    0 -0.00000000000E+00 -0.00000000000E+00 -0.45593999997E+02  0.45594000000E+02  0.51100000000E-03 0. -1.
         23    2    1    2    0    0 -0.88817841970E-15  0.00000000000E+00 -0.17763568394E-14  0.91188000000E+02  0.91188000000E+02 0.  0.
    9900012    2    3    3    0    0  0.65962098951E+01 -0.34630933784E+02 -0.10628214850E+02  0.54367210891E+02  0.40000288867E+02 0.  0.
        -12    1    3    3    0    0 -0.65962098951E+01  0.34630933784E+02  0.10628214850E+02  0.36820789109E+02  0.00000000000E+00 0.  1.
         11    1    4    4    0    0 -0.70612591636E+01 -0.88571774269E+00 -0.28772748551E+01  0.76762352588E+01  0.51100000000E-03 0.  1.
        -11    1    4    4    0    0  0.72923901658E+01 -0.37352758265E+02 -0.34737994105E+01  0.38216158715E+02  0.51100000000E-03 0. -1.
         12    1    4    4    0    0  0.63650788929E+01  0.36075422235E+01 -0.42771405842E+01  0.84748169174E+01  0.00000000000E+00 0. -1.
</event>
<event>
 8    1  0.2450026E-006  0.9118800E+02  0.7816164E-02  0.1184000E+00
        -11   -1    0    0    0    0  0.00000000000E+00  0.00000000000E+00  0.45593999997E+02  0.45594000000E+02  0.51100000000E-03 0.  1.
         11   -1    0    0    0    0 -0.00000000000E+00 -0.00000000000E+00 -0.45593999997E+02  0.45594000000E+02  0.51100000000E-03 0. -1.
         23    2    1    2    0    0  0.00000000000E+00  0.26645352591E-14  0.17763568394E-14  0.91188000000E+02  0.91188000000E+02 0.  0.
    9900012    2    3    3    0    0  0.33628111336E+02 -0.78674534694E+01 -0.12768391469E+02  0.54367102173E+02  0.40000041023E+02 0.  0.
        -12    1    3    3    0    0 -0.33628111336E+02  0.78674534694E+01  0.12768391469E+02  0.36820897827E+02  0.00000000000E+00 0.  1.
         11    1    4    4    0    0  0.59600607014E+00  0.77503321633E+01  0.47485893131E+01  0.91088952460E+01  0.51100000000E-03 0. -1.
        -11    1    4    4    0    0  0.21828644997E+01 -0.90967558962E+01 -0.80362814381E+01  0.12332789014E+02  0.51100000000E-03 0.  1.
         12    1    4    4    0    0  0.30849240766E+02 -0.65210297365E+01 -0.94806993440E+01  0.32925417912E+02  0.00000000000E+00 0. -1.
</event>
<event>
 8    1  0.2450026E-006  0.9118800E+02  0.7816164E-02  0.1184000E+00
        -11   -1    0    0    0    0  0.00000000000E+00  0.00000000000E+00  0.45593999997E+02  0.45594000000E+02  0.51100000000E-03 0. -1.
         11   -1    0    0    0    0 -0.00000000000E+00 -0.00000000000E+00 -0.45593999997E+02  0.45594000000E+02  0.51100000000E-03 0.  1.
         23    2    1    2    0    0  0.88817841970E-15  0.00000000000E+00  0.00000000000E+00  0.91188000000E+02  0.91188000000E+02 0.  0.
    9900012    2    3    3    0    0  0.61105057771E+01 -0.26047874592E+02  0.25297242067E+02  0.54367075136E+02  0.39999979388E+02 0.  0.
        -12    1    3    3    0    0 -0.61105057771E+01  0.26047874592E+02 -0.25297242067E+02  0.36820924864E+02  0.00000000000E+00 0.  1.
         11    1    4    4    0    0  0.42304132493E+01 -0.82451579023E+01  0.56831106121E+01  0.10870914018E+02  0.51100000000E-03 0. -1.
        -11    1    4    4    0    0 -0.55113892237E+01 -0.23808729318E+01 -0.86091876717E+01  0.10495812485E+02  0.51100000000E-03 0.  1.
        -12    1    4    4    0    0  0.73914817516E+01 -0.15421843758E+02  0.28223319127E+02  0.33000348633E+02  0.00000000000E+00 0.  1.
</event>
<event>
 8    1  0.2450026E-006  0.9118800E+02  0.7816164E-02  0.1184000E+00
        -11   -1    0    0    0    0  0.00000000000E+00  0.00000000000E+00  0.45593999997E+02  0.45594000000E+02  0.51100000000E-03 0.  1.
         11   -1    0    0    0    0 -0.00000000000E+00 -0.00000000000E+00 -0.45593999997E+02  0.45594000000E+02  0.51100000000E-03 0. -1.
         23    2    1    2    0    0  0.62172489379E-14  0.00000000000E+00  0.00000000000E+00  0.91188000000E+02  0.91188000000E+02 0.  0.
    9900012    2    3    3    0    0 -0.68853876342E+00 -0.20757938291E+02 -0.30404185743E+02  0.54367073906E+02  0.39999976583E+02 0.  0.
        -12    1    3    3    0    0  0.68853876342E+00  0.20757938291E+02  0.30404185743E+02  0.36820926094E+02  0.00000000000E+00 0.  1.
         11    1    4    4    0    0  0.46047047542E+01 -0.33333671002E+01 -0.87845285103E+01  0.10463392543E+02  0.51100000000E-03 0. -1.
        -11    1    4    4    0    0 -0.17973382242E+02 -0.13531346039E+02 -0.20758573662E+02  0.30611405972E+02  0.51100000000E-03 0.  1.
        -12    1    4    4    0    0  0.12680138725E+02 -0.38932251521E+01 -0.86108357112E+00  0.13292275391E+02  0.00000000000E+00 0.  1.
</event>
<event>
 8    1  0.2450026E-006  0.9118800E+02  0.7816164E-02  0.1184000E+00
        -11   -1    0    0    0    0  0.00000000000E+00  0.00000000000E+00  0.45593999997E+02  0.45594000000E+02  0.51100000000E-03 0. -1.
         11   -1    0    0    0    0 -0.00000000000E+00 -0.00000000000E+00 -0.45593999997E+02  0.45594000000E+02  0.51100000000E-03 0.  1.
         23    2    1    2    0    0  0.17763568394E-14  0.35527136788E-14  0.00000000000E+00  0.91188000000E+02  0.91188000000E+02 0.  0.
    9900012    2    3    3    0    0 -0.12539939855E+02 -0.17416428600E+02 -0.29919870560E+02  0.54367072105E+02  0.39999972477E+02 0.  0.
         12    1    3    3    0    0  0.12539939855E+02  0.17416428600E+02  0.29919870560E+02  0.36820927895E+02  0.00000000000E+00 0. -1.
         11    1    4    4    0    0  0.38135831919E+01 -0.13666915119E+02 -0.12579143638E+01  0.14244659857E+02  0.51100000000E-03 0. -1.
        -11    1    4    4    0    0 -0.67612511512E+01  0.44437030629E+01  0.74381267700E+00  0.81249167135E+01  0.51100000000E-03 0.  1.
        -12    1    4    4    0    0 -0.95922718958E+01 -0.81932165448E+01 -0.29405768873E+02  0.31997495535E+02  0.00000000000E+00 0.  1.
</event>
<event>
 8    1  0.2450026E-006  0.9118800E+02  0.7816164E-02  0.1184000E+00
        -11   -1    0    0    0    0  0.00000000000E+00  0.00000000000E+00  0.45593999997E+02  0.45594000000E+02  0.51100000000E-03 0. -1.
         11   -1    0    0    0    0 -0.00000000000E+00 -0.00000000000E+00 -0.45593999997E+02  0.45594000000E+02  0.51100000000E-03 0.  1.
         23    2    1    2    0    0  0.00000000000E+00  0.00000000000E+00 -0.35527136788E-14  0.91188000000E+02  0.91188000000E+02 0.  0.
    9900012    2    3    3    0    0 -0.10390567477E+02  0.23910779862E+02 -0.26001736011E+02  0.54367087984E+02  0.40000008678E+02 0.  0.
        -12    1    3    3    0    0  0.10390567477E+02 -0.23910779862E+02  0.26001736011E+02  0.36820912016E+02  0.00000000000E+00 0.  1.
         11    1    4    4    0    0 -0.11846578397E+01  0.29308112227E+02 -0.13479074205E+02  0.32280865821E+02  0.51100000000E-03 0. -1.
        -11    1    4    4    0    0 -0.12782384337E+02 -0.66305341530E+01 -0.96145766917E+01  0.17314543532E+02  0.51100000000E-03 0.  1.
         12    1    4    4    0    0  0.35764746997E+01  0.12332017884E+01 -0.29080851136E+01  0.47716786309E+01  0.00000000000E+00 0. -1.
</event>
<event>
 8    1  0.2450026E-006  0.9118800E+02  0.7816164E-02  0.1184000E+00
        -11   -1    0    0    0    0  0.00000000000E+00  0.00000000000E+00  0.45593999997E+02  0.45594000000E+02  0.51100000000E-03 0. -1.
         11   -1    0    0    0    0 -0.00000000000E+00 -0.00000000000E+00 -0.45593999997E+02  0.45594000000E+02  0.51100000000E-03 0.  1.
         23    2    1    2    0    0  0.00000000000E+00 -0.17763568394E-14 -0.35527136788E-14  0.91188000000E+02  0.91188000000E+02 0.  0.
    9900012    2    3    3    0    0 -0.18068183087E+02  0.85846928072E+01 -0.30913164378E+02  0.54367083084E+02  0.39999997507E+02 0.  0.
         12    1    3    3    0    0  0.18068183087E+02 -0.85846928072E+01  0.30913164378E+02  0.36820916916E+02  0.00000000000E+00 0. -1.
         11    1    4    4    0    0 -0.41975588570E+01 -0.10017730869E+02 -0.14802396192E+02  0.18359884678E+02  0.51100000000E-03 0. -1.
        -11    1    4    4    0    0  0.60638442305E+01  0.36864353608E+01 -0.19279119113E+01  0.73536968335E+01  0.51100000000E-03 0.  1.
        -12    1    4    4    0    0 -0.19934468460E+02  0.14915988316E+02 -0.14182856276E+02  0.28653501572E+02  0.00000000000E+00 0.  1.
</event>
<event>
 8    1  0.2450026E-006  0.9118800E+02  0.7816164E-02  0.1184000E+00
        -11   -1    0    0    0    0  0.00000000000E+00  0.00000000000E+00  0.45593999997E+02  0.45594000000E+02  0.51100000000E-03 0.  1.
         11   -1    0    0    0    0 -0.00000000000E+00 -0.00000000000E+00 -0.45593999997E+02  0.45594000000E+02  0.51100000000E-03 0. -1.
         23    2    1    2    0    0  0.00000000000E+00  0.71054273576E-14  0.00000000000E+00  0.91188000000E+02  0.91188000000E+02 0.  0.
    9900012    2    3    3    0    0  0.11710726031E+02 -0.28324722986E+02 -0.20404628611E+02  0.54367083320E+02  0.39999998044E+02 0.  0.
        -12    1    3    3    0    0 -0.11710726031E+02  0.28324722986E+02  0.20404628611E+02  0.36820916680E+02  0.00000000000E+00 0.  1.
         11    1    4    4    0    0  0.74055497720E+01  0.59313417187E+01 -0.25864294677E+01  0.98342564367E+01  0.51100000000E-03 0. -1.
        -11    1    4    4    0    0 -0.58490187748E+01 -0.19852549823E+02 -0.18969831899E+01  0.20783005090E+02  0.51100000000E-03 0.  1.
        -12    1    4    4    0    0  0.10154195034E+02 -0.14403514883E+02 -0.15921215953E+02  0.23749821793E+02  0.00000000000E+00 0.  1.
</event>
<event>
 8    1  0.2450026E-006  0.9118800E+02  0.7816164E-02  0.1184000E+00
        -11   -1    0    0    0    0  0.00000000000E+00  0.00000000000E+00  0.45593999997E+02  0.45594000000E+02  0.51100000000E-03 0. -1.
         11   -1    0    0    0    0 -0.00000000000E+00 -0.00000000000E+00 -0.45593999997E+02  0.45594000000E+02  0.51100000000E-03 0.  1.
         23    2    1    2    0    0  0.71054273576E-14  0.00000000000E+00 -0.35527136788E-14  0.91188000000E+02  0.91188000000E+02 0.  0.
    9900012    2    3    3    0    0  0.20044086367E+02 -0.18297814373E+02 -0.24883774902E+02  0.54367113774E+02  0.40000067470E+02 0.  0.
         12    1    3    3    0    0 -0.20044086367E+02  0.18297814373E+02  0.24883774902E+02  0.36820886226E+02  0.00000000000E+00 0. -1.
         11    1    4    4    0    0  0.11393825827E+01 -0.86449666828E+01 -0.11985970779E+02  0.14822183961E+02  0.51100000000E-03 0. -1.
        -11    1    4    4    0    0 -0.66686950299E+01  0.37298795368E+00 -0.98596595256E+01  0.11908967194E+02  0.51100000000E-03 0.  1.
         12    1    4    4    0    0  0.25573398814E+02 -0.10025835644E+02 -0.30381445981E+01  0.27635962618E+02  0.00000000000E+00 0. -1.
</event>
<event>
 8    1  0.2450026E-006  0.9118800E+02  0.7816164E-02  0.1184000E+00
        -11   -1    0    0    0    0  0.00000000000E+00  0.00000000000E+00  0.45593999997E+02  0.45594000000E+02  0.51100000000E-03 0.  1.
         11   -1    0    0    0    0 -0.00000000000E+00 -0.00000000000E+00 -0.45593999997E+02  0.45594000000E+02  0.51100000000E-03 0. -1.
         23    2    1    2    0    0  0.00000000000E+00  0.17763568394E-14 -0.71054273576E-14  0.91188000000E+02  0.91188000000E+02 0.  0.
    9900012    2    3    3    0    0 -0.85041331205E+01 -0.14497757375E+02  0.32760866473E+02  0.54367087177E+02  0.40000006838E+02 0.  0.
         12    1    3    3    0    0  0.85041331205E+01  0.14497757375E+02 -0.32760866473E+02  0.36820912823E+02  0.00000000000E+00 0. -1.
         11    1    4    4    0    0 -0.85909387127E+01 -0.39076148971E+01  0.12114957179E+02  0.15357274168E+02  0.51100000000E-03 0.  1.
        -11    1    4    4    0    0  0.12981925455E+02  0.40385330313E+01  0.86974434948E+01  0.16139568184E+02  0.51100000000E-03 0. -1.
         12    1    4    4    0    0 -0.12895119862E+02 -0.14628675510E+02  0.11948465799E+02  0.22870244825E+02  0.00000000000E+00 0. -1.
</event>
<event>
 8    1  0.2450026E-006  0.9118800E+02  0.7816164E-02  0.1184000E+00
        -11   -1    0    0    0    0  0.00000000000E+00  0.00000000000E+00  0.45593999997E+02  0.45594000000E+02  0.51100000000E-03 0. -1.
         11   -1    0    0    0    0 -0.00000000000E+00 -0.00000000000E+00 -0.45593999997E+02  0.45594000000E+02  0.51100000000E-03 0.  1.
         23    2    1    2    0    0 -0.35527136788E-14 -0.17763568394E-14 -0.35527136788E-14  0.91188000000E+02  0.91188000000E+02 0.  0.
    9900012    2    3    3    0    0 -0.17242272352E+02 -0.14344398912E+02 -0.29201330249E+02  0.54367144166E+02  0.40000136755E+02 0.  0.
         12    1    3    3    0    0  0.17242272352E+02  0.14344398912E+02  0.29201330249E+02  0.36820855834E+02  0.00000000000E+00 0. -1.
         11    1    4    4    0    0  0.35707680823E+00  0.26249922227E+01  0.13364221454E+01  0.29671724635E+01  0.51100000000E-03 0. -1.
        -11    1    4    4    0    0 -0.24189130437E+02 -0.25942004495E+01 -0.12298094504E+02  0.27259622814E+02  0.51100000000E-03 0.  1.
         12    1    4    4    0    0  0.65897812764E+01 -0.14375190685E+02 -0.18239657890E+02  0.24140348889E+02  0.00000000000E+00 0. -1.
</event>
<event>
 8    1  0.2450026E-006  0.9118800E+02  0.7816164E-02  0.1184000E+00
        -11   -1    0    0    0    0  0.00000000000E+00  0.00000000000E+00  0.45593999997E+02  0.45594000000E+02  0.51100000000E-03 0. -1.
         11   -1    0    0    0    0 -0.00000000000E+00 -0.00000000000E+00 -0.45593999997E+02  0.45594000000E+02  0.51100000000E-03 0.  1.
         23    2    1    2    0    0  0.88817841970E-15  0.00000000000E+00  0.35527136788E-14  0.91188000000E+02  0.91188000000E+02 0.  0.
    9900012    2    3    3    0    0 -0.28454815536E+01  0.22315367263E+02 -0.29149748981E+02  0.54367078678E+02  0.39999987462E+02 0.  0.
         12    1    3    3    0    0  0.28454815536E+01 -0.22315367263E+02  0.29149748981E+02  0.36820921322E+02  0.00000000000E+00 0. -1.
         11    1    4    4    0    0  0.35053833798E+00  0.10637082978E+02  0.73122706700E+00  0.10667947539E+02  0.51100000000E-03 0. -1.
        -11    1    4    4    0    0 -0.10210331397E+02 -0.62095306097E+01 -0.16116490814E+02  0.20063659040E+02  0.51100000000E-03 0.  1.
        -12    1    4    4    0    0  0.70143115057E+01  0.17887814894E+02 -0.13764485234E+02  0.23635472099E+02  0.00000000000E+00 0.  1.
</event>
<event>
 8    1  0.2450026E-006  0.9118800E+02  0.7816164E-02  0.1184000E+00
        -11   -1    0    0    0    0  0.00000000000E+00  0.00000000000E+00  0.45593999997E+02  0.45594000000E+02  0.51100000000E-03 0.  1.
         11   -1    0    0    0    0 -0.00000000000E+00 -0.00000000000E+00 -0.45593999997E+02  0.45594000000E+02  0.51100000000E-03 0. -1.
         23    2    1    2    0    0  0.35527136788E-14  0.88817841970E-15  0.35527136788E-14  0.91188000000E+02  0.91188000000E+02 0.  0.
    9900012    2    3    3    0    0 -0.27545049064E+02  0.76181807430E+01 -0.23216693667E+02  0.54367064778E+02  0.39999955775E+02 0.  0.
        -12    1    3    3    0    0  0.27545049064E+02 -0.76181807430E+01  0.23216693667E+02  0.36820935222E+02  0.00000000000E+00 0.  1.
         11    1    4    4    0    0  0.81254594431E+00  0.48940576969E+01 -0.78188316928E+01  0.92599222973E+01  0.51100000000E-03 0. -1.
        -11    1    4    4    0    0 -0.20353890934E+02  0.16617386339E+02 -0.10964662370E+02  0.28471779468E+02  0.51100000000E-03 0.  1.
        -12    1    4    4    0    0 -0.80037040741E+01 -0.13893263293E+02 -0.44331996041E+01  0.16635363013E+02  0.00000000000E+00 0.  1.
</event>
<event>
 8    1  0.2450026E-006  0.9118800E+02  0.7816164E-02  0.1184000E+00
        -11   -1    0    0    0    0  0.00000000000E+00  0.00000000000E+00  0.45593999997E+02  0.45594000000E+02  0.51100000000E-03 0.  1.
         11   -1    0    0    0    0 -0.00000000000E+00 -0.00000000000E+00 -0.45593999997E+02  0.45594000000E+02  0.51100000000E-03 0. -1.
         23    2    1    2    0    0  0.00000000000E+00 -0.17763568394E-14 -0.35527136788E-14  0.91188000000E+02  0.91188000000E+02 0.  0.
    9900012    2    3    3    0    0  0.26269822685E+02  0.10814424876E+02  0.23424843363E+02  0.54367100284E+02  0.40000036718E+02 0.  0.
         12    1    3    3    0    0 -0.26269822685E+02 -0.10814424876E+02 -0.23424843363E+02  0.36820899716E+02  0.00000000000E+00 0. -1.
         11    1    4    4    0    0  0.11309098118E+02 -0.30657392365E+01 -0.30520750938E+01  0.12108245948E+02  0.51100000000E-03 0. -1.
        -11    1    4    4    0    0 -0.57679503883E+01 -0.58863638618E+00  0.11493345686E+02  0.12872946041E+02  0.51100000000E-03 0.  1.
         12    1    4    4    0    0  0.20728674956E+02  0.14468800499E+02  0.14983572771E+02  0.29385908294E+02  0.00000000000E+00 0. -1.
</event>
<event>
 8    1  0.2450026E-006  0.9118800E+02  0.7816164E-02  0.1184000E+00
        -11   -1    0    0    0    0  0.00000000000E+00  0.00000000000E+00  0.45593999997E+02  0.45594000000E+02  0.51100000000E-03 0.  1.
         11   -1    0    0    0    0 -0.00000000000E+00 -0.00000000000E+00 -0.45593999997E+02  0.45594000000E+02  0.51100000000E-03 0. -1.
         23    2    1    2    0    0 -0.35527136788E-14  0.00000000000E+00 -0.35527136788E-14  0.91188000000E+02  0.91188000000E+02 0.  0.
    9900012    2    3    3    0    0 -0.11399633998E+02 -0.16731234688E+02 -0.30755432921E+02  0.54367047763E+02  0.39999916984E+02 0.  0.
        -12    1    3    3    0    0  0.11399633998E+02  0.16731234688E+02  0.30755432921E+02  0.36820952237E+02  0.00000000000E+00 0.  1.
         11    1    4    4    0    0 -0.31226823170E+01 -0.18947892251E+02 -0.13724924233E+02  0.23603968121E+02  0.51100000000E-03 0. -1.
        -11    1    4    4    0    0  0.67604192068E+01 -0.13751472607E+01 -0.13108354829E+02  0.14812942463E+02  0.51100000000E-03 0.  1.
        -12    1    4    4    0    0 -0.15037370888E+02  0.35918048233E+01 -0.39221538600E+01  0.15950137178E+02  0.00000000000E+00 0.  1.
</event>
<event>
 8    1  0.2450026E-006  0.9118800E+02  0.7816164E-02  0.1184000E+00
        -11   -1    0    0    0    0  0.00000000000E+00  0.00000000000E+00  0.45593999997E+02  0.45594000000E+02  0.51100000000E-03 0. -1.
         11   -1    0    0    0    0 -0.00000000000E+00 -0.00000000000E+00 -0.45593999997E+02  0.45594000000E+02  0.51100000000E-03 0.  1.
         23    2    1    2    0    0 -0.35527136788E-14 -0.17763568394E-14  0.71054273576E-14  0.91188000000E+02  0.91188000000E+02 0.  0.
    9900012    2    3    3    0    0  0.12672756657E+02  0.11437956458E+02 -0.32624457915E+02  0.54367070306E+02  0.39999968377E+02 0.  0.
         12    1    3    3    0    0 -0.12672756657E+02 -0.11437956458E+02  0.32624457915E+02  0.36820929694E+02  0.00000000000E+00 0. -1.
         11    1    4    4    0    0  0.76230915615E+00  0.41844598825E+01  0.48109449973E+01  0.64215272160E+01  0.51100000000E-03 0. -1.
        -11    1    4    4    0    0 -0.55411172749E+00 -0.92071058290E+01 -0.99330639323E+01  0.13555205528E+02  0.51100000000E-03 0.  1.
        -12    1    4    4    0    0  0.12464559228E+02  0.16460602405E+02 -0.27502338980E+02  0.34390337563E+02  0.00000000000E+00 0.  1.
</event>
<event>
 8    1  0.2450026E-006  0.9118800E+02  0.7816164E-02  0.1184000E+00
        -11   -1    0    0    0    0  0.00000000000E+00  0.00000000000E+00  0.45593999997E+02  0.45594000000E+02  0.51100000000E-03 0. -1.
         11   -1    0    0    0    0 -0.00000000000E+00 -0.00000000000E+00 -0.45593999997E+02  0.45594000000E+02  0.51100000000E-03 0.  1.
         23    2    1    2    0    0 -0.88817841970E-15  0.00000000000E+00 -0.71054273576E-14  0.91188000000E+02  0.91188000000E+02 0.  0.
    9900012    2    3    3    0    0  0.67996092681E+01 -0.57662656745E+01  0.35725291248E+02  0.54367069257E+02  0.39999965986E+02 0.  0.
        -12    1    3    3    0    0 -0.67996092681E+01  0.57662656745E+01 -0.35725291248E+02  0.36820930743E+02  0.00000000000E+00 0.  1.
         11    1    4    4    0    0  0.68129291765E-01 -0.90973287087E+01  0.27349955014E+02  0.28823359811E+02  0.51100000000E-03 0. -1.
        -11    1    4    4    0    0 -0.49871053719E+01  0.66493372465E+01  0.10276284043E+02  0.13216917939E+02  0.51100000000E-03 0.  1.
         12    1    4    4    0    0  0.11718585348E+02 -0.33182742123E+01 -0.19009478095E+01  0.12326791508E+02  0.00000000000E+00 0. -1.
</event>
<event>
 8    1  0.2450026E-006  0.9118800E+02  0.7816164E-02  0.1184000E+00
        -11   -1    0    0    0    0  0.00000000000E+00  0.00000000000E+00  0.45593999997E+02  0.45594000000E+02  0.51100000000E-03 0.  1.
         11   -1    0    0    0    0 -0.00000000000E+00 -0.00000000000E+00 -0.45593999997E+02  0.45594000000E+02  0.51100000000E-03 0. -1.
         23    2    1    2    0    0  0.00000000000E+00 -0.35527136788E-14  0.35527136788E-14  0.91188000000E+02  0.91188000000E+02 0.  0.
    9900012    2    3    3    0    0  0.95623561602E+01  0.31418142376E+02 -0.16650540093E+02  0.54367098177E+02  0.40000031914E+02 0.  0.
        -12    1    3    3    0    0 -0.95623561602E+01 -0.31418142376E+02  0.16650540093E+02  0.36820901823E+02  0.00000000000E+00 0.  1.
         11    1    4    4    0    0  0.89309214322E+01  0.23222705771E+02 -0.15910137443E+02  0.29532827407E+02  0.51100000000E-03 0. -1.
        -11    1    4    4    0    0  0.55742562549E+01  0.12920474717E+02  0.59406647757E+01  0.15274242958E+02  0.51100000000E-03 0.  1.
         12    1    4    4    0    0 -0.49428215269E+01 -0.47250381120E+01 -0.66810674264E+01  0.95600278118E+01  0.00000000000E+00 0. -1.
</event>
<event>
 8    1  0.2450026E-006  0.9118800E+02  0.7816164E-02  0.1184000E+00
        -11   -1    0    0    0    0  0.00000000000E+00  0.00000000000E+00  0.45593999997E+02  0.45594000000E+02  0.51100000000E-03 0.  1.
         11   -1    0    0    0    0 -0.00000000000E+00 -0.00000000000E+00 -0.45593999997E+02  0.45594000000E+02  0.51100000000E-03 0. -1.
         23    2    1    2    0    0  0.00000000000E+00 -0.35527136788E-14  0.22204460493E-15  0.91188000000E+02  0.91188000000E+02 0.  0.
    9900012    2    3    3    0    0 -0.25585275762E+02  0.26443689384E+02  0.13803840827E+01  0.54367075184E+02  0.39999979498E+02 0.  0.
        -12    1    3    3    0    0  0.25585275762E+02 -0.26443689384E+02 -0.13803840827E+01  0.36820924816E+02  0.00000000000E+00 0.  1.
         11    1    4    4    0    0 -0.74891043590E+01  0.33548607937E+02  0.14719588258E+01  0.34405848945E+02  0.51100000000E-03 0. -1.
        -11    1    4    4    0    0 -0.44268862299E+01 -0.38284974128E+01 -0.68205969696E+00  0.58923611416E+01  0.51100000000E-03 0.  1.
         12    1    4    4    0    0 -0.13669285174E+02 -0.32764211405E+01  0.59048495381E+00  0.14068865097E+02  0.00000000000E+00 0. -1.
</event>
<event>
 8    1  0.2450026E-006  0.9118800E+02  0.7816164E-02  0.1184000E+00
        -11   -1    0    0    0    0  0.00000000000E+00  0.00000000000E+00  0.45593999997E+02  0.45594000000E+02  0.51100000000E-03 0. -1.
         11   -1    0    0    0    0 -0.00000000000E+00 -0.00000000000E+00 -0.45593999997E+02  0.45594000000E+02  0.51100000000E-03 0.  1.
         23    2    1    2    0    0 -0.71054273576E-14  0.11102230246E-15  0.17763568394E-14  0.91188000000E+02  0.91188000000E+02 0.  0.
    9900012    2    3    3    0    0 -0.34798660768E+02 -0.99134284769E+00  0.11993786383E+02  0.54367075735E+02  0.39999980754E+02 0.  0.
         12    1    3    3    0    0  0.34798660768E+02  0.99134284769E+00 -0.11993786383E+02  0.36820924265E+02  0.00000000000E+00 0. -1.
         11    1    4    4    0    0 -0.19178557779E+02 -0.10851138867E+01  0.12985526587E+02  0.23186600692E+02  0.51100000000E-03 0. -1.
        -11    1    4    4    0    0 -0.22805551346E+02  0.36069922086E+01 -0.16956978025E+01  0.23151219326E+02  0.51100000000E-03 0.  1.
         12    1    4    4    0    0  0.71854483568E+01 -0.35132211696E+01  0.70395759783E+00  0.80292557174E+01  0.00000000000E+00 0. -1.
</event>
<event>
 8    1  0.2450026E-006  0.9118800E+02  0.7816164E-02  0.1184000E+00
        -11   -1    0    0    0    0  0.00000000000E+00  0.00000000000E+00  0.45593999997E+02  0.45594000000E+02  0.51100000000E-03 0.  1.
         11   -1    0    0    0    0 -0.00000000000E+00 -0.00000000000E+00 -0.45593999997E+02  0.45594000000E+02  0.51100000000E-03 0. -1.
         23    2    1    2    0    0  0.00000000000E+00 -0.22204460493E-15  0.00000000000E+00  0.91188000000E+02  0.91188000000E+02 0.  0.
    9900012    2    3    3    0    0 -0.12955955404E+02  0.14500885725E+01 -0.34435736647E+02  0.54367088880E+02  0.40000010720E+02 0.  0.
        -12    1    3    3    0    0  0.12955955404E+02 -0.14500885725E+01  0.34435736647E+02  0.36820911120E+02  0.00000000000E+00 0.  1.
         11    1    4    4    0    0 -0.18249074645E+02 -0.31546856602E+01 -0.26337742202E+02  0.32197164962E+02  0.51100000000E-03 0. -1.
        -11    1    4    4    0    0  0.48888764879E+01 -0.54434532684E+01  0.23341989881E+01  0.76798946592E+01  0.51100000000E-03 0.  1.
         12    1    4    4    0    0  0.40424275281E+00  0.10048227501E+02 -0.10432193433E+02  0.14490029259E+02  0.00000000000E+00 0. -1.
</event>
<event>
 8    1  0.2450026E-006  0.9118800E+02  0.7816164E-02  0.1184000E+00
        -11   -1    0    0    0    0  0.00000000000E+00  0.00000000000E+00  0.45593999997E+02  0.45594000000E+02  0.51100000000E-03 0.  1.
         11   -1    0    0    0    0 -0.00000000000E+00 -0.00000000000E+00 -0.45593999997E+02  0.45594000000E+02  0.51100000000E-03 0. -1.
         23    2    1    2    0    0 -0.99920072216E-15  0.00000000000E+00  0.35527136788E-14  0.91188000000E+02  0.91188000000E+02 0.  0.
    9900012    2    3    3    0    0 -0.66905452136E+00  0.34766002231E+02  0.12110270914E+02  0.54367065646E+02  0.39999957753E+02 0.  0.
         12    1    3    3    0    0  0.66905452136E+00 -0.34766002231E+02 -0.12110270914E+02  0.36820934354E+02  0.00000000000E+00 0. -1.
         11    1    4    4    0    0  0.38325960173E+01 -0.44288367301E+01  0.13122143040E+00  0.58583791562E+01  0.51100000000E-03 0. -1.
        -11    1    4    4    0    0 -0.97262158068E+01  0.39384965999E+02  0.67711269289E+01  0.41129344522E+02  0.51100000000E-03 0.  1.
         12    1    4    4    0    0  0.52245652682E+01 -0.19012703804E+00  0.52079225547E+01  0.73793419671E+01  0.00000000000E+00 0. -1.
</event>
<event>
 8    1  0.2450026E-006  0.9118800E+02  0.7816164E-02  0.1184000E+00
        -11   -1    0    0    0    0  0.00000000000E+00  0.00000000000E+00  0.45593999997E+02  0.45594000000E+02  0.51100000000E-03 0.  1.
         11   -1    0    0    0    0 -0.00000000000E+00 -0.00000000000E+00 -0.45593999997E+02  0.45594000000E+02  0.51100000000E-03 0. -1.
         23    2    1    2    0    0  0.00000000000E+00  0.00000000000E+00  0.26645352591E-14  0.91188000000E+02  0.91188000000E+02 0.  0.
    9900012    2    3    3    0    0  0.35052877749E+02 -0.80972098654E+01 -0.78431285147E+01  0.54367031639E+02  0.39999880228E+02 0.  0.
        -12    1    3    3    0    0 -0.35052877749E+02  0.80972098654E+01  0.78431285147E+01  0.36820968361E+02  0.00000000000E+00 0.  1.
         11    1    4    4    0    0  0.61528995363E+01 -0.33571287831E+01 -0.11346452483E+02  0.13336808861E+02  0.51100000000E-03 0. -1.
        -11    1    4    4    0    0 -0.16305055081E+01  0.36680828776E+01  0.80914446891E+01  0.90324336492E+01  0.51100000000E-03 0.  1.
        -12    1    4    4    0    0  0.30530483721E+02 -0.84081639599E+01 -0.45881207208E+01  0.31997789130E+02  0.00000000000E+00 0.  1.
</event>
<event>
 8    1  0.2450026E-006  0.9118800E+02  0.7816164E-02  0.1184000E+00
        -11   -1    0    0    0    0  0.00000000000E+00  0.00000000000E+00  0.45593999997E+02  0.45594000000E+02  0.51100000000E-03 0.  1.
         11   -1    0    0    0    0 -0.00000000000E+00 -0.00000000000E+00 -0.45593999997E+02  0.45594000000E+02  0.51100000000E-03 0. -1.
         23    2    1    2    0    0  0.22204460493E-14  0.88817841970E-15  0.00000000000E+00  0.91188000000E+02  0.91188000000E+02 0.  0.
    9900012    2    3    3    0    0 -0.30296890088E+01  0.59025437767E+01 -0.36218218401E+02  0.54367103994E+02  0.40000045176E+02 0.  0.
        -12    1    3    3    0    0  0.30296890088E+01 -0.59025437767E+01  0.36218218401E+02  0.36820896006E+02  0.00000000000E+00 0.  1.
         11    1    4    4    0    0  0.89609588335E+01 -0.52577324614E+01 -0.53876268911E+01  0.11703378044E+02  0.51100000000E-03 0. -1.
        -11    1    4    4    0    0 -0.10409217294E+02  0.31545980606E+01 -0.32554326015E+02  0.34323278342E+02  0.51100000000E-03 0.  1.
         12    1    4    4    0    0 -0.15814305481E+01  0.80056781775E+01  0.17237345054E+01  0.83404476082E+01  0.00000000000E+00 0. -1.
</event>
<event>
 8    1  0.2450026E-006  0.9118800E+02  0.7816164E-02  0.1184000E+00
        -11   -1    0    0    0    0  0.00000000000E+00  0.00000000000E+00  0.45593999997E+02  0.45594000000E+02  0.51100000000E-03 0. -1.
         11   -1    0    0    0    0 -0.00000000000E+00 -0.00000000000E+00 -0.45593999997E+02  0.45594000000E+02  0.51100000000E-03 0.  1.
         23    2    1    2    0    0  0.00000000000E+00  0.00000000000E+00 -0.35527136788E-14  0.91188000000E+02  0.91188000000E+02 0.  0.
    9900012    2    3    3    0    0  0.45384715761E+01  0.24082377169E+02 -0.27481249298E+02  0.54367113572E+02  0.40000067010E+02 0.  0.
         12    1    3    3    0    0 -0.45384715761E+01 -0.24082377169E+02  0.27481249298E+02  0.36820886428E+02  0.00000000000E+00 0. -1.
         11    1    4    4    0    0 -0.25535076692E+01 -0.13322064882E+01 -0.16692489300E+02  0.16939137370E+02  0.51100000000E-03 0. -1.
        -11    1    4    4    0    0 -0.98701008881E-01 -0.47617909898E+01 -0.74140941342E+00  0.48201746337E+01  0.51100000000E-03 0.  1.
        -12    1    4    4    0    0  0.71906802542E+01  0.30176374647E+02 -0.10047350584E+02  0.32607801568E+02  0.00000000000E+00 0.  1.
</event>
<event>
 8    1  0.2450026E-006  0.9118800E+02  0.7816164E-02  0.1184000E+00
        -11   -1    0    0    0    0  0.00000000000E+00  0.00000000000E+00  0.45593999997E+02  0.45594000000E+02  0.51100000000E-03 0.  1.
         11   -1    0    0    0    0 -0.00000000000E+00 -0.00000000000E+00 -0.45593999997E+02  0.45594000000E+02  0.51100000000E-03 0. -1.
         23    2    1    2    0    0  0.24424906542E-14  0.00000000000E+00  0.00000000000E+00  0.91188000000E+02  0.91188000000E+02 0.  0.
    9900012    2    3    3    0    0  0.96175291856E+00 -0.24652138213E+01  0.36725704801E+02  0.54367086907E+02  0.40000006221E+02 0.  0.
         12    1    3    3    0    0 -0.96175291856E+00  0.24652138213E+01 -0.36725704801E+02  0.36820913093E+02  0.00000000000E+00 0. -1.
         11    1    4    4    0    0 -0.63934560642E+01  0.19488566084E+01 -0.60434092352E+01  0.90109443439E+01  0.51100000000E-03 0. -1.
        -11    1    4    4    0    0  0.10632894860E+02 -0.49781063865E+01  0.34514878349E+02  0.36457054516E+02  0.51100000000E-03 0.  1.
         12    1    4    4    0    0 -0.32776858774E+01  0.56403595685E+00  0.82542356876E+01  0.88990880464E+01  0.00000000000E+00 0. -1.
</event>
<event>
 8    1  0.2450026E-006  0.9118800E+02  0.7816164E-02  0.1184000E+00
        -11   -1    0    0    0    0  0.00000000000E+00  0.00000000000E+00  0.45593999997E+02  0.45594000000E+02  0.51100000000E-03 0.  1.
         11   -1    0    0    0    0 -0.00000000000E+00 -0.00000000000E+00 -0.45593999997E+02  0.45594000000E+02  0.51100000000E-03 0. -1.
         23    2    1    2    0    0  0.35527136788E-14 -0.17763568394E-14  0.00000000000E+00  0.91188000000E+02  0.91188000000E+02 0.  0.
    9900012    2    3    3    0    0 -0.29794272543E+02  0.32543079174E+01  0.21388997390E+02  0.54367103680E+02  0.40000044460E+02 0.  0.
         12    1    3    3    0    0  0.29794272543E+02 -0.32543079174E+01 -0.21388997390E+02  0.36820896320E+02  0.00000000000E+00 0. -1.
         11    1    4    4    0    0 -0.43299718870E+01 -0.14553856305E+02  0.14691176331E+02  0.21128039477E+02  0.51100000000E-03 0.  1.
        -11    1    4    4    0    0 -0.15431316051E+02  0.14690096380E+02  0.10985279257E+01  0.21333804409E+02  0.51100000000E-03 0. -1.
         12    1    4    4    0    0 -0.10032984605E+02  0.31180678430E+01  0.55992931334E+01  0.11905259794E+02  0.00000000000E+00 0. -1.
</event>
<event>
 8    1  0.2450026E-006  0.9118800E+02  0.7816164E-02  0.1184000E+00
        -11   -1    0    0    0    0  0.00000000000E+00  0.00000000000E+00  0.45593999997E+02  0.45594000000E+02  0.51100000000E-03 0.  1.
         11   -1    0    0    0    0 -0.00000000000E+00 -0.00000000000E+00 -0.45593999997E+02  0.45594000000E+02  0.51100000000E-03 0. -1.
         23    2    1    2    0    0 -0.17763568394E-14  0.83266726847E-15  0.71054273576E-14  0.91188000000E+02  0.91188000000E+02 0.  0.
    9900012    2    3    3    0    0 -0.11784457355E+02 -0.49013475461E+00  0.34880744317E+02  0.54367082150E+02  0.39999995377E+02 0.  0.
         12    1    3    3    0    0  0.11784457355E+02  0.49013475461E+00 -0.34880744317E+02  0.36820917850E+02  0.00000000000E+00 0. -1.
         11    1    4    4    0    0 -0.19496445415E+01 -0.99548871453E+01 -0.21052087575E+01  0.10360154250E+02  0.51100000000E-03 0. -1.
        -11    1    4    4    0    0 -0.99935259126E+01 -0.23881376759E+01  0.25537967661E+02  0.27527469086E+02  0.51100000000E-03 0.  1.
         12    1    4    4    0    0  0.15871309917E+00  0.11852890067E+02  0.11447985413E+02  0.16479458814E+02  0.00000000000E+00 0. -1.
</event>
<event>
 8    1  0.2450026E-006  0.9118800E+02  0.7816164E-02  0.1184000E+00
        -11   -1    0    0    0    0  0.00000000000E+00  0.00000000000E+00  0.45593999997E+02  0.45594000000E+02  0.51100000000E-03 0. -1.
         11   -1    0    0    0    0 -0.00000000000E+00 -0.00000000000E+00 -0.45593999997E+02  0.45594000000E+02  0.51100000000E-03 0.  1.
         23    2    1    2    0    0  0.00000000000E+00 -0.17763568394E-14 -0.41633363423E-15  0.91188000000E+02  0.91188000000E+02 0.  0.
    9900012    2    3    3    0    0  0.33497249141E+02  0.15287116962E+02 -0.13563990247E+00  0.54367081445E+02  0.39999993770E+02 0.  0.
        -12    1    3    3    0    0 -0.33497249141E+02 -0.15287116962E+02  0.13563990247E+00  0.36820918555E+02  0.00000000000E+00 0.  1.
         11    1    4    4    0    0  0.30376858110E+02  0.20536220209E+02 -0.13072437522E+02  0.38927862414E+02  0.51100000000E-03 0. -1.
        -11    1    4    4    0    0 -0.13912535795E+01 -0.41209863481E+00  0.44416226011E+01  0.46726248939E+01  0.51100000000E-03 0.  1.
         12    1    4    4    0    0  0.45116446107E+01 -0.48370046121E+01  0.84951750186E+01  0.10766594137E+02  0.00000000000E+00 0. -1.
</event>
<event>
 8    1  0.2450026E-006  0.9118800E+02  0.7816164E-02  0.1184000E+00
        -11   -1    0    0    0    0  0.00000000000E+00  0.00000000000E+00  0.45593999997E+02  0.45594000000E+02  0.51100000000E-03 0.  1.
         11   -1    0    0    0    0 -0.00000000000E+00 -0.00000000000E+00 -0.45593999997E+02  0.45594000000E+02  0.51100000000E-03 0. -1.
         23    2    1    2    0    0 -0.17763568394E-14  0.00000000000E+00  0.00000000000E+00  0.91188000000E+02  0.91188000000E+02 0.  0.
    9900012    2    3    3    0    0  0.83513932446E+01  0.14102837876E+02  0.32971815288E+02  0.54367130800E+02  0.40000106284E+02 0.  0.
         12    1    3    3    0    0 -0.83513932446E+01 -0.14102837876E+02 -0.32971815288E+02  0.36820869200E+02  0.00000000000E+00 0. -1.
         11    1    4    4    0    0  0.61074531773E+01  0.17186508983E+02  0.13385545337E+02  0.22624099973E+02  0.51100000000E-03 0. -1.
        -11    1    4    4    0    0 -0.83831797117E+01  0.16656643694E+01  0.18089555097E+02  0.20007102333E+02  0.51100000000E-03 0.  1.
        -12    1    4    4    0    0  0.10627119779E+02 -0.47493354769E+01  0.14967148536E+01  0.11735928494E+02  0.00000000000E+00 0.  1.
</event>
<event>
 8    1  0.2450026E-006  0.9118800E+02  0.7816164E-02  0.1184000E+00
        -11   -1    0    0    0    0  0.00000000000E+00  0.00000000000E+00  0.45593999997E+02  0.45594000000E+02  0.51100000000E-03 0.  1.
         11   -1    0    0    0    0 -0.00000000000E+00 -0.00000000000E+00 -0.45593999997E+02  0.45594000000E+02  0.51100000000E-03 0. -1.
         23    2    1    2    0    0 -0.44408920985E-15 -0.35527136788E-14 -0.35527136788E-14  0.91188000000E+02  0.91188000000E+02 0.  0.
    9900012    2    3    3    0    0 -0.11564786693E+01 -0.18529459324E+02 -0.31797817482E+02  0.54367088789E+02  0.40000010513E+02 0.  0.
        -12    1    3    3    0    0  0.11564786693E+01  0.18529459324E+02  0.31797817482E+02  0.36820911211E+02  0.00000000000E+00 0.  1.
         11    1    4    4    0    0 -0.61952575680E+01 -0.11484706392E+02 -0.20598581268E+02  0.24384036741E+02  0.51100000000E-03 0. -1.
        -11    1    4    4    0    0 -0.36858362916E+01  0.20764876085E+00 -0.16891228948E+02  0.17289942823E+02  0.51100000000E-03 0.  1.
         12    1    4    4    0    0  0.87246151903E+01 -0.72524016923E+01  0.56919927344E+01  0.12693109226E+02  0.00000000000E+00 0. -1.
</event>
<event>
 8    1  0.2450026E-006  0.9118800E+02  0.7816164E-02  0.1184000E+00
        -11   -1    0    0    0    0  0.00000000000E+00  0.00000000000E+00  0.45593999997E+02  0.45594000000E+02  0.51100000000E-03 0.  1.
         11   -1    0    0    0    0 -0.00000000000E+00 -0.00000000000E+00 -0.45593999997E+02  0.45594000000E+02  0.51100000000E-03 0. -1.
         23    2    1    2    0    0  0.00000000000E+00  0.00000000000E+00  0.00000000000E+00  0.91188000000E+02  0.91188000000E+02 0.  0.
    9900012    2    3    3    0    0  0.88382775200E+01 -0.23455241497E+02 -0.26972560950E+02  0.54367047441E+02  0.39999916250E+02 0.  0.
        -12    1    3    3    0    0 -0.88382775200E+01  0.23455241497E+02  0.26972560950E+02  0.36820952559E+02  0.00000000000E+00 0.  1.
         11    1    4    4    0    0  0.10200925376E+02 -0.43724320917E+01 -0.14919948582E+02  0.18595211934E+02  0.51100000000E-03 0. -1.
        -11    1    4    4    0    0  0.29581125550E+00 -0.26259577769E+02 -0.10232926771E+02  0.28184494309E+02  0.51100000000E-03 0.  1.
        -12    1    4    4    0    0 -0.16584591113E+01  0.71767683640E+01 -0.18196855969E+01  0.75873411974E+01  0.00000000000E+00 0.  1.
</event>
<event>
 8    1  0.2450026E-006  0.9118800E+02  0.7816164E-02  0.1184000E+00
        -11   -1    0    0    0    0  0.00000000000E+00  0.00000000000E+00  0.45593999997E+02  0.45594000000E+02  0.51100000000E-03 0. -1.
         11   -1    0    0    0    0 -0.00000000000E+00 -0.00000000000E+00 -0.45593999997E+02  0.45594000000E+02  0.51100000000E-03 0.  1.
         23    2    1    2    0    0  0.88817841970E-15  0.00000000000E+00  0.00000000000E+00  0.91188000000E+02  0.91188000000E+02 0.  0.
    9900012    2    3    3    0    0  0.51596573305E+01 -0.31290917749E+02 -0.18709247230E+02  0.54367088425E+02  0.40000009681E+02 0.  0.
        -12    1    3    3    0    0 -0.51596573305E+01  0.31290917749E+02  0.18709247230E+02  0.36820911575E+02  0.00000000000E+00 0.  1.
         11    1    4    4    0    0  0.12534828042E+02 -0.27208283450E+02 -0.24074332915E+02  0.38431576963E+02  0.51100000000E-03 0. -1.
        -11    1    4    4    0    0 -0.14157460798E+01 -0.32444262001E+01 -0.36575315850E+01  0.50900074545E+01  0.51100000000E-03 0.  1.
         12    1    4    4    0    0 -0.59594246319E+01 -0.83820809914E+00  0.90226172700E+01  0.10845504007E+02  0.00000000000E+00 0. -1.
</event>
<event>
 8    1  0.2450026E-006  0.9118800E+02  0.7816164E-02  0.1184000E+00
        -11   -1    0    0    0    0  0.00000000000E+00  0.00000000000E+00  0.45593999997E+02  0.45594000000E+02  0.51100000000E-03 0.  1.
         11   -1    0    0    0    0 -0.00000000000E+00 -0.00000000000E+00 -0.45593999997E+02  0.45594000000E+02  0.51100000000E-03 0. -1.
         23    2    1    2    0    0 -0.17763568394E-14  0.00000000000E+00  0.00000000000E+00  0.91188000000E+02  0.91188000000E+02 0.  0.
    9900012    2    3    3    0    0 -0.15356868258E+02 -0.33403065538E+02  0.20448612627E+01  0.54367086817E+02  0.40000006016E+02 0.  0.
         12    1    3    3    0    0  0.15356868258E+02  0.33403065538E+02 -0.20448612627E+01  0.36820913183E+02  0.00000000000E+00 0. -1.
         11    1    4    4    0    0  0.59765338732E+01 -0.16927645053E+02  0.12506449128E+02  0.21878651563E+02  0.51100000000E-03 0. -1.
        -11    1    4    4    0    0 -0.10873508115E+01 -0.49221111864E+01 -0.74343375749E+01  0.89821426040E+01  0.51100000000E-03 0.  1.
        -12    1    4    4    0    0 -0.20246051320E+02 -0.11553309299E+02 -0.30272502902E+01  0.23506292650E+02  0.00000000000E+00 0.  1.
</event>
<event>
 8    1  0.2450026E-006  0.9118800E+02  0.7816164E-02  0.1184000E+00
        -11   -1    0    0    0    0  0.00000000000E+00  0.00000000000E+00  0.45593999997E+02  0.45594000000E+02  0.51100000000E-03 0. -1.
         11   -1    0    0    0    0 -0.00000000000E+00 -0.00000000000E+00 -0.45593999997E+02  0.45594000000E+02  0.51100000000E-03 0.  1.
         23    2    1    2    0    0  0.17763568394E-14 -0.88817841970E-15 -0.71054273576E-14  0.91188000000E+02  0.91188000000E+02 0.  0.
    9900012    2    3    3    0    0 -0.15062126854E+02  0.84972202134E+00  0.33588415226E+02  0.54367199760E+02  0.40000263493E+02 0.  0.
        -12    1    3    3    0    0  0.15062126854E+02 -0.84972202134E+00 -0.33588415226E+02  0.36820800240E+02  0.00000000000E+00 0.  1.
         11    1    4    4    0    0 -0.12512929669E+02 -0.13788846299E+02  0.65889699807E+01  0.19751461132E+02  0.51100000000E-03 0. -1.
        -11    1    4    4    0    0  0.43221775234E+01  0.81961129388E+01  0.46600257417E+01  0.10371756169E+02  0.51100000000E-03 0.  1.
         12    1    4    4    0    0 -0.68713747080E+01  0.64424553820E+01  0.22339419504E+02  0.24243982460E+02  0.00000000000E+00 0. -1.
</event>
<event>
 8    1  0.2450026E-006  0.9118800E+02  0.7816164E-02  0.1184000E+00
        -11   -1    0    0    0    0  0.00000000000E+00  0.00000000000E+00  0.45593999997E+02  0.45594000000E+02  0.51100000000E-03 0. -1.
         11   -1    0    0    0    0 -0.00000000000E+00 -0.00000000000E+00 -0.45593999997E+02  0.45594000000E+02  0.51100000000E-03 0.  1.
         23    2    1    2    0    0  0.13322676296E-14 -0.35527136788E-14  0.00000000000E+00  0.91188000000E+02  0.91188000000E+02 0.  0.
    9900012    2    3    3    0    0 -0.39231910420E+01 -0.21020028495E+02 -0.29975758117E+02  0.54367094246E+02  0.40000022953E+02 0.  0.
         12    1    3    3    0    0  0.39231910420E+01  0.21020028495E+02  0.29975758117E+02  0.36820905754E+02  0.00000000000E+00 0. -1.
         11    1    4    4    0    0 -0.17745954511E+01  0.58734722387E+00 -0.35076844057E+01  0.39746718013E+01  0.51100000000E-03 0. -1.
        -11    1    4    4    0    0  0.14579527412E+02 -0.21697227186E+02 -0.16735644102E+02  0.31038912205E+02  0.51100000000E-03 0.  1.
         12    1    4    4    0    0 -0.16728123003E+02  0.89851467612E-01 -0.97324296090E+01  0.19353510240E+02  0.00000000000E+00 0. -1.
</event>
<event>
 8    1  0.2450026E-006  0.9118800E+02  0.7816164E-02  0.1184000E+00
        -11   -1    0    0    0    0  0.00000000000E+00  0.00000000000E+00  0.45593999997E+02  0.45594000000E+02  0.51100000000E-03 0. -1.
         11   -1    0    0    0    0 -0.00000000000E+00 -0.00000000000E+00 -0.45593999997E+02  0.45594000000E+02  0.51100000000E-03 0.  1.
         23    2    1    2    0    0  0.00000000000E+00  0.00000000000E+00 -0.35527136788E-14  0.91188000000E+02  0.91188000000E+02 0.  0.
    9900012    2    3    3    0    0  0.18412451744E+02 -0.13344744965E+02 -0.28959928751E+02  0.54367108231E+02  0.40000054834E+02 0.  0.
         12    1    3    3    0    0 -0.18412451744E+02  0.13344744965E+02  0.28959928751E+02  0.36820891769E+02  0.00000000000E+00 0. -1.
         11    1    4    4    0    0  0.14408327058E+02 -0.85727228768E+00 -0.97932887662E+01  0.17442571757E+02  0.51100000000E-03 0. -1.
        -11    1    4    4    0    0  0.60670500024E+01 -0.62704793088E+01 -0.26020220762E+02  0.27444123146E+02  0.51100000000E-03 0.  1.
        -12    1    4    4    0    0 -0.20629253161E+01 -0.62169933685E+01  0.68535807772E+01  0.94804133282E+01  0.00000000000E+00 0.  1.
</event>
<event>
 8    1  0.2450026E-006  0.9118800E+02  0.7816164E-02  0.1184000E+00
        -11   -1    0    0    0    0  0.00000000000E+00  0.00000000000E+00  0.45593999997E+02  0.45594000000E+02  0.51100000000E-03 0.  1.
         11   -1    0    0    0    0 -0.00000000000E+00 -0.00000000000E+00 -0.45593999997E+02  0.45594000000E+02  0.51100000000E-03 0. -1.
         23    2    1    2    0    0 -0.44408920985E-15  0.00000000000E+00  0.00000000000E+00  0.91188000000E+02  0.91188000000E+02 0.  0.
    9900012    2    3    3    0    0 -0.15710629570E+01  0.24878607829E+02 -0.27099192336E+02  0.54367087578E+02  0.40000007751E+02 0.  0.
        -12    1    3    3    0    0  0.15710629570E+01 -0.24878607829E+02  0.27099192336E+02  0.36820912422E+02  0.00000000000E+00 0.  1.
         11    1    4    4    0    0 -0.72956911883E+01 -0.54452069716E+01 -0.61189754559E+00  0.91242428588E+01  0.51100000000E-03 0. -1.
        -11    1    4    4    0    0  0.25096739966E+01  0.23432828559E+02 -0.28876182689E+02  0.37272373748E+02  0.51100000000E-03 0.  1.
        -12    1    4    4    0    0  0.32149542347E+01  0.68909862415E+01  0.23888878979E+01  0.79704709711E+01  0.00000000000E+00 0.  1.
</event>
<event>
 8    1  0.2450026E-006  0.9118800E+02  0.7816164E-02  0.1184000E+00
        -11   -1    0    0    0    0  0.00000000000E+00  0.00000000000E+00  0.45593999997E+02  0.45594000000E+02  0.51100000000E-03 0.  1.
         11   -1    0    0    0    0 -0.00000000000E+00 -0.00000000000E+00 -0.45593999997E+02  0.45594000000E+02  0.51100000000E-03 0. -1.
         23    2    1    2    0    0  0.00000000000E+00  0.00000000000E+00 -0.44408920985E-15  0.91188000000E+02  0.91188000000E+02 0.  0.
    9900012    2    3    3    0    0 -0.34965175590E+02  0.11445978770E+02  0.14848121720E+01  0.54367101027E+02  0.40000038411E+02 0.  0.
        -12    1    3    3    0    0  0.34965175590E+02 -0.11445978770E+02 -0.14848121720E+01  0.36820898973E+02  0.00000000000E+00 0.  1.
         11    1    4    4    0    0 -0.77172422564E+00  0.13429138108E+02  0.63945741340E+00  0.13466484866E+02  0.51100000000E-03 0.  1.
        -11    1    4    4    0    0 -0.19127664543E+02  0.80048052556E+01  0.68757163536E+01  0.21845364124E+02  0.51100000000E-03 0. -1.
         12    1    4    4    0    0 -0.15065786821E+02 -0.99879645933E+01 -0.60303615950E+01  0.19055252037E+02  0.00000000000E+00 0. -1.
</event>
<event>
 8    1  0.2450026E-006  0.9118800E+02  0.7816164E-02  0.1184000E+00
        -11   -1    0    0    0    0  0.00000000000E+00  0.00000000000E+00  0.45593999997E+02  0.45594000000E+02  0.51100000000E-03 0. -1.
         11   -1    0    0    0    0 -0.00000000000E+00 -0.00000000000E+00 -0.45593999997E+02  0.45594000000E+02  0.51100000000E-03 0.  1.
         23    2    1    2    0    0  0.00000000000E+00  0.35527136788E-14  0.00000000000E+00  0.91188000000E+02  0.91188000000E+02 0.  0.
    9900012    2    3    3    0    0  0.27287150493E+02 -0.24699638571E+02 -0.10579984802E+01  0.54367080832E+02  0.39999992373E+02 0.  0.
         12    1    3    3    0    0 -0.27287150493E+02  0.24699638571E+02  0.10579984802E+01  0.36820919168E+02  0.00000000000E+00 0. -1.
         11    1    4    4    0    0 -0.28972629392E+01  0.61590090227E+01  0.22531760698E+01  0.71696811186E+01  0.51100000000E-03 0. -1.
        -11    1    4    4    0    0  0.26160121280E+02 -0.32929368796E+02 -0.50312915999E+01  0.42355745421E+02  0.51100000000E-03 0.  1.
        -12    1    4    4    0    0  0.40242921524E+01  0.20707212025E+01  0.17201170500E+01  0.48416542929E+01  0.00000000000E+00 0.  1.
</event>
<event>
 8    1  0.2450026E-006  0.9118800E+02  0.7816164E-02  0.1184000E+00
        -11   -1    0    0    0    0  0.00000000000E+00  0.00000000000E+00  0.45593999997E+02  0.45594000000E+02  0.51100000000E-03 0.  1.
         11   -1    0    0    0    0 -0.00000000000E+00 -0.00000000000E+00 -0.45593999997E+02  0.45594000000E+02  0.51100000000E-03 0. -1.
         23    2    1    2    0    0  0.00000000000E+00  0.00000000000E+00  0.00000000000E+00  0.91188000000E+02  0.91188000000E+02 0.  0.
    9900012    2    3    3    0    0  0.26473669312E+02 -0.20616433528E+02 -0.15162039792E+02  0.54367082726E+02  0.39999996690E+02 0.  0.
        -12    1    3    3    0    0 -0.26473669312E+02  0.20616433528E+02  0.15162039792E+02  0.36820917274E+02  0.00000000000E+00 0.  1.
         11    1    4    4    0    0  0.42851079198E+01 -0.20022980483E+02 -0.52930974076E+01  0.21149439182E+02  0.51100000000E-03 0. -1.
        -11    1    4    4    0    0  0.12024437880E+02 -0.10647803049E+02 -0.39382487730E+00  0.16066048500E+02  0.51100000000E-03 0.  1.
        -12    1    4    4    0    0  0.10164123512E+02  0.10054350004E+02 -0.94751175068E+01  0.17151595044E+02  0.00000000000E+00 0.  1.
</event>
<event>
 8    1  0.2450026E-006  0.9118800E+02  0.7816164E-02  0.1184000E+00
        -11   -1    0    0    0    0  0.00000000000E+00  0.00000000000E+00  0.45593999997E+02  0.45594000000E+02  0.51100000000E-03 0.  1.
         11   -1    0    0    0    0 -0.00000000000E+00 -0.00000000000E+00 -0.45593999997E+02  0.45594000000E+02  0.51100000000E-03 0. -1.
         23    2    1    2    0    0 -0.35527136788E-14  0.00000000000E+00  0.35527136788E-14  0.91188000000E+02  0.91188000000E+02 0.  0.
    9900012    2    3    3    0    0  0.26480370828E+02  0.98988295950E+01 -0.23592039725E+02  0.54367065671E+02  0.39999957809E+02 0.  0.
        -12    1    3    3    0    0 -0.26480370828E+02 -0.98988295950E+01  0.23592039725E+02  0.36820934329E+02  0.00000000000E+00 0.  1.
         11    1    4    4    0    0 -0.93280702016E+01  0.28814236686E+01 -0.79786691743E+01  0.12608515301E+02  0.51100000000E-03 0. -1.
        -11    1    4    4    0    0  0.88088525181E+00  0.21507785829E+01  0.12829821131E+01  0.26547788427E+01  0.51100000000E-03 0.  1.
         12    1    4    4    0    0  0.34927555778E+02  0.48666273435E+01 -0.16896352663E+02  0.39103771527E+02  0.00000000000E+00 0. -1.
</event>
<event>
 8    1  0.2450026E-006  0.9118800E+02  0.7816164E-02  0.1184000E+00
        -11   -1    0    0    0    0  0.00000000000E+00  0.00000000000E+00  0.45593999997E+02  0.45594000000E+02  0.51100000000E-03 0. -1.
         11   -1    0    0    0    0 -0.00000000000E+00 -0.00000000000E+00 -0.45593999997E+02  0.45594000000E+02  0.51100000000E-03 0.  1.
         23    2    1    2    0    0  0.00000000000E+00 -0.94368957093E-15  0.35527136788E-14  0.91188000000E+02  0.91188000000E+02 0.  0.
    9900012    2    3    3    0    0  0.32103420284E+02  0.36504712097E+00 -0.18028141563E+02  0.54367126280E+02  0.40000095980E+02 0.  0.
         12    1    3    3    0    0 -0.32103420284E+02 -0.36504712097E+00  0.18028141563E+02  0.36820873720E+02  0.00000000000E+00 0. -1.
         11    1    4    4    0    0  0.15913265411E+02  0.11199067297E+02 -0.19185007586E+02  0.27326098161E+02  0.51100000000E-03 0. -1.
        -11    1    4    4    0    0  0.16779078004E+02 -0.14776169018E+01  0.38670768264E+01  0.17282219007E+02  0.51100000000E-03 0.  1.
        -12    1    4    4    0    0 -0.58892313129E+00 -0.93564032740E+01 -0.27102108035E+01  0.97588091117E+01  0.00000000000E+00 0.  1.
</event>
<event>
 8    1  0.2450026E-006  0.9118800E+02  0.7816164E-02  0.1184000E+00
        -11   -1    0    0    0    0  0.00000000000E+00  0.00000000000E+00  0.45593999997E+02  0.45594000000E+02  0.51100000000E-03 0.  1.
         11   -1    0    0    0    0 -0.00000000000E+00 -0.00000000000E+00 -0.45593999997E+02  0.45594000000E+02  0.51100000000E-03 0. -1.
         23    2    1    2    0    0  0.00000000000E+00  0.17763568394E-14  0.00000000000E+00  0.91188000000E+02  0.91188000000E+02 0.  0.
    9900012    2    3    3    0    0  0.25719801721E+02 -0.13222087201E+02  0.22791410896E+02  0.54367079301E+02  0.39999988882E+02 0.  0.
         12    1    3    3    0    0 -0.25719801721E+02  0.13222087201E+02 -0.22791410896E+02  0.36820920699E+02  0.00000000000E+00 0. -1.
         11    1    4    4    0    0  0.19842218843E+02  0.11010660295E+02  0.12517072733E+02  0.25915736509E+02  0.51100000000E-03 0. -1.
        -11    1    4    4    0    0 -0.12197479754E+01 -0.79720647897E+01  0.63888323420E+01  0.10288769659E+02  0.51100000000E-03 0.  1.
         12    1    4    4    0    0  0.70973308536E+01 -0.16260682707E+02  0.38855058208E+01  0.18162573133E+02  0.00000000000E+00 0. -1.
</event>
<event>
 8    1  0.2450026E-006  0.9118800E+02  0.7816164E-02  0.1184000E+00
        -11   -1    0    0    0    0  0.00000000000E+00  0.00000000000E+00  0.45593999997E+02  0.45594000000E+02  0.51100000000E-03 0. -1.
         11   -1    0    0    0    0 -0.00000000000E+00 -0.00000000000E+00 -0.45593999997E+02  0.45594000000E+02  0.51100000000E-03 0.  1.
         23    2    1    2    0    0 -0.35527136788E-14 -0.17763568394E-14  0.35527136788E-14  0.91188000000E+02  0.91188000000E+02 0.  0.
    9900012    2    3    3    0    0 -0.28690858129E+02  0.15556615854E+02 -0.17047139180E+02  0.54367101162E+02  0.40000038719E+02 0.  0.
         12    1    3    3    0    0  0.28690858129E+02 -0.15556615854E+02  0.17047139180E+02  0.36820898838E+02  0.00000000000E+00 0. -1.
         11    1    4    4    0    0  0.20660860895E+00 -0.44677044829E+01  0.87661519688E+01  0.98411630952E+01  0.51100000000E-03 0. -1.
        -11    1    4    4    0    0 -0.64058434917E+01  0.21776995942E+01 -0.89790825751E+01  0.11242825735E+02  0.51100000000E-03 0.  1.
         12    1    4    4    0    0 -0.22491623246E+02  0.17846620743E+02 -0.16834208574E+02  0.33283112332E+02  0.00000000000E+00 0. -1.
</event>
<event>
 8    1  0.2450026E-006  0.9118800E+02  0.7816164E-02  0.1184000E+00
        -11   -1    0    0    0    0  0.00000000000E+00  0.00000000000E+00  0.45593999997E+02  0.45594000000E+02  0.51100000000E-03 0.  1.
         11   -1    0    0    0    0 -0.00000000000E+00 -0.00000000000E+00 -0.45593999997E+02  0.45594000000E+02  0.51100000000E-03 0. -1.
         23    2    1    2    0    0  0.00000000000E+00  0.35527136788E-14  0.88817841970E-15  0.91188000000E+02  0.91188000000E+02 0.  0.
    9900012    2    3    3    0    0 -0.24163722979E+02  0.26816913326E+02  0.72627783446E+01  0.54367077988E+02  0.39999985889E+02 0.  0.
         12    1    3    3    0    0  0.24163722979E+02 -0.26816913326E+02 -0.72627783446E+01  0.36820922012E+02  0.00000000000E+00 0. -1.
         11    1    4    4    0    0 -0.65540481520E+01 -0.51239134131E+01  0.58515194550E+01  0.10171052848E+02  0.51100000000E-03 0. -1.
        -11    1    4    4    0    0 -0.41841115250E+01  0.62398559734E+00  0.84075500399E+01  0.94118566295E+01  0.51100000000E-03 0.  1.
         12    1    4    4    0    0 -0.13425563302E+02  0.31316841142E+02 -0.69962911503E+01  0.34784168510E+02  0.00000000000E+00 0. -1.
</event>
<event>
 8    1  0.2450026E-006  0.9118800E+02  0.7816164E-02  0.1184000E+00
        -11   -1    0    0    0    0  0.00000000000E+00  0.00000000000E+00  0.45593999997E+02  0.45594000000E+02  0.51100000000E-03 0. -1.
         11   -1    0    0    0    0 -0.00000000000E+00 -0.00000000000E+00 -0.45593999997E+02  0.45594000000E+02  0.51100000000E-03 0.  1.
         23    2    1    2    0    0  0.00000000000E+00 -0.11102230246E-14 -0.17763568394E-14  0.91188000000E+02  0.91188000000E+02 0.  0.
    9900012    2    3    3    0    0  0.35743824864E+02  0.11594419380E+01  0.87644064565E+01  0.54367080103E+02  0.39999990711E+02 0.  0.
         12    1    3    3    0    0 -0.35743824864E+02 -0.11594419380E+01 -0.87644064565E+01  0.36820919897E+02  0.00000000000E+00 0. -1.
         11    1    4    4    0    0  0.63209584267E+01 -0.47780283864E+01 -0.24567880838E+01  0.82957747464E+01  0.51100000000E-03 0. -1.
        -11    1    4    4    0    0  0.23372115353E+02 -0.86929857045E+01 -0.25781434259E+01  0.25069315912E+02  0.51100000000E-03 0.  1.
         12    1    4    4    0    0  0.60507510845E+01  0.14630456029E+02  0.13799337966E+02  0.21001989444E+02  0.00000000000E+00 0. -1.
</event>
<event>
 8    1  0.2450026E-006  0.9118800E+02  0.7816164E-02  0.1184000E+00
        -11   -1    0    0    0    0  0.00000000000E+00  0.00000000000E+00  0.45593999997E+02  0.45594000000E+02  0.51100000000E-03 0.  1.
         11   -1    0    0    0    0 -0.00000000000E+00 -0.00000000000E+00 -0.45593999997E+02  0.45594000000E+02  0.51100000000E-03 0. -1.
         23    2    1    2    0    0 -0.35527136788E-14  0.00000000000E+00  0.00000000000E+00  0.91188000000E+02  0.91188000000E+02 0.  0.
    9900012    2    3    3    0    0  0.29699601231E+02  0.12103511245E+02 -0.18089159300E+02  0.54367095857E+02  0.40000026626E+02 0.  0.
        -12    1    3    3    0    0 -0.29699601231E+02 -0.12103511245E+02  0.18089159300E+02  0.36820904143E+02  0.00000000000E+00 0.  1.
         11    1    4    4    0    0  0.12503136757E+02  0.74439123478E+00 -0.11802955046E+02  0.17210238091E+02  0.51100000000E-03 0. -1.
        -11    1    4    4    0    0  0.13331973080E+02 -0.71756856266E+01  0.39312317667E+01  0.15642459969E+02  0.51100000000E-03 0.  1.
         12    1    4    4    0    0  0.38644913930E+01  0.18534805636E+02 -0.10217436020E+02  0.21514397796E+02  0.00000000000E+00 0. -1.
</event>
<event>
 8    1  0.2450026E-006  0.9118800E+02  0.7816164E-02  0.1184000E+00
        -11   -1    0    0    0    0  0.00000000000E+00  0.00000000000E+00  0.45593999997E+02  0.45594000000E+02  0.51100000000E-03 0.  1.
         11   -1    0    0    0    0 -0.00000000000E+00 -0.00000000000E+00 -0.45593999997E+02  0.45594000000E+02  0.51100000000E-03 0. -1.
         23    2    1    2    0    0 -0.35527136788E-14  0.00000000000E+00  0.00000000000E+00  0.91188000000E+02  0.91188000000E+02 0.  0.
    9900012    2    3    3    0    0 -0.23641156195E+02 -0.22165711770E+02 -0.17480158293E+02  0.54367095904E+02  0.40000026731E+02 0.  0.
        -12    1    3    3    0    0  0.23641156195E+02  0.22165711770E+02  0.17480158293E+02  0.36820904096E+02  0.00000000000E+00 0.  1.
         11    1    4    4    0    0  0.10834567975E+01 -0.92307010987E+00 -0.11054749694E+02  0.11146005029E+02  0.51100000000E-03 0. -1.
        -11    1    4    4    0    0 -0.29745518201E+01  0.47825227471E+01  0.48976778030E+01  0.74637611483E+01  0.51100000000E-03 0.  1.
        -12    1    4    4    0    0 -0.21750061173E+02 -0.26025164407E+02 -0.11323086402E+02  0.35757329726E+02  0.00000000000E+00 0.  1.
</event>
<event>
 8    1  0.2450026E-006  0.9118800E+02  0.7816164E-02  0.1184000E+00
        -11   -1    0    0    0    0  0.00000000000E+00  0.00000000000E+00  0.45593999997E+02  0.45594000000E+02  0.51100000000E-03 0. -1.
         11   -1    0    0    0    0 -0.00000000000E+00 -0.00000000000E+00 -0.45593999997E+02  0.45594000000E+02  0.51100000000E-03 0.  1.
         23    2    1    2    0    0  0.44408920985E-15  0.00000000000E+00  0.71054273576E-14  0.91188000000E+02  0.91188000000E+02 0.  0.
    9900012    2    3    3    0    0 -0.18370972157E+01  0.25729935417E+02  0.26274979704E+02  0.54367094780E+02  0.40000024170E+02 0.  0.
        -12    1    3    3    0    0  0.18370972157E+01 -0.25729935417E+02 -0.26274979704E+02  0.36820905220E+02  0.00000000000E+00 0.  1.
         11    1    4    4    0    0 -0.69833646442E+01  0.26651702906E+02  0.18065669195E+02  0.32946153846E+02  0.51100000000E-03 0. -1.
        -11    1    4    4    0    0 -0.70729647107E+00 -0.64749799447E+01 -0.33497203452E+01  0.73243607390E+01  0.51100000000E-03 0.  1.
        -12    1    4    4    0    0  0.58535638996E+01  0.55532124563E+01  0.11559030854E+02  0.14096580195E+02  0.00000000000E+00 0.  1.
</event>
<event>
 8    1  0.2450026E-006  0.9118800E+02  0.7816164E-02  0.1184000E+00
        -11   -1    0    0    0    0  0.00000000000E+00  0.00000000000E+00  0.45593999997E+02  0.45594000000E+02  0.51100000000E-03 0.  1.
         11   -1    0    0    0    0 -0.00000000000E+00 -0.00000000000E+00 -0.45593999997E+02  0.45594000000E+02  0.51100000000E-03 0. -1.
         23    2    1    2    0    0  0.00000000000E+00 -0.17763568394E-14  0.17763568394E-14  0.91188000000E+02  0.91188000000E+02 0.  0.
    9900012    2    3    3    0    0 -0.34988665512E+02 -0.80019844691E+01 -0.82183584326E+01  0.54367083592E+02  0.39999998666E+02 0.  0.
        -12    1    3    3    0    0  0.34988665512E+02  0.80019844691E+01  0.82183584326E+01  0.36820916408E+02  0.00000000000E+00 0.  1.
         11    1    4    4    0    0 -0.10777517246E+02 -0.14514102696E+02  0.71899475748E+01  0.19455318076E+02  0.51100000000E-03 0. -1.
        -11    1    4    4    0    0 -0.24069005644E+02  0.86054837278E+01 -0.73675058626E+01  0.26601720353E+02  0.51100000000E-03 0.  1.
         12    1    4    4    0    0 -0.14214262274E+00 -0.20933655014E+01 -0.80408001448E+01  0.83100451633E+01  0.00000000000E+00 0. -1.
</event>
<event>
 8    1  0.2450026E-006  0.9118800E+02  0.7816164E-02  0.1184000E+00
        -11   -1    0    0    0    0  0.00000000000E+00  0.00000000000E+00  0.45593999997E+02  0.45594000000E+02  0.51100000000E-03 0. -1.
         11   -1    0    0    0    0 -0.00000000000E+00 -0.00000000000E+00 -0.45593999997E+02  0.45594000000E+02  0.51100000000E-03 0.  1.
         23    2    1    2    0    0  0.00000000000E+00  0.00000000000E+00  0.00000000000E+00  0.91188000000E+02  0.91188000000E+02 0.  0.
    9900012    2    3    3    0    0  0.11725778522E+02 -0.17559610924E+02  0.30165229349E+02  0.54367151566E+02  0.40000153625E+02 0.  0.
        -12    1    3    3    0    0 -0.11725778522E+02  0.17559610924E+02 -0.30165229349E+02  0.36820848434E+02  0.00000000000E+00 0.  1.
         11    1    4    4    0    0  0.20852801423E+02 -0.76257269051E+01  0.13093306786E+02  0.25776456716E+02  0.51100000000E-03 0. -1.
        -11    1    4    4    0    0  0.27071774144E+01 -0.84277081765E+01  0.13489974880E+02  0.16134884480E+02  0.51100000000E-03 0.  1.
        -12    1    4    4    0    0 -0.11834200315E+02 -0.15061758422E+01  0.35819476833E+01  0.12455810370E+02  0.00000000000E+00 0.  1.
</event>
<event>
 8    1  0.2450026E-006  0.9118800E+02  0.7816164E-02  0.1184000E+00
        -11   -1    0    0    0    0  0.00000000000E+00  0.00000000000E+00  0.45593999997E+02  0.45594000000E+02  0.51100000000E-03 0. -1.
         11   -1    0    0    0    0 -0.00000000000E+00 -0.00000000000E+00 -0.45593999997E+02  0.45594000000E+02  0.51100000000E-03 0.  1.
         23    2    1    2    0    0  0.00000000000E+00  0.00000000000E+00  0.35527136788E-14  0.91188000000E+02  0.91188000000E+02 0.  0.
    9900012    2    3    3    0    0  0.16590938870E+02  0.12642346070E+02 -0.30342900128E+02  0.54367085360E+02  0.40000002695E+02 0.  0.
         12    1    3    3    0    0 -0.16590938870E+02 -0.12642346070E+02  0.30342900128E+02  0.36820914640E+02  0.00000000000E+00 0. -1.
         11    1    4    4    0    0  0.12994555055E+01 -0.26210100566E+01 -0.87628701906E+01  0.92382992248E+01  0.51100000000E-03 0. -1.
        -11    1    4    4    0    0 -0.30408483814E+01 -0.31922440269E+01  0.58501319581E+01  0.73253822421E+01  0.51100000000E-03 0.  1.
        -12    1    4    4    0    0  0.18332331746E+02  0.18455600154E+02 -0.27430161896E+02  0.37803403893E+02  0.00000000000E+00 0.  1.
</event>
<event>
 8    1  0.2450026E-006  0.9118800E+02  0.7816164E-02  0.1184000E+00
        -11   -1    0    0    0    0  0.00000000000E+00  0.00000000000E+00  0.45593999997E+02  0.45594000000E+02  0.51100000000E-03 0.  1.
         11   -1    0    0    0    0 -0.00000000000E+00 -0.00000000000E+00 -0.45593999997E+02  0.45594000000E+02  0.51100000000E-03 0. -1.
         23    2    1    2    0    0  0.00000000000E+00  0.00000000000E+00  0.71054273576E-14  0.91188000000E+02  0.91188000000E+02 0.  0.
    9900012    2    3    3    0    0 -0.11192680531E+02 -0.73695323146E+01  0.34295685169E+02  0.54367080332E+02  0.39999991233E+02 0.  0.
         12    1    3    3    0    0  0.11192680531E+02  0.73695323146E+01 -0.34295685169E+02  0.36820919668E+02  0.00000000000E+00 0. -1.
         11    1    4    4    0    0 -0.14368759082E+02  0.12893524719E+02  0.82437566332E+01  0.20991992305E+02  0.51100000000E-03 0. -1.
        -11    1    4    4    0    0  0.31803903996E+01 -0.10283650509E+02  0.15281909955E+02  0.18692381417E+02  0.51100000000E-03 0.  1.
         12    1    4    4    0    0 -0.43118488026E-02 -0.99794065248E+01  0.10770018580E+02  0.14682706610E+02  0.00000000000E+00 0. -1.
</event>
<event>
 8    1  0.2450026E-006  0.9118800E+02  0.7816164E-02  0.1184000E+00
        -11   -1    0    0    0    0  0.00000000000E+00  0.00000000000E+00  0.45593999997E+02  0.45594000000E+02  0.51100000000E-03 0.  1.
         11   -1    0    0    0    0 -0.00000000000E+00 -0.00000000000E+00 -0.45593999997E+02  0.45594000000E+02  0.51100000000E-03 0. -1.
         23    2    1    2    0    0  0.00000000000E+00 -0.35527136788E-14  0.00000000000E+00  0.91188000000E+02  0.91188000000E+02 0.  0.
    9900012    2    3    3    0    0  0.85787935643E+01 -0.30319826214E+02 -0.19049712367E+02  0.54367094227E+02  0.40000022910E+02 0.  0.
        -12    1    3    3    0    0 -0.85787935643E+01  0.30319826214E+02  0.19049712367E+02  0.36820905773E+02  0.00000000000E+00 0.  1.
         11    1    4    4    0    0  0.70717248539E+01  0.33107022078E+01 -0.70549618692E+01  0.10523427614E+02  0.51100000000E-03 0. -1.
        -11    1    4    4    0    0  0.10561214374E+02 -0.29443610022E+02 -0.12881521892E+02  0.33828967272E+02  0.51100000000E-03 0.  1.
        -12    1    4    4    0    0 -0.90541456636E+01 -0.41869183990E+01  0.88677139399E+00  0.10014699341E+02  0.00000000000E+00 0.  1.
</event>
<event>
 8    1  0.2450026E-006  0.9118800E+02  0.7816164E-02  0.1184000E+00
        -11   -1    0    0    0    0  0.00000000000E+00  0.00000000000E+00  0.45593999997E+02  0.45594000000E+02  0.51100000000E-03 0. -1.
         11   -1    0    0    0    0 -0.00000000000E+00 -0.00000000000E+00 -0.45593999997E+02  0.45594000000E+02  0.51100000000E-03 0.  1.
         23    2    1    2    0    0  0.00000000000E+00  0.00000000000E+00 -0.35527136788E-14  0.91188000000E+02  0.91188000000E+02 0.  0.
    9900012    2    3    3    0    0  0.28093869861E+02  0.83598235589E+01  0.22285162100E+02  0.54367073565E+02  0.39999975807E+02 0.  0.
        -12    1    3    3    0    0 -0.28093869861E+02 -0.83598235589E+01 -0.22285162100E+02  0.36820926435E+02  0.00000000000E+00 0.  1.
         11    1    4    4    0    0  0.19411141158E+02  0.60320895953E+01  0.19016658126E+02  0.27835441303E+02  0.51100000000E-03 0. -1.
        -11    1    4    4    0    0  0.22891070155E+01  0.88165093750E+01 -0.79431685373E+01  0.12085726092E+02  0.51100000000E-03 0.  1.
         12    1    4    4    0    0  0.63936216870E+01 -0.64887754114E+01  0.11211672511E+02  0.14445906171E+02  0.00000000000E+00 0. -1.
</event>
<event>
 8    1  0.2450026E-006  0.9118800E+02  0.7816164E-02  0.1184000E+00
        -11   -1    0    0    0    0  0.00000000000E+00  0.00000000000E+00  0.45593999997E+02  0.45594000000E+02  0.51100000000E-03 0.  1.
         11   -1    0    0    0    0 -0.00000000000E+00 -0.00000000000E+00 -0.45593999997E+02  0.45594000000E+02  0.51100000000E-03 0. -1.
         23    2    1    2    0    0 -0.17763568394E-14  0.35527136788E-14  0.00000000000E+00  0.91188000000E+02  0.91188000000E+02 0.  0.
    9900012    2    3    3    0    0 -0.10214149794E+02  0.10445671309E+02  0.33798511800E+02  0.54367077890E+02  0.39999985666E+02 0.  0.
         12    1    3    3    0    0  0.10214149794E+02 -0.10445671309E+02 -0.33798511800E+02  0.36820922110E+02  0.00000000000E+00 0. -1.
         11    1    4    4    0    0  0.20122953626E+01  0.19028620764E+02  0.16746289135E+02  0.25427857575E+02  0.51100000000E-03 0. -1.
        -11    1    4    4    0    0  0.45408639198E+01 -0.37588660232E+01  0.35909133105E+01  0.69024037540E+01  0.51100000000E-03 0.  1.
        -12    1    4    4    0    0 -0.16767309076E+02 -0.48240834312E+01  0.13461309355E+02  0.22036816561E+02  0.00000000000E+00 0.  1.
</event>
<event>
 8    1  0.2450026E-006  0.9118800E+02  0.7816164E-02  0.1184000E+00
        -11   -1    0    0    0    0  0.00000000000E+00  0.00000000000E+00  0.45593999997E+02  0.45594000000E+02  0.51100000000E-03 0. -1.
         11   -1    0    0    0    0 -0.00000000000E+00 -0.00000000000E+00 -0.45593999997E+02  0.45594000000E+02  0.51100000000E-03 0.  1.
         23    2    1    2    0    0  0.22204460493E-15  0.00000000000E+00 -0.35527136788E-14  0.91188000000E+02  0.91188000000E+02 0.  0.
    9900012    2    3    3    0    0  0.13917218628E+01  0.30909077800E+02  0.19961730915E+02  0.54367099939E+02  0.40000035931E+02 0.  0.
        -12    1    3    3    0    0 -0.13917218628E+01 -0.30909077800E+02 -0.19961730915E+02  0.36820900061E+02  0.00000000000E+00 0.  1.
         11    1    4    4    0    0 -0.35773249904E+01 -0.18652052027E+01  0.40797241932E+01  0.57376296751E+01  0.51100000000E-03 0. -1.
        -11    1    4    4    0    0  0.88646109318E+01  0.29449009561E+02 -0.12185091752E+01  0.30778405676E+02  0.51100000000E-03 0.  1.
        -12    1    4    4    0    0 -0.38955640786E+01  0.33252734410E+01  0.17100515897E+02  0.17851064588E+02  0.00000000000E+00 0.  1.
</event>
<event>
 8    1  0.2450026E-006  0.9118800E+02  0.7816164E-02  0.1184000E+00
        -11   -1    0    0    0    0  0.00000000000E+00  0.00000000000E+00  0.45593999997E+02  0.45594000000E+02  0.51100000000E-03 0. -1.
         11   -1    0    0    0    0 -0.00000000000E+00 -0.00000000000E+00 -0.45593999997E+02  0.45594000000E+02  0.51100000000E-03 0.  1.
         23    2    1    2    0    0  0.00000000000E+00  0.00000000000E+00  0.71054273576E-14  0.91188000000E+02  0.91188000000E+02 0.  0.
    9900012    2    3    3    0    0 -0.26991825205E+02  0.12075929408E+02 -0.21940668761E+02  0.54367086857E+02  0.40000006108E+02 0.  0.
         12    1    3    3    0    0  0.26991825205E+02 -0.12075929408E+02  0.21940668761E+02  0.36820913143E+02  0.00000000000E+00 0. -1.
         11    1    4    4    0    0 -0.65805816451E+01 -0.26157771325E+01  0.10899136077E+01  0.71647928601E+01  0.51100000000E-03 0. -1.
        -11    1    4    4    0    0 -0.23030125557E+02  0.59872904283E+01 -0.15132315872E+01  0.23843745510E+02  0.51100000000E-03 0.  1.
         12    1    4    4    0    0  0.26188819965E+01  0.87044161121E+01 -0.21517350782E+02  0.23358548487E+02  0.00000000000E+00 0. -1.
</event>
<event>
 8    1  0.2450026E-006  0.9118800E+02  0.7816164E-02  0.1184000E+00
        -11   -1    0    0    0    0  0.00000000000E+00  0.00000000000E+00  0.45593999997E+02  0.45594000000E+02  0.51100000000E-03 0.  1.
         11   -1    0    0    0    0 -0.00000000000E+00 -0.00000000000E+00 -0.45593999997E+02  0.45594000000E+02  0.51100000000E-03 0. -1.
         23    2    1    2    0    0  0.00000000000E+00  0.00000000000E+00 -0.35527136788E-14  0.91188000000E+02  0.91188000000E+02 0.  0.
    9900012    2    3    3    0    0 -0.74187719493E+01  0.24356266640E+02 -0.26599136937E+02  0.54367082200E+02  0.39999995490E+02 0.  0.
        -12    1    3    3    0    0  0.74187719493E+01 -0.24356266640E+02  0.26599136937E+02  0.36820917800E+02  0.00000000000E+00 0.  1.
         11    1    4    4    0    0 -0.13158084286E+02  0.18462420951E+02 -0.78300478444E+01  0.23985533535E+02  0.51100000000E-03 0. -1.
        -11    1    4    4    0    0  0.13461117894E+01 -0.13971057030E+01 -0.21387794689E+02  0.21475606701E+02  0.51100000000E-03 0.  1.
         12    1    4    4    0    0  0.43932005476E+01  0.72909513921E+01  0.26187055957E+01  0.89059419631E+01  0.00000000000E+00 0. -1.
</event>
<event>
 8    1  0.2450026E-006  0.9118800E+02  0.7816164E-02  0.1184000E+00
        -11   -1    0    0    0    0  0.00000000000E+00  0.00000000000E+00  0.45593999997E+02  0.45594000000E+02  0.51100000000E-03 0.  1.
         11   -1    0    0    0    0 -0.00000000000E+00 -0.00000000000E+00 -0.45593999997E+02  0.45594000000E+02  0.51100000000E-03 0. -1.
         23    2    1    2    0    0 -0.35527136788E-14 -0.44408920985E-15 -0.35527136788E-14  0.91188000000E+02  0.91188000000E+02 0.  0.
    9900012    2    3    3    0    0  0.24530190332E+02  0.26704149686E+01  0.27329863425E+02  0.54367044164E+02  0.39999908781E+02 0.  0.
         12    1    3    3    0    0 -0.24530190332E+02 -0.26704149686E+01 -0.27329863425E+02  0.36820955836E+02  0.00000000000E+00 0. -1.
         11    1    4    4    0    0  0.29344960118E+02  0.64356153631E+01  0.15584913093E+02  0.33844251296E+02  0.51100000000E-03 0. -1.
        -11    1    4    4    0    0  0.39469517533E+01 -0.61873280844E+01  0.30630410096E+01  0.79525893554E+01  0.51100000000E-03 0.  1.
        -12    1    4    4    0    0 -0.87617215390E+01  0.24221276899E+01  0.86819093220E+01  0.12570203513E+02  0.00000000000E+00 0.  1.
</event>
<event>
 8    1  0.2450026E-006  0.9118800E+02  0.7816164E-02  0.1184000E+00
        -11   -1    0    0    0    0  0.00000000000E+00  0.00000000000E+00  0.45593999997E+02  0.45594000000E+02  0.51100000000E-03 0. -1.
         11   -1    0    0    0    0 -0.00000000000E+00 -0.00000000000E+00 -0.45593999997E+02  0.45594000000E+02  0.51100000000E-03 0.  1.
         23    2    1    2    0    0  0.00000000000E+00  0.00000000000E+00  0.88817841970E-15  0.91188000000E+02  0.91188000000E+02 0.  0.
    9900012    2    3    3    0    0  0.96847909408E+01 -0.34742455092E+02 -0.74123696345E+01  0.54367128405E+02  0.40000100826E+02 0.  0.
        -12    1    3    3    0    0 -0.96847909408E+01  0.34742455092E+02  0.74123696345E+01  0.36820871595E+02  0.00000000000E+00 0.  1.
         11    1    4    4    0    0 -0.10042908750E+01 -0.13463415013E+02 -0.16724698852E+02  0.21493899040E+02  0.51100000000E-03 0. -1.
        -11    1    4    4    0    0  0.29995508406E+01  0.94929461693E+00 -0.45797018389E+01  0.55562698557E+01  0.51100000000E-03 0.  1.
         12    1    4    4    0    0  0.76895309753E+01 -0.22228334696E+02  0.13892031057E+02  0.27316959510E+02  0.00000000000E+00 0. -1.
</event>
<event>
 8    1  0.2450026E-006  0.9118800E+02  0.7816164E-02  0.1184000E+00
        -11   -1    0    0    0    0  0.00000000000E+00  0.00000000000E+00  0.45593999997E+02  0.45594000000E+02  0.51100000000E-03 0.  1.
         11   -1    0    0    0    0 -0.00000000000E+00 -0.00000000000E+00 -0.45593999997E+02  0.45594000000E+02  0.51100000000E-03 0. -1.
         23    2    1    2    0    0 -0.17763568394E-14  0.35527136788E-14  0.00000000000E+00  0.91188000000E+02  0.91188000000E+02 0.  0.
    9900012    2    3    3    0    0 -0.95501476780E+01  0.26669436475E+02 -0.23522640955E+02  0.54367098326E+02  0.40000032254E+02 0.  0.
        -12    1    3    3    0    0  0.95501476780E+01 -0.26669436475E+02  0.23522640955E+02  0.36820901674E+02  0.00000000000E+00 0.  1.
         11    1    4    4    0    0  0.12090238131E+01 -0.63313283404E+01 -0.13719711671E+02  0.15158428208E+02  0.51100000000E-03 0. -1.
        -11    1    4    4    0    0 -0.52529639001E+01  0.89854637305E+00 -0.60282252757E+00  0.53632462726E+01  0.51100000000E-03 0.  1.
        -12    1    4    4    0    0 -0.55062075910E+01  0.32102218442E+02 -0.92001067568E+01  0.33845423846E+02  0.00000000000E+00 0.  1.
</event>
<event>
 8    1  0.2450026E-006  0.9118800E+02  0.7816164E-02  0.1184000E+00
        -11   -1    0    0    0    0  0.00000000000E+00  0.00000000000E+00  0.45593999997E+02  0.45594000000E+02  0.51100000000E-03 0. -1.
         11   -1    0    0    0    0 -0.00000000000E+00 -0.00000000000E+00 -0.45593999997E+02  0.45594000000E+02  0.51100000000E-03 0.  1.
         23    2    1    2    0    0  0.00000000000E+00  0.00000000000E+00  0.00000000000E+00  0.91188000000E+02  0.91188000000E+02 0.  0.
    9900012    2    3    3    0    0 -0.29981744642E+02  0.21241613599E+02 -0.23807963122E+01  0.54367090843E+02  0.40000015195E+02 0.  0.
         12    1    3    3    0    0  0.29981744642E+02 -0.21241613599E+02  0.23807963122E+01  0.36820909157E+02  0.00000000000E+00 0. -1.
         11    1    4    4    0    0 -0.20153179374E+02  0.92562049856E+01 -0.31071883240E+00  0.22179371408E+02  0.51100000000E-03 0. -1.
        -11    1    4    4    0    0 -0.15384342059E+02  0.18587409302E+01  0.74737657859E+01  0.17204362055E+02  0.51100000000E-03 0.  1.
        -12    1    4    4    0    0  0.55557767903E+01  0.10126667683E+02 -0.95438432657E+01  0.14983357380E+02  0.00000000000E+00 0.  1.
</event>
<event>
 8    1  0.2450026E-006  0.9118800E+02  0.7816164E-02  0.1184000E+00
        -11   -1    0    0    0    0  0.00000000000E+00  0.00000000000E+00  0.45593999997E+02  0.45594000000E+02  0.51100000000E-03 0. -1.
         11   -1    0    0    0    0 -0.00000000000E+00 -0.00000000000E+00 -0.45593999997E+02  0.45594000000E+02  0.51100000000E-03 0.  1.
         23    2    1    2    0    0 -0.35527136788E-14 -0.35527136788E-14  0.00000000000E+00  0.91188000000E+02  0.91188000000E+02 0.  0.
    9900012    2    3    3    0    0 -0.20523671124E+02  0.26133964240E+02  0.15861118802E+02  0.54367078597E+02  0.39999987278E+02 0.  0.
        -12    1    3    3    0    0  0.20523671124E+02 -0.26133964240E+02 -0.15861118802E+02  0.36820921403E+02  0.00000000000E+00 0.  1.
         11    1    4    4    0    0  0.35014067549E+01  0.63585642986E+00  0.89670718546E+01  0.96474110812E+01  0.51100000000E-03 0. -1.
        -11    1    4    4    0    0 -0.16990551201E+02  0.87808777894E+00  0.85890107370E+01  0.19058357063E+02  0.51100000000E-03 0.  1.
        -12    1    4    4    0    0 -0.70345266782E+01  0.24620020031E+02 -0.16949637892E+01  0.25661310453E+02  0.00000000000E+00 0.  1.
</event>
<event>
 8    1  0.2450026E-006  0.9118800E+02  0.7816164E-02  0.1184000E+00
        -11   -1    0    0    0    0  0.00000000000E+00  0.00000000000E+00  0.45593999997E+02  0.45594000000E+02  0.51100000000E-03 0.  1.
         11   -1    0    0    0    0 -0.00000000000E+00 -0.00000000000E+00 -0.45593999997E+02  0.45594000000E+02  0.51100000000E-03 0. -1.
         23    2    1    2    0    0  0.00000000000E+00  0.00000000000E+00  0.17763568394E-14  0.91188000000E+02  0.91188000000E+02 0.  0.
    9900012    2    3    3    0    0 -0.29466603390E+02  0.16850997319E+02 -0.14266833421E+02  0.54367090698E+02  0.40000014864E+02 0.  0.
        -12    1    3    3    0    0  0.29466603390E+02 -0.16850997319E+02  0.14266833421E+02  0.36820909302E+02  0.00000000000E+00 0.  1.
         11    1    4    4    0    0 -0.22187447902E+02  0.11238663743E+01  0.15753042429E+01  0.22271674920E+02  0.51100000000E-03 0. -1.
        -11    1    4    4    0    0  0.58498063395E+01  0.13239052055E+02 -0.94227980442E+01  0.17270838334E+02  0.51100000000E-03 0.  1.
        -12    1    4    4    0    0 -0.13128961828E+02  0.24880788895E+01 -0.64193396196E+01  0.14824577444E+02  0.00000000000E+00 0.  1.
</event>
<event>
 8    1  0.2450026E-006  0.9118800E+02  0.7816164E-02  0.1184000E+00
        -11   -1    0    0    0    0  0.00000000000E+00  0.00000000000E+00  0.45593999997E+02  0.45594000000E+02  0.51100000000E-03 0.  1.
         11   -1    0    0    0    0 -0.00000000000E+00 -0.00000000000E+00 -0.45593999997E+02  0.45594000000E+02  0.51100000000E-03 0. -1.
         23    2    1    2    0    0  0.00000000000E+00  0.00000000000E+00  0.00000000000E+00  0.91188000000E+02  0.91188000000E+02 0.  0.
    9900012    2    3    3    0    0 -0.17759328606E+02  0.26798908647E+02  0.17950022617E+02  0.54367101462E+02  0.40000039402E+02 0.  0.
         12    1    3    3    0    0  0.17759328606E+02 -0.26798908647E+02 -0.17950022617E+02  0.36820898538E+02  0.00000000000E+00 0. -1.
         11    1    4    4    0    0  0.44416543154E+01  0.20496014567E+02 -0.67993903677E+00  0.20982783980E+02  0.51100000000E-03 0. -1.
        -11    1    4    4    0    0 -0.17098418305E+02 -0.24360716936E+01  0.14106064648E+02  0.22299583269E+02  0.51100000000E-03 0.  1.
         12    1    4    4    0    0 -0.51025646162E+01  0.87389657742E+01  0.45238970050E+01  0.11084734213E+02  0.00000000000E+00 0. -1.
</event>
<event>
 8    1  0.2450026E-006  0.9118800E+02  0.7816164E-02  0.1184000E+00
        -11   -1    0    0    0    0  0.00000000000E+00  0.00000000000E+00  0.45593999997E+02  0.45594000000E+02  0.51100000000E-03 0. -1.
         11   -1    0    0    0    0 -0.00000000000E+00 -0.00000000000E+00 -0.45593999997E+02  0.45594000000E+02  0.51100000000E-03 0.  1.
         23    2    1    2    0    0  0.00000000000E+00  0.44408920985E-15  0.35527136788E-14  0.91188000000E+02  0.91188000000E+02 0.  0.
    9900012    2    3    3    0    0  0.31527039209E+02  0.22612991304E+01 -0.18886777902E+02  0.54367108449E+02  0.40000055331E+02 0.  0.
         12    1    3    3    0    0 -0.31527039209E+02 -0.22612991304E+01  0.18886777902E+02  0.36820891551E+02  0.00000000000E+00 0. -1.
         11    1    4    4    0    0 -0.60797982742E+00 -0.52954101929E+01  0.36746667685E+01  0.64741165190E+01  0.51100000000E-03 0. -1.
        -11    1    4    4    0    0  0.33502710527E+01 -0.79509656522E+01 -0.90572851062E+00  0.86753971278E+01  0.51100000000E-03 0.  1.
        -12    1    4    4    0    0  0.28784747984E+02  0.15507674975E+02 -0.21655716160E+02  0.39217594802E+02  0.00000000000E+00 0.  1.
</event>
<event>
 8    1  0.2450026E-006  0.9118800E+02  0.7816164E-02  0.1184000E+00
        -11   -1    0    0    0    0  0.00000000000E+00  0.00000000000E+00  0.45593999997E+02  0.45594000000E+02  0.51100000000E-03 0. -1.
         11   -1    0    0    0    0 -0.00000000000E+00 -0.00000000000E+00 -0.45593999997E+02  0.45594000000E+02  0.51100000000E-03 0.  1.
         23    2    1    2    0    0  0.00000000000E+00  0.24424906542E-14  0.00000000000E+00  0.91188000000E+02  0.91188000000E+02 0.  0.
    9900012    2    3    3    0    0 -0.24909961775E+02  0.17141961812E+01  0.27061689400E+02  0.54367086142E+02  0.40000004478E+02 0.  0.
        -12    1    3    3    0    0  0.24909961775E+02 -0.17141961812E+01 -0.27061689400E+02  0.36820913858E+02  0.00000000000E+00 0.  1.
         11    1    4    4    0    0  0.15592643852E+01  0.12904124026E+02  0.20464822471E+02  0.24243693641E+02  0.51100000000E-03 0. -1.
        -11    1    4    4    0    0 -0.11243040518E+02 -0.76736156852E+01  0.15418107480E+01  0.13699179479E+02  0.51100000000E-03 0.  1.
         12    1    4    4    0    0 -0.15226185642E+02 -0.35163121595E+01  0.50550561803E+01  0.16424213022E+02  0.00000000000E+00 0. -1.
</event>
<event>
 8    1  0.2450026E-006  0.9118800E+02  0.7816164E-02  0.1184000E+00
        -11   -1    0    0    0    0  0.00000000000E+00  0.00000000000E+00  0.45593999997E+02  0.45594000000E+02  0.51100000000E-03 0.  1.
         11   -1    0    0    0    0 -0.00000000000E+00 -0.00000000000E+00 -0.45593999997E+02  0.45594000000E+02  0.51100000000E-03 0. -1.
         23    2    1    2    0    0  0.88817841970E-15 -0.35527136788E-14 -0.35527136788E-14  0.91188000000E+02  0.91188000000E+02 0.  0.
    9900012    2    3    3    0    0 -0.62557078811E+01 -0.25166352809E+02  0.26140022662E+02  0.54367082309E+02  0.39999995740E+02 0.  0.
         12    1    3    3    0    0  0.62557078811E+01  0.25166352809E+02 -0.26140022662E+02  0.36820917691E+02  0.00000000000E+00 0. -1.
         11    1    4    4    0    0 -0.15644705573E+00 -0.10843477173E+02 -0.13532614409E+01  0.10928713999E+02  0.51100000000E-03 0. -1.
        -11    1    4    4    0    0 -0.34298594726E+00 -0.22952935473E+02  0.21533856928E+02  0.31474781662E+02  0.51100000000E-03 0.  1.
         12    1    4    4    0    0 -0.57562748781E+01  0.86300598364E+01  0.59594271749E+01  0.11963586649E+02  0.00000000000E+00 0. -1.
</event>
<event>
 8    1  0.2450026E-006  0.9118800E+02  0.7816164E-02  0.1184000E+00
        -11   -1    0    0    0    0  0.00000000000E+00  0.00000000000E+00  0.45593999997E+02  0.45594000000E+02  0.51100000000E-03 0.  1.
         11   -1    0    0    0    0 -0.00000000000E+00 -0.00000000000E+00 -0.45593999997E+02  0.45594000000E+02  0.51100000000E-03 0. -1.
         23    2    1    2    0    0  0.00000000000E+00  0.00000000000E+00  0.00000000000E+00  0.91188000000E+02  0.91188000000E+02 0.  0.
    9900012    2    3    3    0    0 -0.14135748805E+02 -0.15629155117E+02  0.30194210004E+02  0.54367079293E+02  0.39999988864E+02 0.  0.
         12    1    3    3    0    0  0.14135748805E+02  0.15629155117E+02 -0.30194210004E+02  0.36820920707E+02  0.00000000000E+00 0. -1.
         11    1    4    4    0    0  0.34174029587E+01 -0.84874950735E+01 -0.40079539175E+01  0.99889894620E+01  0.51100000000E-03 0. -1.
        -11    1    4    4    0    0 -0.35379638678E+01  0.64093029507E+01  0.16475119599E+02  0.18028475218E+02  0.51100000000E-03 0.  1.
         12    1    4    4    0    0 -0.14015187896E+02 -0.13550962994E+02  0.17727044323E+02  0.26349614613E+02  0.00000000000E+00 0. -1.
</event>
<event>
 8    1  0.2450026E-006  0.9118800E+02  0.7816164E-02  0.1184000E+00
        -11   -1    0    0    0    0  0.00000000000E+00  0.00000000000E+00  0.45593999997E+02  0.45594000000E+02  0.51100000000E-03 0. -1.
         11   -1    0    0    0    0 -0.00000000000E+00 -0.00000000000E+00 -0.45593999997E+02  0.45594000000E+02  0.51100000000E-03 0.  1.
         23    2    1    2    0    0  0.00000000000E+00  0.00000000000E+00  0.00000000000E+00  0.91188000000E+02  0.91188000000E+02 0.  0.
    9900012    2    3    3    0    0 -0.10782598950E+02 -0.22579246808E+02  0.27012834090E+02  0.54367081596E+02  0.39999994115E+02 0.  0.
        -12    1    3    3    0    0  0.10782598950E+02  0.22579246808E+02 -0.27012834090E+02  0.36820918404E+02  0.00000000000E+00 0.  1.
         11    1    4    4    0    0  0.16717986470E+01 -0.26378102140E+01  0.93696074904E+00  0.32604982974E+01  0.51100000000E-03 0. -1.
        -11    1    4    4    0    0 -0.58326270195E+01 -0.14273598917E+02 -0.69765785841E+01  0.16924178355E+02  0.51100000000E-03 0.  1.
         12    1    4    4    0    0 -0.66217705776E+01 -0.56678376772E+01  0.33052451925E+02  0.34182404944E+02  0.00000000000E+00 0. -1.
</event>
<event>
 8    1  0.2450026E-006  0.9118800E+02  0.7816164E-02  0.1184000E+00
        -11   -1    0    0    0    0  0.00000000000E+00  0.00000000000E+00  0.45593999997E+02  0.45594000000E+02  0.51100000000E-03 0.  1.
         11   -1    0    0    0    0 -0.00000000000E+00 -0.00000000000E+00 -0.45593999997E+02  0.45594000000E+02  0.51100000000E-03 0. -1.
         23    2    1    2    0    0  0.00000000000E+00  0.00000000000E+00 -0.35527136788E-14  0.91188000000E+02  0.91188000000E+02 0.  0.
    9900012    2    3    3    0    0 -0.16249102513E+02 -0.94460123915E+01  0.31662575648E+02  0.54367093177E+02  0.40000020517E+02 0.  0.
         12    1    3    3    0    0  0.16249102513E+02  0.94460123915E+01 -0.31662575648E+02  0.36820906823E+02  0.00000000000E+00 0. -1.
         11    1    4    4    0    0  0.17443050976E+01 -0.46574723481E+01  0.18528032684E+02  0.19183916293E+02  0.51100000000E-03 0. -1.
        -11    1    4    4    0    0 -0.10026523337E+02 -0.15241837561E+02  0.27873319376E+01  0.18455730873E+02  0.51100000000E-03 0.  1.
         12    1    4    4    0    0 -0.79668842741E+01  0.10453297518E+02  0.10347211027E+02  0.16727446012E+02  0.00000000000E+00 0. -1.
</event>
<event>
 8    1  0.2450026E-006  0.9118800E+02  0.7816164E-02  0.1184000E+00
        -11   -1    0    0    0    0  0.00000000000E+00  0.00000000000E+00  0.45593999997E+02  0.45594000000E+02  0.51100000000E-03 0. -1.
         11   -1    0    0    0    0 -0.00000000000E+00 -0.00000000000E+00 -0.45593999997E+02  0.45594000000E+02  0.51100000000E-03 0.  1.
         23    2    1    2    0    0  0.17763568394E-14  0.00000000000E+00  0.55511151231E-15  0.91188000000E+02  0.91188000000E+02 0.  0.
    9900012    2    3    3    0    0 -0.12555622381E+02  0.34611979282E+02 -0.38391035711E+00  0.54367079991E+02  0.39999990455E+02 0.  0.
         12    1    3    3    0    0  0.12555622381E+02 -0.34611979282E+02  0.38391035711E+00  0.36820920009E+02  0.00000000000E+00 0. -1.
         11    1    4    4    0    0  0.28801781130E+01  0.19161029561E+02  0.78873544435E+01  0.20920106123E+02  0.51100000000E-03 0. -1.
        -11    1    4    4    0    0  0.18481823018E+01  0.45288299153E+01  0.65639727246E+01  0.81860745424E+01  0.51100000000E-03 0.  1.
        -12    1    4    4    0    0 -0.17283982796E+02  0.10922119805E+02 -0.14835237525E+02  0.25260899326E+02  0.00000000000E+00 0.  1.
</event>
<event>
 8    1  0.2450026E-006  0.9118800E+02  0.7816164E-02  0.1184000E+00
        -11   -1    0    0    0    0  0.00000000000E+00  0.00000000000E+00  0.45593999997E+02  0.45594000000E+02  0.51100000000E-03 0. -1.
         11   -1    0    0    0    0 -0.00000000000E+00 -0.00000000000E+00 -0.45593999997E+02  0.45594000000E+02  0.51100000000E-03 0.  1.
         23    2    1    2    0    0 -0.17763568394E-14  0.00000000000E+00  0.00000000000E+00  0.91188000000E+02  0.91188000000E+02 0.  0.
    9900012    2    3    3    0    0  0.14182301523E+02  0.17108292312E+02 -0.29358943883E+02  0.54367096585E+02  0.40000028286E+02 0.  0.
         12    1    3    3    0    0 -0.14182301523E+02 -0.17108292312E+02  0.29358943883E+02  0.36820903415E+02  0.00000000000E+00 0. -1.
         11    1    4    4    0    0 -0.77883604768E+01 -0.83023384133E+00 -0.52192591804E+01  0.94121471408E+01  0.51100000000E-03 0.  1.
        -11    1    4    4    0    0 -0.28140795894E+01  0.60707896392E+01  0.20457367635E+01  0.69970400846E+01  0.51100000000E-03 0. -1.
        -12    1    4    4    0    0  0.24784741589E+02  0.11867736514E+02 -0.26185421466E+02  0.37957909360E+02  0.00000000000E+00 0.  1.
</event>
<event>
 8    1  0.2450026E-006  0.9118800E+02  0.7816164E-02  0.1184000E+00
        -11   -1    0    0    0    0  0.00000000000E+00  0.00000000000E+00  0.45593999997E+02  0.45594000000E+02  0.51100000000E-03 0. -1.
         11   -1    0    0    0    0 -0.00000000000E+00 -0.00000000000E+00 -0.45593999997E+02  0.45594000000E+02  0.51100000000E-03 0.  1.
         23    2    1    2    0    0  0.00000000000E+00  0.66613381478E-15 -0.88817841970E-15  0.91188000000E+02  0.91188000000E+02 0.  0.
    9900012    2    3    3    0    0 -0.36441065529E+02 -0.11604026873E+01  0.51476245390E+01  0.54366867078E+02  0.39999505075E+02 0.  0.
        -12    1    3    3    0    0  0.36441065529E+02  0.11604026873E+01 -0.51476245390E+01  0.36821132922E+02  0.00000000000E+00 0.  1.
         11    1    4    4    0    0 -0.13333308183E+02  0.93061390401E+01 -0.62365584149E+01  0.17414821046E+02  0.51100000000E-03 0. -1.
        -11    1    4    4    0    0  0.24486647564E+01 -0.44325924472E+01 -0.40576775976E+01  0.64891126234E+01  0.51100000000E-03 0.  1.
         12    1    4    4    0    0 -0.25556422102E+02 -0.60339492801E+01  0.15441860552E+02  0.30462933408E+02  0.00000000000E+00 0. -1.
</event>
<event>
 8    1  0.2450026E-006  0.9118800E+02  0.7816164E-02  0.1184000E+00
        -11   -1    0    0    0    0  0.00000000000E+00  0.00000000000E+00  0.45593999997E+02  0.45594000000E+02  0.51100000000E-03 0. -1.
         11   -1    0    0    0    0 -0.00000000000E+00 -0.00000000000E+00 -0.45593999997E+02  0.45594000000E+02  0.51100000000E-03 0.  1.
         23    2    1    2    0    0 -0.44408920985E-15 -0.71054273576E-14  0.00000000000E+00  0.91188000000E+02  0.91188000000E+02 0.  0.
    9900012    2    3    3    0    0 -0.27272796329E+01 -0.35743850005E+02  0.84087646680E+01  0.54367242395E+02  0.40000360686E+02 0.  0.
         12    1    3    3    0    0  0.27272796329E+01  0.35743850005E+02 -0.84087646680E+01  0.36820757605E+02  0.00000000000E+00 0. -1.
         11    1    4    4    0    0  0.20543073390E+01 -0.11086070495E+02  0.96609669135E+01  0.14847741230E+02  0.51100000000E-03 0. -1.
        -11    1    4    4    0    0  0.32345523347E+01 -0.27138780371E+02  0.65024400587E+01  0.28093726272E+02  0.51100000000E-03 0.  1.
         12    1    4    4    0    0 -0.80161393066E+01  0.24810008610E+01 -0.77546423042E+01  0.11425774894E+02  0.00000000000E+00 0. -1.
</event>
<event>
 8    1  0.2450026E-006  0.9118800E+02  0.7816164E-02  0.1184000E+00
        -11   -1    0    0    0    0  0.00000000000E+00  0.00000000000E+00  0.45593999997E+02  0.45594000000E+02  0.51100000000E-03 0.  1.
         11   -1    0    0    0    0 -0.00000000000E+00 -0.00000000000E+00 -0.45593999997E+02  0.45594000000E+02  0.51100000000E-03 0. -1.
         23    2    1    2    0    0  0.00000000000E+00  0.00000000000E+00  0.00000000000E+00  0.91188000000E+02  0.91188000000E+02 0.  0.
    9900012    2    3    3    0    0  0.30794768364E+02  0.11404680286E+02  0.16655090812E+02  0.54367129003E+02  0.40000102189E+02 0.  0.
         12    1    3    3    0    0 -0.30794768364E+02 -0.11404680286E+02 -0.16655090812E+02  0.36820870997E+02  0.00000000000E+00 0. -1.
         11    1    4    4    0    0  0.68245175082E+01 -0.67789574680E+01  0.13589919336E+02  0.16649751091E+02  0.51100000000E-03 0. -1.
        -11    1    4    4    0    0  0.36956315277E+01  0.76310026929E+01 -0.85823309370E+01  0.12064257087E+02  0.51100000000E-03 0.  1.
        -12    1    4    4    0    0  0.20274619328E+02  0.10552635061E+02  0.11647502413E+02  0.25653120825E+02  0.00000000000E+00 0.  1.
</event>
<event>
 8    1  0.2450026E-006  0.9118800E+02  0.7816164E-02  0.1184000E+00
        -11   -1    0    0    0    0  0.00000000000E+00  0.00000000000E+00  0.45593999997E+02  0.45594000000E+02  0.51100000000E-03 0.  1.
         11   -1    0    0    0    0 -0.00000000000E+00 -0.00000000000E+00 -0.45593999997E+02  0.45594000000E+02  0.51100000000E-03 0. -1.
         23    2    1    2    0    0  0.00000000000E+00  0.00000000000E+00 -0.35527136788E-14  0.91188000000E+02  0.91188000000E+02 0.  0.
    9900012    2    3    3    0    0  0.31004515815E+02 -0.12528469436E+02  0.15412061381E+02  0.54367161018E+02  0.40000175172E+02 0.  0.
         12    1    3    3    0    0 -0.31004515815E+02  0.12528469436E+02 -0.15412061381E+02  0.36820838982E+02  0.00000000000E+00 0. -1.
         11    1    4    4    0    0  0.18831373269E+02  0.27963749564E+01 -0.98728679198E+01  0.21445602191E+02  0.51100000000E-03 0. -1.
        -11    1    4    4    0    0  0.11234087700E+02 -0.14727697285E+02  0.18985861818E+02  0.26524945674E+02  0.51100000000E-03 0.  1.
         12    1    4    4    0    0  0.93905484557E+00 -0.59714710763E+00  0.62990674831E+01  0.63966131529E+01  0.00000000000E+00 0. -1.
</event>
<event>
 8    1  0.2450026E-006  0.9118800E+02  0.7816164E-02  0.1184000E+00
        -11   -1    0    0    0    0  0.00000000000E+00  0.00000000000E+00  0.45593999997E+02  0.45594000000E+02  0.51100000000E-03 0.  1.
         11   -1    0    0    0    0 -0.00000000000E+00 -0.00000000000E+00 -0.45593999997E+02  0.45594000000E+02  0.51100000000E-03 0. -1.
         23    2    1    2    0    0  0.00000000000E+00 -0.17763568394E-14  0.00000000000E+00  0.91188000000E+02  0.91188000000E+02 0.  0.
    9900012    2    3    3    0    0 -0.14181629103E+02  0.15338116393E+02  0.30321670220E+02  0.54367080627E+02  0.39999991905E+02 0.  0.
         12    1    3    3    0    0  0.14181629103E+02 -0.15338116393E+02 -0.30321670220E+02  0.36820919373E+02  0.00000000000E+00 0. -1.
         11    1    4    4    0    0 -0.21783990765E+01  0.49178952535E+01 -0.61206059249E+01  0.81481858969E+01  0.51100000000E-03 0. -1.
        -11    1    4    4    0    0  0.17403747875E+01  0.13590707739E+02  0.13162580251E+02  0.18999730534E+02  0.51100000000E-03 0.  1.
         12    1    4    4    0    0 -0.13743604814E+02 -0.31704865997E+01  0.23279695895E+02  0.27219164196E+02  0.00000000000E+00 0. -1.
</event>
<event>
 8    1  0.2450026E-006  0.9118800E+02  0.7816164E-02  0.1184000E+00
        -11   -1    0    0    0    0  0.00000000000E+00  0.00000000000E+00  0.45593999997E+02  0.45594000000E+02  0.51100000000E-03 0.  1.
         11   -1    0    0    0    0 -0.00000000000E+00 -0.00000000000E+00 -0.45593999997E+02  0.45594000000E+02  0.51100000000E-03 0. -1.
         23    2    1    2    0    0 -0.88817841970E-15  0.35527136788E-14  0.00000000000E+00  0.91188000000E+02  0.91188000000E+02 0.  0.
    9900012    2    3    3    0    0  0.46258620705E+01 -0.26725989622E+02 -0.24901838418E+02  0.54367099987E+02  0.40000036041E+02 0.  0.
        -12    1    3    3    0    0 -0.46258620705E+01  0.26725989622E+02  0.24901838418E+02  0.36820900013E+02  0.00000000000E+00 0.  1.
         11    1    4    4    0    0 -0.56988835962E+01 -0.11914988428E+02 -0.20075752828E+02  0.24030815120E+02  0.51100000000E-03 0. -1.
        -11    1    4    4    0    0 -0.46253304096E+01 -0.13551472594E+02  0.72954233429E+00  0.14337654032E+02  0.51100000000E-03 0.  1.
         12    1    4    4    0    0  0.14950076076E+02 -0.12595286000E+01 -0.55556279245E+01  0.15998630836E+02  0.00000000000E+00 0. -1.
</event>
<event>
 8    1  0.2450026E-006  0.9118800E+02  0.7816164E-02  0.1184000E+00
        -11   -1    0    0    0    0  0.00000000000E+00  0.00000000000E+00  0.45593999997E+02  0.45594000000E+02  0.51100000000E-03 0.  1.
         11   -1    0    0    0    0 -0.00000000000E+00 -0.00000000000E+00 -0.45593999997E+02  0.45594000000E+02  0.51100000000E-03 0. -1.
         23    2    1    2    0    0  0.27755575616E-15  0.00000000000E+00  0.35527136788E-14  0.91188000000E+02  0.91188000000E+02 0.  0.
    9900012    2    3    3    0    0  0.34816314379E+00 -0.19629485040E+02  0.31150301645E+02  0.54367092989E+02  0.40000020088E+02 0.  0.
         12    1    3    3    0    0 -0.34816314379E+00  0.19629485040E+02 -0.31150301645E+02  0.36820907011E+02  0.00000000000E+00 0. -1.
         11    1    4    4    0    0  0.13858375887E+01  0.36074682776E+00 -0.80404131388E+01  0.81669411531E+01  0.51100000000E-03 0. -1.
        -11    1    4    4    0    0 -0.12189311848E+01 -0.37792332935E+01  0.22810868590E+02  0.23153922424E+02  0.51100000000E-03 0.  1.
        -12    1    4    4    0    0  0.18125673983E+00 -0.16210998575E+02  0.16379846193E+02  0.23046229412E+02  0.00000000000E+00 0.  1.
</event>
<event>
 8    1  0.2450026E-006  0.9118800E+02  0.7816164E-02  0.1184000E+00
        -11   -1    0    0    0    0  0.00000000000E+00  0.00000000000E+00  0.45593999997E+02  0.45594000000E+02  0.51100000000E-03 0. -1.
         11   -1    0    0    0    0 -0.00000000000E+00 -0.00000000000E+00 -0.45593999997E+02  0.45594000000E+02  0.51100000000E-03 0.  1.
         23    2    1    2    0    0  0.17763568394E-14  0.00000000000E+00  0.17763568394E-14  0.91188000000E+02  0.91188000000E+02 0.  0.
    9900012    2    3    3    0    0 -0.11159089371E+02  0.33331359235E+02  0.10967284567E+02  0.54366998998E+02  0.39999805815E+02 0.  0.
         12    1    3    3    0    0  0.11159089371E+02 -0.33331359235E+02 -0.10967284567E+02  0.36821001002E+02  0.00000000000E+00 0. -1.
         11    1    4    4    0    0 -0.89914976940E+01  0.19292801410E+02  0.25339952576E+00  0.21286696048E+02  0.51100000000E-03 0. -1.
        -11    1    4    4    0    0 -0.10452800166E+02  0.16715397316E+02  0.58471194303E+00  0.19723271206E+02  0.51100000000E-03 0.  1.
         12    1    4    4    0    0  0.82852084887E+01 -0.26768394923E+01  0.10129173098E+02  0.13357031744E+02  0.00000000000E+00 0. -1.
</event>
<event>
 8    1  0.2450026E-006  0.9118800E+02  0.7816164E-02  0.1184000E+00
        -11   -1    0    0    0    0  0.00000000000E+00  0.00000000000E+00  0.45593999997E+02  0.45594000000E+02  0.51100000000E-03 0.  1.
         11   -1    0    0    0    0 -0.00000000000E+00 -0.00000000000E+00 -0.45593999997E+02  0.45594000000E+02  0.51100000000E-03 0. -1.
         23    2    1    2    0    0  0.35527136788E-14  0.17763568394E-14  0.00000000000E+00  0.91188000000E+02  0.91188000000E+02 0.  0.
    9900012    2    3    3    0    0  0.20334308402E+02  0.67458949048E+01  0.29946431708E+02  0.54367082463E+02  0.39999996090E+02 0.  0.
         12    1    3    3    0    0 -0.20334308402E+02 -0.67458949048E+01 -0.29946431708E+02  0.36820917537E+02  0.00000000000E+00 0. -1.
         11    1    4    4    0    0  0.16560984063E+02 -0.10336289214E+02  0.16415103262E+02  0.25506091100E+02  0.51100000000E-03 0. -1.
        -11    1    4    4    0    0 -0.64676003377E+01  0.11762606310E+01  0.36056950307E+01  0.74976316338E+01  0.51100000000E-03 0.  1.
        -12    1    4    4    0    0  0.10240924676E+02  0.15905923487E+02  0.99256334151E+01  0.21363359729E+02  0.00000000000E+00 0.  1.
</event>
<event>
 8    1  0.2450026E-006  0.9118800E+02  0.7816164E-02  0.1184000E+00
        -11   -1    0    0    0    0  0.00000000000E+00  0.00000000000E+00  0.45593999997E+02  0.45594000000E+02  0.51100000000E-03 0. -1.
         11   -1    0    0    0    0 -0.00000000000E+00 -0.00000000000E+00 -0.45593999997E+02  0.45594000000E+02  0.51100000000E-03 0.  1.
         23    2    1    2    0    0  0.00000000000E+00 -0.17763568394E-14  0.00000000000E+00  0.91188000000E+02  0.91188000000E+02 0.  0.
    9900012    2    3    3    0    0  0.41285763395E+01  0.48030943696E+01  0.36272097802E+02  0.54367082887E+02  0.39999997057E+02 0.  0.
        -12    1    3    3    0    0 -0.41285763395E+01 -0.48030943696E+01 -0.36272097802E+02  0.36820917113E+02  0.00000000000E+00 0.  1.
         11    1    4    4    0    0  0.14752375087E+02 -0.14569793510E+01  0.19066426047E+02  0.24151272472E+02  0.51100000000E-03 0. -1.
        -11    1    4    4    0    0 -0.13682639053E+02 -0.24587361153E+01  0.15498186676E+02  0.20819552955E+02  0.51100000000E-03 0.  1.
        -12    1    4    4    0    0  0.30588403056E+01  0.87188098359E+01  0.17074850790E+01  0.93962574605E+01  0.00000000000E+00 0.  1.
</event>
<event>
 8    1  0.2450026E-006  0.9118800E+02  0.7816164E-02  0.1184000E+00
        -11   -1    0    0    0    0  0.00000000000E+00  0.00000000000E+00  0.45593999997E+02  0.45594000000E+02  0.51100000000E-03 0.  1.
         11   -1    0    0    0    0 -0.00000000000E+00 -0.00000000000E+00 -0.45593999997E+02  0.45594000000E+02  0.51100000000E-03 0. -1.
         23    2    1    2    0    0 -0.71054273576E-14 -0.88817841970E-15 -0.44408920985E-15  0.91188000000E+02  0.91188000000E+02 0.  0.
    9900012    2    3    3    0    0  0.36532071205E+02  0.38235862610E+01  0.25627975049E+01  0.54367082447E+02  0.39999996053E+02 0.  0.
        -12    1    3    3    0    0 -0.36532071205E+02 -0.38235862610E+01 -0.25627975049E+01  0.36820917553E+02  0.00000000000E+00 0.  1.
         11    1    4    4    0    0  0.25473728946E+00 -0.18389699336E+00 -0.53947953257E+01  0.54039361634E+01  0.51100000000E-03 0. -1.
        -11    1    4    4    0    0  0.42374426302E+01 -0.95123195244E+01  0.95799584076E+01  0.14149761345E+02  0.51100000000E-03 0.  1.
         12    1    4    4    0    0  0.32039891285E+02  0.13519802779E+02 -0.16223655770E+01  0.34813384938E+02  0.00000000000E+00 0. -1.
</event>
<event>
 8    1  0.2450026E-006  0.9118800E+02  0.7816164E-02  0.1184000E+00
        -11   -1    0    0    0    0  0.00000000000E+00  0.00000000000E+00  0.45593999997E+02  0.45594000000E+02  0.51100000000E-03 0.  1.
         11   -1    0    0    0    0 -0.00000000000E+00 -0.00000000000E+00 -0.45593999997E+02  0.45594000000E+02  0.51100000000E-03 0. -1.
         23    2    1    2    0    0  0.00000000000E+00  0.88817841970E-15 -0.35527136788E-14  0.91188000000E+02  0.91188000000E+02 0.  0.
    9900012    2    3    3    0    0  0.24216697276E+02 -0.66655206755E+01 -0.26924003487E+02  0.54367088053E+02  0.40000008835E+02 0.  0.
         12    1    3    3    0    0 -0.24216697276E+02  0.66655206755E+01  0.26924003487E+02  0.36820911947E+02  0.00000000000E+00 0. -1.
         11    1    4    4    0    0  0.97454626626E+01 -0.11480422225E+02 -0.17062205369E+01  0.15155372834E+02  0.51100000000E-03 0.  1.
        -11    1    4    4    0    0  0.15902118029E+02 -0.31734675087E+01 -0.26428218994E+02  0.31006435031E+02  0.51100000000E-03 0. -1.
         12    1    4    4    0    0 -0.14308834159E+01  0.79883690578E+01  0.12104360443E+01  0.82052801884E+01  0.00000000000E+00 0. -1.
</event>
<event>
 8    1  0.2450026E-006  0.9118800E+02  0.7816164E-02  0.1184000E+00
        -11   -1    0    0    0    0  0.00000000000E+00  0.00000000000E+00  0.45593999997E+02  0.45594000000E+02  0.51100000000E-03 0. -1.
         11   -1    0    0    0    0 -0.00000000000E+00 -0.00000000000E+00 -0.45593999997E+02  0.45594000000E+02  0.51100000000E-03 0.  1.
         23    2    1    2    0    0 -0.35527136788E-14  0.00000000000E+00  0.71054273576E-14  0.91188000000E+02  0.91188000000E+02 0.  0.
    9900012    2    3    3    0    0 -0.22142142083E+02  0.92488397531E+01  0.27927844205E+02  0.54367082376E+02  0.39999995891E+02 0.  0.
        -12    1    3    3    0    0  0.22142142083E+02 -0.92488397531E+01 -0.27927844205E+02  0.36820917624E+02  0.00000000000E+00 0.  1.
         11    1    4    4    0    0 -0.74454859835E+01 -0.73679744576E+01  0.93831713279E+01  0.14062937587E+02  0.51100000000E-03 0. -1.
        -11    1    4    4    0    0  0.65457725652E+01 -0.26816919778E+01  0.32752330008E+01  0.77952396890E+01  0.51100000000E-03 0.  1.
         12    1    4    4    0    0 -0.21242428664E+02  0.19298506188E+02  0.15269439876E+02  0.32508905100E+02  0.00000000000E+00 0. -1.
</event>
<event>
 8    1  0.2450026E-006  0.9118800E+02  0.7816164E-02  0.1184000E+00
        -11   -1    0    0    0    0  0.00000000000E+00  0.00000000000E+00  0.45593999997E+02  0.45594000000E+02  0.51100000000E-03 0.  1.
         11   -1    0    0    0    0 -0.00000000000E+00 -0.00000000000E+00 -0.45593999997E+02  0.45594000000E+02  0.51100000000E-03 0. -1.
         23    2    1    2    0    0 -0.88817841970E-15  0.00000000000E+00  0.71054273576E-14  0.91188000000E+02  0.91188000000E+02 0.  0.
    9900012    2    3    3    0    0  0.45798592614E+01  0.11230414544E+02  0.34766021429E+02  0.54367169378E+02  0.40000194230E+02 0.  0.
         12    1    3    3    0    0 -0.45798592614E+01 -0.11230414544E+02 -0.34766021429E+02  0.36820830622E+02  0.00000000000E+00 0. -1.
         11    1    4    4    0    0 -0.56876271254E+01  0.15463139987E+02  0.16500460063E+02  0.23317868323E+02  0.51100000000E-03 0.  1.
        -11    1    4    4    0    0 -0.52879908079E+01  0.18614958028E+01 -0.84092868263E+00  0.56687895285E+01  0.51100000000E-03 0. -1.
        -12    1    4    4    0    0  0.15555477195E+02 -0.60942212459E+01  0.19106490049E+02  0.25380511526E+02  0.00000000000E+00 0.  1.
</event>
<event>
 8    1  0.2450026E-006  0.9118800E+02  0.7816164E-02  0.1184000E+00
        -11   -1    0    0    0    0  0.00000000000E+00  0.00000000000E+00  0.45593999997E+02  0.45594000000E+02  0.51100000000E-03 0.  1.
         11   -1    0    0    0    0 -0.00000000000E+00 -0.00000000000E+00 -0.45593999997E+02  0.45594000000E+02  0.51100000000E-03 0. -1.
         23    2    1    2    0    0 -0.71054273576E-14  0.00000000000E+00  0.00000000000E+00  0.91188000000E+02  0.91188000000E+02 0.  0.
    9900012    2    3    3    0    0 -0.30937625394E+02 -0.16703141203E+02 -0.10938391219E+02  0.54367082120E+02  0.39999995309E+02 0.  0.
         12    1    3    3    0    0  0.30937625394E+02  0.16703141203E+02  0.10938391219E+02  0.36820917880E+02  0.00000000000E+00 0. -1.
         11    1    4    4    0    0 -0.10881128245E+02 -0.17169589799E+02 -0.19587364051E+02  0.28228683931E+02  0.51100000000E-03 0. -1.
        -11    1    4    4    0    0  0.16122946050E+01 -0.16672664843E+01  0.27148178647E+01  0.35706452810E+01  0.51100000000E-03 0.  1.
        -12    1    4    4    0    0 -0.21668791754E+02  0.21337150805E+01  0.59341549669E+01  0.22567752908E+02  0.00000000000E+00 0.  1.
</event>
<event>
 8    1  0.2450026E-006  0.9118800E+02  0.7816164E-02  0.1184000E+00
        -11   -1    0    0    0    0  0.00000000000E+00  0.00000000000E+00  0.45593999997E+02  0.45594000000E+02  0.51100000000E-03 0.  1.
         11   -1    0    0    0    0 -0.00000000000E+00 -0.00000000000E+00 -0.45593999997E+02  0.45594000000E+02  0.51100000000E-03 0. -1.
         23    2    1    2    0    0  0.17763568394E-14 -0.35527136788E-14  0.35527136788E-14  0.91188000000E+02  0.91188000000E+02 0.  0.
    9900012    2    3    3    0    0  0.11890805772E+02  0.18011348562E+02 -0.29832684036E+02  0.54366960149E+02  0.39999717251E+02 0.  0.
        -12    1    3    3    0    0 -0.11890805772E+02 -0.18011348562E+02  0.29832684036E+02  0.36821039851E+02  0.00000000000E+00 0.  1.
         11    1    4    4    0    0  0.37337000433E+01 -0.49916083901E+01 -0.17187764705E+01  0.64661320084E+01  0.51100000000E-03 0. -1.
        -11    1    4    4    0    0  0.83162227345E+01  0.29439708069E+01  0.42750198817E+01  0.98031790727E+01  0.51100000000E-03 0.  1.
         12    1    4    4    0    0 -0.15911700533E+00  0.20058986145E+02 -0.32388927447E+02  0.38097649068E+02  0.00000000000E+00 0. -1.
</event>
<event>
 8    1  0.2450026E-006  0.9118800E+02  0.7816164E-02  0.1184000E+00
        -11   -1    0    0    0    0  0.00000000000E+00  0.00000000000E+00  0.45593999997E+02  0.45594000000E+02  0.51100000000E-03 0.  1.
         11   -1    0    0    0    0 -0.00000000000E+00 -0.00000000000E+00 -0.45593999997E+02  0.45594000000E+02  0.51100000000E-03 0. -1.
         23    2    1    2    0    0 -0.17763568394E-14  0.00000000000E+00  0.00000000000E+00  0.91188000000E+02  0.91188000000E+02 0.  0.
    9900012    2    3    3    0    0  0.14314041373E+02  0.26842783173E+02  0.20744918083E+02  0.54367103553E+02  0.40000044169E+02 0.  0.
         12    1    3    3    0    0 -0.14314041373E+02 -0.26842783173E+02 -0.20744918083E+02  0.36820896447E+02  0.00000000000E+00 0. -1.
         11    1    4    4    0    0  0.23027146068E+02  0.85566709083E+01  0.37600515876E+01  0.24851641017E+02  0.51100000000E-03 0. -1.
        -11    1    4    4    0    0  0.34619221107E+01  0.43390747044E+01  0.29701889360E+01  0.62955934246E+01  0.51100000000E-03 0.  1.
         12    1    4    4    0    0 -0.12175026806E+02  0.13947037560E+02  0.14014677560E+02  0.23219869111E+02  0.00000000000E+00 0. -1.
</event>
<event>
 8    1  0.2450026E-006  0.9118800E+02  0.7816164E-02  0.1184000E+00
        -11   -1    0    0    0    0  0.00000000000E+00  0.00000000000E+00  0.45593999997E+02  0.45594000000E+02  0.51100000000E-03 0. -1.
         11   -1    0    0    0    0 -0.00000000000E+00 -0.00000000000E+00 -0.45593999997E+02  0.45594000000E+02  0.51100000000E-03 0.  1.
         23    2    1    2    0    0  0.35527136788E-14  0.00000000000E+00  0.00000000000E+00  0.91188000000E+02  0.91188000000E+02 0.  0.
    9900012    2    3    3    0    0 -0.28882733518E+02 -0.21031779549E+02 -0.89012329986E+01  0.54367082095E+02  0.39999995252E+02 0.  0.
         12    1    3    3    0    0  0.28882733518E+02  0.21031779549E+02  0.89012329986E+01  0.36820917905E+02  0.00000000000E+00 0. -1.
         11    1    4    4    0    0 -0.65791903951E+00  0.64239261333E+01  0.35742932448E+01  0.73807355250E+01  0.51100000000E-03 0. -1.
        -11    1    4    4    0    0 -0.24269231284E+02 -0.13562428823E+02  0.14847074989E+00  0.27802106152E+02  0.51100000000E-03 0.  1.
        -12    1    4    4    0    0 -0.39555831947E+01 -0.13893276860E+02 -0.12623996993E+02  0.19184240418E+02  0.00000000000E+00 0.  1.
</event>
<event>
 8    1  0.2450026E-006  0.9118800E+02  0.7816164E-02  0.1184000E+00
        -11   -1    0    0    0    0  0.00000000000E+00  0.00000000000E+00  0.45593999997E+02  0.45594000000E+02  0.51100000000E-03 0. -1.
         11   -1    0    0    0    0 -0.00000000000E+00 -0.00000000000E+00 -0.45593999997E+02  0.45594000000E+02  0.51100000000E-03 0.  1.
         23    2    1    2    0    0 -0.14210854715E-13 -0.35527136788E-14  0.66613381478E-15  0.91188000000E+02  0.91188000000E+02 0.  0.
    9900012    2    3    3    0    0  0.32682167432E+02  0.16952241420E+02  0.53042249207E+00  0.54367029002E+02  0.39999874216E+02 0.  0.
        -12    1    3    3    0    0 -0.32682167432E+02 -0.16952241420E+02 -0.53042249207E+00  0.36820970998E+02  0.00000000000E+00 0.  1.
         11    1    4    4    0    0  0.47223443434E+01  0.88557977531E+01  0.89266025417E+01  0.13431676111E+02  0.51100000000E-03 0. -1.
        -11    1    4    4    0    0 -0.32318989855E+01  0.47425595346E+01 -0.76390624735E+01  0.95547013416E+01  0.51100000000E-03 0.  1.
        -12    1    4    4    0    0  0.31191722074E+02  0.33538841325E+01 -0.75711757614E+00  0.31380651550E+02  0.00000000000E+00 0.  1.
</event>
<event>
 8    1  0.2450026E-006  0.9118800E+02  0.7816164E-02  0.1184000E+00
        -11   -1    0    0    0    0  0.00000000000E+00  0.00000000000E+00  0.45593999997E+02  0.45594000000E+02  0.51100000000E-03 0.  1.
         11   -1    0    0    0    0 -0.00000000000E+00 -0.00000000000E+00 -0.45593999997E+02  0.45594000000E+02  0.51100000000E-03 0. -1.
         23    2    1    2    0    0 -0.35527136788E-14  0.00000000000E+00  0.13322676296E-14  0.91188000000E+02  0.91188000000E+02 0.  0.
    9900012    2    3    3    0    0 -0.28871092213E+02  0.22708953008E+02  0.25580399402E+01  0.54367080938E+02  0.39999992613E+02 0.  0.
         12    1    3    3    0    0  0.28871092213E+02 -0.22708953008E+02 -0.25580399402E+01  0.36820919062E+02  0.00000000000E+00 0. -1.
         11    1    4    4    0    0  0.13152768823E+01  0.39439831348E+01  0.62948930604E+01  0.75439137818E+01  0.51100000000E-03 0. -1.
        -11    1    4    4    0    0 -0.19216108211E+02  0.12537474324E+02  0.12605049865E+02  0.26178891488E+02  0.51100000000E-03 0.  1.
         12    1    4    4    0    0 -0.10970260884E+02  0.62274955487E+01 -0.16341902985E+02  0.20644275668E+02  0.00000000000E+00 0. -1.
</event>
<event>
 8    1  0.2450026E-006  0.9118800E+02  0.7816164E-02  0.1184000E+00
        -11   -1    0    0    0    0  0.00000000000E+00  0.00000000000E+00  0.45593999997E+02  0.45594000000E+02  0.51100000000E-03 0.  1.
         11   -1    0    0    0    0 -0.00000000000E+00 -0.00000000000E+00 -0.45593999997E+02  0.45594000000E+02  0.51100000000E-03 0. -1.
         23    2    1    2    0    0  0.00000000000E+00  0.88817841970E-15 -0.35527136788E-14  0.91188000000E+02  0.91188000000E+02 0.  0.
    9900012    2    3    3    0    0 -0.24158554683E+02  0.58078703838E+01 -0.27173751181E+02  0.54367083715E+02  0.39999998946E+02 0.  0.
        -12    1    3    3    0    0  0.24158554683E+02 -0.58078703838E+01  0.27173751181E+02  0.36820916285E+02  0.00000000000E+00 0.  1.
         11    1    4    4    0    0  0.34773939997E+00  0.45431032614E+01  0.55160659101E+00  0.45896601210E+01  0.51100000000E-03 0. -1.
        -11    1    4    4    0    0 -0.16569196851E+02 -0.89418545149E+01  0.38945155468E+00  0.18832066249E+02  0.51100000000E-03 0.  1.
         12    1    4    4    0    0 -0.79370972323E+01  0.10206621637E+02 -0.28114809327E+02  0.30945357345E+02  0.00000000000E+00 0. -1.
</event>
<event>
 8    1  0.2450026E-006  0.9118800E+02  0.7816164E-02  0.1184000E+00
        -11   -1    0    0    0    0  0.00000000000E+00  0.00000000000E+00  0.45593999997E+02  0.45594000000E+02  0.51100000000E-03 0.  1.
         11   -1    0    0    0    0 -0.00000000000E+00 -0.00000000000E+00 -0.45593999997E+02  0.45594000000E+02  0.51100000000E-03 0. -1.
         23    2    1    2    0    0  0.00000000000E+00  0.17763568394E-14  0.00000000000E+00  0.91188000000E+02  0.91188000000E+02 0.  0.
    9900012    2    3    3    0    0  0.16917486549E+02 -0.53983568112E+01  0.32255817486E+02  0.54367063441E+02  0.39999952726E+02 0.  0.
         12    1    3    3    0    0 -0.16917486549E+02  0.53983568112E+01 -0.32255817486E+02  0.36820936559E+02  0.00000000000E+00 0. -1.
         11    1    4    4    0    0 -0.57416447121E+01 -0.16600107068E+02  0.13685906290E+02  0.22267331899E+02  0.51100000000E-03 0. -1.
        -11    1    4    4    0    0  0.13158693207E+02  0.35709828259E+01  0.71329331833E+01  0.15387717873E+02  0.51100000000E-03 0.  1.
         12    1    4    4    0    0  0.95004380541E+01  0.76307674310E+01  0.11436978012E+02  0.16712013669E+02  0.00000000000E+00 0. -1.
</event>
<event>
 8    1  0.2450026E-006  0.9118800E+02  0.7816164E-02  0.1184000E+00
        -11   -1    0    0    0    0  0.00000000000E+00  0.00000000000E+00  0.45593999997E+02  0.45594000000E+02  0.51100000000E-03 0.  1.
         11   -1    0    0    0    0 -0.00000000000E+00 -0.00000000000E+00 -0.45593999997E+02  0.45594000000E+02  0.51100000000E-03 0. -1.
         23    2    1    2    0    0  0.35527136788E-14 -0.35527136788E-14  0.88817841970E-15  0.91188000000E+02  0.91188000000E+02 0.  0.
    9900012    2    3    3    0    0  0.30548804667E+02  0.19759325698E+02  0.56674107695E+01  0.54367082528E+02  0.39999996239E+02 0.  0.
         12    1    3    3    0    0 -0.30548804667E+02 -0.19759325698E+02 -0.56674107695E+01  0.36820917472E+02  0.00000000000E+00 0. -1.
         11    1    4    4    0    0 -0.74944924035E+01  0.63865438024E+00  0.28798499347E+01  0.80541189283E+01  0.51100000000E-03 0. -1.
        -11    1    4    4    0    0  0.71844885890E+01 -0.19486900992E+01  0.48598157954E+01  0.88899988309E+01  0.51100000000E-03 0.  1.
        -12    1    4    4    0    0  0.30858808482E+02  0.21069361417E+02 -0.20722549605E+01  0.37422964769E+02  0.00000000000E+00 0.  1.
</event>
<event>
 8    1  0.2450026E-006  0.9118800E+02  0.7816164E-02  0.1184000E+00
        -11   -1    0    0    0    0  0.00000000000E+00  0.00000000000E+00  0.45593999997E+02  0.45594000000E+02  0.51100000000E-03 0. -1.
         11   -1    0    0    0    0 -0.00000000000E+00 -0.00000000000E+00 -0.45593999997E+02  0.45594000000E+02  0.51100000000E-03 0.  1.
         23    2    1    2    0    0  0.00000000000E+00 -0.35527136788E-14  0.17763568394E-14  0.91188000000E+02  0.91188000000E+02 0.  0.
    9900012    2    3    3    0    0 -0.26194596708E+02  0.24422041055E+02 -0.85549371092E+01  0.54367082916E+02  0.39999997123E+02 0.  0.
         12    1    3    3    0    0  0.26194596708E+02 -0.24422041055E+02  0.85549371092E+01  0.36820917084E+02  0.00000000000E+00 0. -1.
         11    1    4    4    0    0 -0.12991020704E+02 -0.15280237160E+01  0.79729848047E+01  0.15318941294E+02  0.51100000000E-03 0. -1.
        -11    1    4    4    0    0  0.48406637792E+01  0.16728576970E+01 -0.21111278799E+01  0.55396154997E+01  0.51100000000E-03 0.  1.
        -12    1    4    4    0    0 -0.18044239783E+02  0.24277207074E+02 -0.14416794034E+02  0.33508526122E+02  0.00000000000E+00 0.  1.
</event>
<event>
 8    1  0.2450026E-006  0.9118800E+02  0.7816164E-02  0.1184000E+00
        -11   -1    0    0    0    0  0.00000000000E+00  0.00000000000E+00  0.45593999997E+02  0.45594000000E+02  0.51100000000E-03 0.  1.
         11   -1    0    0    0    0 -0.00000000000E+00 -0.00000000000E+00 -0.45593999997E+02  0.45594000000E+02  0.51100000000E-03 0. -1.
         23    2    1    2    0    0  0.00000000000E+00  0.00000000000E+00  0.00000000000E+00  0.91188000000E+02  0.91188000000E+02 0.  0.
    9900012    2    3    3    0    0  0.18658331254E+02 -0.20512687309E+02  0.24225508927E+02  0.54367096310E+02  0.40000027657E+02 0.  0.
         12    1    3    3    0    0 -0.18658331254E+02  0.20512687309E+02 -0.24225508927E+02  0.36820903690E+02  0.00000000000E+00 0. -1.
         11    1    4    4    0    0  0.91963514558E+01 -0.20311557304E+02  0.10558210938E+02  0.24669982949E+02  0.51100000000E-03 0. -1.
        -11    1    4    4    0    0  0.14408546072E+02 -0.83514620640E+01  0.10321976164E+02  0.19593272077E+02  0.51100000000E-03 0.  1.
         12    1    4    4    0    0 -0.49465662733E+01  0.81503320594E+01  0.33453218250E+01  0.10103841284E+02  0.00000000000E+00 0. -1.
</event>
<event>
 8    1  0.2450026E-006  0.9118800E+02  0.7816164E-02  0.1184000E+00
        -11   -1    0    0    0    0  0.00000000000E+00  0.00000000000E+00  0.45593999997E+02  0.45594000000E+02  0.51100000000E-03 0.  1.
         11   -1    0    0    0    0 -0.00000000000E+00 -0.00000000000E+00 -0.45593999997E+02  0.45594000000E+02  0.51100000000E-03 0. -1.
         23    2    1    2    0    0 -0.35527136788E-14  0.00000000000E+00  0.35527136788E-14  0.91188000000E+02  0.91188000000E+02 0.  0.
    9900012    2    3    3    0    0 -0.27086361464E+02 -0.17517911443E+02  0.17754768811E+02  0.54367081839E+02  0.39999994668E+02 0.  0.
         12    1    3    3    0    0  0.27086361464E+02  0.17517911443E+02 -0.17754768811E+02  0.36820918161E+02  0.00000000000E+00 0. -1.
         11    1    4    4    0    0  0.13869270634E+01 -0.24735306832E+01 -0.10253861490E+02  0.10638777958E+02  0.51100000000E-03 0. -1.
        -11    1    4    4    0    0 -0.14501260821E+02 -0.28917650191E+01  0.96784662394E+01  0.17672622310E+02  0.51100000000E-03 0.  1.
         12    1    4    4    0    0 -0.13972027707E+02 -0.12152615741E+02  0.18330164062E+02  0.26055681571E+02  0.00000000000E+00 0. -1.
</event>
<event>
 8    1  0.2450026E-006  0.9118800E+02  0.7816164E-02  0.1184000E+00
        -11   -1    0    0    0    0  0.00000000000E+00  0.00000000000E+00  0.45593999997E+02  0.45594000000E+02  0.51100000000E-03 0. -1.
         11   -1    0    0    0    0 -0.00000000000E+00 -0.00000000000E+00 -0.45593999997E+02  0.45594000000E+02  0.51100000000E-03 0.  1.
         23    2    1    2    0    0  0.35527136788E-14  0.00000000000E+00  0.00000000000E+00  0.91188000000E+02  0.91188000000E+02 0.  0.
    9900012    2    3    3    0    0  0.30076879882E+02  0.15094734507E+02  0.14943823980E+02  0.54366978988E+02  0.39999760197E+02 0.  0.
        -12    1    3    3    0    0 -0.30076879882E+02 -0.15094734507E+02 -0.14943823980E+02  0.36821021012E+02  0.00000000000E+00 0.  1.
         11    1    4    4    0    0  0.19501999939E+01  0.82899944296E+01  0.81586593548E+01  0.11793685191E+02  0.51100000000E-03 0. -1.
        -11    1    4    4    0    0  0.42774647049E+01  0.47950846358E+01  0.15754167235E+02  0.17014209547E+02  0.51100000000E-03 0.  1.
        -12    1    4    4    0    0  0.23849215183E+02  0.20096554418E+01 -0.89690026105E+01  0.25559084249E+02  0.00000000000E+00 0.  1.
</event>
<event>
 8    1  0.2450026E-006  0.9118800E+02  0.7816164E-02  0.1184000E+00
        -11   -1    0    0    0    0  0.00000000000E+00  0.00000000000E+00  0.45593999997E+02  0.45594000000E+02  0.51100000000E-03 0. -1.
         11   -1    0    0    0    0 -0.00000000000E+00 -0.00000000000E+00 -0.45593999997E+02  0.45594000000E+02  0.51100000000E-03 0.  1.
         23    2    1    2    0    0  0.35527136788E-14  0.00000000000E+00  0.00000000000E+00  0.91188000000E+02  0.91188000000E+02 0.  0.
    9900012    2    3    3    0    0  0.29879908548E+02  0.18689359834E+02 -0.10662075103E+02  0.54367069114E+02  0.39999965658E+02 0.  0.
        -12    1    3    3    0    0 -0.29879908548E+02 -0.18689359834E+02  0.10662075103E+02  0.36820930886E+02  0.00000000000E+00 0.  1.
         11    1    4    4    0    0  0.16923983300E+02 -0.95559950297E+00  0.85988622619E+01  0.19007230562E+02  0.51100000000E-03 0. -1.
        -11    1    4    4    0    0 -0.11309023372E+01  0.13307069512E+02 -0.13166773676E+02  0.18754225347E+02  0.51100000000E-03 0.  1.
         12    1    4    4    0    0  0.14086827584E+02  0.63378898254E+01 -0.60941636892E+01  0.16605613205E+02  0.00000000000E+00 0. -1.
</event>
<event>
 8    1  0.2450026E-006  0.9118800E+02  0.7816164E-02  0.1184000E+00
        -11   -1    0    0    0    0  0.00000000000E+00  0.00000000000E+00  0.45593999997E+02  0.45594000000E+02  0.51100000000E-03 0. -1.
         11   -1    0    0    0    0 -0.00000000000E+00 -0.00000000000E+00 -0.45593999997E+02  0.45594000000E+02  0.51100000000E-03 0.  1.
         23    2    1    2    0    0  0.35527136788E-14  0.00000000000E+00  0.00000000000E+00  0.91188000000E+02  0.91188000000E+02 0.  0.
    9900012    2    3    3    0    0  0.18473712807E+02 -0.25662513991E+02  0.18866337317E+02  0.54367063388E+02  0.39999952606E+02 0.  0.
         12    1    3    3    0    0 -0.18473712807E+02  0.25662513991E+02 -0.18866337317E+02  0.36820936612E+02  0.00000000000E+00 0. -1.
         11    1    4    4    0    0  0.44741136743E+01 -0.14934085641E+02  0.21029792796E+02  0.26178173970E+02  0.51100000000E-03 0. -1.
        -11    1    4    4    0    0  0.14100383432E+02 -0.16795776616E+02 -0.67225417456E+00  0.21940165246E+02  0.51100000000E-03 0.  1.
        -12    1    4    4    0    0 -0.10078429977E+00  0.60673482659E+01 -0.14912013039E+01  0.62487241725E+01  0.00000000000E+00 0.  1.
</event>
<event>
 8    1  0.2450026E-006  0.9118800E+02  0.7816164E-02  0.1184000E+00
        -11   -1    0    0    0    0  0.00000000000E+00  0.00000000000E+00  0.45593999997E+02  0.45594000000E+02  0.51100000000E-03 0. -1.
         11   -1    0    0    0    0 -0.00000000000E+00 -0.00000000000E+00 -0.45593999997E+02  0.45594000000E+02  0.51100000000E-03 0.  1.
         23    2    1    2    0    0  0.00000000000E+00 -0.35527136788E-14  0.17763568394E-14  0.91188000000E+02  0.91188000000E+02 0.  0.
    9900012    2    3    3    0    0 -0.17512070122E+02 -0.28697567024E+02  0.15018630838E+02  0.54367051814E+02  0.39999926221E+02 0.  0.
        -12    1    3    3    0    0  0.17512070122E+02  0.28697567024E+02 -0.15018630838E+02  0.36820948186E+02  0.00000000000E+00 0.  1.
         11    1    4    4    0    0 -0.76540339517E+01 -0.35243805252E+02  0.41033951303E+01  0.36298042595E+02  0.51100000000E-03 0. -1.
        -11    1    4    4    0    0 -0.77192156325E+01  0.14618899636E+01  0.29748794504E+01  0.84007928347E+01  0.51100000000E-03 0.  1.
         12    1    4    4    0    0 -0.21388205376E+01  0.50843482646E+01  0.79403562576E+01  0.96682163849E+01  0.00000000000E+00 0. -1.
</event>
<event>
 8    1  0.2450026E-006  0.9118800E+02  0.7816164E-02  0.1184000E+00
        -11   -1    0    0    0    0  0.00000000000E+00  0.00000000000E+00  0.45593999997E+02  0.45594000000E+02  0.51100000000E-03 0.  1.
         11   -1    0    0    0    0 -0.00000000000E+00 -0.00000000000E+00 -0.45593999997E+02  0.45594000000E+02  0.51100000000E-03 0. -1.
         23    2    1    2    0    0  0.00000000000E+00  0.00000000000E+00  0.35527136788E-14  0.91188000000E+02  0.91188000000E+02 0.  0.
    9900012    2    3    3    0    0  0.61111063117E+01  0.27744849463E+02 -0.23423420179E+02  0.54367096902E+02  0.40000029007E+02 0.  0.
        -12    1    3    3    0    0 -0.61111063117E+01 -0.27744849463E+02  0.23423420179E+02  0.36820903098E+02  0.00000000000E+00 0.  1.
         11    1    4    4    0    0  0.80522733451E+01  0.22005288758E+02 -0.78727592401E+01  0.24719469607E+02  0.51100000000E-03 0. -1.
        -11    1    4    4    0    0 -0.36299336520E+01  0.49795418467E+01 -0.22047264237E+02  0.22892228286E+02  0.51100000000E-03 0.  1.
         12    1    4    4    0    0  0.16887666185E+01  0.76001885857E+00  0.64966032977E+01  0.67553990085E+01  0.00000000000E+00 0. -1.
</event>
<event>
 8    1  0.2450026E-006  0.9118800E+02  0.7816164E-02  0.1184000E+00
        -11   -1    0    0    0    0  0.00000000000E+00  0.00000000000E+00  0.45593999997E+02  0.45594000000E+02  0.51100000000E-03 0.  1.
         11   -1    0    0    0    0 -0.00000000000E+00 -0.00000000000E+00 -0.45593999997E+02  0.45594000000E+02  0.51100000000E-03 0. -1.
         23    2    1    2    0    0 -0.71054273576E-14  0.35527136788E-14  0.00000000000E+00  0.91188000000E+02  0.91188000000E+02 0.  0.
    9900012    2    3    3    0    0 -0.22403337700E+02  0.26430552858E+02 -0.12461804376E+02  0.54367078871E+02  0.39999987902E+02 0.  0.
        -12    1    3    3    0    0  0.22403337700E+02 -0.26430552858E+02  0.12461804376E+02  0.36820921129E+02  0.00000000000E+00 0.  1.
         11    1    4    4    0    0 -0.32558689916E+01  0.12226674668E+02 -0.87316933054E+00  0.12682849887E+02  0.51100000000E-03 0. -1.
        -11    1    4    4    0    0  0.30949871609E+01  0.13013870834E+01  0.84447085778E+01  0.90876651067E+01  0.51100000000E-03 0.  1.
         12    1    4    4    0    0 -0.22242455869E+02  0.12902491107E+02 -0.20033343623E+02  0.32596563877E+02  0.00000000000E+00 0. -1.
</event>
<event>
 8    1  0.2450026E-006  0.9118800E+02  0.7816164E-02  0.1184000E+00
        -11   -1    0    0    0    0  0.00000000000E+00  0.00000000000E+00  0.45593999997E+02  0.45594000000E+02  0.51100000000E-03 0.  1.
         11   -1    0    0    0    0 -0.00000000000E+00 -0.00000000000E+00 -0.45593999997E+02  0.45594000000E+02  0.51100000000E-03 0. -1.
         23    2    1    2    0    0  0.00000000000E+00  0.00000000000E+00  0.00000000000E+00  0.91188000000E+02  0.91188000000E+02 0.  0.
    9900012    2    3    3    0    0 -0.23196832192E+02  0.23367185599E+02 -0.16482151172E+02  0.54367086190E+02  0.40000004587E+02 0.  0.
        -12    1    3    3    0    0  0.23196832192E+02 -0.23367185599E+02  0.16482151172E+02  0.36820913810E+02  0.00000000000E+00 0.  1.
         11    1    4    4    0    0 -0.13569801244E+02  0.46202300071E+01  0.63483255392E+01  0.15677604043E+02  0.51100000000E-03 0.  1.
        -11    1    4    4    0    0  0.61173391441E+01  0.89483423602E+01 -0.15124460609E+02  0.18607632256E+02  0.51100000000E-03 0. -1.
        -12    1    4    4    0    0 -0.15744370092E+02  0.97986132312E+01 -0.77060161021E+01  0.20081849890E+02  0.00000000000E+00 0.  1.
</event>
<event>
 8    1  0.2450026E-006  0.9118800E+02  0.7816164E-02  0.1184000E+00
        -11   -1    0    0    0    0  0.00000000000E+00  0.00000000000E+00  0.45593999997E+02  0.45594000000E+02  0.51100000000E-03 0. -1.
         11   -1    0    0    0    0 -0.00000000000E+00 -0.00000000000E+00 -0.45593999997E+02  0.45594000000E+02  0.51100000000E-03 0.  1.
         23    2    1    2    0    0  0.35527136788E-14  0.00000000000E+00  0.00000000000E+00  0.91188000000E+02  0.91188000000E+02 0.  0.
    9900012    2    3    3    0    0  0.23996779564E+02 -0.20728896268E+02  0.18714910021E+02  0.54367076233E+02  0.39999981889E+02 0.  0.
        -12    1    3    3    0    0 -0.23996779564E+02  0.20728896268E+02 -0.18714910021E+02  0.36820923767E+02  0.00000000000E+00 0.  1.
         11    1    4    4    0    0  0.19386900934E+02 -0.15602032625E+02 -0.33387774466E+00  0.24887483289E+02  0.51100000000E-03 0. -1.
        -11    1    4    4    0    0 -0.82480770506E+01 -0.38830294571E+00  0.41648209224E+01  0.92480964413E+01  0.51100000000E-03 0.  1.
         12    1    4    4    0    0  0.12857955680E+02 -0.47385606979E+01  0.14883966843E+02  0.20231496503E+02  0.00000000000E+00 0. -1.
</event>
<event>
 8    1  0.2450026E-006  0.9118800E+02  0.7816164E-02  0.1184000E+00
        -11   -1    0    0    0    0  0.00000000000E+00  0.00000000000E+00  0.45593999997E+02  0.45594000000E+02  0.51100000000E-03 0.  1.
         11   -1    0    0    0    0 -0.00000000000E+00 -0.00000000000E+00 -0.45593999997E+02  0.45594000000E+02  0.51100000000E-03 0. -1.
         23    2    1    2    0    0 -0.44408920985E-15  0.17763568394E-14  0.71054273576E-14  0.91188000000E+02  0.91188000000E+02 0.  0.
    9900012    2    3    3    0    0  0.19395676281E+01  0.93678560379E+01  0.35556447883E+02  0.54367086984E+02  0.40000006397E+02 0.  0.
         12    1    3    3    0    0 -0.19395676281E+01 -0.93678560379E+01 -0.35556447883E+02  0.36820913016E+02  0.00000000000E+00 0. -1.
         11    1    4    4    0    0 -0.64794599815E+01 -0.11008938976E+02  0.11517579378E+02  0.17199848081E+02  0.51100000000E-03 0. -1.
        -11    1    4    4    0    0  0.91018453397E+01  0.16517210529E+02  0.26510041395E+02  0.32533738292E+02  0.51100000000E-03 0.  1.
         12    1    4    4    0    0 -0.68281773016E+00  0.38595844850E+01 -0.24711728907E+01  0.46335006103E+01  0.00000000000E+00 0. -1.
</event>
<event>
 8    1  0.2450026E-006  0.9118800E+02  0.7816164E-02  0.1184000E+00
        -11   -1    0    0    0    0  0.00000000000E+00  0.00000000000E+00  0.45593999997E+02  0.45594000000E+02  0.51100000000E-03 0. -1.
         11   -1    0    0    0    0 -0.00000000000E+00 -0.00000000000E+00 -0.45593999997E+02  0.45594000000E+02  0.51100000000E-03 0.  1.
         23    2    1    2    0    0  0.00000000000E+00 -0.35527136788E-14  0.00000000000E+00  0.91188000000E+02  0.91188000000E+02 0.  0.
    9900012    2    3    3    0    0 -0.16255474464E+02  0.28405148387E+02  0.16872681002E+02  0.54367078377E+02  0.39999986777E+02 0.  0.
        -12    1    3    3    0    0  0.16255474464E+02 -0.28405148387E+02 -0.16872681002E+02  0.36820921623E+02  0.00000000000E+00 0.  1.
         11    1    4    4    0    0 -0.34410558597E+01 -0.22971415866E+01 -0.39985869715E+00  0.41566347130E+01  0.51100000000E-03 0. -1.
        -11    1    4    4    0    0 -0.27066682453E+01  0.10299356069E+02  0.24176041215E+02  0.26417489615E+02  0.51100000000E-03 0.  1.
         12    1    4    4    0    0 -0.10107750359E+02  0.20402933905E+02 -0.69035015158E+01  0.23792954050E+02  0.00000000000E+00 0. -1.
</event>
<event>
 8    1  0.2450026E-006  0.9118800E+02  0.7816164E-02  0.1184000E+00
        -11   -1    0    0    0    0  0.00000000000E+00  0.00000000000E+00  0.45593999997E+02  0.45594000000E+02  0.51100000000E-03 0.  1.
         11   -1    0    0    0    0 -0.00000000000E+00 -0.00000000000E+00 -0.45593999997E+02  0.45594000000E+02  0.51100000000E-03 0. -1.
         23    2    1    2    0    0  0.44408920985E-15 -0.71054273576E-14  0.00000000000E+00  0.91188000000E+02  0.91188000000E+02 0.  0.
    9900012    2    3    3    0    0 -0.39236807404E+01  0.16537614841E+02  0.32663512584E+02  0.54366905102E+02  0.39999591758E+02 0.  0.
         12    1    3    3    0    0  0.39236807404E+01 -0.16537614841E+02 -0.32663512584E+02  0.36821094898E+02  0.00000000000E+00 0. -1.
         11    1    4    4    0    0  0.42987387735E+01 -0.26473084475E+01 -0.18881191497E+01  0.53900270170E+01  0.51100000000E-03 0. -1.
        -11    1    4    4    0    0  0.71226881980E+01  0.17079925477E+02  0.13811491905E+02  0.23091423741E+02  0.51100000000E-03 0.  1.
         12    1    4    4    0    0 -0.15345107712E+02  0.21049978112E+01  0.20740139829E+02  0.25885454344E+02  0.00000000000E+00 0. -1.
</event>
<event>
 8    1  0.2450026E-006  0.9118800E+02  0.7816164E-02  0.1184000E+00
        -11   -1    0    0    0    0  0.00000000000E+00  0.00000000000E+00  0.45593999997E+02  0.45594000000E+02  0.51100000000E-03 0.  1.
         11   -1    0    0    0    0 -0.00000000000E+00 -0.00000000000E+00 -0.45593999997E+02  0.45594000000E+02  0.51100000000E-03 0. -1.
         23    2    1    2    0    0  0.00000000000E+00  0.35527136788E-14  0.88817841970E-15  0.91188000000E+02  0.91188000000E+02 0.  0.
    9900012    2    3    3    0    0 -0.25701728891E+02 -0.25213827076E+02  0.77113513450E+01  0.54367070037E+02  0.39999967763E+02 0.  0.
        -12    1    3    3    0    0  0.25701728891E+02  0.25213827076E+02 -0.77113513450E+01  0.36820929963E+02  0.00000000000E+00 0.  1.
         11    1    4    4    0    0 -0.19100524202E+02 -0.21815452490E+02  0.33808496905E+01  0.29192021805E+02  0.51100000000E-03 0. -1.
        -11    1    4    4    0    0 -0.44115286465E+01 -0.15258148566E+01 -0.97462663539E+01  0.10806451965E+02  0.51100000000E-03 0.  1.
        -12    1    4    4    0    0 -0.21896760422E+01 -0.18725597286E+01  0.14076768008E+02  0.14368596266E+02  0.00000000000E+00 0.  1.
</event>
<event>
 8    1  0.2450026E-006  0.9118800E+02  0.7816164E-02  0.1184000E+00
        -11   -1    0    0    0    0  0.00000000000E+00  0.00000000000E+00  0.45593999997E+02  0.45594000000E+02  0.51100000000E-03 0. -1.
         11   -1    0    0    0    0 -0.00000000000E+00 -0.00000000000E+00 -0.45593999997E+02  0.45594000000E+02  0.51100000000E-03 0.  1.
         23    2    1    2    0    0  0.44408920985E-15  0.00000000000E+00  0.17763568394E-14  0.91188000000E+02  0.91188000000E+02 0.  0.
    9900012    2    3    3    0    0 -0.11757067924E+01 -0.34450157039E+02  0.12945330948E+02  0.54367120056E+02  0.40000081792E+02 0.  0.
         12    1    3    3    0    0  0.11757067924E+01  0.34450157039E+02 -0.12945330948E+02  0.36820879944E+02  0.00000000000E+00 0. -1.
         11    1    4    4    0    0  0.54573367665E+00  0.28888478820E+01 -0.44286648369E+01  0.53156692739E+01  0.51100000000E-03 0. -1.
        -11    1    4    4    0    0  0.57079618081E+01 -0.27007100394E+02  0.22218474116E+02  0.35434797756E+02  0.51100000000E-03 0.  1.
         12    1    4    4    0    0 -0.74294022772E+01 -0.10331904527E+02 -0.48444783304E+01  0.13616653027E+02  0.00000000000E+00 0. -1.
</event>
<event>
 8    1  0.2450026E-006  0.9118800E+02  0.7816164E-02  0.1184000E+00
        -11   -1    0    0    0    0  0.00000000000E+00  0.00000000000E+00  0.45593999997E+02  0.45594000000E+02  0.51100000000E-03 0.  1.
         11   -1    0    0    0    0 -0.00000000000E+00 -0.00000000000E+00 -0.45593999997E+02  0.45594000000E+02  0.51100000000E-03 0. -1.
         23    2    1    2    0    0  0.00000000000E+00  0.00000000000E+00 -0.71054273576E-14  0.91188000000E+02  0.91188000000E+02 0.  0.
    9900012    2    3    3    0    0  0.12359474870E+02  0.70511759141E+01 -0.33960338672E+02  0.54367077910E+02  0.39999985711E+02 0.  0.
        -12    1    3    3    0    0 -0.12359474870E+02 -0.70511759141E+01  0.33960338672E+02  0.36820922090E+02  0.00000000000E+00 0.  1.
         11    1    4    4    0    0  0.20648219547E+02 -0.47921587050E+01 -0.19800473503E+02  0.29006421818E+02  0.51100000000E-03 0.  1.
        -11    1    4    4    0    0 -0.12009020389E+01  0.89584398526E+01 -0.15153065390E+02  0.17644013185E+02  0.51100000000E-03 0. -1.
        -12    1    4    4    0    0 -0.70878426372E+01  0.28848947665E+01  0.99320022134E+00  0.77166429063E+01  0.00000000000E+00 0.  1.
</event>
<event>
 8    1  0.2450026E-006  0.9118800E+02  0.7816164E-02  0.1184000E+00
        -11   -1    0    0    0    0  0.00000000000E+00  0.00000000000E+00  0.45593999997E+02  0.45594000000E+02  0.51100000000E-03 0. -1.
         11   -1    0    0    0    0 -0.00000000000E+00 -0.00000000000E+00 -0.45593999997E+02  0.45594000000E+02  0.51100000000E-03 0.  1.
         23    2    1    2    0    0  0.00000000000E+00  0.00000000000E+00  0.00000000000E+00  0.91188000000E+02  0.91188000000E+02 0.  0.
    9900012    2    3    3    0    0 -0.64413567452E+01  0.60374872839E+01 -0.35746795319E+02  0.54367140355E+02  0.40000128068E+02 0.  0.
         12    1    3    3    0    0  0.64413567452E+01 -0.60374872839E+01  0.35746795319E+02  0.36820859645E+02  0.00000000000E+00 0. -1.
         11    1    4    4    0    0  0.34665313897E+01 -0.13626149966E+02 -0.36929539767E+01  0.14537080591E+02  0.51100000000E-03 0. -1.
        -11    1    4    4    0    0 -0.63321635931E+01  0.72535648638E+01 -0.79590715217E+01  0.12492290372E+02  0.51100000000E-03 0.  1.
        -12    1    4    4    0    0 -0.35757245419E+01  0.12410072386E+02 -0.24094769820E+02  0.27337769392E+02  0.00000000000E+00 0.  1.
</event>
<event>
 8    1  0.2450026E-006  0.9118800E+02  0.7816164E-02  0.1184000E+00
        -11   -1    0    0    0    0  0.00000000000E+00  0.00000000000E+00  0.45593999997E+02  0.45594000000E+02  0.51100000000E-03 0.  1.
         11   -1    0    0    0    0 -0.00000000000E+00 -0.00000000000E+00 -0.45593999997E+02  0.45594000000E+02  0.51100000000E-03 0. -1.
         23    2    1    2    0    0 -0.88817841970E-15  0.88817841970E-15  0.00000000000E+00  0.91188000000E+02  0.91188000000E+02 0.  0.
    9900012    2    3    3    0    0  0.72419680772E+01 -0.30337767851E+01  0.35974017523E+02  0.54367084206E+02  0.40000000064E+02 0.  0.
         12    1    3    3    0    0 -0.72419680772E+01  0.30337767851E+01 -0.35974017523E+02  0.36820915794E+02  0.00000000000E+00 0. -1.
         11    1    4    4    0    0  0.34405207676E+01 -0.70926088426E+01  0.14000267546E+02  0.16067040019E+02  0.51100000000E-03 0. -1.
        -11    1    4    4    0    0  0.44667081724E+01  0.34261267632E+01  0.29847108345E+02  0.30373338692E+02  0.51100000000E-03 0.  1.
        -12    1    4    4    0    0 -0.66526086290E+00  0.63270529426E+00 -0.78733583682E+01  0.79267054947E+01  0.00000000000E+00 0.  1.
</event>
<event>
 8    1  0.2450026E-006  0.9118800E+02  0.7816164E-02  0.1184000E+00
        -11   -1    0    0    0    0  0.00000000000E+00  0.00000000000E+00  0.45593999997E+02  0.45594000000E+02  0.51100000000E-03 0. -1.
         11   -1    0    0    0    0 -0.00000000000E+00 -0.00000000000E+00 -0.45593999997E+02  0.45594000000E+02  0.51100000000E-03 0.  1.
         23    2    1    2    0    0 -0.55511151231E-15  0.00000000000E+00 -0.55511151231E-15  0.91188000000E+02  0.91188000000E+02 0.  0.
    9900012    2    3    3    0    0  0.69755354718E+00 -0.36804890156E+02 -0.83233582087E+00  0.54367091493E+02  0.40000016677E+02 0.  0.
        -12    1    3    3    0    0 -0.69755354718E+00  0.36804890156E+02  0.83233582087E+00  0.36820908507E+02  0.00000000000E+00 0.  1.
         11    1    4    4    0    0 -0.66624513077E+01 -0.19298847960E+02 -0.79619575965E+01  0.21914072170E+02  0.51100000000E-03 0. -1.
        -11    1    4    4    0    0 -0.54819963421E+01 -0.15912566637E+02  0.94563217646E+01  0.19305027388E+02  0.51100000000E-03 0.  1.
        -12    1    4    4    0    0  0.12842001197E+02 -0.15934755590E+01 -0.23266999890E+01  0.13147991936E+02  0.00000000000E+00 0.  1.
</event>
<event>
 8    1  0.2450026E-006  0.9118800E+02  0.7816164E-02  0.1184000E+00
        -11   -1    0    0    0    0  0.00000000000E+00  0.00000000000E+00  0.45593999997E+02  0.45594000000E+02  0.51100000000E-03 0. -1.
         11   -1    0    0    0    0 -0.00000000000E+00 -0.00000000000E+00 -0.45593999997E+02  0.45594000000E+02  0.51100000000E-03 0.  1.
         23    2    1    2    0    0  0.00000000000E+00 -0.35527136788E-14  0.00000000000E+00  0.91188000000E+02  0.91188000000E+02 0.  0.
    9900012    2    3    3    0    0  0.10202050796E+02  0.30104738429E+02 -0.18585027339E+02  0.54367077178E+02  0.39999984043E+02 0.  0.
         12    1    3    3    0    0 -0.10202050796E+02 -0.30104738429E+02  0.18585027339E+02  0.36820922822E+02  0.00000000000E+00 0. -1.
         11    1    4    4    0    0  0.50092086992E+00  0.29078554516E+02 -0.19399406210E+02  0.34959265096E+02  0.51100000000E-03 0. -1.
        -11    1    4    4    0    0 -0.19306547187E+01  0.42111183096E+01 -0.42883651826E+01  0.63127665299E+01  0.51100000000E-03 0.  1.
         12    1    4    4    0    0  0.11631784644E+02 -0.31849343974E+01  0.51027440542E+01  0.13095045552E+02  0.00000000000E+00 0. -1.
</event>
<event>
 8    1  0.2450026E-006  0.9118800E+02  0.7816164E-02  0.1184000E+00
        -11   -1    0    0    0    0  0.00000000000E+00  0.00000000000E+00  0.45593999997E+02  0.45594000000E+02  0.51100000000E-03 0.  1.
         11   -1    0    0    0    0 -0.00000000000E+00 -0.00000000000E+00 -0.45593999997E+02  0.45594000000E+02  0.51100000000E-03 0. -1.
         23    2    1    2    0    0  0.00000000000E+00  0.17763568394E-14  0.00000000000E+00  0.91188000000E+02  0.91188000000E+02 0.  0.
    9900012    2    3    3    0    0 -0.35535760069E+02 -0.62478299684E+01 -0.73453034157E+01  0.54367094182E+02  0.40000022807E+02 0.  0.
        -12    1    3    3    0    0  0.35535760069E+02  0.62478299684E+01  0.73453034157E+01  0.36820905818E+02  0.00000000000E+00 0.  1.
         11    1    4    4    0    0 -0.11928342973E+02 -0.18896738014E+02 -0.86944454249E+01  0.23978437296E+02  0.51100000000E-03 0. -1.
        -11    1    4    4    0    0 -0.19247853817E+02  0.45462814825E+01  0.51444933555E+01  0.20435615088E+02  0.51100000000E-03 0.  1.
        -12    1    4    4    0    0 -0.43595632789E+01  0.81026265627E+01 -0.37953513463E+01  0.99530417984E+01  0.00000000000E+00 0.  1.
</event>
<event>
 8    1  0.2450026E-006  0.9118800E+02  0.7816164E-02  0.1184000E+00
        -11   -1    0    0    0    0  0.00000000000E+00  0.00000000000E+00  0.45593999997E+02  0.45594000000E+02  0.51100000000E-03 0. -1.
         11   -1    0    0    0    0 -0.00000000000E+00 -0.00000000000E+00 -0.45593999997E+02  0.45594000000E+02  0.51100000000E-03 0.  1.
         23    2    1    2    0    0  0.35527136788E-14  0.35527136788E-14  0.00000000000E+00  0.91188000000E+02  0.91188000000E+02 0.  0.
    9900012    2    3    3    0    0  0.17835800547E+02  0.20332555116E+02 -0.24985002930E+02  0.54367096289E+02  0.40000027610E+02 0.  0.
        -12    1    3    3    0    0 -0.17835800547E+02 -0.20332555116E+02  0.24985002930E+02  0.36820903711E+02  0.00000000000E+00 0.  1.
         11    1    4    4    0    0 -0.12445421146E+02  0.48983324816E+01 -0.76086196538E+01  0.15387438445E+02  0.51100000000E-03 0.  1.
        -11    1    4    4    0    0  0.11313541610E+02  0.71513349001E+01 -0.10993831576E+02  0.17320570071E+02  0.51100000000E-03 0. -1.
        -12    1    4    4    0    0  0.18967680083E+02  0.82828877346E+01 -0.63825516994E+01  0.21659087773E+02  0.00000000000E+00 0.  1.
</event>
<event>
 8    1  0.2450026E-006  0.9118800E+02  0.7816164E-02  0.1184000E+00
        -11   -1    0    0    0    0  0.00000000000E+00  0.00000000000E+00  0.45593999997E+02  0.45594000000E+02  0.51100000000E-03 0.  1.
         11   -1    0    0    0    0 -0.00000000000E+00 -0.00000000000E+00 -0.45593999997E+02  0.45594000000E+02  0.51100000000E-03 0. -1.
         23    2    1    2    0    0 -0.33306690739E-15  0.17763568394E-14  0.00000000000E+00  0.91188000000E+02  0.91188000000E+02 0.  0.
    9900012    2    3    3    0    0  0.25006668524E+00  0.12015997807E+02 -0.34804201023E+02  0.54367093636E+02  0.40000021562E+02 0.  0.
        -12    1    3    3    0    0 -0.25006668524E+00 -0.12015997807E+02  0.34804201023E+02  0.36820906364E+02  0.00000000000E+00 0.  1.
         11    1    4    4    0    0 -0.46802985178E+00 -0.24512860047E+01 -0.13177265853E+02  0.13411494721E+02  0.51100000000E-03 0. -1.
        -11    1    4    4    0    0  0.32083068559E+01  0.37924552229E+01 -0.27891438269E+02  0.28330342011E+02  0.51100000000E-03 0.  1.
        -12    1    4    4    0    0 -0.24902103189E+01  0.10674828588E+02  0.62645030993E+01  0.12625256904E+02  0.00000000000E+00 0.  1.
</event>
<event>
 8    1  0.2450026E-006  0.9118800E+02  0.7816164E-02  0.1184000E+00
        -11   -1    0    0    0    0  0.00000000000E+00  0.00000000000E+00  0.45593999997E+02  0.45594000000E+02  0.51100000000E-03 0. -1.
         11   -1    0    0    0    0 -0.00000000000E+00 -0.00000000000E+00 -0.45593999997E+02  0.45594000000E+02  0.51100000000E-03 0.  1.
         23    2    1    2    0    0  0.00000000000E+00  0.00000000000E+00 -0.17763568394E-14  0.91188000000E+02  0.91188000000E+02 0.  0.
    9900012    2    3    3    0    0  0.91197585174E+01 -0.33674136877E+02  0.11775514142E+02  0.54367079002E+02  0.39999988202E+02 0.  0.
        -12    1    3    3    0    0 -0.91197585174E+01  0.33674136877E+02 -0.11775514142E+02  0.36820920998E+02  0.00000000000E+00 0.  1.
         11    1    4    4    0    0 -0.10819946563E+02 -0.94573794601E+01  0.10029425844E+02  0.17524344579E+02  0.51100000000E-03 0. -1.
        -11    1    4    4    0    0  0.15630543861E+02 -0.26602249091E+02  0.45297915680E+01  0.31185133798E+02  0.51100000000E-03 0.  1.
        -12    1    4    4    0    0  0.43091612196E+01  0.23854916742E+01 -0.27837032705E+01  0.56576006259E+01  0.00000000000E+00 0.  1.
</event>
<event>
 8    1  0.2450026E-006  0.9118800E+02  0.7816164E-02  0.1184000E+00
        -11   -1    0    0    0    0  0.00000000000E+00  0.00000000000E+00  0.45593999997E+02  0.45594000000E+02  0.51100000000E-03 0.  1.
         11   -1    0    0    0    0 -0.00000000000E+00 -0.00000000000E+00 -0.45593999997E+02  0.45594000000E+02  0.51100000000E-03 0. -1.
         23    2    1    2    0    0 -0.44408920985E-15 -0.35527136788E-14 -0.35527136788E-14  0.91188000000E+02  0.91188000000E+02 0.  0.
    9900012    2    3    3    0    0  0.25023611395E+01  0.24283858968E+02  0.27564612291E+02  0.54367143568E+02  0.40000135392E+02 0.  0.
         12    1    3    3    0    0 -0.25023611395E+01 -0.24283858968E+02 -0.27564612291E+02  0.36820856432E+02  0.00000000000E+00 0. -1.
         11    1    4    4    0    0  0.90748444110E+01  0.17468281585E+01 -0.58857957943E+01  0.10956587155E+02  0.51100000000E-03 0. -1.
        -11    1    4    4    0    0 -0.36531066706E-01  0.25735774692E+01  0.15698335623E+02  0.15907934407E+02  0.51100000000E-03 0.  1.
        -12    1    4    4    0    0 -0.65359522047E+01  0.19963453340E+02  0.17752072462E+02  0.27502622006E+02  0.00000000000E+00 0.  1.
</event>
<event>
 8    1  0.2450026E-006  0.9118800E+02  0.7816164E-02  0.1184000E+00
        -11   -1    0    0    0    0  0.00000000000E+00  0.00000000000E+00  0.45593999997E+02  0.45594000000E+02  0.51100000000E-03 0. -1.
         11   -1    0    0    0    0 -0.00000000000E+00 -0.00000000000E+00 -0.45593999997E+02  0.45594000000E+02  0.51100000000E-03 0.  1.
         23    2    1    2    0    0  0.21094237468E-14  0.00000000000E+00  0.00000000000E+00  0.91188000000E+02  0.91188000000E+02 0.  0.
    9900012    2    3    3    0    0  0.65932664571E+00  0.36291114280E+02  0.61888791065E+01  0.54367056070E+02  0.39999935923E+02 0.  0.
         12    1    3    3    0    0 -0.65932664571E+00 -0.36291114280E+02 -0.61888791065E+01  0.36820943930E+02  0.00000000000E+00 0. -1.
         11    1    4    4    0    0  0.13521483168E+02  0.86296111604E+01 -0.50164474773E+01  0.16806708226E+02  0.51100000000E-03 0. -1.
        -11    1    4    4    0    0 -0.83082013599E+01  0.23719414970E+02  0.16058971575E+02  0.29824946348E+02  0.51100000000E-03 0.  1.
        -12    1    4    4    0    0 -0.45539551623E+01  0.39420881500E+01 -0.48536449915E+01  0.77354014961E+01  0.00000000000E+00 0.  1.
</event>
<event>
 8    1  0.2450026E-006  0.9118800E+02  0.7816164E-02  0.1184000E+00
        -11   -1    0    0    0    0  0.00000000000E+00  0.00000000000E+00  0.45593999997E+02  0.45594000000E+02  0.51100000000E-03 0. -1.
         11   -1    0    0    0    0 -0.00000000000E+00 -0.00000000000E+00 -0.45593999997E+02  0.45594000000E+02  0.51100000000E-03 0.  1.
         23    2    1    2    0    0  0.00000000000E+00  0.00000000000E+00  0.00000000000E+00  0.91188000000E+02  0.91188000000E+02 0.  0.
    9900012    2    3    3    0    0  0.23755026320E+02 -0.10166400483E+02 -0.26232082992E+02  0.54367093542E+02  0.40000021348E+02 0.  0.
         12    1    3    3    0    0 -0.23755026320E+02  0.10166400483E+02  0.26232082992E+02  0.36820906458E+02  0.00000000000E+00 0. -1.
         11    1    4    4    0    0 -0.97515579381E+00 -0.25252266688E+01  0.50223281638E-01  0.27074381230E+01  0.51100000000E-03 0. -1.
        -11    1    4    4    0    0  0.79892570942E+01 -0.21299993240E+02 -0.11588862691E+02  0.25530759481E+02  0.51100000000E-03 0.  1.
        -12    1    4    4    0    0  0.16740925020E+02  0.13658819426E+02 -0.14693443584E+02  0.26128895938E+02  0.00000000000E+00 0.  1.
</event>
<event>
 8    1  0.2450026E-006  0.9118800E+02  0.7816164E-02  0.1184000E+00
        -11   -1    0    0    0    0  0.00000000000E+00  0.00000000000E+00  0.45593999997E+02  0.45594000000E+02  0.51100000000E-03 0. -1.
         11   -1    0    0    0    0 -0.00000000000E+00 -0.00000000000E+00 -0.45593999997E+02  0.45594000000E+02  0.51100000000E-03 0.  1.
         23    2    1    2    0    0  0.99920072216E-15  0.26645352591E-14  0.00000000000E+00  0.91188000000E+02  0.91188000000E+02 0.  0.
    9900012    2    3    3    0    0  0.60157728297E+00  0.75760120325E+01  0.36028059285E+02  0.54367096842E+02  0.40000028870E+02 0.  0.
        -12    1    3    3    0    0 -0.60157728297E+00 -0.75760120325E+01 -0.36028059285E+02  0.36820903158E+02  0.00000000000E+00 0.  1.
         11    1    4    4    0    0  0.61991996706E+00 -0.26861228537E+01 -0.18813620570E+01  0.33375260600E+01  0.51100000000E-03 0. -1.
        -11    1    4    4    0    0 -0.88695588409E+01  0.19146354111E+02  0.19347488134E+02  0.28628259590E+02  0.51100000000E-03 0.  1.
         12    1    4    4    0    0  0.88512161568E+01 -0.88842192252E+01  0.18561933208E+02  0.22401311192E+02  0.00000000000E+00 0. -1.
</event>
<event>
 8    1  0.2450026E-006  0.9118800E+02  0.7816164E-02  0.1184000E+00
        -11   -1    0    0    0    0  0.00000000000E+00  0.00000000000E+00  0.45593999997E+02  0.45594000000E+02  0.51100000000E-03 0.  1.
         11   -1    0    0    0    0 -0.00000000000E+00 -0.00000000000E+00 -0.45593999997E+02  0.45594000000E+02  0.51100000000E-03 0. -1.
         23    2    1    2    0    0 -0.35527136788E-14  0.35527136788E-14  0.71054273576E-14  0.91188000000E+02  0.91188000000E+02 0.  0.
    9900012    2    3    3    0    0 -0.31360699882E+02  0.10444684460E+02  0.16223301281E+02  0.54367076125E+02  0.39999981643E+02 0.  0.
         12    1    3    3    0    0  0.31360699882E+02 -0.10444684460E+02 -0.16223301281E+02  0.36820923875E+02  0.00000000000E+00 0. -1.
         11    1    4    4    0    0 -0.36785418902E+01 -0.10236481222E+01 -0.56616803972E+01  0.68289202000E+01  0.51100000000E-03 0. -1.
        -11    1    4    4    0    0 -0.21092041394E+02  0.23395199075E+01  0.27677236919E+02  0.34876596842E+02  0.51100000000E-03 0.  1.
         12    1    4    4    0    0 -0.65901165980E+01  0.91288126751E+01 -0.57922552414E+01  0.12661559083E+02  0.00000000000E+00 0. -1.
</event>
<event>
 8    1  0.2450026E-006  0.9118800E+02  0.7816164E-02  0.1184000E+00
        -11   -1    0    0    0    0  0.00000000000E+00  0.00000000000E+00  0.45593999997E+02  0.45594000000E+02  0.51100000000E-03 0.  1.
         11   -1    0    0    0    0 -0.00000000000E+00 -0.00000000000E+00 -0.45593999997E+02  0.45594000000E+02  0.51100000000E-03 0. -1.
         23    2    1    2    0    0  0.00000000000E+00  0.88817841970E-15  0.35527136788E-14  0.91188000000E+02  0.91188000000E+02 0.  0.
    9900012    2    3    3    0    0 -0.31642153387E+02  0.77180207957E+01 -0.17175172172E+02  0.54367078568E+02  0.39999987211E+02 0.  0.
        -12    1    3    3    0    0  0.31642153387E+02 -0.77180207957E+01  0.17175172172E+02  0.36820921432E+02  0.00000000000E+00 0.  1.
         11    1    4    4    0    0 -0.16283562732E+02 -0.13204093709E+01  0.96380749587E+01  0.18968141325E+02  0.51100000000E-03 0. -1.
        -11    1    4    4    0    0 -0.16690198652E+02  0.11433939838E+02 -0.24760608529E+02  0.31974762646E+02  0.51100000000E-03 0.  1.
        -12    1    4    4    0    0  0.13316079966E+01 -0.23955096715E+01 -0.20526386024E+01  0.34241745976E+01  0.00000000000E+00 0.  1.
</event>
<event>
 8    1  0.2450026E-006  0.9118800E+02  0.7816164E-02  0.1184000E+00
        -11   -1    0    0    0    0  0.00000000000E+00  0.00000000000E+00  0.45593999997E+02  0.45594000000E+02  0.51100000000E-03 0. -1.
         11   -1    0    0    0    0 -0.00000000000E+00 -0.00000000000E+00 -0.45593999997E+02  0.45594000000E+02  0.51100000000E-03 0.  1.
         23    2    1    2    0    0 -0.22204460493E-15  0.17763568394E-14  0.00000000000E+00  0.91188000000E+02  0.91188000000E+02 0.  0.
    9900012    2    3    3    0    0 -0.11568274599E+01  0.13309841824E+02  0.34311589710E+02  0.54367145481E+02  0.40000139752E+02 0.  0.
        -12    1    3    3    0    0  0.11568274599E+01 -0.13309841824E+02 -0.34311589710E+02  0.36820854519E+02  0.00000000000E+00 0.  1.
         11    1    4    4    0    0  0.13317906925E+02 -0.23139352610E+01  0.17320470479E+02  0.21970881620E+02  0.51100000000E-03 0. -1.
        -11    1    4    4    0    0 -0.49074384841E+01 -0.36109406762E+01  0.40694695951E+01  0.73268293339E+01  0.51100000000E-03 0.  1.
         12    1    4    4    0    0 -0.95672959013E+01  0.19234717761E+02  0.12921649635E+02  0.25069434527E+02  0.00000000000E+00 0. -1.
</event>
<event>
 8    1  0.2450026E-006  0.9118800E+02  0.7816164E-02  0.1184000E+00
        -11   -1    0    0    0    0  0.00000000000E+00  0.00000000000E+00  0.45593999997E+02  0.45594000000E+02  0.51100000000E-03 0. -1.
         11   -1    0    0    0    0 -0.00000000000E+00 -0.00000000000E+00 -0.45593999997E+02  0.45594000000E+02  0.51100000000E-03 0.  1.
         23    2    1    2    0    0  0.17763568394E-14  0.00000000000E+00  0.17763568394E-14  0.91188000000E+02  0.91188000000E+02 0.  0.
    9900012    2    3    3    0    0 -0.13945322173E+02 -0.33725770457E+02  0.48869792270E+01  0.54367052573E+02  0.39999927950E+02 0.  0.
         12    1    3    3    0    0  0.13945322173E+02  0.33725770457E+02 -0.48869792270E+01  0.36820947427E+02  0.00000000000E+00 0. -1.
         11    1    4    4    0    0  0.10823085110E+01  0.59027643544E+01 -0.76619510650E+01  0.97323950351E+01  0.51100000000E-03 0. -1.
        -11    1    4    4    0    0 -0.41360386393E+01 -0.73360389691E+01  0.32172435713E+00  0.84277986571E+01  0.51100000000E-03 0.  1.
         12    1    4    4    0    0 -0.10891592045E+02 -0.32292495843E+02  0.12227205935E+02  0.36206858881E+02  0.00000000000E+00 0. -1.
</event>
<event>
 8    1  0.2450026E-006  0.9118800E+02  0.7816164E-02  0.1184000E+00
        -11   -1    0    0    0    0  0.00000000000E+00  0.00000000000E+00  0.45593999997E+02  0.45594000000E+02  0.51100000000E-03 0.  1.
         11   -1    0    0    0    0 -0.00000000000E+00 -0.00000000000E+00 -0.45593999997E+02  0.45594000000E+02  0.51100000000E-03 0. -1.
         23    2    1    2    0    0  0.00000000000E+00  0.00000000000E+00 -0.22204460493E-15  0.91188000000E+02  0.91188000000E+02 0.  0.
    9900012    2    3    3    0    0  0.20928120472E+02 -0.30293192789E+02 -0.34211466147E+00  0.54367071192E+02  0.39999970397E+02 0.  0.
        -12    1    3    3    0    0 -0.20928120472E+02  0.30293192789E+02  0.34211466147E+00  0.36820928808E+02  0.00000000000E+00 0.  1.
         11    1    4    4    0    0  0.15144035995E+02 -0.17255710242E+02  0.37602497940E+00  0.22961767293E+02  0.51100000000E-03 0. -1.
        -11    1    4    4    0    0  0.11861382823E+02 -0.11710385525E+02 -0.10582251165E+02  0.19743595711E+02  0.51100000000E-03 0.  1.
        -12    1    4    4    0    0 -0.60772983464E+01 -0.13270970219E+01  0.98641115245E+01  0.11661708188E+02  0.00000000000E+00 0.  1.
</event>
<event>
 8    1  0.2450026E-006  0.9118800E+02  0.7816164E-02  0.1184000E+00
        -11   -1    0    0    0    0  0.00000000000E+00  0.00000000000E+00  0.45593999997E+02  0.45594000000E+02  0.51100000000E-03 0.  1.
         11   -1    0    0    0    0 -0.00000000000E+00 -0.00000000000E+00 -0.45593999997E+02  0.45594000000E+02  0.51100000000E-03 0. -1.
         23    2    1    2    0    0 -0.35527136788E-14  0.00000000000E+00 -0.35527136788E-14  0.91188000000E+02  0.91188000000E+02 0.  0.
    9900012    2    3    3    0    0 -0.26439533971E+02  0.16792438642E+02 -0.19358272026E+02  0.54367113970E+02  0.40000067917E+02 0.  0.
        -12    1    3    3    0    0  0.26439533971E+02 -0.16792438642E+02  0.19358272026E+02  0.36820886030E+02  0.00000000000E+00 0.  1.
         11    1    4    4    0    0 -0.10782424154E+02 -0.10625083070E+02 -0.61665322432E+01  0.16345616570E+02  0.51100000000E-03 0. -1.
        -11    1    4    4    0    0 -0.46195187906E+01  0.13985211429E+02  0.20880828192E+01  0.14875690999E+02  0.51100000000E-03 0.  1.
        -12    1    4    4    0    0 -0.11037591027E+02  0.13432310283E+02 -0.15279822602E+02  0.23145806401E+02  0.00000000000E+00 0.  1.
</event>
<event>
 8    1  0.2450026E-006  0.9118800E+02  0.7816164E-02  0.1184000E+00
        -11   -1    0    0    0    0  0.00000000000E+00  0.00000000000E+00  0.45593999997E+02  0.45594000000E+02  0.51100000000E-03 0.  1.
         11   -1    0    0    0    0 -0.00000000000E+00 -0.00000000000E+00 -0.45593999997E+02  0.45594000000E+02  0.51100000000E-03 0. -1.
         23    2    1    2    0    0 -0.17763568394E-14  0.00000000000E+00  0.00000000000E+00  0.91188000000E+02  0.91188000000E+02 0.  0.
    9900012    2    3    3    0    0  0.93712666122E+01 -0.32665251754E+02 -0.14175331699E+02  0.54367091010E+02  0.40000015575E+02 0.  0.
         12    1    3    3    0    0 -0.93712666122E+01  0.32665251754E+02  0.14175331699E+02  0.36820908990E+02  0.00000000000E+00 0. -1.
         11    1    4    4    0    0 -0.11437957702E+02 -0.62810317169E+01 -0.41533226214E+01  0.13694098177E+02  0.51100000000E-03 0. -1.
        -11    1    4    4    0    0  0.14001587281E+02 -0.21478236369E+02 -0.16132947479E+02  0.30292426092E+02  0.51100000000E-03 0.  1.
        -12    1    4    4    0    0  0.68076370331E+01 -0.49059836683E+01  0.61109384009E+01  0.10380566741E+02  0.00000000000E+00 0.  1.
</event>
<event>
 8    1  0.2450026E-006  0.9118800E+02  0.7816164E-02  0.1184000E+00
        -11   -1    0    0    0    0  0.00000000000E+00  0.00000000000E+00  0.45593999997E+02  0.45594000000E+02  0.51100000000E-03 0.  1.
         11   -1    0    0    0    0 -0.00000000000E+00 -0.00000000000E+00 -0.45593999997E+02  0.45594000000E+02  0.51100000000E-03 0. -1.
         23    2    1    2    0    0 -0.71054273576E-14  0.88817841970E-15  0.00000000000E+00  0.91188000000E+02  0.91188000000E+02 0.  0.
    9900012    2    3    3    0    0 -0.31227379922E+02 -0.63181221382E+01 -0.18458388554E+02  0.54367081595E+02  0.39999994113E+02 0.  0.
         12    1    3    3    0    0  0.31227379922E+02  0.63181221382E+01  0.18458388554E+02  0.36820918405E+02  0.00000000000E+00 0. -1.
         11    1    4    4    0    0 -0.12364614857E+02 -0.11706822992E+02 -0.24395308705E+02  0.29750033482E+02  0.51100000000E-03 0. -1.
        -11    1    4    4    0    0 -0.68644152329E+01  0.85584106556E+01  0.27019924001E+00  0.10974497589E+02  0.51100000000E-03 0.  1.
         12    1    4    4    0    0 -0.11998349832E+02 -0.31697098013E+01  0.56667209106E+01  0.13642550524E+02  0.00000000000E+00 0. -1.
</event>
<event>
 8    1  0.2450026E-006  0.9118800E+02  0.7816164E-02  0.1184000E+00
        -11   -1    0    0    0    0  0.00000000000E+00  0.00000000000E+00  0.45593999997E+02  0.45594000000E+02  0.51100000000E-03 0. -1.
         11   -1    0    0    0    0 -0.00000000000E+00 -0.00000000000E+00 -0.45593999997E+02  0.45594000000E+02  0.51100000000E-03 0.  1.
         23    2    1    2    0    0 -0.16514567491E-14 -0.35527136788E-14  0.35527136788E-14  0.91188000000E+02  0.91188000000E+02 0.  0.
    9900012    2    3    3    0    0  0.80018275213E-01 -0.19429614043E+02 -0.31277202923E+02  0.54367085733E+02  0.40000003544E+02 0.  0.
         12    1    3    3    0    0 -0.80018275213E-01  0.19429614043E+02  0.31277202923E+02  0.36820914267E+02  0.00000000000E+00 0. -1.
         11    1    4    4    0    0  0.56110031919E+01 -0.96235172862E+01  0.27051625493E+01  0.11463566044E+02  0.51100000000E-03 0. -1.
        -11    1    4    4    0    0  0.93406481078E+01 -0.43817960627E+01 -0.12225560581E+02  0.15997255252E+02  0.51100000000E-03 0.  1.
        -12    1    4    4    0    0 -0.14871633024E+02 -0.54243006944E+01 -0.21756804891E+02  0.26906264436E+02  0.00000000000E+00 0.  1.
</event>
<event>
 8    1  0.2450026E-006  0.9118800E+02  0.7816164E-02  0.1184000E+00
        -11   -1    0    0    0    0  0.00000000000E+00  0.00000000000E+00  0.45593999997E+02  0.45594000000E+02  0.51100000000E-03 0.  1.
         11   -1    0    0    0    0 -0.00000000000E+00 -0.00000000000E+00 -0.45593999997E+02  0.45594000000E+02  0.51100000000E-03 0. -1.
         23    2    1    2    0    0  0.00000000000E+00  0.33306690739E-15  0.35527136788E-14  0.91188000000E+02  0.91188000000E+02 0.  0.
    9900012    2    3    3    0    0 -0.30751920595E+02  0.36569307432E+00  0.20247597637E+02  0.54367087983E+02  0.40000008675E+02 0.  0.
         12    1    3    3    0    0  0.30751920595E+02 -0.36569307432E+00 -0.20247597637E+02  0.36820912017E+02  0.00000000000E+00 0. -1.
         11    1    4    4    0    0 -0.18703610232E+02 -0.10982664687E+02  0.10560443213E+02  0.24123990559E+02  0.51100000000E-03 0. -1.
        -11    1    4    4    0    0 -0.93986805657E+01 -0.57173509145E+01  0.14073767272E+01  0.11090717171E+02  0.51100000000E-03 0.  1.
         12    1    4    4    0    0 -0.26496297973E+01  0.17065708676E+02  0.82797776959E+01  0.19152380253E+02  0.00000000000E+00 0. -1.
</event>
<event>
 8    1  0.2450026E-006  0.9118800E+02  0.7816164E-02  0.1184000E+00
        -11   -1    0    0    0    0  0.00000000000E+00  0.00000000000E+00  0.45593999997E+02  0.45594000000E+02  0.51100000000E-03 0.  1.
         11   -1    0    0    0    0 -0.00000000000E+00 -0.00000000000E+00 -0.45593999997E+02  0.45594000000E+02  0.51100000000E-03 0. -1.
         23    2    1    2    0    0 -0.35527136788E-14  0.00000000000E+00 -0.35527136788E-14  0.91188000000E+02  0.91188000000E+02 0.  0.
    9900012    2    3    3    0    0  0.31515827418E+02  0.11673783836E+02  0.15041730099E+02  0.54367105779E+02  0.40000049244E+02 0.  0.
         12    1    3    3    0    0 -0.31515827418E+02 -0.11673783836E+02 -0.15041730099E+02  0.36820894221E+02  0.00000000000E+00 0. -1.
         11    1    4    4    0    0  0.60253786762E+01  0.18412998957E+02 -0.31444752264E+00  0.19376341148E+02  0.51100000000E-03 0. -1.
        -11    1    4    4    0    0  0.77450551986E+01  0.15487771283E+01 -0.27050193502E+01  0.83487556300E+01  0.51100000000E-03 0.  1.
         12    1    4    4    0    0  0.17745393543E+02 -0.82879922497E+01  0.18061196972E+02  0.26642009001E+02  0.00000000000E+00 0. -1.
</event>
<event>
 8    1  0.2450026E-006  0.9118800E+02  0.7816164E-02  0.1184000E+00
        -11   -1    0    0    0    0  0.00000000000E+00  0.00000000000E+00  0.45593999997E+02  0.45594000000E+02  0.51100000000E-03 0.  1.
         11   -1    0    0    0    0 -0.00000000000E+00 -0.00000000000E+00 -0.45593999997E+02  0.45594000000E+02  0.51100000000E-03 0. -1.
         23    2    1    2    0    0  0.00000000000E+00  0.00000000000E+00 -0.17763568394E-14  0.91188000000E+02  0.91188000000E+02 0.  0.
    9900012    2    3    3    0    0  0.22603807965E+02 -0.25917889383E+02  0.13157144012E+02  0.54367087965E+02  0.40000008633E+02 0.  0.
         12    1    3    3    0    0 -0.22603807965E+02  0.25917889383E+02 -0.13157144012E+02  0.36820912035E+02  0.00000000000E+00 0. -1.
         11    1    4    4    0    0  0.72088167198E+01 -0.26102101442E+01  0.13168501383E+02  0.15237770980E+02  0.51100000000E-03 0. -1.
        -11    1    4    4    0    0  0.17090220855E+02 -0.22292640097E+02  0.93164854628E+01  0.29594498695E+02  0.51100000000E-03 0.  1.
         12    1    4    4    0    0 -0.16952296097E+01 -0.10150391420E+01 -0.93278428341E+01  0.95348182902E+01  0.00000000000E+00 0. -1.
</event>
<event>
 8    1  0.2450026E-006  0.9118800E+02  0.7816164E-02  0.1184000E+00
        -11   -1    0    0    0    0  0.00000000000E+00  0.00000000000E+00  0.45593999997E+02  0.45594000000E+02  0.51100000000E-03 0.  1.
         11   -1    0    0    0    0 -0.00000000000E+00 -0.00000000000E+00 -0.45593999997E+02  0.45594000000E+02  0.51100000000E-03 0. -1.
         23    2    1    2    0    0 -0.88817841970E-15 -0.17763568394E-14  0.00000000000E+00  0.91188000000E+02  0.91188000000E+02 0.  0.
    9900012    2    3    3    0    0 -0.75149168961E+01  0.88542663058E+01 -0.34941455988E+02  0.54367117958E+02  0.40000077008E+02 0.  0.
        -12    1    3    3    0    0  0.75149168961E+01 -0.88542663058E+01  0.34941455988E+02  0.36820882042E+02  0.00000000000E+00 0.  1.
         11    1    4    4    0    0 -0.11430004765E+02  0.29528919160E+01 -0.29393884331E+02  0.31675937491E+02  0.51100000000E-03 0. -1.
        -11    1    4    4    0    0  0.21683421061E+01 -0.20937621336E+01  0.70508282196E+01  0.76680979522E+01  0.51100000000E-03 0.  1.
         12    1    4    4    0    0  0.17467457625E+01  0.79951365235E+01 -0.12598399877E+02  0.15023082515E+02  0.00000000000E+00 0. -1.
</event>
<event>
 8    1  0.2450026E-006  0.9118800E+02  0.7816164E-02  0.1184000E+00
        -11   -1    0    0    0    0  0.00000000000E+00  0.00000000000E+00  0.45593999997E+02  0.45594000000E+02  0.51100000000E-03 0.  1.
         11   -1    0    0    0    0 -0.00000000000E+00 -0.00000000000E+00 -0.45593999997E+02  0.45594000000E+02  0.51100000000E-03 0. -1.
         23    2    1    2    0    0  0.00000000000E+00  0.00000000000E+00  0.00000000000E+00  0.91188000000E+02  0.91188000000E+02 0.  0.
    9900012    2    3    3    0    0 -0.27728965367E+02  0.75184576565E+01  0.23029564828E+02  0.54367033391E+02  0.39999884221E+02 0.  0.
        -12    1    3    3    0    0  0.27728965367E+02 -0.75184576565E+01 -0.23029564828E+02  0.36820966609E+02  0.00000000000E+00 0.  1.
         11    1    4    4    0    0 -0.47051451212E+00  0.21172977773E+01  0.72012114304E+01  0.75207566182E+01  0.51100000000E-03 0. -1.
        -11    1    4    4    0    0 -0.20629340121E+02  0.88112293258E+01  0.25933265686E+02  0.34289090181E+02  0.51100000000E-03 0.  1.
         12    1    4    4    0    0 -0.66291107336E+01 -0.34100694466E+01 -0.10104912288E+02  0.12557186591E+02  0.00000000000E+00 0. -1.
</event>
<event>
 8    1  0.2450026E-006  0.9118800E+02  0.7816164E-02  0.1184000E+00
        -11   -1    0    0    0    0  0.00000000000E+00  0.00000000000E+00  0.45593999997E+02  0.45594000000E+02  0.51100000000E-03 0. -1.
         11   -1    0    0    0    0 -0.00000000000E+00 -0.00000000000E+00 -0.45593999997E+02  0.45594000000E+02  0.51100000000E-03 0.  1.
         23    2    1    2    0    0  0.00000000000E+00  0.00000000000E+00 -0.88817841970E-15  0.91188000000E+02  0.91188000000E+02 0.  0.
    9900012    2    3    3    0    0 -0.57632669331E+01 -0.36113123377E+02  0.42903009669E+01  0.54367087353E+02  0.40000007239E+02 0.  0.
         12    1    3    3    0    0  0.57632669331E+01  0.36113123377E+02 -0.42903009669E+01  0.36820912647E+02  0.00000000000E+00 0. -1.
         11    1    4    4    0    0 -0.92389039348E+00  0.32401217308E+01 -0.15066758090E+01  0.36908040512E+01  0.51100000000E-03 0. -1.
        -11    1    4    4    0    0 -0.16041776352E+02 -0.10746204224E+02 -0.50148980992E+00  0.19315045587E+02  0.51100000000E-03 0.  1.
         12    1    4    4    0    0  0.11202399812E+02 -0.28607040883E+02  0.62984665858E+01  0.31361237714E+02  0.00000000000E+00 0. -1.
</event>
<event>
 8    1  0.2450026E-006  0.9118800E+02  0.7816164E-02  0.1184000E+00
        -11   -1    0    0    0    0  0.00000000000E+00  0.00000000000E+00  0.45593999997E+02  0.45594000000E+02  0.51100000000E-03 0. -1.
         11   -1    0    0    0    0 -0.00000000000E+00 -0.00000000000E+00 -0.45593999997E+02  0.45594000000E+02  0.51100000000E-03 0.  1.
         23    2    1    2    0    0  0.35527136788E-14  0.00000000000E+00  0.17763568394E-14  0.91188000000E+02  0.91188000000E+02 0.  0.
    9900012    2    3    3    0    0 -0.26588779118E+02 -0.24756627251E+02  0.59938854279E+01  0.54367076188E+02  0.39999981787E+02 0.  0.
        -12    1    3    3    0    0  0.26588779118E+02  0.24756627251E+02 -0.59938854279E+01  0.36820923812E+02  0.00000000000E+00 0.  1.
         11    1    4    4    0    0 -0.20252686020E+02 -0.26910662582E+02  0.18937655183E+02  0.38639226645E+02  0.51100000000E-03 0. -1.
        -11    1    4    4    0    0 -0.27096775425E+00  0.28100718962E+01 -0.37407030655E+01  0.46864471906E+01  0.51100000000E-03 0.  1.
         12    1    4    4    0    0 -0.60651253434E+01 -0.65603656487E+00 -0.92030666900E+01  0.11041402352E+02  0.00000000000E+00 0. -1.
</event>
<event>
 8    1  0.2450026E-006  0.9118800E+02  0.7816164E-02  0.1184000E+00
        -11   -1    0    0    0    0  0.00000000000E+00  0.00000000000E+00  0.45593999997E+02  0.45594000000E+02  0.51100000000E-03 0. -1.
         11   -1    0    0    0    0 -0.00000000000E+00 -0.00000000000E+00 -0.45593999997E+02  0.45594000000E+02  0.51100000000E-03 0.  1.
         23    2    1    2    0    0  0.35527136788E-14  0.35527136788E-14  0.00000000000E+00  0.91188000000E+02  0.91188000000E+02 0.  0.
    9900012    2    3    3    0    0 -0.15335065964E+02 -0.19485646403E+02  0.27219903876E+02  0.54367111487E+02  0.40000062256E+02 0.  0.
        -12    1    3    3    0    0  0.15335065964E+02  0.19485646403E+02 -0.27219903876E+02  0.36820888513E+02  0.00000000000E+00 0.  1.
         11    1    4    4    0    0 -0.98362337201E+01 -0.40213919685E+01  0.14617519718E+02  0.18071938748E+02  0.51100000000E-03 0. -1.
        -11    1    4    4    0    0  0.50174614270E+01 -0.17470254115E+02  0.16842554565E+02  0.24780160260E+02  0.51100000000E-03 0.  1.
        -12    1    4    4    0    0 -0.10516293671E+02  0.20059996799E+01 -0.42401704065E+01  0.11515012478E+02  0.00000000000E+00 0.  1.
</event>
<event>
 8    1  0.2450026E-006  0.9118800E+02  0.7816164E-02  0.1184000E+00
        -11   -1    0    0    0    0  0.00000000000E+00  0.00000000000E+00  0.45593999997E+02  0.45594000000E+02  0.51100000000E-03 0. -1.
         11   -1    0    0    0    0 -0.00000000000E+00 -0.00000000000E+00 -0.45593999997E+02  0.45594000000E+02  0.51100000000E-03 0.  1.
         23    2    1    2    0    0  0.35527136788E-14  0.00000000000E+00 -0.71054273576E-14  0.91188000000E+02  0.91188000000E+02 0.  0.
    9900012    2    3    3    0    0  0.31608422306E+02 -0.91407755877E+01 -0.16526749494E+02  0.54367087629E+02  0.40000007867E+02 0.  0.
         12    1    3    3    0    0 -0.31608422306E+02  0.91407755877E+01  0.16526749494E+02  0.36820912371E+02  0.00000000000E+00 0. -1.
         11    1    4    4    0    0  0.48204076744E+01 -0.12491091574E+02 -0.66685571427E+00  0.13405536008E+02  0.51100000000E-03 0. -1.
        -11    1    4    4    0    0  0.18576491751E+02 -0.64561655669E+01 -0.19467321093E+02  0.27672092628E+02  0.51100000000E-03 0.  1.
         12    1    4    4    0    0  0.82115228812E+01  0.98064815536E+01  0.36074273138E+01  0.13289458993E+02  0.00000000000E+00 0. -1.
</event>
<event>
 8    1  0.2450026E-006  0.9118800E+02  0.7816164E-02  0.1184000E+00
        -11   -1    0    0    0    0  0.00000000000E+00  0.00000000000E+00  0.45593999997E+02  0.45594000000E+02  0.51100000000E-03 0. -1.
         11   -1    0    0    0    0 -0.00000000000E+00 -0.00000000000E+00 -0.45593999997E+02  0.45594000000E+02  0.51100000000E-03 0.  1.
         23    2    1    2    0    0  0.00000000000E+00 -0.26645352591E-14  0.88817841970E-15  0.91188000000E+02  0.91188000000E+02 0.  0.
    9900012    2    3    3    0    0  0.35890622533E+02  0.34831473103E+01 -0.74505144310E+01  0.54367091995E+02  0.40000017822E+02 0.  0.
         12    1    3    3    0    0 -0.35890622533E+02 -0.34831473103E+01  0.74505144310E+01  0.36820908005E+02  0.00000000000E+00 0. -1.
         11    1    4    4    0    0 -0.88478626370E+00 -0.63852937461E+01 -0.44572520211E+01  0.78372137139E+01  0.51100000000E-03 0. -1.
        -11    1    4    4    0    0  0.23682561241E+02  0.19086380483E+02 -0.16400827555E+01  0.30460523609E+02  0.51100000000E-03 0.  1.
        -12    1    4    4    0    0  0.13092847556E+02 -0.92179394267E+01 -0.13531796544E+01  0.16069354672E+02  0.00000000000E+00 0.  1.
</event>
<event>
 8    1  0.2450026E-006  0.9118800E+02  0.7816164E-02  0.1184000E+00
        -11   -1    0    0    0    0  0.00000000000E+00  0.00000000000E+00  0.45593999997E+02  0.45594000000E+02  0.51100000000E-03 0.  1.
         11   -1    0    0    0    0 -0.00000000000E+00 -0.00000000000E+00 -0.45593999997E+02  0.45594000000E+02  0.51100000000E-03 0. -1.
         23    2    1    2    0    0  0.00000000000E+00  0.00000000000E+00  0.22204460493E-15  0.91188000000E+02  0.91188000000E+02 0.  0.
    9900012    2    3    3    0    0  0.35478835765E+02  0.97629564459E+01 -0.13107100544E+01  0.54367067548E+02  0.39999962089E+02 0.  0.
        -12    1    3    3    0    0 -0.35478835765E+02 -0.97629564459E+01  0.13107100544E+01  0.36820932452E+02  0.00000000000E+00 0.  1.
         11    1    4    4    0    0  0.19256208457E+02 -0.50175875832E+00 -0.99816741187E+01  0.21695325406E+02  0.51100000000E-03 0. -1.
        -11    1    4    4    0    0 -0.59858058521E+01 -0.17667154515E+01  0.18199754197E+01  0.65010357617E+01  0.51100000000E-03 0.  1.
        -12    1    4    4    0    0  0.22208433160E+02  0.12031430656E+02  0.68509886446E+01  0.26170706381E+02  0.00000000000E+00 0.  1.
</event>
<event>
 8    1  0.2450026E-006  0.9118800E+02  0.7816164E-02  0.1184000E+00
        -11   -1    0    0    0    0  0.00000000000E+00  0.00000000000E+00  0.45593999997E+02  0.45594000000E+02  0.51100000000E-03 0.  1.
         11   -1    0    0    0    0 -0.00000000000E+00 -0.00000000000E+00 -0.45593999997E+02  0.45594000000E+02  0.51100000000E-03 0. -1.
         23    2    1    2    0    0  0.35527136788E-14  0.00000000000E+00  0.00000000000E+00  0.91188000000E+02  0.91188000000E+02 0.  0.
    9900012    2    3    3    0    0  0.23723709097E+02 -0.18645789823E+02 -0.21102144082E+02  0.54367077465E+02  0.39999984697E+02 0.  0.
        -12    1    3    3    0    0 -0.23723709097E+02  0.18645789823E+02  0.21102144082E+02  0.36820922535E+02  0.00000000000E+00 0.  1.
         11    1    4    4    0    0  0.11727846339E+01 -0.24548325832E+01 -0.44966855255E+01  0.52556453253E+01  0.51100000000E-03 0. -1.
        -11    1    4    4    0    0  0.22477507913E+02 -0.41714744948E+01  0.58884843161E+01  0.23607494769E+02  0.51100000000E-03 0.  1.
        -12    1    4    4    0    0  0.73416550021E-01 -0.12019482745E+02 -0.22493942873E+02  0.25503937371E+02  0.00000000000E+00 0.  1.
</event>
<event>
 8    1  0.2450026E-006  0.9118800E+02  0.7816164E-02  0.1184000E+00
        -11   -1    0    0    0    0  0.00000000000E+00  0.00000000000E+00  0.45593999997E+02  0.45594000000E+02  0.51100000000E-03 0. -1.
         11   -1    0    0    0    0 -0.00000000000E+00 -0.00000000000E+00 -0.45593999997E+02  0.45594000000E+02  0.51100000000E-03 0.  1.
         23    2    1    2    0    0  0.35527136788E-14  0.00000000000E+00  0.35527136788E-14  0.91188000000E+02  0.91188000000E+02 0.  0.
    9900012    2    3    3    0    0 -0.19169518272E+02 -0.68701206696E+01  0.30677534152E+02  0.54367080804E+02  0.39999992309E+02 0.  0.
        -12    1    3    3    0    0  0.19169518272E+02  0.68701206696E+01 -0.30677534152E+02  0.36820919196E+02  0.00000000000E+00 0.  1.
         11    1    4    4    0    0  0.44782859910E+01 -0.47624396278E+01  0.11282187394E+02  0.13039310920E+02  0.51100000000E-03 0. -1.
        -11    1    4    4    0    0 -0.40476670008E+01  0.10794077326E+02  0.12197863976E+02  0.16783432286E+02  0.51100000000E-03 0.  1.
         12    1    4    4    0    0 -0.19600137262E+02 -0.12901758368E+02  0.71974827818E+01  0.24544337597E+02  0.00000000000E+00 0. -1.
</event>
<event>
 8    1  0.2450026E-006  0.9118800E+02  0.7816164E-02  0.1184000E+00
        -11   -1    0    0    0    0  0.00000000000E+00  0.00000000000E+00  0.45593999997E+02  0.45594000000E+02  0.51100000000E-03 0.  1.
         11   -1    0    0    0    0 -0.00000000000E+00 -0.00000000000E+00 -0.45593999997E+02  0.45594000000E+02  0.51100000000E-03 0. -1.
         23    2    1    2    0    0 -0.71054273576E-14  0.17763568394E-14 -0.17763568394E-14  0.91188000000E+02  0.91188000000E+02 0.  0.
    9900012    2    3    3    0    0 -0.32508254292E+02 -0.85867448053E+01 -0.15008751107E+02  0.54367063113E+02  0.39999951979E+02 0.  0.
         12    1    3    3    0    0  0.32508254292E+02  0.85867448053E+01  0.15008751107E+02  0.36820936887E+02  0.00000000000E+00 0. -1.
         11    1    4    4    0    0 -0.10035201642E+02  0.55343310127E+01 -0.17856776236E+02  0.21217882778E+02  0.51100000000E-03 0. -1.
        -11    1    4    4    0    0 -0.38532695721E+01 -0.12659309528E+02 -0.30180538428E+01  0.13572562521E+02  0.51100000000E-03 0.  1.
        -12    1    4    4    0    0 -0.18619783078E+02 -0.14617662902E+01  0.58660789723E+01  0.19576617815E+02  0.00000000000E+00 0.  1.
</event>
<event>
 8    1  0.2450026E-006  0.9118800E+02  0.7816164E-02  0.1184000E+00
        -11   -1    0    0    0    0  0.00000000000E+00  0.00000000000E+00  0.45593999997E+02  0.45594000000E+02  0.51100000000E-03 0.  1.
         11   -1    0    0    0    0 -0.00000000000E+00 -0.00000000000E+00 -0.45593999997E+02  0.45594000000E+02  0.51100000000E-03 0. -1.
         23    2    1    2    0    0  0.00000000000E+00  0.00000000000E+00  0.19984014443E-14  0.91188000000E+02  0.91188000000E+02 0.  0.
    9900012    2    3    3    0    0 -0.19113507717E+02  0.31438742881E+02 -0.14349793964E+01  0.54367083430E+02  0.39999998294E+02 0.  0.
         12    1    3    3    0    0  0.19113507717E+02 -0.31438742881E+02  0.14349793964E+01  0.36820916570E+02  0.00000000000E+00 0. -1.
         11    1    4    4    0    0 -0.59830533718E+01  0.15303021195E+02 -0.77163192461E+01  0.18152712423E+02  0.51100000000E-03 0. -1.
        -11    1    4    4    0    0 -0.11613710770E+02  0.13059740529E+02 -0.96186045724E+01  0.19948750705E+02  0.51100000000E-03 0.  1.
         12    1    4    4    0    0 -0.15167435758E+01  0.30759811576E+01  0.15899944422E+02  0.16265620301E+02  0.00000000000E+00 0. -1.
</event>
<event>
 8    1  0.2450026E-006  0.9118800E+02  0.7816164E-02  0.1184000E+00
        -11   -1    0    0    0    0  0.00000000000E+00  0.00000000000E+00  0.45593999997E+02  0.45594000000E+02  0.51100000000E-03 0.  1.
         11   -1    0    0    0    0 -0.00000000000E+00 -0.00000000000E+00 -0.45593999997E+02  0.45594000000E+02  0.51100000000E-03 0. -1.
         23    2    1    2    0    0  0.00000000000E+00 -0.17763568394E-14  0.35527136788E-14  0.91188000000E+02  0.91188000000E+02 0.  0.
    9900012    2    3    3    0    0 -0.24983879549E+02 -0.13594071058E+02  0.23383486112E+02  0.54367076220E+02  0.39999981859E+02 0.  0.
         12    1    3    3    0    0  0.24983879549E+02  0.13594071058E+02 -0.23383486112E+02  0.36820923780E+02  0.00000000000E+00 0. -1.
         11    1    4    4    0    0 -0.84029045600E+01  0.13878242138E+01  0.41118946888E+01  0.94574065835E+01  0.51100000000E-03 0.  1.
        -11    1    4    4    0    0 -0.21615358858E+02  0.29836439154E+00  0.19059958334E+02  0.28820041149E+02  0.51100000000E-03 0. -1.
        -12    1    4    4    0    0  0.50343838686E+01 -0.15280259663E+02  0.21163308965E+00  0.16089628488E+02  0.00000000000E+00 0.  1.
</event>
<event>
 8    1  0.2450026E-006  0.9118800E+02  0.7816164E-02  0.1184000E+00
        -11   -1    0    0    0    0  0.00000000000E+00  0.00000000000E+00  0.45593999997E+02  0.45594000000E+02  0.51100000000E-03 0. -1.
         11   -1    0    0    0    0 -0.00000000000E+00 -0.00000000000E+00 -0.45593999997E+02  0.45594000000E+02  0.51100000000E-03 0.  1.
         23    2    1    2    0    0 -0.17763568394E-14  0.17763568394E-14  0.00000000000E+00  0.91188000000E+02  0.91188000000E+02 0.  0.
    9900012    2    3    3    0    0 -0.87385953952E+01 -0.12971704643E+02 -0.33333905045E+02  0.54367117388E+02  0.40000075709E+02 0.  0.
         12    1    3    3    0    0  0.87385953952E+01  0.12971704643E+02  0.33333905045E+02  0.36820882612E+02  0.00000000000E+00 0. -1.
         11    1    4    4    0    0  0.12410421947E+02  0.48915857272E+01 -0.66551858141E+01  0.14907638388E+02  0.51100000000E-03 0. -1.
        -11    1    4    4    0    0 -0.11594776403E+02 -0.41571138129E+01 -0.12459593102E+02  0.17520328069E+02  0.51100000000E-03 0.  1.
         12    1    4    4    0    0 -0.95542409385E+01 -0.13706176557E+02 -0.14219126128E+02  0.21939150931E+02  0.00000000000E+00 0. -1.
</event>
<event>
 8    1  0.2450026E-006  0.9118800E+02  0.7816164E-02  0.1184000E+00
        -11   -1    0    0    0    0  0.00000000000E+00  0.00000000000E+00  0.45593999997E+02  0.45594000000E+02  0.51100000000E-03 0.  1.
         11   -1    0    0    0    0 -0.00000000000E+00 -0.00000000000E+00 -0.45593999997E+02  0.45594000000E+02  0.51100000000E-03 0. -1.
         23    2    1    2    0    0 -0.35527136788E-14  0.35527136788E-14  0.35527136788E-14  0.91188000000E+02  0.91188000000E+02 0.  0.
    9900012    2    3    3    0    0  0.20051213043E+02 -0.17920205911E+02 -0.25151431147E+02  0.54367090001E+02  0.40000013276E+02 0.  0.
         12    1    3    3    0    0 -0.20051213043E+02  0.17920205911E+02  0.25151431147E+02  0.36820909999E+02  0.00000000000E+00 0. -1.
         11    1    4    4    0    0  0.20007265064E+02 -0.17217627902E+02 -0.18482953568E+02  0.32223546341E+02  0.51100000000E-03 0. -1.
        -11    1    4    4    0    0  0.48771674028E+01 -0.68600089088E+01 -0.10476317954E+02  0.13438739608E+02  0.51100000000E-03 0.  1.
         12    1    4    4    0    0 -0.48332194245E+01  0.61574308990E+01  0.38078403751E+01  0.87048040531E+01  0.00000000000E+00 0. -1.
</event>
<event>
 8    1  0.2450026E-006  0.9118800E+02  0.7816164E-02  0.1184000E+00
        -11   -1    0    0    0    0  0.00000000000E+00  0.00000000000E+00  0.45593999997E+02  0.45594000000E+02  0.51100000000E-03 0.  1.
         11   -1    0    0    0    0 -0.00000000000E+00 -0.00000000000E+00 -0.45593999997E+02  0.45594000000E+02  0.51100000000E-03 0. -1.
         23    2    1    2    0    0 -0.13322676296E-14 -0.35527136788E-14  0.35527136788E-14  0.91188000000E+02  0.91188000000E+02 0.  0.
    9900012    2    3    3    0    0 -0.34009571509E+01  0.22584610125E+02 -0.28881635743E+02  0.54367081934E+02  0.39999994886E+02 0.  0.
        -12    1    3    3    0    0  0.34009571509E+01 -0.22584610125E+02  0.28881635743E+02  0.36820918066E+02  0.00000000000E+00 0.  1.
         11    1    4    4    0    0 -0.10869160975E+02 -0.79519739983E+01 -0.89970683017E+01  0.16196289361E+02  0.51100000000E-03 0. -1.
        -11    1    4    4    0    0  0.45550791116E+00  0.64388684124E+01 -0.52882083180E+00  0.64765859542E+01  0.51100000000E-03 0.  1.
         12    1    4    4    0    0  0.70126959131E+01  0.24097715711E+02 -0.19355746609E+02  0.31694206619E+02  0.00000000000E+00 0. -1.
</event>
<event>
 8    1  0.2450026E-006  0.9118800E+02  0.7816164E-02  0.1184000E+00
        -11   -1    0    0    0    0  0.00000000000E+00  0.00000000000E+00  0.45593999997E+02  0.45594000000E+02  0.51100000000E-03 0. -1.
         11   -1    0    0    0    0 -0.00000000000E+00 -0.00000000000E+00 -0.45593999997E+02  0.45594000000E+02  0.51100000000E-03 0.  1.
         23    2    1    2    0    0  0.00000000000E+00  0.00000000000E+00  0.00000000000E+00  0.91188000000E+02  0.91188000000E+02 0.  0.
    9900012    2    3    3    0    0 -0.83422508765E+01  0.12626902337E+02  0.33567051516E+02  0.54367098873E+02  0.40000033501E+02 0.  0.
        -12    1    3    3    0    0  0.83422508765E+01 -0.12626902337E+02 -0.33567051516E+02  0.36820901127E+02  0.00000000000E+00 0.  1.
         11    1    4    4    0    0 -0.92896972641E+01 -0.26569056165E+01  0.70013774964E+01  0.11932179592E+02  0.51100000000E-03 0. -1.
        -11    1    4    4    0    0 -0.13929814180E+02  0.56278023295E+01  0.92227196982E+01  0.17628682340E+02  0.51100000000E-03 0.  1.
         12    1    4    4    0    0  0.14877260567E+02  0.96560056241E+01  0.17342954321E+02  0.24806236941E+02  0.00000000000E+00 0. -1.
</event>
<event>
 8    1  0.2450026E-006  0.9118800E+02  0.7816164E-02  0.1184000E+00
        -11   -1    0    0    0    0  0.00000000000E+00  0.00000000000E+00  0.45593999997E+02  0.45594000000E+02  0.51100000000E-03 0.  1.
         11   -1    0    0    0    0 -0.00000000000E+00 -0.00000000000E+00 -0.45593999997E+02  0.45594000000E+02  0.51100000000E-03 0. -1.
         23    2    1    2    0    0  0.00000000000E+00  0.35527136788E-14  0.00000000000E+00  0.91188000000E+02  0.91188000000E+02 0.  0.
    9900012    2    3    3    0    0  0.10953821503E+02 -0.18042009860E+02 -0.30170859948E+02  0.54367066887E+02  0.39999960581E+02 0.  0.
        -12    1    3    3    0    0 -0.10953821503E+02  0.18042009860E+02  0.30170859948E+02  0.36820933113E+02  0.00000000000E+00 0.  1.
         11    1    4    4    0    0  0.11293786369E+02 -0.10979073592E+02 -0.11600577320E+02  0.19561775530E+02  0.51100000000E-03 0. -1.
        -11    1    4    4    0    0 -0.43162435694E+00 -0.13325717973E+02  0.18367961522E+01  0.13458635869E+02  0.51100000000E-03 0.  1.
         12    1    4    4    0    0  0.91659491394E-01  0.62627817050E+01 -0.20407078780E+02  0.21346655487E+02  0.00000000000E+00 0. -1.
</event>
<event>
 8    1  0.2450026E-006  0.9118800E+02  0.7816164E-02  0.1184000E+00
        -11   -1    0    0    0    0  0.00000000000E+00  0.00000000000E+00  0.45593999997E+02  0.45594000000E+02  0.51100000000E-03 0. -1.
         11   -1    0    0    0    0 -0.00000000000E+00 -0.00000000000E+00 -0.45593999997E+02  0.45594000000E+02  0.51100000000E-03 0.  1.
         23    2    1    2    0    0  0.00000000000E+00  0.00000000000E+00  0.35527136788E-14  0.91188000000E+02  0.91188000000E+02 0.  0.
    9900012    2    3    3    0    0  0.14223522325E+02 -0.19600893779E+02 -0.27735819904E+02  0.54367091130E+02  0.40000015849E+02 0.  0.
         12    1    3    3    0    0 -0.14223522325E+02  0.19600893779E+02  0.27735819904E+02  0.36820908870E+02  0.00000000000E+00 0. -1.
         11    1    4    4    0    0  0.27973600984E+01 -0.17775412951E+02 -0.22942859361E+02  0.29157594637E+02  0.51100000000E-03 0. -1.
        -11    1    4    4    0    0  0.77896535762E+01 -0.10611086670E+01  0.83989438327E+01  0.11504212803E+02  0.51100000000E-03 0.  1.
         12    1    4    4    0    0  0.36365086499E+01 -0.76437216084E+00 -0.13191904376E+02  0.13705283691E+02  0.00000000000E+00 0. -1.
</event>
<event>
 8    1  0.2450026E-006  0.9118800E+02  0.7816164E-02  0.1184000E+00
        -11   -1    0    0    0    0  0.00000000000E+00  0.00000000000E+00  0.45593999997E+02  0.45594000000E+02  0.51100000000E-03 0.  1.
         11   -1    0    0    0    0 -0.00000000000E+00 -0.00000000000E+00 -0.45593999997E+02  0.45594000000E+02  0.51100000000E-03 0. -1.
         23    2    1    2    0    0  0.71054273576E-14  0.55511151231E-16 -0.37747582837E-14  0.91188000000E+02  0.91188000000E+02 0.  0.
    9900012    2    3    3    0    0 -0.36803187532E+02  0.39955140392E+00 -0.10699005282E+01  0.54367096413E+02  0.40000027892E+02 0.  0.
        -12    1    3    3    0    0  0.36803187532E+02 -0.39955140392E+00  0.10699005282E+01  0.36820903587E+02  0.00000000000E+00 0.  1.
         11    1    4    4    0    0 -0.17653427796E+02  0.75823236584E+00  0.63671835606E+01  0.18781891706E+02  0.51100000000E-03 0. -1.
        -11    1    4    4    0    0 -0.16241051544E+02  0.49695696780E+01 -0.17146404301E+02  0.24134364685E+02  0.51100000000E-03 0.  1.
        -12    1    4    4    0    0 -0.29087081919E+01 -0.53282506399E+01  0.97093202124E+01  0.11450840022E+02  0.00000000000E+00 0.  1.
</event>
<event>
 8    1  0.2450026E-006  0.9118800E+02  0.7816164E-02  0.1184000E+00
        -11   -1    0    0    0    0  0.00000000000E+00  0.00000000000E+00  0.45593999997E+02  0.45594000000E+02  0.51100000000E-03 0.  1.
         11   -1    0    0    0    0 -0.00000000000E+00 -0.00000000000E+00 -0.45593999997E+02  0.45594000000E+02  0.51100000000E-03 0. -1.
         23    2    1    2    0    0  0.00000000000E+00  0.35527136788E-14 -0.26645352591E-14  0.91188000000E+02  0.91188000000E+02 0.  0.
    9900012    2    3    3    0    0 -0.26888681530E+02  0.24734277517E+02 -0.45820736075E+01  0.54367067404E+02  0.39999961761E+02 0.  0.
        -12    1    3    3    0    0  0.26888681530E+02 -0.24734277517E+02  0.45820736075E+01  0.36820932596E+02  0.00000000000E+00 0.  1.
         11    1    4    4    0    0  0.27079508724E+00  0.96331325380E+01  0.59686146491E+01  0.11335560576E+02  0.51100000000E-03 0. -1.
        -11    1    4    4    0    0  0.36881685675E+01 -0.20251976645E+01  0.30722921404E+01  0.52098936860E+01  0.51100000000E-03 0.  1.
         12    1    4    4    0    0 -0.30847645185E+02  0.17126342643E+02 -0.13622980397E+02  0.37821613142E+02  0.00000000000E+00 0. -1.
</event>
<event>
 8    1  0.2450026E-006  0.9118800E+02  0.7816164E-02  0.1184000E+00
        -11   -1    0    0    0    0  0.00000000000E+00  0.00000000000E+00  0.45593999997E+02  0.45594000000E+02  0.51100000000E-03 0.  1.
         11   -1    0    0    0    0 -0.00000000000E+00 -0.00000000000E+00 -0.45593999997E+02  0.45594000000E+02  0.51100000000E-03 0. -1.
         23    2    1    2    0    0 -0.35527136788E-14 -0.17763568394E-14  0.00000000000E+00  0.91188000000E+02  0.91188000000E+02 0.  0.
    9900012    2    3    3    0    0 -0.23831084680E+02 -0.11833539718E+02 -0.25452419200E+02  0.54367096937E+02  0.40000029086E+02 0.  0.
        -12    1    3    3    0    0  0.23831084680E+02  0.11833539718E+02  0.25452419200E+02  0.36820903063E+02  0.00000000000E+00 0.  1.
         11    1    4    4    0    0 -0.15988728935E+02 -0.15335352790E+02 -0.45066449757E+01  0.22608015112E+02  0.51100000000E-03 0.  1.
        -11    1    4    4    0    0  0.48702928198E+01 -0.34763520499E+01 -0.14882985565E+02  0.16040824022E+02  0.51100000000E-03 0. -1.
        -12    1    4    4    0    0 -0.12712648565E+02  0.69781651214E+01 -0.60627886592E+01  0.15718257802E+02  0.00000000000E+00 0.  1.
</event>
<event>
 8    1  0.2450026E-006  0.9118800E+02  0.7816164E-02  0.1184000E+00
        -11   -1    0    0    0    0  0.00000000000E+00  0.00000000000E+00  0.45593999997E+02  0.45594000000E+02  0.51100000000E-03 0.  1.
         11   -1    0    0    0    0 -0.00000000000E+00 -0.00000000000E+00 -0.45593999997E+02  0.45594000000E+02  0.51100000000E-03 0. -1.
         23    2    1    2    0    0  0.00000000000E+00  0.35527136788E-14  0.00000000000E+00  0.91188000000E+02  0.91188000000E+02 0.  0.
    9900012    2    3    3    0    0  0.10402962474E+02 -0.21504068794E+02 -0.28020239816E+02  0.54367076027E+02  0.39999981418E+02 0.  0.
        -12    1    3    3    0    0 -0.10402962474E+02  0.21504068794E+02  0.28020239816E+02  0.36820923973E+02  0.00000000000E+00 0.  1.
         11    1    4    4    0    0 -0.77175193097E+01 -0.16145292043E+02 -0.49149544777E+01  0.18557675965E+02  0.51100000000E-03 0. -1.
        -11    1    4    4    0    0  0.42371246651E+01 -0.10704317178E+02 -0.54958222939E+01  0.12756946916E+02  0.51100000000E-03 0.  1.
        -12    1    4    4    0    0  0.13883357119E+02  0.53455404271E+01 -0.17609463044E+02  0.23052453146E+02  0.00000000000E+00 0.  1.
</event>
<event>
 8    1  0.2450026E-006  0.9118800E+02  0.7816164E-02  0.1184000E+00
        -11   -1    0    0    0    0  0.00000000000E+00  0.00000000000E+00  0.45593999997E+02  0.45594000000E+02  0.51100000000E-03 0. -1.
         11   -1    0    0    0    0 -0.00000000000E+00 -0.00000000000E+00 -0.45593999997E+02  0.45594000000E+02  0.51100000000E-03 0.  1.
         23    2    1    2    0    0  0.00000000000E+00 -0.17763568394E-14 -0.44408920985E-15  0.91188000000E+02  0.91188000000E+02 0.  0.
    9900012    2    3    3    0    0  0.33814154256E+02 -0.14110970059E+02  0.36419090597E+01  0.54367081955E+02  0.39999994933E+02 0.  0.
        -12    1    3    3    0    0 -0.33814154256E+02  0.14110970059E+02 -0.36419090597E+01  0.36820918045E+02  0.00000000000E+00 0.  1.
         11    1    4    4    0    0  0.32561997272E+02 -0.11677281739E+02 -0.12979657121E+02  0.36947450175E+02  0.51100000000E-03 0. -1.
        -11    1    4    4    0    0  0.14917336698E+01  0.88579739892E+00  0.38732702050E+01  0.42440698292E+01  0.51100000000E-03 0.  1.
         12    1    4    4    0    0 -0.23957668625E+00 -0.33194857194E+01  0.12748295976E+02  0.13175561951E+02  0.00000000000E+00 0. -1.
</event>
<event>
 8    1  0.2450026E-006  0.9118800E+02  0.7816164E-02  0.1184000E+00
        -11   -1    0    0    0    0  0.00000000000E+00  0.00000000000E+00  0.45593999997E+02  0.45594000000E+02  0.51100000000E-03 0. -1.
         11   -1    0    0    0    0 -0.00000000000E+00 -0.00000000000E+00 -0.45593999997E+02  0.45594000000E+02  0.51100000000E-03 0.  1.
         23    2    1    2    0    0  0.35527136788E-14  0.00000000000E+00  0.00000000000E+00  0.91188000000E+02  0.91188000000E+02 0.  0.
    9900012    2    3    3    0    0  0.20536926717E+02  0.23730946386E+02  0.19257655233E+02  0.54367075779E+02  0.39999980854E+02 0.  0.
         12    1    3    3    0    0 -0.20536926717E+02 -0.23730946386E+02 -0.19257655233E+02  0.36820924221E+02  0.00000000000E+00 0. -1.
         11    1    4    4    0    0  0.19106804787E+02  0.21984933383E+02  0.22885437915E+02  0.37042550585E+02  0.51100000000E-03 0. -1.
        -11    1    4    4    0    0  0.69570106658E+01  0.38960366792E+01  0.29189488432E+01  0.84911343070E+01  0.51100000000E-03 0.  1.
         12    1    4    4    0    0 -0.55268887352E+01 -0.21500236761E+01 -0.65467315256E+01  0.88333908872E+01  0.00000000000E+00 0. -1.
</event>
<event>
 8    1  0.2450026E-006  0.9118800E+02  0.7816164E-02  0.1184000E+00
        -11   -1    0    0    0    0  0.00000000000E+00  0.00000000000E+00  0.45593999997E+02  0.45594000000E+02  0.51100000000E-03 0. -1.
         11   -1    0    0    0    0 -0.00000000000E+00 -0.00000000000E+00 -0.45593999997E+02  0.45594000000E+02  0.51100000000E-03 0.  1.
         23    2    1    2    0    0  0.00000000000E+00  0.00000000000E+00  0.00000000000E+00  0.91188000000E+02  0.91188000000E+02 0.  0.
    9900012    2    3    3    0    0  0.36734253964E+01  0.29074529438E+02 -0.22292367435E+02  0.54367191182E+02  0.40000243936E+02 0.  0.
         12    1    3    3    0    0 -0.36734253964E+01 -0.29074529438E+02  0.22292367435E+02  0.36820808818E+02  0.00000000000E+00 0. -1.
         11    1    4    4    0    0  0.20911168698E+01  0.27335914058E+02  0.38702051270E+01  0.27687604720E+02  0.51100000000E-03 0. -1.
        -11    1    4    4    0    0  0.18569174056E+00  0.29098666495E+01 -0.10055639246E+02  0.10469846525E+02  0.51100000000E-03 0.  1.
         12    1    4    4    0    0  0.13966167860E+01 -0.11712512694E+01 -0.16106933316E+02  0.16209739937E+02  0.00000000000E+00 0. -1.
</event>
<event>
 8    1  0.2450026E-006  0.9118800E+02  0.7816164E-02  0.1184000E+00
        -11   -1    0    0    0    0  0.00000000000E+00  0.00000000000E+00  0.45593999997E+02  0.45594000000E+02  0.51100000000E-03 0.  1.
         11   -1    0    0    0    0 -0.00000000000E+00 -0.00000000000E+00 -0.45593999997E+02  0.45594000000E+02  0.51100000000E-03 0. -1.
         23    2    1    2    0    0  0.00000000000E+00  0.35527136788E-14 -0.35527136788E-14  0.91188000000E+02  0.91188000000E+02 0.  0.
    9900012    2    3    3    0    0 -0.26226426466E+02 -0.24890639247E+02 -0.69576644926E+01  0.54367102911E+02  0.40000042706E+02 0.  0.
         12    1    3    3    0    0  0.26226426466E+02  0.24890639247E+02  0.69576644926E+01  0.36820897089E+02  0.00000000000E+00 0. -1.
         11    1    4    4    0    0  0.26320272151E-01 -0.19603330635E+02 -0.60030816685E+01  0.20501908558E+02  0.51100000000E-03 0. -1.
        -11    1    4    4    0    0 -0.11241312989E+02 -0.32251185122E+01  0.98213140282E+01  0.15271762067E+02  0.51100000000E-03 0.  1.
        -12    1    4    4    0    0 -0.15011433749E+02 -0.20621900999E+01 -0.10775896852E+02  0.18593432286E+02  0.00000000000E+00 0.  1.
</event>
<event>
 8    1  0.2450026E-006  0.9118800E+02  0.7816164E-02  0.1184000E+00
        -11   -1    0    0    0    0  0.00000000000E+00  0.00000000000E+00  0.45593999997E+02  0.45594000000E+02  0.51100000000E-03 0. -1.
         11   -1    0    0    0    0 -0.00000000000E+00 -0.00000000000E+00 -0.45593999997E+02  0.45594000000E+02  0.51100000000E-03 0.  1.
         23    2    1    2    0    0  0.35527136788E-14  0.00000000000E+00  0.00000000000E+00  0.91188000000E+02  0.91188000000E+02 0.  0.
    9900012    2    3    3    0    0 -0.21798701483E+02  0.26437709487E+02 -0.13477404224E+02  0.54367132359E+02  0.40000109839E+02 0.  0.
         12    1    3    3    0    0  0.21798701483E+02 -0.26437709487E+02  0.13477404224E+02  0.36820867641E+02  0.00000000000E+00 0. -1.
         11    1    4    4    0    0 -0.20042167673E+02  0.15201379243E+02 -0.21637979850E+02  0.33180906982E+02  0.51100000000E-03 0. -1.
        -11    1    4    4    0    0 -0.86330178311E-01  0.87913649190E+01 -0.32685964800E+01  0.93797267150E+01  0.51100000000E-03 0.  1.
         12    1    4    4    0    0 -0.16702036317E+01  0.24449653249E+01  0.11429172107E+02  0.11806498662E+02  0.00000000000E+00 0. -1.
</event>
<event>
 8    1  0.2450026E-006  0.9118800E+02  0.7816164E-02  0.1184000E+00
        -11   -1    0    0    0    0  0.00000000000E+00  0.00000000000E+00  0.45593999997E+02  0.45594000000E+02  0.51100000000E-03 0.  1.
         11   -1    0    0    0    0 -0.00000000000E+00 -0.00000000000E+00 -0.45593999997E+02  0.45594000000E+02  0.51100000000E-03 0. -1.
         23    2    1    2    0    0  0.17763568394E-14  0.71054273576E-14 -0.35527136788E-14  0.91188000000E+02  0.91188000000E+02 0.  0.
    9900012    2    3    3    0    0  0.56326280901E+01  0.32333923558E+02 -0.16690479968E+02  0.54367065284E+02  0.39999956927E+02 0.  0.
        -12    1    3    3    0    0 -0.56326280901E+01 -0.32333923558E+02  0.16690479968E+02  0.36820934716E+02  0.00000000000E+00 0.  1.
         11    1    4    4    0    0 -0.11373139669E+02  0.72584406059E+01  0.38047590520E+01  0.14018183109E+02  0.51100000000E-03 0. -1.
        -11    1    4    4    0    0 -0.30653239219E+01  0.17952409039E+01 -0.43903488125E+01  0.56475006513E+01  0.51100000000E-03 0.  1.
        -12    1    4    4    0    0  0.20071091681E+02  0.23280242048E+02 -0.16104890207E+02  0.34701381524E+02  0.00000000000E+00 0.  1.
</event>
<event>
 8    1  0.2450026E-006  0.9118800E+02  0.7816164E-02  0.1184000E+00
        -11   -1    0    0    0    0  0.00000000000E+00  0.00000000000E+00  0.45593999997E+02  0.45594000000E+02  0.51100000000E-03 0. -1.
         11   -1    0    0    0    0 -0.00000000000E+00 -0.00000000000E+00 -0.45593999997E+02  0.45594000000E+02  0.51100000000E-03 0.  1.
         23    2    1    2    0    0 -0.35527136788E-14  0.00000000000E+00 -0.35527136788E-14  0.91188000000E+02  0.91188000000E+02 0.  0.
    9900012    2    3    3    0    0 -0.21839471465E+02 -0.13998088094E+02 -0.26131796570E+02  0.54367085072E+02  0.40000002039E+02 0.  0.
         12    1    3    3    0    0  0.21839471465E+02  0.13998088094E+02  0.26131796570E+02  0.36820914928E+02  0.00000000000E+00 0. -1.
         11    1    4    4    0    0 -0.11929449516E+02 -0.42367965514E+01 -0.12065862496E+02  0.17488489037E+02  0.51100000000E-03 0. -1.
        -11    1    4    4    0    0 -0.11541873325E+02 -0.20340061403E+02 -0.95804630176E+01  0.25272874977E+02  0.51100000000E-03 0.  1.
         12    1    4    4    0    0  0.16318513764E+01  0.10578769860E+02 -0.44854710567E+01  0.11605721057E+02  0.00000000000E+00 0. -1.
</event>
<event>
 8    1  0.2450026E-006  0.9118800E+02  0.7816164E-02  0.1184000E+00
        -11   -1    0    0    0    0  0.00000000000E+00  0.00000000000E+00  0.45593999997E+02  0.45594000000E+02  0.51100000000E-03 0.  1.
         11   -1    0    0    0    0 -0.00000000000E+00 -0.00000000000E+00 -0.45593999997E+02  0.45594000000E+02  0.51100000000E-03 0. -1.
         23    2    1    2    0    0  0.00000000000E+00 -0.15543122345E-14  0.71054273576E-14  0.91188000000E+02  0.91188000000E+02 0.  0.
    9900012    2    3    3    0    0 -0.21181304968E+02  0.12985332745E+01 -0.30090639662E+02  0.54367075731E+02  0.39999980743E+02 0.  0.
        -12    1    3    3    0    0  0.21181304968E+02 -0.12985332745E+01  0.30090639662E+02  0.36820924269E+02  0.00000000000E+00 0.  1.
         11    1    4    4    0    0 -0.63848770663E+01 -0.13672513032E+02 -0.61817630271E+01  0.16307006536E+02  0.51100000000E-03 0. -1.
        -11    1    4    4    0    0  0.41554177238E+01  0.47771169566E+01 -0.63690774253E+00  0.63634891852E+01  0.51100000000E-03 0.  1.
         12    1    4    4    0    0 -0.18951845625E+02  0.10193929350E+02 -0.23271968892E+02  0.31696580010E+02  0.00000000000E+00 0. -1.
</event>
<event>
 8    1  0.2450026E-006  0.9118800E+02  0.7816164E-02  0.1184000E+00
        -11   -1    0    0    0    0  0.00000000000E+00  0.00000000000E+00  0.45593999997E+02  0.45594000000E+02  0.51100000000E-03 0.  1.
         11   -1    0    0    0    0 -0.00000000000E+00 -0.00000000000E+00 -0.45593999997E+02  0.45594000000E+02  0.51100000000E-03 0. -1.
         23    2    1    2    0    0  0.35527136788E-14  0.00000000000E+00  0.00000000000E+00  0.91188000000E+02  0.91188000000E+02 0.  0.
    9900012    2    3    3    0    0  0.21350518138E+02  0.38087745813E+01 -0.29756170171E+02  0.54367067749E+02  0.39999962548E+02 0.  0.
        -12    1    3    3    0    0 -0.21350518138E+02 -0.38087745813E+01  0.29756170171E+02  0.36820932251E+02  0.00000000000E+00 0.  1.
         11    1    4    4    0    0  0.99366378078E+01 -0.21576316971E+01  0.23412698412E+01  0.10434255613E+02  0.51100000000E-03 0. -1.
        -11    1    4    4    0    0  0.16267435496E+02  0.78919197005E+00 -0.67832044668E+01  0.17642679634E+02  0.51100000000E-03 0.  1.
         12    1    4    4    0    0 -0.48535551655E+01  0.51772143084E+01 -0.25314235545E+02  0.26290132502E+02  0.00000000000E+00 0. -1.
</event>
<event>
 8    1  0.2450026E-006  0.9118800E+02  0.7816164E-02  0.1184000E+00
        -11   -1    0    0    0    0  0.00000000000E+00  0.00000000000E+00  0.45593999997E+02  0.45594000000E+02  0.51100000000E-03 0. -1.
         11   -1    0    0    0    0 -0.00000000000E+00 -0.00000000000E+00 -0.45593999997E+02  0.45594000000E+02  0.51100000000E-03 0.  1.
         23    2    1    2    0    0  0.00000000000E+00 -0.71054273576E-14  0.00000000000E+00  0.91188000000E+02  0.91188000000E+02 0.  0.
    9900012    2    3    3    0    0  0.17522010318E+02 -0.32176897982E+02 -0.36617039075E+01  0.54367059154E+02  0.39999942952E+02 0.  0.
        -12    1    3    3    0    0 -0.17522010318E+02  0.32176897982E+02  0.36617039075E+01  0.36820940846E+02  0.00000000000E+00 0.  1.
         11    1    4    4    0    0  0.34871884837E+01  0.17617983416E+01 -0.95699698812E+01  0.10336766453E+02  0.51100000000E-03 0. -1.
        -11    1    4    4    0    0  0.77651776090E+01 -0.37933525417E+00  0.61126134653E+01  0.98896876680E+01  0.51100000000E-03 0.  1.
         12    1    4    4    0    0  0.62696442255E+01 -0.33559361069E+02 -0.20434749154E+00  0.34140605032E+02  0.00000000000E+00 0. -1.
</event>
<event>
 8    1  0.2450026E-006  0.9118800E+02  0.7816164E-02  0.1184000E+00
        -11   -1    0    0    0    0  0.00000000000E+00  0.00000000000E+00  0.45593999997E+02  0.45594000000E+02  0.51100000000E-03 0. -1.
         11   -1    0    0    0    0 -0.00000000000E+00 -0.00000000000E+00 -0.45593999997E+02  0.45594000000E+02  0.51100000000E-03 0.  1.
         23    2    1    2    0    0  0.00000000000E+00  0.88817841970E-15  0.00000000000E+00  0.91188000000E+02  0.91188000000E+02 0.  0.
    9900012    2    3    3    0    0  0.33911895544E+02 -0.48204090501E+01  0.13510258916E+02  0.54367080691E+02  0.39999992051E+02 0.  0.
        -12    1    3    3    0    0 -0.33911895544E+02  0.48204090501E+01 -0.13510258916E+02  0.36820919309E+02  0.00000000000E+00 0.  1.
         11    1    4    4    0    0  0.19863548619E+02 -0.28710986539E+01  0.19471627945E+02  0.27963334320E+02  0.51100000000E-03 0. -1.
        -11    1    4    4    0    0 -0.31536163657E+01 -0.68893502960E+01 -0.34710675446E+01  0.83340718646E+01  0.51100000000E-03 0.  1.
         12    1    4    4    0    0  0.17201963291E+02  0.49400398998E+01 -0.24903014849E+01  0.18069674506E+02  0.00000000000E+00 0. -1.
</event>
<event>
 8    1  0.2450026E-006  0.9118800E+02  0.7816164E-02  0.1184000E+00
        -11   -1    0    0    0    0  0.00000000000E+00  0.00000000000E+00  0.45593999997E+02  0.45594000000E+02  0.51100000000E-03 0. -1.
         11   -1    0    0    0    0 -0.00000000000E+00 -0.00000000000E+00 -0.45593999997E+02  0.45594000000E+02  0.51100000000E-03 0.  1.
         23    2    1    2    0    0  0.71054273576E-14 -0.17763568394E-14  0.00000000000E+00  0.91188000000E+02  0.91188000000E+02 0.  0.
    9900012    2    3    3    0    0 -0.32304600609E+02 -0.62947651764E+01 -0.16509662009E+02  0.54367078925E+02  0.39999988026E+02 0.  0.
         12    1    3    3    0    0  0.32304600609E+02  0.62947651764E+01  0.16509662009E+02  0.36820921075E+02  0.00000000000E+00 0. -1.
         11    1    4    4    0    0 -0.18021384640E+02 -0.80171590816E+01 -0.42897838856E+01  0.20185326109E+02  0.51100000000E-03 0. -1.
        -11    1    4    4    0    0 -0.19741102942E+02 -0.75621515397E+01 -0.85543671727E+01  0.22805141509E+02  0.51100000000E-03 0.  1.
         12    1    4    4    0    0  0.54578869716E+01  0.92845454449E+01 -0.36655109505E+01  0.11376611308E+02  0.00000000000E+00 0. -1.
</event>
<event>
 8    1  0.2450026E-006  0.9118800E+02  0.7816164E-02  0.1184000E+00
        -11   -1    0    0    0    0  0.00000000000E+00  0.00000000000E+00  0.45593999997E+02  0.45594000000E+02  0.51100000000E-03 0. -1.
         11   -1    0    0    0    0 -0.00000000000E+00 -0.00000000000E+00 -0.45593999997E+02  0.45594000000E+02  0.51100000000E-03 0.  1.
         23    2    1    2    0    0 -0.17763568394E-14  0.00000000000E+00  0.00000000000E+00  0.91188000000E+02  0.91188000000E+02 0.  0.
    9900012    2    3    3    0    0  0.32477806484E+01 -0.28359893090E+02  0.23258309675E+02  0.54367074100E+02  0.39999977026E+02 0.  0.
        -12    1    3    3    0    0 -0.32477806484E+01  0.28359893090E+02 -0.23258309675E+02  0.36820925900E+02  0.00000000000E+00 0.  1.
         11    1    4    4    0    0  0.27951367354E+01  0.58882235916E+00 -0.15094426393E+01  0.32307767615E+01  0.51100000000E-03 0. -1.
        -11    1    4    4    0    0  0.83143794715E+01 -0.31897068515E+02  0.26816844846E+02  0.42493470718E+02  0.51100000000E-03 0.  1.
        -12    1    4    4    0    0 -0.78617355584E+01  0.29483530667E+01 -0.20490925316E+01  0.86428266209E+01  0.00000000000E+00 0.  1.
</event>
<event>
 8    1  0.2450026E-006  0.9118800E+02  0.7816164E-02  0.1184000E+00
        -11   -1    0    0    0    0  0.00000000000E+00  0.00000000000E+00  0.45593999997E+02  0.45594000000E+02  0.51100000000E-03 0.  1.
         11   -1    0    0    0    0 -0.00000000000E+00 -0.00000000000E+00 -0.45593999997E+02  0.45594000000E+02  0.51100000000E-03 0. -1.
         23    2    1    2    0    0  0.71054273576E-14  0.44408920985E-15  0.35527136788E-14  0.91188000000E+02  0.91188000000E+02 0.  0.
    9900012    2    3    3    0    0  0.27752305940E+02  0.35263682813E+01  0.23940569396E+02  0.54367127913E+02  0.40000099703E+02 0.  0.
         12    1    3    3    0    0 -0.27752305940E+02 -0.35263682813E+01 -0.23940569396E+02  0.36820872087E+02  0.00000000000E+00 0. -1.
         11    1    4    4    0    0  0.46510062051E+00  0.12749952639E+01 -0.56632173531E+01  0.58235695720E+01  0.51100000000E-03 0. -1.
        -11    1    4    4    0    0 -0.18708371354E+01  0.83755705205E+01  0.80886683912E+01  0.11793081435E+02  0.51100000000E-03 0.  1.
        -12    1    4    4    0    0  0.29158042455E+02 -0.61241975031E+01  0.21515118358E+02  0.36750476906E+02  0.00000000000E+00 0.  1.
</event>
<event>
 8    1  0.2450026E-006  0.9118800E+02  0.7816164E-02  0.1184000E+00
        -11   -1    0    0    0    0  0.00000000000E+00  0.00000000000E+00  0.45593999997E+02  0.45594000000E+02  0.51100000000E-03 0.  1.
         11   -1    0    0    0    0 -0.00000000000E+00 -0.00000000000E+00 -0.45593999997E+02  0.45594000000E+02  0.51100000000E-03 0. -1.
         23    2    1    2    0    0  0.00000000000E+00  0.17763568394E-14  0.17763568394E-14  0.91188000000E+02  0.91188000000E+02 0.  0.
    9900012    2    3    3    0    0 -0.32491477791E+02 -0.14208550624E+02  0.99096046253E+01  0.54367091487E+02  0.40000016662E+02 0.  0.
         12    1    3    3    0    0  0.32491477791E+02  0.14208550624E+02 -0.99096046253E+01  0.36820908513E+02  0.00000000000E+00 0. -1.
         11    1    4    4    0    0 -0.56450730463E+01  0.26290191780E+01 -0.63165393174E+01  0.88700203351E+01  0.51100000000E-03 0. -1.
        -11    1    4    4    0    0 -0.31264949685E+02 -0.19892105312E+02  0.15062569404E+02  0.40000924113E+02  0.51100000000E-03 0.  1.
        -12    1    4    4    0    0  0.44185449396E+01  0.30545355105E+01  0.11635745386E+01  0.54961470391E+01  0.00000000000E+00 0.  1.
</event>
<event>
 8    1  0.2450026E-006  0.9118800E+02  0.7816164E-02  0.1184000E+00
        -11   -1    0    0    0    0  0.00000000000E+00  0.00000000000E+00  0.45593999997E+02  0.45594000000E+02  0.51100000000E-03 0.  1.
         11   -1    0    0    0    0 -0.00000000000E+00 -0.00000000000E+00 -0.45593999997E+02  0.45594000000E+02  0.51100000000E-03 0. -1.
         23    2    1    2    0    0 -0.35527136788E-14  0.17763568394E-14  0.00000000000E+00  0.91188000000E+02  0.91188000000E+02 0.  0.
    9900012    2    3    3    0    0 -0.16145655782E+02  0.79280725998E+01  0.32128524959E+02  0.54367100339E+02  0.40000036843E+02 0.  0.
         12    1    3    3    0    0  0.16145655782E+02 -0.79280725998E+01 -0.32128524959E+02  0.36820899661E+02  0.00000000000E+00 0. -1.
         11    1    4    4    0    0  0.72575163783E+01  0.13403834524E+02  0.11285661009E+02  0.18965770973E+02  0.51100000000E-03 0. -1.
        -11    1    4    4    0    0 -0.18400043949E+02 -0.88284110870E+01  0.93974546723E+01  0.22468079896E+02  0.51100000000E-03 0.  1.
        -12    1    4    4    0    0 -0.50031282118E+01  0.33526491632E+01  0.11445409278E+02  0.12933249470E+02  0.00000000000E+00 0.  1.
</event>
<event>
 8    1  0.2450026E-006  0.9118800E+02  0.7816164E-02  0.1184000E+00
        -11   -1    0    0    0    0  0.00000000000E+00  0.00000000000E+00  0.45593999997E+02  0.45594000000E+02  0.51100000000E-03 0.  1.
         11   -1    0    0    0    0 -0.00000000000E+00 -0.00000000000E+00 -0.45593999997E+02  0.45594000000E+02  0.51100000000E-03 0. -1.
         23    2    1    2    0    0 -0.35527136788E-14 -0.44408920985E-15 -0.35527136788E-14  0.91188000000E+02  0.91188000000E+02 0.  0.
    9900012    2    3    3    0    0 -0.18031279012E+02 -0.26138212249E+01  0.31997195832E+02  0.54367087120E+02  0.40000006707E+02 0.  0.
         12    1    3    3    0    0  0.18031279012E+02  0.26138212249E+01 -0.31997195832E+02  0.36820912880E+02  0.00000000000E+00 0. -1.
         11    1    4    4    0    0  0.78858904989E+00  0.97864416176E+01  0.11963295525E+02  0.15476328773E+02  0.51100000000E-03 0. -1.
        -11    1    4    4    0    0 -0.64068454409E+01 -0.50999620180E+01 -0.52969200127E+01  0.97526736320E+01  0.51100000000E-03 0.  1.
         12    1    4    4    0    0 -0.12413022621E+02 -0.73003008245E+01  0.25330820321E+02  0.29138084715E+02  0.00000000000E+00 0. -1.
</event>
<event>
 8    1  0.2450026E-006  0.9118800E+02  0.7816164E-02  0.1184000E+00
        -11   -1    0    0    0    0  0.00000000000E+00  0.00000000000E+00  0.45593999997E+02  0.45594000000E+02  0.51100000000E-03 0. -1.
         11   -1    0    0    0    0 -0.00000000000E+00 -0.00000000000E+00 -0.45593999997E+02  0.45594000000E+02  0.51100000000E-03 0.  1.
         23    2    1    2    0    0 -0.35527136788E-14 -0.35527136788E-14  0.17763568394E-14  0.91188000000E+02  0.91188000000E+02 0.  0.
    9900012    2    3    3    0    0 -0.25290477265E+02 -0.21498591543E+02  0.15936796443E+02  0.54367093446E+02  0.40000021128E+02 0.  0.
        -12    1    3    3    0    0  0.25290477265E+02  0.21498591543E+02 -0.15936796443E+02  0.36820906554E+02  0.00000000000E+00 0.  1.
         11    1    4    4    0    0 -0.76628523409E+01 -0.13016464949E+02 -0.36345868557E+01  0.15535697205E+02  0.51100000000E-03 0. -1.
        -11    1    4    4    0    0  0.26916618961E+01 -0.12493131978E+02  0.64719384349E+01  0.14325130985E+02  0.51100000000E-03 0.  1.
        -12    1    4    4    0    0 -0.20319286820E+02  0.40110053834E+01  0.13099444864E+02  0.24506265256E+02  0.00000000000E+00 0.  1.
</event>
<event>
 8    1  0.2450026E-006  0.9118800E+02  0.7816164E-02  0.1184000E+00
        -11   -1    0    0    0    0  0.00000000000E+00  0.00000000000E+00  0.45593999997E+02  0.45594000000E+02  0.51100000000E-03 0.  1.
         11   -1    0    0    0    0 -0.00000000000E+00 -0.00000000000E+00 -0.45593999997E+02  0.45594000000E+02  0.51100000000E-03 0. -1.
         23    2    1    2    0    0 -0.35527136788E-14  0.00000000000E+00  0.00000000000E+00  0.91188000000E+02  0.91188000000E+02 0.  0.
    9900012    2    3    3    0    0 -0.18388287001E+02 -0.11913813087E+02  0.29592624095E+02  0.54366926660E+02  0.39999640904E+02 0.  0.
         12    1    3    3    0    0  0.18388287001E+02  0.11913813087E+02 -0.29592624095E+02  0.36821073340E+02  0.00000000000E+00 0. -1.
         11    1    4    4    0    0 -0.17537949369E+02 -0.16613351473E+02  0.52719404423E+01  0.24726028219E+02  0.51100000000E-03 0. -1.
        -11    1    4    4    0    0  0.88069683331E+00 -0.55285912313E+01  0.41833048277E+01  0.69886327316E+01  0.51100000000E-03 0.  1.
        -12    1    4    4    0    0 -0.17310344658E+01  0.10228129617E+02  0.20137378825E+02  0.22652265709E+02  0.00000000000E+00 0.  1.
</event>
<event>
 8    1  0.2450026E-006  0.9118800E+02  0.7816164E-02  0.1184000E+00
        -11   -1    0    0    0    0  0.00000000000E+00  0.00000000000E+00  0.45593999997E+02  0.45594000000E+02  0.51100000000E-03 0. -1.
         11   -1    0    0    0    0 -0.00000000000E+00 -0.00000000000E+00 -0.45593999997E+02  0.45594000000E+02  0.51100000000E-03 0.  1.
         23    2    1    2    0    0 -0.88817841970E-15  0.00000000000E+00  0.00000000000E+00  0.91188000000E+02  0.91188000000E+02 0.  0.
    9900012    2    3    3    0    0  0.93073200066E+00 -0.17865420503E+02  0.32182911899E+02  0.54367091128E+02  0.40000015845E+02 0.  0.
        -12    1    3    3    0    0 -0.93073200066E+00  0.17865420503E+02 -0.32182911899E+02  0.36820908872E+02  0.00000000000E+00 0.  1.
         11    1    4    4    0    0 -0.44753712252E+01 -0.86721358209E+01  0.12767493841E+02  0.16069965356E+02  0.51100000000E-03 0. -1.
        -11    1    4    4    0    0 -0.72167512999E+01 -0.10876397752E+02  0.21734772482E+02  0.25353064164E+02  0.51100000000E-03 0.  1.
        -12    1    4    4    0    0  0.12622854526E+02  0.16831130697E+01 -0.23193544238E+01  0.12944061609E+02  0.00000000000E+00 0.  1.
</event>
<event>
 8    1  0.2450026E-006  0.9118800E+02  0.7816164E-02  0.1184000E+00
        -11   -1    0    0    0    0  0.00000000000E+00  0.00000000000E+00  0.45593999997E+02  0.45594000000E+02  0.51100000000E-03 0. -1.
         11   -1    0    0    0    0 -0.00000000000E+00 -0.00000000000E+00 -0.45593999997E+02  0.45594000000E+02  0.51100000000E-03 0.  1.
         23    2    1    2    0    0  0.35527136788E-14 -0.35527136788E-14  0.88817841970E-15  0.91188000000E+02  0.91188000000E+02 0.  0.
    9900012    2    3    3    0    0  0.28171885959E+02 -0.22977760938E+02  0.58435799724E+01  0.54367080904E+02  0.39999992536E+02 0.  0.
        -12    1    3    3    0    0 -0.28171885959E+02  0.22977760938E+02 -0.58435799724E+01  0.36820919096E+02  0.00000000000E+00 0.  1.
         11    1    4    4    0    0  0.23978817596E+02 -0.22511331033E+02  0.52843619729E+01  0.33311682634E+02  0.51100000000E-03 0. -1.
        -11    1    4    4    0    0 -0.23826463161E+01  0.61617224184E+01  0.70674225505E+01  0.96743107454E+01  0.51100000000E-03 0.  1.
         12    1    4    4    0    0  0.65757146786E+01 -0.66281523231E+01 -0.65082045511E+01  0.11381087524E+02  0.00000000000E+00 0. -1.
</event>
<event>
 8    1  0.2450026E-006  0.9118800E+02  0.7816164E-02  0.1184000E+00
        -11   -1    0    0    0    0  0.00000000000E+00  0.00000000000E+00  0.45593999997E+02  0.45594000000E+02  0.51100000000E-03 0. -1.
         11   -1    0    0    0    0 -0.00000000000E+00 -0.00000000000E+00 -0.45593999997E+02  0.45594000000E+02  0.51100000000E-03 0.  1.
         23    2    1    2    0    0  0.00000000000E+00  0.00000000000E+00  0.88817841970E-15  0.91188000000E+02  0.91188000000E+02 0.  0.
    9900012    2    3    3    0    0  0.36147207024E+02  0.20629382363E+01  0.67010097665E+01  0.54367084453E+02  0.40000000628E+02 0.  0.
        -12    1    3    3    0    0 -0.36147207024E+02 -0.20629382363E+01 -0.67010097665E+01  0.36820915547E+02  0.00000000000E+00 0.  1.
         11    1    4    4    0    0  0.69628511943E+01  0.37516628967E+01  0.12126444331E+02  0.14477807970E+02  0.51100000000E-03 0. -1.
        -11    1    4    4    0    0  0.17273610273E+02  0.11795423569E+02 -0.63931205255E+01  0.21871936799E+02  0.51100000000E-03 0.  1.
         12    1    4    4    0    0  0.11910745556E+02 -0.13484148229E+02  0.96768596132E+00  0.18017339684E+02  0.00000000000E+00 0. -1.
</event>
<event>
 8    1  0.2450026E-006  0.9118800E+02  0.7816164E-02  0.1184000E+00
        -11   -1    0    0    0    0  0.00000000000E+00  0.00000000000E+00  0.45593999997E+02  0.45594000000E+02  0.51100000000E-03 0. -1.
         11   -1    0    0    0    0 -0.00000000000E+00 -0.00000000000E+00 -0.45593999997E+02  0.45594000000E+02  0.51100000000E-03 0.  1.
         23    2    1    2    0    0  0.00000000000E+00 -0.35527136788E-14 -0.35527136788E-14  0.91188000000E+02  0.91188000000E+02 0.  0.
    9900012    2    3    3    0    0 -0.23732269686E+02  0.20866460947E+02  0.18898363059E+02  0.54367109961E+02  0.40000058779E+02 0.  0.
        -12    1    3    3    0    0  0.23732269686E+02 -0.20866460947E+02 -0.18898363059E+02  0.36820890039E+02  0.00000000000E+00 0.  1.
         11    1    4    4    0    0  0.39537430103E+01  0.39282408193E+00  0.13187855746E+02  0.13773377727E+02  0.51100000000E-03 0. -1.
        -11    1    4    4    0    0  0.10327347117E+01  0.74948722103E+01 -0.26019433042E+01  0.80006099551E+01  0.51100000000E-03 0.  1.
        -12    1    4    4    0    0 -0.28718747408E+02  0.12978764655E+02  0.83124506169E+01  0.32593122280E+02  0.00000000000E+00 0.  1.
</event>
<event>
 8    1  0.2450026E-006  0.9118800E+02  0.7816164E-02  0.1184000E+00
        -11   -1    0    0    0    0  0.00000000000E+00  0.00000000000E+00  0.45593999997E+02  0.45594000000E+02  0.51100000000E-03 0.  1.
         11   -1    0    0    0    0 -0.00000000000E+00 -0.00000000000E+00 -0.45593999997E+02  0.45594000000E+02  0.51100000000E-03 0. -1.
         23    2    1    2    0    0  0.00000000000E+00  0.00000000000E+00  0.00000000000E+00  0.91188000000E+02  0.91188000000E+02 0.  0.
    9900012    2    3    3    0    0  0.20920802352E+02 -0.18434247122E+02  0.24047415028E+02  0.54367087362E+02  0.40000007259E+02 0.  0.
         12    1    3    3    0    0 -0.20920802352E+02  0.18434247122E+02 -0.24047415028E+02  0.36820912638E+02  0.00000000000E+00 0. -1.
         11    1    4    4    0    0  0.76270848617E+00 -0.20786433584E+02 -0.24544352269E+01  0.20944731985E+02  0.51100000000E-03 0. -1.
        -11    1    4    4    0    0  0.61571073509E+01  0.14350751718E+01  0.87504619059E+01  0.10795369170E+02  0.51100000000E-03 0.  1.
         12    1    4    4    0    0  0.14000986515E+02  0.91711129049E+00  0.17751388349E+02  0.22626986207E+02  0.00000000000E+00 0. -1.
</event>
<event>
 8    1  0.2450026E-006  0.9118800E+02  0.7816164E-02  0.1184000E+00
        -11   -1    0    0    0    0  0.00000000000E+00  0.00000000000E+00  0.45593999997E+02  0.45594000000E+02  0.51100000000E-03 0.  1.
         11   -1    0    0    0    0 -0.00000000000E+00 -0.00000000000E+00 -0.45593999997E+02  0.45594000000E+02  0.51100000000E-03 0. -1.
         23    2    1    2    0    0 -0.66613381478E-15  0.00000000000E+00  0.00000000000E+00  0.91188000000E+02  0.91188000000E+02 0.  0.
    9900012    2    3    3    0    0 -0.13991461190E+01 -0.10620788057E+02  0.35228114308E+02  0.54367098510E+02  0.40000032674E+02 0.  0.
         12    1    3    3    0    0  0.13991461190E+01  0.10620788057E+02 -0.35228114308E+02  0.36820901490E+02  0.00000000000E+00 0. -1.
         11    1    4    4    0    0 -0.18828879126E+01 -0.32281821149E+01  0.20757352206E+02  0.21091090478E+02  0.51100000000E-03 0. -1.
        -11    1    4    4    0    0 -0.90120970406E+01 -0.10480145122E+02  0.17991770026E+02  0.22688215526E+02  0.51100000000E-03 0.  1.
         12    1    4    4    0    0  0.94958388343E+01  0.30875391803E+01 -0.35210079240E+01  0.10587792506E+02  0.00000000000E+00 0. -1.
</event>
<event>
 8    1  0.2450026E-006  0.9118800E+02  0.7816164E-02  0.1184000E+00
        -11   -1    0    0    0    0  0.00000000000E+00  0.00000000000E+00  0.45593999997E+02  0.45594000000E+02  0.51100000000E-03 0.  1.
         11   -1    0    0    0    0 -0.00000000000E+00 -0.00000000000E+00 -0.45593999997E+02  0.45594000000E+02  0.51100000000E-03 0. -1.
         23    2    1    2    0    0  0.00000000000E+00  0.00000000000E+00 -0.35527136788E-14  0.91188000000E+02  0.91188000000E+02 0.  0.
    9900012    2    3    3    0    0 -0.93821573923E+01  0.18593607812E+02  0.30364975435E+02  0.54367097486E+02  0.40000030338E+02 0.  0.
         12    1    3    3    0    0  0.93821573923E+01 -0.18593607812E+02 -0.30364975435E+02  0.36820902514E+02  0.00000000000E+00 0. -1.
         11    1    4    4    0    0 -0.11297576469E+02  0.12321796585E+02  0.22433711684E+02  0.27977371666E+02  0.51100000000E-03 0. -1.
        -11    1    4    4    0    0  0.36698833434E+01  0.11254558260E+02  0.14006558306E+02  0.18338942206E+02  0.51100000000E-03 0.  1.
         12    1    4    4    0    0 -0.17544642665E+01 -0.49827470331E+01 -0.60752945552E+01  0.80507836135E+01  0.00000000000E+00 0. -1.
</event>
<event>
 8    1  0.2450026E-006  0.9118800E+02  0.7816164E-02  0.1184000E+00
        -11   -1    0    0    0    0  0.00000000000E+00  0.00000000000E+00  0.45593999997E+02  0.45594000000E+02  0.51100000000E-03 0.  1.
         11   -1    0    0    0    0 -0.00000000000E+00 -0.00000000000E+00 -0.45593999997E+02  0.45594000000E+02  0.51100000000E-03 0. -1.
         23    2    1    2    0    0  0.00000000000E+00 -0.17763568394E-14  0.00000000000E+00  0.91188000000E+02  0.91188000000E+02 0.  0.
    9900012    2    3    3    0    0 -0.11440640244E+02  0.14857875686E+02 -0.31688099053E+02  0.54367077406E+02  0.39999984563E+02 0.  0.
        -12    1    3    3    0    0  0.11440640244E+02 -0.14857875686E+02  0.31688099053E+02  0.36820922594E+02  0.00000000000E+00 0.  1.
         11    1    4    4    0    0 -0.16832474918E+02  0.11174658207E+02 -0.32354421133E+01  0.20461507369E+02  0.51100000000E-03 0. -1.
        -11    1    4    4    0    0  0.77624724466E+01  0.40902224876E+00 -0.28816889598E+02  0.29846882652E+02  0.51100000000E-03 0.  1.
        -12    1    4    4    0    0 -0.23706377723E+01  0.32741952307E+01  0.36423265873E+00  0.40586873846E+01  0.00000000000E+00 0.  1.
</event>
<event>
 8    1  0.2450026E-006  0.9118800E+02  0.7816164E-02  0.1184000E+00
        -11   -1    0    0    0    0  0.00000000000E+00  0.00000000000E+00  0.45593999997E+02  0.45594000000E+02  0.51100000000E-03 0.  1.
         11   -1    0    0    0    0 -0.00000000000E+00 -0.00000000000E+00 -0.45593999997E+02  0.45594000000E+02  0.51100000000E-03 0. -1.
         23    2    1    2    0    0  0.17763568394E-14  0.88817841970E-15  0.00000000000E+00  0.91188000000E+02  0.91188000000E+02 0.  0.
    9900012    2    3    3    0    0 -0.11580451345E+02  0.44302400563E+01  0.34670519375E+02  0.54367098409E+02  0.40000032442E+02 0.  0.
         12    1    3    3    0    0  0.11580451345E+02 -0.44302400563E+01 -0.34670519375E+02  0.36820901591E+02  0.00000000000E+00 0. -1.
         11    1    4    4    0    0  0.93530863684E+01  0.88603065353E+00  0.12140866101E+02  0.15351413774E+02  0.51100000000E-03 0. -1.
        -11    1    4    4    0    0 -0.57971255820E+01 -0.96242221301E+01  0.11681756057E+02  0.16207891333E+02  0.51100000000E-03 0.  1.
         12    1    4    4    0    0 -0.15136412131E+02  0.13168431533E+02  0.10847897216E+02  0.22807793301E+02  0.00000000000E+00 0. -1.
</event>
<event>
 8    1  0.2450026E-006  0.9118800E+02  0.7816164E-02  0.1184000E+00
        -11   -1    0    0    0    0  0.00000000000E+00  0.00000000000E+00  0.45593999997E+02  0.45594000000E+02  0.51100000000E-03 0. -1.
         11   -1    0    0    0    0 -0.00000000000E+00 -0.00000000000E+00 -0.45593999997E+02  0.45594000000E+02  0.51100000000E-03 0.  1.
         23    2    1    2    0    0  0.11102230246E-15  0.35527136788E-14  0.35527136788E-14  0.91188000000E+02  0.91188000000E+02 0.  0.
    9900012    2    3    3    0    0  0.49000206891E+00 -0.19746708417E+02 -0.31074221365E+02  0.54367084357E+02  0.40000000409E+02 0.  0.
         12    1    3    3    0    0 -0.49000206891E+00  0.19746708417E+02  0.31074221365E+02  0.36820915643E+02  0.00000000000E+00 0. -1.
         11    1    4    4    0    0 -0.21735865907E+01  0.10222223979E+01 -0.89854373368E+01  0.93009409036E+01  0.51100000000E-03 0. -1.
        -11    1    4    4    0    0 -0.10429225392E+01 -0.22321074990E+02 -0.29277494020E+02  0.36830554333E+02  0.51100000000E-03 0.  1.
         12    1    4    4    0    0  0.37065111988E+01  0.15521441755E+01  0.71887099920E+01  0.82355891202E+01  0.00000000000E+00 0. -1.
</event>
<event>
 8    1  0.2450026E-006  0.9118800E+02  0.7816164E-02  0.1184000E+00
        -11   -1    0    0    0    0  0.00000000000E+00  0.00000000000E+00  0.45593999997E+02  0.45594000000E+02  0.51100000000E-03 0. -1.
         11   -1    0    0    0    0 -0.00000000000E+00 -0.00000000000E+00 -0.45593999997E+02  0.45594000000E+02  0.51100000000E-03 0.  1.
         23    2    1    2    0    0 -0.35527136788E-14  0.00000000000E+00  0.00000000000E+00  0.91188000000E+02  0.91188000000E+02 0.  0.
    9900012    2    3    3    0    0 -0.18275733482E+02 -0.89454131254E+01  0.30688062366E+02  0.54367081732E+02  0.39999994425E+02 0.  0.
        -12    1    3    3    0    0  0.18275733482E+02  0.89454131254E+01 -0.30688062366E+02  0.36820918268E+02  0.00000000000E+00 0.  1.
         11    1    4    4    0    0 -0.24863816627E+02  0.14938215970E+01  0.22198578830E+02  0.33364918441E+02  0.51100000000E-03 0. -1.
        -11    1    4    4    0    0  0.31185799264E+01 -0.10862191069E+02 -0.54602927342E+00  0.11314189489E+02  0.51100000000E-03 0.  1.
        -12    1    4    4    0    0  0.34695032190E+01  0.42295634626E+00  0.90355128095E+01  0.96879738020E+01  0.00000000000E+00 0.  1.
</event>
<event>
 8    1  0.2450026E-006  0.9118800E+02  0.7816164E-02  0.1184000E+00
        -11   -1    0    0    0    0  0.00000000000E+00  0.00000000000E+00  0.45593999997E+02  0.45594000000E+02  0.51100000000E-03 0.  1.
         11   -1    0    0    0    0 -0.00000000000E+00 -0.00000000000E+00 -0.45593999997E+02  0.45594000000E+02  0.51100000000E-03 0. -1.
         23    2    1    2    0    0  0.00000000000E+00  0.00000000000E+00  0.22204460493E-15  0.91188000000E+02  0.91188000000E+02 0.  0.
    9900012    2    3    3    0    0  0.28833212525E+02  0.22894002332E+02  0.53788815481E+00  0.54367098178E+02  0.40000031917E+02 0.  0.
         12    1    3    3    0    0 -0.28833212525E+02 -0.22894002332E+02 -0.53788815481E+00  0.36820901822E+02  0.00000000000E+00 0. -1.
         11    1    4    4    0    0  0.44516440119E+01  0.10252552242E+02 -0.64459012637E+01  0.12902775099E+02  0.51100000000E-03 0. -1.
        -11    1    4    4    0    0  0.15186740371E+02 -0.60779741454E+01  0.11663259837E+02  0.20090059311E+02  0.51100000000E-03 0.  1.
        -12    1    4    4    0    0  0.91948281418E+01  0.18719424235E+02 -0.46794704188E+01  0.21374263769E+02  0.00000000000E+00 0.  1.
</event>
<event>
 8    1  0.2450026E-006  0.9118800E+02  0.7816164E-02  0.1184000E+00
        -11   -1    0    0    0    0  0.00000000000E+00  0.00000000000E+00  0.45593999997E+02  0.45594000000E+02  0.51100000000E-03 0. -1.
         11   -1    0    0    0    0 -0.00000000000E+00 -0.00000000000E+00 -0.45593999997E+02  0.45594000000E+02  0.51100000000E-03 0.  1.
         23    2    1    2    0    0  0.00000000000E+00  0.00000000000E+00 -0.17763568394E-14  0.91188000000E+02  0.91188000000E+02 0.  0.
    9900012    2    3    3    0    0  0.28526957606E+02  0.20827643253E+02 -0.10401970254E+02  0.54367095355E+02  0.40000025480E+02 0.  0.
         12    1    3    3    0    0 -0.28526957606E+02 -0.20827643253E+02  0.10401970254E+02  0.36820904645E+02  0.00000000000E+00 0. -1.
         11    1    4    4    0    0  0.27446002165E+02  0.10742763125E+02 -0.11424578258E+02  0.31610298686E+02  0.51100000000E-03 0. -1.
        -11    1    4    4    0    0  0.12467090643E+01 -0.56321181820E+00 -0.84161230363E+01  0.85265830358E+01  0.51100000000E-03 0.  1.
        -12    1    4    4    0    0 -0.16575362333E+00  0.10648091947E+02  0.94387310405E+01  0.14230213633E+02  0.00000000000E+00 0.  1.
</event>
<event>
 8    1  0.2450026E-006  0.9118800E+02  0.7816164E-02  0.1184000E+00
        -11   -1    0    0    0    0  0.00000000000E+00  0.00000000000E+00  0.45593999997E+02  0.45594000000E+02  0.51100000000E-03 0.  1.
         11   -1    0    0    0    0 -0.00000000000E+00 -0.00000000000E+00 -0.45593999997E+02  0.45594000000E+02  0.51100000000E-03 0. -1.
         23    2    1    2    0    0  0.00000000000E+00 -0.71054273576E-14 -0.17763568394E-14  0.91188000000E+02  0.91188000000E+02 0.  0.
    9900012    2    3    3    0    0 -0.23407563717E+02  0.26384253282E+02 -0.10570691180E+02  0.54367049817E+02  0.39999921667E+02 0.  0.
        -12    1    3    3    0    0  0.23407563717E+02 -0.26384253282E+02  0.10570691180E+02  0.36820950183E+02  0.00000000000E+00 0.  1.
         11    1    4    4    0    0 -0.83986188705E+01 -0.36248459952E+01 -0.41344724146E+01  0.10038434630E+02  0.51100000000E-03 0.  1.
        -11    1    4    4    0    0  0.53567890664E+01  0.87235139437E+00 -0.68976358586E+01  0.87768768224E+01  0.51100000000E-03 0. -1.
         12    1    4    4    0    0 -0.20365733912E+02  0.29136747882E+02  0.46141709285E+00  0.35551738364E+02  0.00000000000E+00 0. -1.
</event>
<event>
 8    1  0.2450026E-006  0.9118800E+02  0.7816164E-02  0.1184000E+00
        -11   -1    0    0    0    0  0.00000000000E+00  0.00000000000E+00  0.45593999997E+02  0.45594000000E+02  0.51100000000E-03 0.  1.
         11   -1    0    0    0    0 -0.00000000000E+00 -0.00000000000E+00 -0.45593999997E+02  0.45594000000E+02  0.51100000000E-03 0. -1.
         23    2    1    2    0    0  0.00000000000E+00  0.53290705182E-14 -0.71054273576E-14  0.91188000000E+02  0.91188000000E+02 0.  0.
    9900012    2    3    3    0    0 -0.55286013359E+01 -0.94684860692E+01  0.35150583175E+02  0.54367066298E+02  0.39999959239E+02 0.  0.
         12    1    3    3    0    0  0.55286013359E+01  0.94684860692E+01 -0.35150583175E+02  0.36820933702E+02  0.00000000000E+00 0. -1.
         11    1    4    4    0    0  0.45357055383E+01  0.18000661928E+01  0.23634588922E+01  0.54220661399E+01  0.51100000000E-03 0.  1.
        -11    1    4    4    0    0 -0.13082957962E+01  0.10432779932E+02  0.19186182005E+02  0.21878393799E+02  0.51100000000E-03 0. -1.
        -12    1    4    4    0    0 -0.87560110780E+01 -0.21701332194E+02  0.13600942277E+02  0.27066606359E+02  0.00000000000E+00 0.  1.
</event>
<event>
 8    1  0.2450026E-006  0.9118800E+02  0.7816164E-02  0.1184000E+00
        -11   -1    0    0    0    0  0.00000000000E+00  0.00000000000E+00  0.45593999997E+02  0.45594000000E+02  0.51100000000E-03 0. -1.
         11   -1    0    0    0    0 -0.00000000000E+00 -0.00000000000E+00 -0.45593999997E+02  0.45594000000E+02  0.51100000000E-03 0.  1.
         23    2    1    2    0    0 -0.35527136788E-14  0.00000000000E+00  0.35527136788E-14  0.91188000000E+02  0.91188000000E+02 0.  0.
    9900012    2    3    3    0    0  0.17273270405E+02 -0.15412923257E+02 -0.28633126339E+02  0.54367082062E+02  0.39999995177E+02 0.  0.
         12    1    3    3    0    0 -0.17273270405E+02  0.15412923257E+02  0.28633126339E+02  0.36820917938E+02  0.00000000000E+00 0. -1.
         11    1    4    4    0    0  0.10349684982E+02  0.76730911809E+01 -0.39032272764E+01  0.13462076026E+02  0.51100000000E-03 0. -1.
        -11    1    4    4    0    0  0.49247360131E+01 -0.54667938566E+01 -0.21702904253E+02  0.22916258708E+02  0.51100000000E-03 0.  1.
         12    1    4    4    0    0  0.19988494097E+01 -0.17619220582E+02 -0.30269948095E+01  0.17988747328E+02  0.00000000000E+00 0. -1.
</event>
<event>
 8    1  0.2450026E-006  0.9118800E+02  0.7816164E-02  0.1184000E+00
        -11   -1    0    0    0    0  0.00000000000E+00  0.00000000000E+00  0.45593999997E+02  0.45594000000E+02  0.51100000000E-03 0. -1.
         11   -1    0    0    0    0 -0.00000000000E+00 -0.00000000000E+00 -0.45593999997E+02  0.45594000000E+02  0.51100000000E-03 0.  1.
         23    2    1    2    0    0 -0.35527136788E-14  0.66613381478E-15 -0.35527136788E-14  0.91188000000E+02  0.91188000000E+02 0.  0.
    9900012    2    3    3    0    0 -0.24549425184E+02 -0.13859075715E+01  0.27407754704E+02  0.54367081563E+02  0.39999994039E+02 0.  0.
        -12    1    3    3    0    0  0.24549425184E+02  0.13859075715E+01 -0.27407754704E+02  0.36820918437E+02  0.00000000000E+00 0.  1.
         11    1    4    4    0    0  0.49861204810E+01 -0.64005565931E+01  0.48485936400E+01  0.94518454653E+01  0.51100000000E-03 0. -1.
        -11    1    4    4    0    0 -0.12336672317E+02 -0.99608542774E+01  0.11383527734E+02  0.19519139472E+02  0.51100000000E-03 0.  1.
         12    1    4    4    0    0 -0.17198873347E+02  0.14975503299E+02  0.11175633330E+02  0.25396096625E+02  0.00000000000E+00 0. -1.
</event>
<event>
 8    1  0.2450026E-006  0.9118800E+02  0.7816164E-02  0.1184000E+00
        -11   -1    0    0    0    0  0.00000000000E+00  0.00000000000E+00  0.45593999997E+02  0.45594000000E+02  0.51100000000E-03 0.  1.
         11   -1    0    0    0    0 -0.00000000000E+00 -0.00000000000E+00 -0.45593999997E+02  0.45594000000E+02  0.51100000000E-03 0. -1.
         23    2    1    2    0    0  0.00000000000E+00 -0.88817841970E-15  0.44408920985E-15  0.91188000000E+02  0.91188000000E+02 0.  0.
    9900012    2    3    3    0    0 -0.36264338607E+02 -0.61965607362E+01 -0.15089970866E+01  0.54367126955E+02  0.40000097519E+02 0.  0.
        -12    1    3    3    0    0  0.36264338607E+02  0.61965607362E+01  0.15089970866E+01  0.36820873045E+02  0.00000000000E+00 0.  1.
         11    1    4    4    0    0  0.38321851970E+01  0.21053233122E+01 -0.28035930979E+01  0.51940508423E+01  0.51100000000E-03 0.  1.
        -11    1    4    4    0    0 -0.97477692093E+01 -0.42543569362E+01 -0.11788695579E+02  0.15877402219E+02  0.51100000000E-03 0. -1.
         12    1    4    4    0    0 -0.30348754595E+02 -0.40475271122E+01  0.13083291591E+02  0.33295673894E+02  0.00000000000E+00 0. -1.
</event>
<event>
 8    1  0.2450026E-006  0.9118800E+02  0.7816164E-02  0.1184000E+00
        -11   -1    0    0    0    0  0.00000000000E+00  0.00000000000E+00  0.45593999997E+02  0.45594000000E+02  0.51100000000E-03 0.  1.
         11   -1    0    0    0    0 -0.00000000000E+00 -0.00000000000E+00 -0.45593999997E+02  0.45594000000E+02  0.51100000000E-03 0. -1.
         23    2    1    2    0    0 -0.44408920985E-15 -0.88817841970E-15 -0.71054273576E-14  0.91188000000E+02  0.91188000000E+02 0.  0.
    9900012    2    3    3    0    0  0.32538234678E+01 -0.73067733444E+01 -0.35941669716E+02  0.54367083039E+02  0.39999997405E+02 0.  0.
        -12    1    3    3    0    0 -0.32538234678E+01  0.73067733444E+01  0.35941669716E+02  0.36820916961E+02  0.00000000000E+00 0.  1.
         11    1    4    4    0    0 -0.79325511125E+01 -0.42987122489E+01 -0.74752956974E+01  0.11716840025E+02  0.51100000000E-03 0. -1.
        -11    1    4    4    0    0 -0.73242874259E+01 -0.91731428464E+01 -0.14501832912E+02  0.18657301360E+02  0.51100000000E-03 0.  1.
         12    1    4    4    0    0  0.18510662006E+02  0.61650817508E+01 -0.13964541106E+02  0.23992941654E+02  0.00000000000E+00 0. -1.
</event>
<event>
 8    1  0.2450026E-006  0.9118800E+02  0.7816164E-02  0.1184000E+00
        -11   -1    0    0    0    0  0.00000000000E+00  0.00000000000E+00  0.45593999997E+02  0.45594000000E+02  0.51100000000E-03 0.  1.
         11   -1    0    0    0    0 -0.00000000000E+00 -0.00000000000E+00 -0.45593999997E+02  0.45594000000E+02  0.51100000000E-03 0. -1.
         23    2    1    2    0    0  0.35527136788E-14 -0.88817841970E-15  0.00000000000E+00  0.91188000000E+02  0.91188000000E+02 0.  0.
    9900012    2    3    3    0    0 -0.31643998077E+02  0.68239524506E+01 -0.17546216207E+02  0.54367100439E+02  0.40000037070E+02 0.  0.
         12    1    3    3    0    0  0.31643998077E+02 -0.68239524506E+01  0.17546216207E+02  0.36820899561E+02  0.00000000000E+00 0. -1.
         11    1    4    4    0    0 -0.46427867534E+00 -0.14943655247E+01 -0.23702656225E+01  0.28402187226E+01  0.51100000000E-03 0. -1.
        -11    1    4    4    0    0 -0.20693951189E+02  0.23143088014E+02 -0.10538790005E+02  0.32785793169E+02  0.51100000000E-03 0.  1.
         12    1    4    4    0    0 -0.10485768212E+02 -0.14824770039E+02 -0.46371605798E+01  0.18741088547E+02  0.00000000000E+00 0. -1.
</event>
<event>
 8    1  0.2450026E-006  0.9118800E+02  0.7816164E-02  0.1184000E+00
        -11   -1    0    0    0    0  0.00000000000E+00  0.00000000000E+00  0.45593999997E+02  0.45594000000E+02  0.51100000000E-03 0.  1.
         11   -1    0    0    0    0 -0.00000000000E+00 -0.00000000000E+00 -0.45593999997E+02  0.45594000000E+02  0.51100000000E-03 0. -1.
         23    2    1    2    0    0  0.00000000000E+00  0.00000000000E+00  0.17763568394E-14  0.91188000000E+02  0.91188000000E+02 0.  0.
    9900012    2    3    3    0    0  0.32836818438E+02 -0.12182010795E+02 -0.11363159116E+02  0.54367089946E+02  0.40000013149E+02 0.  0.
         12    1    3    3    0    0 -0.32836818438E+02  0.12182010795E+02  0.11363159116E+02  0.36820910054E+02  0.00000000000E+00 0. -1.
         11    1    4    4    0    0  0.17755225986E+02  0.91877322677E+01 -0.24085707713E+01  0.20136128909E+02  0.51100000000E-03 0. -1.
        -11    1    4    4    0    0  0.46754426868E+00 -0.35717580782E+01  0.58382016541E+01  0.68600766925E+01  0.51100000000E-03 0.  1.
        -12    1    4    4    0    0  0.14614048184E+02 -0.17797984984E+02 -0.14792789999E+02  0.27370884344E+02  0.00000000000E+00 0.  1.
</event>
<event>
 8    1  0.2450026E-006  0.9118800E+02  0.7816164E-02  0.1184000E+00
        -11   -1    0    0    0    0  0.00000000000E+00  0.00000000000E+00  0.45593999997E+02  0.45594000000E+02  0.51100000000E-03 0.  1.
         11   -1    0    0    0    0 -0.00000000000E+00 -0.00000000000E+00 -0.45593999997E+02  0.45594000000E+02  0.51100000000E-03 0. -1.
         23    2    1    2    0    0  0.00000000000E+00  0.00000000000E+00  0.00000000000E+00  0.91188000000E+02  0.91188000000E+02 0.  0.
    9900012    2    3    3    0    0  0.89362727073E+01  0.27946227835E+02  0.22246999242E+02  0.54367114685E+02  0.40000069547E+02 0.  0.
         12    1    3    3    0    0 -0.89362727073E+01 -0.27946227835E+02 -0.22246999242E+02  0.36820885315E+02  0.00000000000E+00 0. -1.
         11    1    4    4    0    0  0.37764829853E+01  0.10919238455E+02 -0.10383960449E+02  0.15534420718E+02  0.51100000000E-03 0. -1.
        -11    1    4    4    0    0  0.67905493531E+01  0.85716115353E+01  0.25154684216E+02  0.27428857488E+02  0.51100000000E-03 0.  1.
         12    1    4    4    0    0 -0.16307596311E+01  0.84553778446E+01  0.74762754741E+01  0.11403836479E+02  0.00000000000E+00 0. -1.
</event>
<event>
 8    1  0.2450026E-006  0.9118800E+02  0.7816164E-02  0.1184000E+00
        -11   -1    0    0    0    0  0.00000000000E+00  0.00000000000E+00  0.45593999997E+02  0.45594000000E+02  0.51100000000E-03 0.  1.
         11   -1    0    0    0    0 -0.00000000000E+00 -0.00000000000E+00 -0.45593999997E+02  0.45594000000E+02  0.51100000000E-03 0. -1.
         23    2    1    2    0    0 -0.71054273576E-14 -0.35527136788E-14  0.88817841970E-15  0.91188000000E+02  0.91188000000E+02 0.  0.
    9900012    2    3    3    0    0 -0.31040849091E+02 -0.19039061243E+02  0.54551533914E+01  0.54367097461E+02  0.40000030281E+02 0.  0.
         12    1    3    3    0    0  0.31040849091E+02  0.19039061243E+02 -0.54551533914E+01  0.36820902539E+02  0.00000000000E+00 0. -1.
         11    1    4    4    0    0  0.31787486937E+00 -0.25099253202E+00  0.43692949795E+01  0.43880269556E+01  0.51100000000E-03 0. -1.
        -11    1    4    4    0    0  0.42150110503E+01 -0.15197495916E+01 -0.82141466668E+01  0.93567175174E+01  0.51100000000E-03 0.  1.
        -12    1    4    4    0    0 -0.35573735010E+02 -0.17268319120E+02  0.93000050787E+01  0.40622352988E+02  0.00000000000E+00 0.  1.
</event>
<event>
 8    1  0.2450026E-006  0.9118800E+02  0.7816164E-02  0.1184000E+00
        -11   -1    0    0    0    0  0.00000000000E+00  0.00000000000E+00  0.45593999997E+02  0.45594000000E+02  0.51100000000E-03 0.  1.
         11   -1    0    0    0    0 -0.00000000000E+00 -0.00000000000E+00 -0.45593999997E+02  0.45594000000E+02  0.51100000000E-03 0. -1.
         23    2    1    2    0    0  0.35527136788E-14  0.11102230246E-15  0.00000000000E+00  0.91188000000E+02  0.91188000000E+02 0.  0.
    9900012    2    3    3    0    0  0.28890540242E+02 -0.90383600101E+00 -0.22810062736E+02  0.54367092936E+02  0.40000019965E+02 0.  0.
        -12    1    3    3    0    0 -0.28890540242E+02  0.90383600101E+00  0.22810062736E+02  0.36820907064E+02  0.00000000000E+00 0.  1.
         11    1    4    4    0    0 -0.18562727732E+01 -0.19438861780E+01 -0.77424576632E+01  0.81957362701E+01  0.51100000000E-03 0. -1.
        -11    1    4    4    0    0  0.92707497815E+00 -0.14241744576E+01 -0.16141503754E+02  0.16230708075E+02  0.51100000000E-03 0.  1.
        -12    1    4    4    0    0  0.29819738037E+02  0.24642246346E+01  0.10738986811E+01  0.29940648591E+02  0.00000000000E+00 0.  1.
</event>
<event>
 8    1  0.2450026E-006  0.9118800E+02  0.7816164E-02  0.1184000E+00
        -11   -1    0    0    0    0  0.00000000000E+00  0.00000000000E+00  0.45593999997E+02  0.45594000000E+02  0.51100000000E-03 0.  1.
         11   -1    0    0    0    0 -0.00000000000E+00 -0.00000000000E+00 -0.45593999997E+02  0.45594000000E+02  0.51100000000E-03 0. -1.
         23    2    1    2    0    0  0.00000000000E+00  0.00000000000E+00  0.35527136788E-14  0.91188000000E+02  0.91188000000E+02 0.  0.
    9900012    2    3    3    0    0 -0.38661272937E+01 -0.25897137558E+02  0.25887697782E+02  0.54367060708E+02  0.39999946495E+02 0.  0.
         12    1    3    3    0    0  0.38661272937E+01  0.25897137558E+02 -0.25887697782E+02  0.36820939292E+02  0.00000000000E+00 0. -1.
         11    1    4    4    0    0  0.72840791128E+01  0.14972712117E+01  0.10123036998E+01  0.75049576044E+01  0.51100000000E-03 0. -1.
        -11    1    4    4    0    0 -0.60082103659E+01  0.43208508495E+00  0.16170260042E+02  0.17255799008E+02  0.51100000000E-03 0.  1.
         12    1    4    4    0    0 -0.51419960406E+01 -0.27826493854E+02  0.87051340399E+01  0.29606304095E+02  0.00000000000E+00 0. -1.
</event>
<event>
 8    1  0.2450026E-006  0.9118800E+02  0.7816164E-02  0.1184000E+00
        -11   -1    0    0    0    0  0.00000000000E+00  0.00000000000E+00  0.45593999997E+02  0.45594000000E+02  0.51100000000E-03 0. -1.
         11   -1    0    0    0    0 -0.00000000000E+00 -0.00000000000E+00 -0.45593999997E+02  0.45594000000E+02  0.51100000000E-03 0.  1.
         23    2    1    2    0    0  0.00000000000E+00  0.11657341759E-14 -0.35527136788E-14  0.91188000000E+02  0.91188000000E+02 0.  0.
    9900012    2    3    3    0    0  0.28506693887E+02 -0.29810445590E+00  0.23303592401E+02  0.54367110801E+02  0.40000060694E+02 0.  0.
         12    1    3    3    0    0 -0.28506693887E+02  0.29810445590E+00 -0.23303592401E+02  0.36820889199E+02  0.00000000000E+00 0. -1.
         11    1    4    4    0    0  0.19537546558E+00 -0.25703318429E+01  0.11936906177E+02  0.12212063982E+02  0.51100000000E-03 0. -1.
        -11    1    4    4    0    0 -0.36885309413E+01  0.65517340893E+01  0.55626728463E+01  0.93527434231E+01  0.51100000000E-03 0.  1.
        -12    1    4    4    0    0  0.31999849362E+02 -0.42795067023E+01  0.58040133772E+01  0.32802303396E+02  0.00000000000E+00 0.  1.
</event>
<event>
 8    1  0.2450026E-006  0.9118800E+02  0.7816164E-02  0.1184000E+00
        -11   -1    0    0    0    0  0.00000000000E+00  0.00000000000E+00  0.45593999997E+02  0.45594000000E+02  0.51100000000E-03 0.  1.
         11   -1    0    0    0    0 -0.00000000000E+00 -0.00000000000E+00 -0.45593999997E+02  0.45594000000E+02  0.51100000000E-03 0. -1.
         23    2    1    2    0    0  0.00000000000E+00  0.35527136788E-14  0.71054273576E-14  0.91188000000E+02  0.91188000000E+02 0.  0.
    9900012    2    3    3    0    0  0.17289153675E+02  0.21581822031E+02  0.24312317534E+02  0.54367100216E+02  0.40000036563E+02 0.  0.
         12    1    3    3    0    0 -0.17289153675E+02 -0.21581822031E+02 -0.24312317534E+02  0.36820899784E+02  0.00000000000E+00 0. -1.
         11    1    4    4    0    0  0.99275473089E+00 -0.39759316118E+01 -0.28755334836E+01  0.50062248465E+01  0.51100000000E-03 0. -1.
        -11    1    4    4    0    0 -0.32320837673E+01  0.19722794142E+02  0.85339898037E+01  0.21731634924E+02  0.51100000000E-03 0.  1.
         12    1    4    4    0    0  0.19528482711E+02  0.58349595014E+01  0.18653861214E+02  0.27629240446E+02  0.00000000000E+00 0. -1.
</event>
<event>
 8    1  0.2450026E-006  0.9118800E+02  0.7816164E-02  0.1184000E+00
        -11   -1    0    0    0    0  0.00000000000E+00  0.00000000000E+00  0.45593999997E+02  0.45594000000E+02  0.51100000000E-03 0. -1.
         11   -1    0    0    0    0 -0.00000000000E+00 -0.00000000000E+00 -0.45593999997E+02  0.45594000000E+02  0.51100000000E-03 0.  1.
         23    2    1    2    0    0  0.00000000000E+00  0.00000000000E+00  0.00000000000E+00  0.91188000000E+02  0.91188000000E+02 0.  0.
    9900012    2    3    3    0    0  0.26591996288E+02  0.21171623103E+02  0.14156515161E+02  0.54367098152E+02  0.40000031857E+02 0.  0.
        -12    1    3    3    0    0 -0.26591996288E+02 -0.21171623103E+02 -0.14156515161E+02  0.36820901848E+02  0.00000000000E+00 0.  1.
         11    1    4    4    0    0  0.19812127806E+02  0.26362222293E+02  0.13376837155E+02  0.35586892881E+02  0.51100000000E-03 0. -1.
        -11    1    4    4    0    0 -0.50103793842E+01 -0.68305746644E+00  0.31210965860E+01  0.59423659628E+01  0.51100000000E-03 0.  1.
         12    1    4    4    0    0  0.11790247866E+02 -0.45075417233E+01 -0.23414185792E+01  0.12837839308E+02  0.00000000000E+00 0. -1.
</event>
<event>
 8    1  0.2450026E-006  0.9118800E+02  0.7816164E-02  0.1184000E+00
        -11   -1    0    0    0    0  0.00000000000E+00  0.00000000000E+00  0.45593999997E+02  0.45594000000E+02  0.51100000000E-03 0.  1.
         11   -1    0    0    0    0 -0.00000000000E+00 -0.00000000000E+00 -0.45593999997E+02  0.45594000000E+02  0.51100000000E-03 0. -1.
         23    2    1    2    0    0  0.35527136788E-14  0.35527136788E-14  0.00000000000E+00  0.91188000000E+02  0.91188000000E+02 0.  0.
    9900012    2    3    3    0    0 -0.28070113672E+02  0.16679189263E+02 -0.17019173108E+02  0.54367097115E+02  0.40000029493E+02 0.  0.
         12    1    3    3    0    0  0.28070113672E+02 -0.16679189263E+02  0.17019173108E+02  0.36820902885E+02  0.00000000000E+00 0. -1.
         11    1    4    4    0    0 -0.90745941931E+01 -0.86127335504E+01  0.28888512585E+01  0.12840284297E+02  0.51100000000E-03 0. -1.
        -11    1    4    4    0    0 -0.44430430267E+01 -0.71243647081E+00  0.16006073423E+01  0.47759963555E+01  0.51100000000E-03 0.  1.
         12    1    4    4    0    0 -0.14552476452E+02  0.26004359284E+02 -0.21508631709E+02  0.36750816462E+02  0.00000000000E+00 0. -1.
</event>
<event>
 8    1  0.2450026E-006  0.9118800E+02  0.7816164E-02  0.1184000E+00
        -11   -1    0    0    0    0  0.00000000000E+00  0.00000000000E+00  0.45593999997E+02  0.45594000000E+02  0.51100000000E-03 0.  1.
         11   -1    0    0    0    0 -0.00000000000E+00 -0.00000000000E+00 -0.45593999997E+02  0.45594000000E+02  0.51100000000E-03 0. -1.
         23    2    1    2    0    0  0.35527136788E-14  0.00000000000E+00  0.53290705182E-14  0.91188000000E+02  0.91188000000E+02 0.  0.
    9900012    2    3    3    0    0  0.30071048731E+02  0.14727674276E+02  0.15316931869E+02  0.54367071668E+02  0.39999971481E+02 0.  0.
         12    1    3    3    0    0 -0.30071048731E+02 -0.14727674276E+02 -0.15316931869E+02  0.36820928332E+02  0.00000000000E+00 0. -1.
         11    1    4    4    0    0  0.20349131105E+01  0.80197082794E+00 -0.63486457438E+01  0.67148590169E+01  0.51100000000E-03 0.  1.
        -11    1    4    4    0    0  0.46409887796E+01 -0.29217554959E+01 -0.56947520899E+01  0.79060504461E+01  0.51100000000E-03 0. -1.
        -12    1    4    4    0    0  0.23395146841E+02  0.16847458944E+02  0.27360329703E+02  0.39746162205E+02  0.00000000000E+00 0.  1.
</event>
<event>
 8    1  0.2450026E-006  0.9118800E+02  0.7816164E-02  0.1184000E+00
        -11   -1    0    0    0    0  0.00000000000E+00  0.00000000000E+00  0.45593999997E+02  0.45594000000E+02  0.51100000000E-03 0. -1.
         11   -1    0    0    0    0 -0.00000000000E+00 -0.00000000000E+00 -0.45593999997E+02  0.45594000000E+02  0.51100000000E-03 0.  1.
         23    2    1    2    0    0  0.35527136788E-14  0.00000000000E+00 -0.35527136788E-14  0.91188000000E+02  0.91188000000E+02 0.  0.
    9900012    2    3    3    0    0 -0.22655764916E+02 -0.16621628071E+02  0.23795341352E+02  0.54367075600E+02  0.39999980444E+02 0.  0.
         12    1    3    3    0    0  0.22655764916E+02  0.16621628071E+02 -0.23795341352E+02  0.36820924400E+02  0.00000000000E+00 0. -1.
         11    1    4    4    0    0 -0.86998336950E+01  0.10889079302E+02  0.11655306848E+01  0.13986336776E+02  0.51100000000E-03 0. -1.
        -11    1    4    4    0    0 -0.20802790945E+01 -0.14308311993E+02  0.48462874380E+01  0.15249323112E+02  0.51100000000E-03 0.  1.
         12    1    4    4    0    0 -0.11875652126E+02 -0.13202395381E+02  0.17783523229E+02  0.25131415711E+02  0.00000000000E+00 0. -1.
</event>
<event>
 8    1  0.2450026E-006  0.9118800E+02  0.7816164E-02  0.1184000E+00
        -11   -1    0    0    0    0  0.00000000000E+00  0.00000000000E+00  0.45593999997E+02  0.45594000000E+02  0.51100000000E-03 0. -1.
         11   -1    0    0    0    0 -0.00000000000E+00 -0.00000000000E+00 -0.45593999997E+02  0.45594000000E+02  0.51100000000E-03 0.  1.
         23    2    1    2    0    0  0.35527136788E-14  0.88817841970E-15 -0.35527136788E-14  0.91188000000E+02  0.91188000000E+02 0.  0.
    9900012    2    3    3    0    0 -0.26079584855E+02  0.69838245719E+01 -0.25037141613E+02  0.54367122606E+02  0.40000087605E+02 0.  0.
         12    1    3    3    0    0  0.26079584855E+02 -0.69838245719E+01  0.25037141613E+02  0.36820877394E+02  0.00000000000E+00 0. -1.
         11    1    4    4    0    0 -0.99032631283E+01  0.13495929705E+02 -0.39650993437E+01  0.17202812336E+02  0.51100000000E-03 0. -1.
        -11    1    4    4    0    0 -0.83905002987E+01  0.64853521288E+01 -0.19152182592E+02  0.21892153522E+02  0.51100000000E-03 0.  1.
         12    1    4    4    0    0 -0.77858214284E+01 -0.12997457262E+02 -0.19198596773E+01  0.15272156749E+02  0.00000000000E+00 0. -1.
</event>
<event>
 8    1  0.2450026E-006  0.9118800E+02  0.7816164E-02  0.1184000E+00
        -11   -1    0    0    0    0  0.00000000000E+00  0.00000000000E+00  0.45593999997E+02  0.45594000000E+02  0.51100000000E-03 0.  1.
         11   -1    0    0    0    0 -0.00000000000E+00 -0.00000000000E+00 -0.45593999997E+02  0.45594000000E+02  0.51100000000E-03 0. -1.
         23    2    1    2    0    0  0.88817841970E-15  0.00000000000E+00  0.26645352591E-14  0.91188000000E+02  0.91188000000E+02 0.  0.
    9900012    2    3    3    0    0  0.53163600856E+01 -0.35732368641E+02 -0.71213455482E+01  0.54367089967E+02  0.40000013198E+02 0.  0.
         12    1    3    3    0    0 -0.53163600856E+01  0.35732368641E+02  0.71213455482E+01  0.36820910033E+02  0.00000000000E+00 0. -1.
         11    1    4    4    0    0  0.42618816867E+01 -0.89572292068E+01  0.93537616904E+01  0.13634091411E+02  0.51100000000E-03 0. -1.
        -11    1    4    4    0    0 -0.74075115179E+01 -0.10409772864E+02  0.38078876513E+01  0.13331714316E+02  0.51100000000E-03 0.  1.
         12    1    4    4    0    0  0.84619899169E+01 -0.16365366570E+02 -0.20282994890E+02  0.27401284240E+02  0.00000000000E+00 0. -1.
</event>
<event>
 8    1  0.2450026E-006  0.9118800E+02  0.7816164E-02  0.1184000E+00
        -11   -1    0    0    0    0  0.00000000000E+00  0.00000000000E+00  0.45593999997E+02  0.45594000000E+02  0.51100000000E-03 0. -1.
         11   -1    0    0    0    0 -0.00000000000E+00 -0.00000000000E+00 -0.45593999997E+02  0.45594000000E+02  0.51100000000E-03 0.  1.
         23    2    1    2    0    0  0.00000000000E+00  0.00000000000E+00  0.00000000000E+00  0.91188000000E+02  0.91188000000E+02 0.  0.
    9900012    2    3    3    0    0  0.29230331900E+02 -0.18038721664E+02 -0.13265552197E+02  0.54367045947E+02  0.39999912846E+02 0.  0.
        -12    1    3    3    0    0 -0.29230331900E+02  0.18038721664E+02  0.13265552197E+02  0.36820954053E+02  0.00000000000E+00 0.  1.
         11    1    4    4    0    0  0.87798337937E+01 -0.14793669045E+02 -0.45327796097E+01  0.17790003275E+02  0.51100000000E-03 0. -1.
        -11    1    4    4    0    0  0.10348584398E+02  0.21873013826E+01 -0.18632688493E+02  0.21425558735E+02  0.51100000000E-03 0.  1.
        -12    1    4    4    0    0  0.10101913708E+02 -0.54323540014E+01  0.98999159053E+01  0.15151483937E+02  0.00000000000E+00 0.  1.
</event>
<event>
 8    1  0.2450026E-006  0.9118800E+02  0.7816164E-02  0.1184000E+00
        -11   -1    0    0    0    0  0.00000000000E+00  0.00000000000E+00  0.45593999997E+02  0.45594000000E+02  0.51100000000E-03 0.  1.
         11   -1    0    0    0    0 -0.00000000000E+00 -0.00000000000E+00 -0.45593999997E+02  0.45594000000E+02  0.51100000000E-03 0. -1.
         23    2    1    2    0    0  0.00000000000E+00  0.71054273576E-14 -0.35527136788E-14  0.91188000000E+02  0.91188000000E+02 0.  0.
    9900012    2    3    3    0    0  0.70468035204E+01  0.33984409066E+02 -0.12295769375E+02  0.54367035266E+02  0.39999888496E+02 0.  0.
        -12    1    3    3    0    0 -0.70468035204E+01 -0.33984409066E+02  0.12295769375E+02  0.36820964734E+02  0.00000000000E+00 0.  1.
         11    1    4    4    0    0  0.58122663167E+01  0.26307068984E+02 -0.44231287604E+01  0.27302168165E+02  0.51100000000E-03 0. -1.
        -11    1    4    4    0    0  0.11040972319E+02 -0.17209736077E+01 -0.75356922626E+01  0.13477814290E+02  0.51100000000E-03 0.  1.
        -12    1    4    4    0    0 -0.98064351151E+01  0.93983136901E+01 -0.33694835171E+00  0.13587052811E+02  0.00000000000E+00 0.  1.
</event>
<event>
 8    1  0.2450026E-006  0.9118800E+02  0.7816164E-02  0.1184000E+00
        -11   -1    0    0    0    0  0.00000000000E+00  0.00000000000E+00  0.45593999997E+02  0.45594000000E+02  0.51100000000E-03 0. -1.
         11   -1    0    0    0    0 -0.00000000000E+00 -0.00000000000E+00 -0.45593999997E+02  0.45594000000E+02  0.51100000000E-03 0.  1.
         23    2    1    2    0    0  0.35527136788E-14  0.00000000000E+00  0.00000000000E+00  0.91188000000E+02  0.91188000000E+02 0.  0.
    9900012    2    3    3    0    0 -0.22777829232E+02 -0.96809752726E+01 -0.27262302542E+02  0.54367028711E+02  0.39999873552E+02 0.  0.
         12    1    3    3    0    0  0.22777829232E+02  0.96809752726E+01  0.27262302542E+02  0.36820971289E+02  0.00000000000E+00 0. -1.
         11    1    4    4    0    0 -0.27957321436E+01  0.10148314322E+02 -0.56145792763E+01  0.11930125838E+02  0.51100000000E-03 0. -1.
        -11    1    4    4    0    0 -0.90881219935E+01 -0.75238916525E+01 -0.23099447067E+02  0.25938144923E+02  0.51100000000E-03 0.  1.
        -12    1    4    4    0    0 -0.10893975095E+02 -0.12305397943E+02  0.14517238011E+01  0.16498757950E+02  0.00000000000E+00 0.  1.
</event>
<event>
 8    1  0.2450026E-006  0.9118800E+02  0.7816164E-02  0.1184000E+00
        -11   -1    0    0    0    0  0.00000000000E+00  0.00000000000E+00  0.45593999997E+02  0.45594000000E+02  0.51100000000E-03 0.  1.
         11   -1    0    0    0    0 -0.00000000000E+00 -0.00000000000E+00 -0.45593999997E+02  0.45594000000E+02  0.51100000000E-03 0. -1.
         23    2    1    2    0    0  0.71054273576E-14  0.00000000000E+00 -0.88817841970E-15  0.91188000000E+02  0.91188000000E+02 0.  0.
    9900012    2    3    3    0    0 -0.33991013103E+02  0.13130690044E+02 -0.52892267324E+01  0.54367083224E+02  0.39999997825E+02 0.  0.
        -12    1    3    3    0    0  0.33991013103E+02 -0.13130690044E+02  0.52892267324E+01  0.36820916776E+02  0.00000000000E+00 0.  1.
         11    1    4    4    0    0  0.22091373760E+01  0.10377912927E+02  0.65203581593E+01  0.12453771936E+02  0.51100000000E-03 0. -1.
        -11    1    4    4    0    0 -0.21987846845E+02  0.74238731172E+01 -0.59250628092E+00  0.23214873786E+02  0.51100000000E-03 0.  1.
         12    1    4    4    0    0 -0.14212303634E+02 -0.46710959997E+01 -0.11217078611E+02  0.18698437501E+02  0.00000000000E+00 0. -1.
</event>
<event>
 8    1  0.2450026E-006  0.9118800E+02  0.7816164E-02  0.1184000E+00
        -11   -1    0    0    0    0  0.00000000000E+00  0.00000000000E+00  0.45593999997E+02  0.45594000000E+02  0.51100000000E-03 0. -1.
         11   -1    0    0    0    0 -0.00000000000E+00 -0.00000000000E+00 -0.45593999997E+02  0.45594000000E+02  0.51100000000E-03 0.  1.
         23    2    1    2    0    0 -0.35527136788E-14  0.00000000000E+00  0.35527136788E-14  0.91188000000E+02  0.91188000000E+02 0.  0.
    9900012    2    3    3    0    0  0.19533274469E+02  0.92588495049E+01 -0.29807804539E+02  0.54367077727E+02  0.39999985293E+02 0.  0.
         12    1    3    3    0    0 -0.19533274469E+02 -0.92588495049E+01  0.29807804539E+02  0.36820922273E+02  0.00000000000E+00 0. -1.
         11    1    4    4    0    0  0.13114611725E+02 -0.14319251249E+01  0.24571569004E-01  0.13192575726E+02  0.51100000000E-03 0. -1.
        -11    1    4    4    0    0  0.12524508112E+02  0.12930714575E+02 -0.29627191017E+02  0.34667522707E+02  0.51100000000E-03 0.  1.
        -12    1    4    4    0    0 -0.61058453674E+01 -0.22399399449E+01 -0.20518509113E+00  0.65069792937E+01  0.00000000000E+00 0.  1.
</event>
<event>
 8    1  0.2450026E-006  0.9118800E+02  0.7816164E-02  0.1184000E+00
        -11   -1    0    0    0    0  0.00000000000E+00  0.00000000000E+00  0.45593999997E+02  0.45594000000E+02  0.51100000000E-03 0. -1.
         11   -1    0    0    0    0 -0.00000000000E+00 -0.00000000000E+00 -0.45593999997E+02  0.45594000000E+02  0.51100000000E-03 0.  1.
         23    2    1    2    0    0 -0.17763568394E-14 -0.17763568394E-14  0.00000000000E+00  0.91188000000E+02  0.91188000000E+02 0.  0.
    9900012    2    3    3    0    0 -0.11891992210E+02  0.10872772313E+02  0.33108027205E+02  0.54367107535E+02  0.40000053247E+02 0.  0.
        -12    1    3    3    0    0  0.11891992210E+02 -0.10872772313E+02 -0.33108027205E+02  0.36820892465E+02  0.00000000000E+00 0.  1.
         11    1    4    4    0    0  0.10451128767E+02  0.13220735744E+02  0.23043300610E+02  0.28548338820E+02  0.51100000000E-03 0. -1.
        -11    1    4    4    0    0 -0.20605164479E+01 -0.17214900954E+00 -0.13246642452E+01  0.24556259766E+01  0.51100000000E-03 0.  1.
         12    1    4    4    0    0 -0.20282604529E+02 -0.21758144221E+01  0.11389390841E+02  0.23363142738E+02  0.00000000000E+00 0. -1.
</event>
<event>
 8    1  0.2450026E-006  0.9118800E+02  0.7816164E-02  0.1184000E+00
        -11   -1    0    0    0    0  0.00000000000E+00  0.00000000000E+00  0.45593999997E+02  0.45594000000E+02  0.51100000000E-03 0.  1.
         11   -1    0    0    0    0 -0.00000000000E+00 -0.00000000000E+00 -0.45593999997E+02  0.45594000000E+02  0.51100000000E-03 0. -1.
         23    2    1    2    0    0  0.00000000000E+00  0.00000000000E+00 -0.88817841970E-15  0.91188000000E+02  0.91188000000E+02 0.  0.
    9900012    2    3    3    0    0  0.92254657885E+01  0.35575708517E+02 -0.22444120829E+01  0.54367114064E+02  0.40000068132E+02 0.  0.
        -12    1    3    3    0    0 -0.92254657885E+01 -0.35575708517E+02  0.22444120829E+01  0.36820885936E+02  0.00000000000E+00 0.  1.
         11    1    4    4    0    0  0.12714350922E+02  0.34054492458E+02 -0.15136804060E+02  0.39376211262E+02  0.51100000000E-03 0. -1.
        -11    1    4    4    0    0 -0.20481545465E+01  0.21220424881E+01  0.11825713663E+01  0.31774953446E+01  0.51100000000E-03 0.  1.
         12    1    4    4    0    0 -0.14407305866E+01 -0.60082642950E+00  0.11709820611E+02  0.11813407458E+02  0.00000000000E+00 0. -1.
</event>
<event>
 8    1  0.2450026E-006  0.9118800E+02  0.7816164E-02  0.1184000E+00
        -11   -1    0    0    0    0  0.00000000000E+00  0.00000000000E+00  0.45593999997E+02  0.45594000000E+02  0.51100000000E-03 0.  1.
         11   -1    0    0    0    0 -0.00000000000E+00 -0.00000000000E+00 -0.45593999997E+02  0.45594000000E+02  0.51100000000E-03 0. -1.
         23    2    1    2    0    0  0.00000000000E+00 -0.35527136788E-14  0.35527136788E-14  0.91188000000E+02  0.91188000000E+02 0.  0.
    9900012    2    3    3    0    0  0.23846168452E+01  0.24117823446E+02 -0.27720459708E+02  0.54367086218E+02  0.40000004652E+02 0.  0.
        -12    1    3    3    0    0 -0.23846168452E+01 -0.24117823446E+02  0.27720459708E+02  0.36820913782E+02  0.00000000000E+00 0.  1.
         11    1    4    4    0    0  0.29396796926E+01  0.14566450626E+02 -0.24460341785E+02  0.28620473809E+02  0.51100000000E-03 0. -1.
        -11    1    4    4    0    0  0.51612914800E+01  0.48651470836E+01 -0.12221187712E+02  0.14130322546E+02  0.51100000000E-03 0.  1.
        -12    1    4    4    0    0 -0.57163543273E+01  0.46862257361E+01  0.89610697887E+01  0.11616289864E+02  0.00000000000E+00 0.  1.
</event>
<event>
 8    1  0.2450026E-006  0.9118800E+02  0.7816164E-02  0.1184000E+00
        -11   -1    0    0    0    0  0.00000000000E+00  0.00000000000E+00  0.45593999997E+02  0.45594000000E+02  0.51100000000E-03 0. -1.
         11   -1    0    0    0    0 -0.00000000000E+00 -0.00000000000E+00 -0.45593999997E+02  0.45594000000E+02  0.51100000000E-03 0.  1.
         23    2    1    2    0    0  0.55511151231E-15  0.00000000000E+00  0.71054273576E-14  0.91188000000E+02  0.91188000000E+02 0.  0.
    9900012    2    3    3    0    0 -0.94937990850E+00  0.84352342270E+01  0.35829128748E+02  0.54367068921E+02  0.39999965219E+02 0.  0.
        -12    1    3    3    0    0  0.94937990850E+00 -0.84352342270E+01 -0.35829128748E+02  0.36820931079E+02  0.00000000000E+00 0.  1.
         11    1    4    4    0    0 -0.36674026044E+01 -0.88407824624E+01  0.13992263396E+02  0.16952660900E+02  0.51100000000E-03 0. -1.
        -11    1    4    4    0    0  0.53767531154E+01  0.18730966561E+02  0.25858052512E+02  0.32378966357E+02  0.51100000000E-03 0.  1.
        -12    1    4    4    0    0 -0.26587304195E+01 -0.14549498719E+01 -0.40211871596E+01  0.50354416634E+01  0.00000000000E+00 0.  1.
</event>
<event>
 8    1  0.2450026E-006  0.9118800E+02  0.7816164E-02  0.1184000E+00
        -11   -1    0    0    0    0  0.00000000000E+00  0.00000000000E+00  0.45593999997E+02  0.45594000000E+02  0.51100000000E-03 0.  1.
         11   -1    0    0    0    0 -0.00000000000E+00 -0.00000000000E+00 -0.45593999997E+02  0.45594000000E+02  0.51100000000E-03 0. -1.
         23    2    1    2    0    0 -0.17763568394E-14  0.00000000000E+00  0.35527136788E-14  0.91188000000E+02  0.91188000000E+02 0.  0.
    9900012    2    3    3    0    0  0.12629534441E+02  0.15704348526E+02 -0.30816371514E+02  0.54367075838E+02  0.39999980988E+02 0.  0.
        -12    1    3    3    0    0 -0.12629534441E+02 -0.15704348526E+02  0.30816371514E+02  0.36820924162E+02  0.00000000000E+00 0.  1.
         11    1    4    4    0    0  0.74684765796E+01  0.21167236189E+02 -0.23837925972E+02  0.32742583056E+02  0.51100000000E-03 0. -1.
        -11    1    4    4    0    0  0.49691738797E+01  0.62291668020E+01 -0.58324344874E+01  0.98748417914E+01  0.51100000000E-03 0.  1.
        -12    1    4    4    0    0  0.19188398207E+00 -0.11692054464E+02 -0.11460110544E+01  0.11749650990E+02  0.00000000000E+00 0.  1.
</event>
<event>
 8    1  0.2450026E-006  0.9118800E+02  0.7816164E-02  0.1184000E+00
        -11   -1    0    0    0    0  0.00000000000E+00  0.00000000000E+00  0.45593999997E+02  0.45594000000E+02  0.51100000000E-03 0.  1.
         11   -1    0    0    0    0 -0.00000000000E+00 -0.00000000000E+00 -0.45593999997E+02  0.45594000000E+02  0.51100000000E-03 0. -1.
         23    2    1    2    0    0 -0.88817841970E-15  0.35527136788E-14 -0.35527136788E-14  0.91188000000E+02  0.91188000000E+02 0.  0.
    9900012    2    3    3    0    0  0.30685164022E+01 -0.29787717305E+02 -0.21425593897E+02  0.54367082453E+02  0.39999996067E+02 0.  0.
        -12    1    3    3    0    0 -0.30685164022E+01  0.29787717305E+02  0.21425593897E+02  0.36820917547E+02  0.00000000000E+00 0.  1.
         11    1    4    4    0    0 -0.56720951880E+01  0.50848953565E+01  0.19689184543E+01  0.78680025896E+01  0.51100000000E-03 0.  1.
        -11    1    4    4    0    0  0.80517125964E+01 -0.54115662087E+01 -0.10609120164E+02  0.14375971462E+02  0.51100000000E-03 0. -1.
         12    1    4    4    0    0  0.68889899386E+00 -0.29461046453E+02 -0.12785392187E+02  0.32123108401E+02  0.00000000000E+00 0. -1.
</event>
<event>
 8    1  0.2450026E-006  0.9118800E+02  0.7816164E-02  0.1184000E+00
        -11   -1    0    0    0    0  0.00000000000E+00  0.00000000000E+00  0.45593999997E+02  0.45594000000E+02  0.51100000000E-03 0.  1.
         11   -1    0    0    0    0 -0.00000000000E+00 -0.00000000000E+00 -0.45593999997E+02  0.45594000000E+02  0.51100000000E-03 0. -1.
         23    2    1    2    0    0  0.00000000000E+00  0.00000000000E+00  0.00000000000E+00  0.91188000000E+02  0.91188000000E+02 0.  0.
    9900012    2    3    3    0    0  0.21911676916E+02 -0.19087632846E+02 -0.22612410085E+02  0.54367076562E+02  0.39999982639E+02 0.  0.
        -12    1    3    3    0    0 -0.21911676916E+02  0.19087632846E+02  0.22612410085E+02  0.36820923438E+02  0.00000000000E+00 0.  1.
         11    1    4    4    0    0  0.50120074405E+00 -0.12582983489E+02 -0.15596998191E+02  0.20046172415E+02  0.51100000000E-03 0. -1.
        -11    1    4    4    0    0  0.16394388105E+02 -0.15890058211E+02 -0.34077250068E+01  0.23084247904E+02  0.51100000000E-03 0.  1.
         12    1    4    4    0    0  0.50160880663E+01  0.93854088540E+01 -0.36076868873E+01  0.11236656243E+02  0.00000000000E+00 0. -1.
</event>
<event>
 8    1  0.2450026E-006  0.9118800E+02  0.7816164E-02  0.1184000E+00
        -11   -1    0    0    0    0  0.00000000000E+00  0.00000000000E+00  0.45593999997E+02  0.45594000000E+02  0.51100000000E-03 0.  1.
         11   -1    0    0    0    0 -0.00000000000E+00 -0.00000000000E+00 -0.45593999997E+02  0.45594000000E+02  0.51100000000E-03 0. -1.
         23    2    1    2    0    0  0.00000000000E+00  0.44408920985E-15  0.00000000000E+00  0.91188000000E+02  0.91188000000E+02 0.  0.
    9900012    2    3    3    0    0  0.34770995944E+02  0.29390457972E+01 -0.11752373066E+02  0.54367103462E+02  0.40000043963E+02 0.  0.
        -12    1    3    3    0    0 -0.34770995944E+02 -0.29390457972E+01  0.11752373066E+02  0.36820896538E+02  0.00000000000E+00 0.  1.
         11    1    4    4    0    0 -0.49108193421E+01  0.78302284606E+01 -0.71746677073E+01  0.11700618844E+02  0.51100000000E-03 0. -1.
        -11    1    4    4    0    0  0.39260386124E+02 -0.58571166548E+01 -0.67381393728E+01  0.40262715465E+02  0.51100000000E-03 0.  1.
        -12    1    4    4    0    0  0.42142916228E+00  0.96593399149E+00  0.21604340144E+01  0.24037691540E+01  0.00000000000E+00 0.  1.
</event>
<event>
 8    1  0.2450026E-006  0.9118800E+02  0.7816164E-02  0.1184000E+00
        -11   -1    0    0    0    0  0.00000000000E+00  0.00000000000E+00  0.45593999997E+02  0.45594000000E+02  0.51100000000E-03 0.  1.
         11   -1    0    0    0    0 -0.00000000000E+00 -0.00000000000E+00 -0.45593999997E+02  0.45594000000E+02  0.51100000000E-03 0. -1.
         23    2    1    2    0    0 -0.35527136788E-14 -0.35527136788E-14  0.00000000000E+00  0.91188000000E+02  0.91188000000E+02 0.  0.
    9900012    2    3    3    0    0  0.27054725281E+02  0.16872370152E+02 -0.18415736088E+02  0.54367158480E+02  0.40000169387E+02 0.  0.
        -12    1    3    3    0    0 -0.27054725281E+02 -0.16872370152E+02  0.18415736088E+02  0.36820841520E+02  0.00000000000E+00 0.  1.
         11    1    4    4    0    0  0.14921746158E+02  0.15513333949E+02 -0.50666137485E+00  0.21530878864E+02  0.51100000000E-03 0. -1.
        -11    1    4    4    0    0 -0.34639214612E+01 -0.65914602251E+01  0.46095834020E+00  0.74604679907E+01  0.51100000000E-03 0.  1.
        -12    1    4    4    0    0  0.15596900583E+02  0.79504964282E+01 -0.18370033054E+02  0.25375811625E+02  0.00000000000E+00 0.  1.
</event>
<event>
 8    1  0.2450026E-006  0.9118800E+02  0.7816164E-02  0.1184000E+00
        -11   -1    0    0    0    0  0.00000000000E+00  0.00000000000E+00  0.45593999997E+02  0.45594000000E+02  0.51100000000E-03 0.  1.
         11   -1    0    0    0    0 -0.00000000000E+00 -0.00000000000E+00 -0.45593999997E+02  0.45594000000E+02  0.51100000000E-03 0. -1.
         23    2    1    2    0    0  0.00000000000E+00  0.00000000000E+00  0.00000000000E+00  0.91188000000E+02  0.91188000000E+02 0.  0.
    9900012    2    3    3    0    0 -0.30086781956E+02  0.11523419900E+02  0.17826277836E+02  0.54367084257E+02  0.40000000181E+02 0.  0.
         12    1    3    3    0    0  0.30086781956E+02 -0.11523419900E+02 -0.17826277836E+02  0.36820915743E+02  0.00000000000E+00 0. -1.
         11    1    4    4    0    0 -0.13806639828E+02  0.10358491699E+02  0.11929195851E+02  0.20981595924E+02  0.51100000000E-03 0. -1.
        -11    1    4    4    0    0 -0.21925232745E+02 -0.14319952922E+01  0.11691785159E+02  0.24889039393E+02  0.51100000000E-03 0.  1.
         12    1    4    4    0    0  0.56450906169E+01  0.25969234931E+01 -0.57947031744E+01  0.84964489395E+01  0.00000000000E+00 0. -1.
</event>
<event>
 8    1  0.2450026E-006  0.9118800E+02  0.7816164E-02  0.1184000E+00
        -11   -1    0    0    0    0  0.00000000000E+00  0.00000000000E+00  0.45593999997E+02  0.45594000000E+02  0.51100000000E-03 0.  1.
         11   -1    0    0    0    0 -0.00000000000E+00 -0.00000000000E+00 -0.45593999997E+02  0.45594000000E+02  0.51100000000E-03 0. -1.
         23    2    1    2    0    0  0.16653345369E-15  0.00000000000E+00 -0.35527136788E-14  0.91188000000E+02  0.91188000000E+02 0.  0.
    9900012    2    3    3    0    0 -0.36717237944E+00  0.28084724062E+02  0.23809519118E+02  0.54367085538E+02  0.40000003100E+02 0.  0.
         12    1    3    3    0    0  0.36717237944E+00 -0.28084724062E+02 -0.23809519118E+02  0.36820914462E+02  0.00000000000E+00 0. -1.
         11    1    4    4    0    0 -0.59541950693E+01 -0.11073586641E-01  0.16407734881E+02  0.17454693516E+02  0.51100000000E-03 0. -1.
        -11    1    4    4    0    0  0.12322632248E+02  0.13626639453E+02 -0.18494117342E+01  0.18464909757E+02  0.51100000000E-03 0.  1.
         12    1    4    4    0    0 -0.67356095582E+01  0.14469158196E+02  0.92511959711E+01  0.18447482265E+02  0.00000000000E+00 0. -1.
</event>
<event>
 8    1  0.2450026E-006  0.9118800E+02  0.7816164E-02  0.1184000E+00
        -11   -1    0    0    0    0  0.00000000000E+00  0.00000000000E+00  0.45593999997E+02  0.45594000000E+02  0.51100000000E-03 0. -1.
         11   -1    0    0    0    0 -0.00000000000E+00 -0.00000000000E+00 -0.45593999997E+02  0.45594000000E+02  0.51100000000E-03 0.  1.
         23    2    1    2    0    0 -0.88817841970E-15  0.00000000000E+00  0.00000000000E+00  0.91188000000E+02  0.91188000000E+02 0.  0.
    9900012    2    3    3    0    0 -0.53012915839E+01 -0.30348932740E+02  0.20164796449E+02  0.54367076237E+02  0.39999981897E+02 0.  0.
        -12    1    3    3    0    0  0.53012915839E+01  0.30348932740E+02 -0.20164796449E+02  0.36820923763E+02  0.00000000000E+00 0.  1.
         11    1    4    4    0    0  0.13792655833E+01 -0.14071671347E+02  0.62497566282E+01  0.15458776350E+02  0.51100000000E-03 0. -1.
        -11    1    4    4    0    0  0.20478422937E+01 -0.24272431241E+02  0.77469622294E+01  0.25560907661E+02  0.51100000000E-03 0.  1.
        -12    1    4    4    0    0 -0.87283994610E+01  0.79951698484E+01  0.61680775917E+01  0.13347392226E+02  0.00000000000E+00 0.  1.
</event>
<event>
 8    1  0.2450026E-006  0.9118800E+02  0.7816164E-02  0.1184000E+00
        -11   -1    0    0    0    0  0.00000000000E+00  0.00000000000E+00  0.45593999997E+02  0.45594000000E+02  0.51100000000E-03 0. -1.
         11   -1    0    0    0    0 -0.00000000000E+00 -0.00000000000E+00 -0.45593999997E+02  0.45594000000E+02  0.51100000000E-03 0.  1.
         23    2    1    2    0    0  0.00000000000E+00  0.35527136788E-14 -0.35527136788E-14  0.91188000000E+02  0.91188000000E+02 0.  0.
    9900012    2    3    3    0    0  0.21051766897E+02 -0.22466906910E+02  0.20195119431E+02  0.54367059702E+02  0.39999944203E+02 0.  0.
        -12    1    3    3    0    0 -0.21051766897E+02  0.22466906910E+02 -0.20195119431E+02  0.36820940298E+02  0.00000000000E+00 0.  1.
         11    1    4    4    0    0  0.22095783125E+02 -0.91926323892E+01  0.12109203481E+02  0.26820904745E+02  0.51100000000E-03 0. -1.
        -11    1    4    4    0    0  0.47794139452E+01 -0.11045898047E+02 -0.50138591396E+01  0.13038153438E+02  0.51100000000E-03 0.  1.
         12    1    4    4    0    0 -0.58234301729E+01 -0.22283764737E+01  0.13099775090E+02  0.14508001519E+02  0.00000000000E+00 0. -1.
</event>
<event>
 8    1  0.2450026E-006  0.9118800E+02  0.7816164E-02  0.1184000E+00
        -11   -1    0    0    0    0  0.00000000000E+00  0.00000000000E+00  0.45593999997E+02  0.45594000000E+02  0.51100000000E-03 0. -1.
         11   -1    0    0    0    0 -0.00000000000E+00 -0.00000000000E+00 -0.45593999997E+02  0.45594000000E+02  0.51100000000E-03 0.  1.
         23    2    1    2    0    0  0.00000000000E+00  0.00000000000E+00  0.88817841970E-15  0.91188000000E+02  0.91188000000E+02 0.  0.
    9900012    2    3    3    0    0  0.33366526787E+02  0.15245533954E+02 -0.31667178639E+01  0.54367088586E+02  0.40000010049E+02 0.  0.
        -12    1    3    3    0    0 -0.33366526787E+02 -0.15245533954E+02  0.31667178639E+01  0.36820911414E+02  0.00000000000E+00 0.  1.
         11    1    4    4    0    0  0.24972438140E+02  0.18436067545E+02  0.10195323233E+02  0.32671943151E+02  0.51100000000E-03 0. -1.
        -11    1    4    4    0    0 -0.20997903632E+00 -0.56678879649E+01 -0.74245051672E-01  0.56722621384E+01  0.51100000000E-03 0.  1.
         12    1    4    4    0    0  0.86040676831E+01  0.24773543732E+01 -0.13287796045E+02  0.16022883296E+02  0.00000000000E+00 0. -1.
</event>
<event>
 8    1  0.2450026E-006  0.9118800E+02  0.7816164E-02  0.1184000E+00
        -11   -1    0    0    0    0  0.00000000000E+00  0.00000000000E+00  0.45593999997E+02  0.45594000000E+02  0.51100000000E-03 0. -1.
         11   -1    0    0    0    0 -0.00000000000E+00 -0.00000000000E+00 -0.45593999997E+02  0.45594000000E+02  0.51100000000E-03 0.  1.
         23    2    1    2    0    0 -0.17763568394E-14 -0.35527136788E-14  0.35527136788E-14  0.91188000000E+02  0.91188000000E+02 0.  0.
    9900012    2    3    3    0    0  0.15226087879E+02 -0.22113569785E+02  0.25197924698E+02  0.54367093849E+02  0.40000022047E+02 0.  0.
        -12    1    3    3    0    0 -0.15226087879E+02  0.22113569785E+02 -0.25197924698E+02  0.36820906151E+02  0.00000000000E+00 0.  1.
         11    1    4    4    0    0  0.11435397489E+02 -0.64294251087E+01  0.17487240670E+01  0.13234948397E+02  0.51100000000E-03 0. -1.
        -11    1    4    4    0    0 -0.37108266504E+01 -0.54665980705E+01 -0.60915716321E+01  0.89867221000E+01  0.51100000000E-03 0.  1.
         12    1    4    4    0    0  0.75015170405E+01 -0.10217546606E+02  0.29540772263E+02  0.32145423351E+02  0.00000000000E+00 0. -1.
</event>
<event>
 8    1  0.2450026E-006  0.9118800E+02  0.7816164E-02  0.1184000E+00
        -11   -1    0    0    0    0  0.00000000000E+00  0.00000000000E+00  0.45593999997E+02  0.45594000000E+02  0.51100000000E-03 0.  1.
         11   -1    0    0    0    0 -0.00000000000E+00 -0.00000000000E+00 -0.45593999997E+02  0.45594000000E+02  0.51100000000E-03 0. -1.
         23    2    1    2    0    0  0.00000000000E+00  0.00000000000E+00  0.00000000000E+00  0.91188000000E+02  0.91188000000E+02 0.  0.
    9900012    2    3    3    0    0  0.22394419069E+02 -0.84798542560E+01 -0.27970739608E+02  0.54367079210E+02  0.39999988675E+02 0.  0.
        -12    1    3    3    0    0 -0.22394419069E+02  0.84798542560E+01  0.27970739608E+02  0.36820920790E+02  0.00000000000E+00 0.  1.
         11    1    4    4    0    0  0.45905541142E+00 -0.48353441189E+01 -0.14215656102E+02  0.15022521869E+02  0.51100000000E-03 0. -1.
        -11    1    4    4    0    0  0.22225417362E+02 -0.12878853479E+02 -0.15415223125E+02  0.29957689298E+02  0.51100000000E-03 0.  1.
        -12    1    4    4    0    0 -0.29005370416E+00  0.92343433415E+01  0.16601396195E+01  0.93868680430E+01  0.00000000000E+00 0.  1.
</event>
<event>
 8    1  0.2450026E-006  0.9118800E+02  0.7816164E-02  0.1184000E+00
        -11   -1    0    0    0    0  0.00000000000E+00  0.00000000000E+00  0.45593999997E+02  0.45594000000E+02  0.51100000000E-03 0. -1.
         11   -1    0    0    0    0 -0.00000000000E+00 -0.00000000000E+00 -0.45593999997E+02  0.45594000000E+02  0.51100000000E-03 0.  1.
         23    2    1    2    0    0  0.00000000000E+00  0.00000000000E+00 -0.35527136788E-14  0.91188000000E+02  0.91188000000E+02 0.  0.
    9900012    2    3    3    0    0  0.47984844047E+01  0.22045473802E+02  0.29098986294E+02  0.54367090572E+02  0.40000014577E+02 0.  0.
        -12    1    3    3    0    0 -0.47984844047E+01 -0.22045473802E+02 -0.29098986294E+02  0.36820909428E+02  0.00000000000E+00 0.  1.
         11    1    4    4    0    0  0.16794676790E+02  0.15037716567E+02  0.20024769849E+02  0.30152702960E+02  0.51100000000E-03 0. -1.
        -11    1    4    4    0    0 -0.21207848461E+01  0.10616420094E+02  0.83822761724E+00  0.10858578626E+02  0.51100000000E-03 0.  1.
        -12    1    4    4    0    0 -0.98754075393E+01 -0.36086628586E+01  0.82359888279E+01  0.13355808986E+02  0.00000000000E+00 0.  1.
</event>
<event>
 8    1  0.2450026E-006  0.9118800E+02  0.7816164E-02  0.1184000E+00
        -11   -1    0    0    0    0  0.00000000000E+00  0.00000000000E+00  0.45593999997E+02  0.45594000000E+02  0.51100000000E-03 0.  1.
         11   -1    0    0    0    0 -0.00000000000E+00 -0.00000000000E+00 -0.45593999997E+02  0.45594000000E+02  0.51100000000E-03 0. -1.
         23    2    1    2    0    0  0.00000000000E+00  0.00000000000E+00  0.35527136788E-14  0.91188000000E+02  0.91188000000E+02 0.  0.
    9900012    2    3    3    0    0 -0.27408872725E+02  0.12981069864E+02 -0.20881206462E+02  0.54367092051E+02  0.40000017949E+02 0.  0.
        -12    1    3    3    0    0  0.27408872725E+02 -0.12981069864E+02  0.20881206462E+02  0.36820907949E+02  0.00000000000E+00 0.  1.
         11    1    4    4    0    0 -0.31990434501E+02  0.79195031524E+01 -0.25452558019E+02  0.41640594853E+02  0.51100000000E-03 0. -1.
        -11    1    4    4    0    0  0.57360362379E+01  0.12460295739E+01 -0.91927201557E+00  0.59413603426E+01  0.51100000000E-03 0.  1.
         12    1    4    4    0    0 -0.11544744617E+01  0.38155371375E+01  0.54906235723E+01  0.67851368551E+01  0.00000000000E+00 0. -1.
</event>
<event>
 8    1  0.2450026E-006  0.9118800E+02  0.7816164E-02  0.1184000E+00
        -11   -1    0    0    0    0  0.00000000000E+00  0.00000000000E+00  0.45593999997E+02  0.45594000000E+02  0.51100000000E-03 0.  1.
         11   -1    0    0    0    0 -0.00000000000E+00 -0.00000000000E+00 -0.45593999997E+02  0.45594000000E+02  0.51100000000E-03 0. -1.
         23    2    1    2    0    0  0.00000000000E+00 -0.35527136788E-14  0.71054273576E-14  0.91188000000E+02  0.91188000000E+02 0.  0.
    9900012    2    3    3    0    0 -0.17982293062E+02  0.23790449460E+02 -0.21597029385E+02  0.54367081658E+02  0.39999994256E+02 0.  0.
        -12    1    3    3    0    0  0.17982293062E+02 -0.23790449460E+02  0.21597029385E+02  0.36820918342E+02  0.00000000000E+00 0.  1.
         11    1    4    4    0    0 -0.89478400005E+01  0.64154046587E+01 -0.16516790973E+02  0.19850079141E+02  0.51100000000E-03 0. -1.
        -11    1    4    4    0    0 -0.14534807900E+02  0.61618909114E+01  0.68830353933E+01  0.17222244824E+02  0.51100000000E-03 0.  1.
        -12    1    4    4    0    0  0.55003548382E+01  0.11213153890E+02 -0.11963273806E+02  0.17294757693E+02  0.00000000000E+00 0.  1.
</event>
<event>
 8    1  0.2450026E-006  0.9118800E+02  0.7816164E-02  0.1184000E+00
        -11   -1    0    0    0    0  0.00000000000E+00  0.00000000000E+00  0.45593999997E+02  0.45594000000E+02  0.51100000000E-03 0.  1.
         11   -1    0    0    0    0 -0.00000000000E+00 -0.00000000000E+00 -0.45593999997E+02  0.45594000000E+02  0.51100000000E-03 0. -1.
         23    2    1    2    0    0  0.00000000000E+00 -0.88817841970E-15  0.00000000000E+00  0.91188000000E+02  0.91188000000E+02 0.  0.
    9900012    2    3    3    0    0  0.53446073191E+01 -0.32808566587E+01  0.36282931852E+02  0.54367082146E+02  0.39999995368E+02 0.  0.
         12    1    3    3    0    0 -0.53446073191E+01  0.32808566587E+01 -0.36282931852E+02  0.36820917854E+02  0.00000000000E+00 0. -1.
         11    1    4    4    0    0  0.17578799472E+02 -0.19720245109E+01  0.29949878350E+02  0.34783592181E+02  0.51100000000E-03 0. -1.
        -11    1    4    4    0    0 -0.22900520918E+01  0.43009036221E+01  0.65506087606E+01  0.81641034992E+01  0.51100000000E-03 0.  1.
         12    1    4    4    0    0 -0.99441400612E+01 -0.56097357699E+01 -0.21755525879E+00  0.11419386466E+02  0.00000000000E+00 0. -1.
</event>
<event>
 8    1  0.2450026E-006  0.9118800E+02  0.7816164E-02  0.1184000E+00
        -11   -1    0    0    0    0  0.00000000000E+00  0.00000000000E+00  0.45593999997E+02  0.45594000000E+02  0.51100000000E-03 0. -1.
         11   -1    0    0    0    0 -0.00000000000E+00 -0.00000000000E+00 -0.45593999997E+02  0.45594000000E+02  0.51100000000E-03 0.  1.
         23    2    1    2    0    0  0.17763568394E-14  0.00000000000E+00  0.00000000000E+00  0.91188000000E+02  0.91188000000E+02 0.  0.
    9900012    2    3    3    0    0  0.12772786395E+02  0.30601134457E+02  0.16006409908E+02  0.54367100222E+02  0.40000036576E+02 0.  0.
        -12    1    3    3    0    0 -0.12772786395E+02 -0.30601134457E+02 -0.16006409908E+02  0.36820899778E+02  0.00000000000E+00 0.  1.
         11    1    4    4    0    0  0.99624795641E+01  0.20257438997E+02  0.92701334925E+01  0.24403897414E+02  0.51100000000E-03 0. -1.
        -11    1    4    4    0    0 -0.58165852904E+01 -0.43130302832E+00 -0.79163983167E+01  0.98330081517E+01  0.51100000000E-03 0.  1.
        -12    1    4    4    0    0  0.86268921213E+01  0.10774998488E+02  0.14652674732E+02  0.20130194656E+02  0.00000000000E+00 0.  1.
</event>
<event>
 8    1  0.2450026E-006  0.9118800E+02  0.7816164E-02  0.1184000E+00
        -11   -1    0    0    0    0  0.00000000000E+00  0.00000000000E+00  0.45593999997E+02  0.45594000000E+02  0.51100000000E-03 0. -1.
         11   -1    0    0    0    0 -0.00000000000E+00 -0.00000000000E+00 -0.45593999997E+02  0.45594000000E+02  0.51100000000E-03 0.  1.
         23    2    1    2    0    0 -0.44408920985E-15  0.00000000000E+00  0.00000000000E+00  0.91188000000E+02  0.91188000000E+02 0.  0.
    9900012    2    3    3    0    0 -0.61945739770E+00  0.21089385451E+02 -0.30176718647E+02  0.54367078577E+02  0.39999987232E+02 0.  0.
         12    1    3    3    0    0  0.61945739770E+00 -0.21089385451E+02  0.30176718647E+02  0.36820921423E+02  0.00000000000E+00 0. -1.
         11    1    4    4    0    0 -0.36296974407E+01 -0.17446994840E+01  0.41054297808E+01  0.57509332935E+01  0.51100000000E-03 0. -1.
        -11    1    4    4    0    0  0.72444468695E+01  0.12960751387E+02 -0.24866492163E+01  0.15054783677E+02  0.51100000000E-03 0.  1.
        -12    1    4    4    0    0 -0.42342068265E+01  0.98733335475E+01 -0.31795499211E+02  0.33561361607E+02  0.00000000000E+00 0.  1.
</event>
<event>
 8    1  0.2450026E-006  0.9118800E+02  0.7816164E-02  0.1184000E+00
        -11   -1    0    0    0    0  0.00000000000E+00  0.00000000000E+00  0.45593999997E+02  0.45594000000E+02  0.51100000000E-03 0.  1.
         11   -1    0    0    0    0 -0.00000000000E+00 -0.00000000000E+00 -0.45593999997E+02  0.45594000000E+02  0.51100000000E-03 0. -1.
         23    2    1    2    0    0  0.00000000000E+00  0.17763568394E-14  0.17763568394E-14  0.91188000000E+02  0.91188000000E+02 0.  0.
    9900012    2    3    3    0    0 -0.32994077884E+02  0.12122117046E+02  0.10964703272E+02  0.54367087260E+02  0.40000007028E+02 0.  0.
        -12    1    3    3    0    0  0.32994077884E+02 -0.12122117046E+02 -0.10964703272E+02  0.36820912740E+02  0.00000000000E+00 0.  1.
         11    1    4    4    0    0 -0.17053838434E+02 -0.84052917569E+01  0.14258775475E+02  0.23765416326E+02  0.51100000000E-03 0.  1.
        -11    1    4    4    0    0  0.25898549343E+01  0.18592039819E+01  0.20100468889E+01  0.37688561638E+01  0.51100000000E-03 0. -1.
        -12    1    4    4    0    0 -0.18530094384E+02  0.18668204821E+02 -0.53041190916E+01  0.26832814770E+02  0.00000000000E+00 0.  1.
</event>
<event>
 8    1  0.2450026E-006  0.9118800E+02  0.7816164E-02  0.1184000E+00
        -11   -1    0    0    0    0  0.00000000000E+00  0.00000000000E+00  0.45593999997E+02  0.45594000000E+02  0.51100000000E-03 0. -1.
         11   -1    0    0    0    0 -0.00000000000E+00 -0.00000000000E+00 -0.45593999997E+02  0.45594000000E+02  0.51100000000E-03 0.  1.
         23    2    1    2    0    0 -0.88817841970E-15  0.00000000000E+00 -0.88817841970E-15  0.91188000000E+02  0.91188000000E+02 0.  0.
    9900012    2    3    3    0    0 -0.75175657880E+01  0.35690203881E+02  0.50473499817E+01  0.54367079448E+02  0.39999989217E+02 0.  0.
        -12    1    3    3    0    0  0.75175657880E+01 -0.35690203881E+02 -0.50473499817E+01  0.36820920552E+02  0.00000000000E+00 0.  1.
         11    1    4    4    0    0  0.17084860884E+01  0.12091271436E+02  0.22555170645E+01  0.12417935704E+02  0.51100000000E-03 0. -1.
        -11    1    4    4    0    0 -0.14008098590E+02 -0.74117852491E+00 -0.65000645556E+01  0.15460498414E+02  0.51100000000E-03 0.  1.
        -12    1    4    4    0    0  0.47820467133E+01  0.24340110970E+02  0.92918974728E+01  0.26488645330E+02  0.00000000000E+00 0.  1.
</event>
<event>
 8    1  0.2450026E-006  0.9118800E+02  0.7816164E-02  0.1184000E+00
        -11   -1    0    0    0    0  0.00000000000E+00  0.00000000000E+00  0.45593999997E+02  0.45594000000E+02  0.51100000000E-03 0.  1.
         11   -1    0    0    0    0 -0.00000000000E+00 -0.00000000000E+00 -0.45593999997E+02  0.45594000000E+02  0.51100000000E-03 0. -1.
         23    2    1    2    0    0  0.35527136788E-14  0.00000000000E+00 -0.13322676296E-14  0.91188000000E+02  0.91188000000E+02 0.  0.
    9900012    2    3    3    0    0 -0.18455711078E+02 -0.31792270653E+02  0.21021566438E+01  0.54367071071E+02  0.39999970120E+02 0.  0.
        -12    1    3    3    0    0  0.18455711078E+02  0.31792270653E+02 -0.21021566438E+01  0.36820928929E+02  0.00000000000E+00 0.  1.
         11    1    4    4    0    0 -0.22489976052E+01 -0.10850880595E+01  0.52946629752E+01  0.58539612748E+01  0.51100000000E-03 0. -1.
        -11    1    4    4    0    0 -0.80091962490E+01 -0.43283480606E+01  0.13466663321E+02  0.16255240470E+02  0.51100000000E-03 0.  1.
         12    1    4    4    0    0 -0.81975172242E+01 -0.26378834533E+02 -0.16659169652E+02  0.32257869326E+02  0.00000000000E+00 0. -1.
</event>
<event>
 8    1  0.2450026E-006  0.9118800E+02  0.7816164E-02  0.1184000E+00
        -11   -1    0    0    0    0  0.00000000000E+00  0.00000000000E+00  0.45593999997E+02  0.45594000000E+02  0.51100000000E-03 0. -1.
         11   -1    0    0    0    0 -0.00000000000E+00 -0.00000000000E+00 -0.45593999997E+02  0.45594000000E+02  0.51100000000E-03 0.  1.
         23    2    1    2    0    0  0.35527136788E-14  0.00000000000E+00  0.00000000000E+00  0.91188000000E+02  0.91188000000E+02 0.  0.
    9900012    2    3    3    0    0  0.18660895130E+02  0.27040758280E+02  0.16623746716E+02  0.54367074288E+02  0.39999977455E+02 0.  0.
        -12    1    3    3    0    0 -0.18660895130E+02 -0.27040758280E+02 -0.16623746716E+02  0.36820925712E+02  0.00000000000E+00 0.  1.
         11    1    4    4    0    0  0.18042977126E+02  0.17563140833E+02  0.15661311340E+02  0.29652817955E+02  0.51100000000E-03 0. -1.
        -11    1    4    4    0    0  0.10229647336E+02  0.70712799817E+01 -0.47090754149E+01  0.13297521451E+02  0.51100000000E-03 0.  1.
         12    1    4    4    0    0 -0.96117293316E+01  0.24063374646E+01  0.56715107907E+01  0.11416734883E+02  0.00000000000E+00 0. -1.
</event>
<event>
 8    1  0.2450026E-006  0.9118800E+02  0.7816164E-02  0.1184000E+00
        -11   -1    0    0    0    0  0.00000000000E+00  0.00000000000E+00  0.45593999997E+02  0.45594000000E+02  0.51100000000E-03 0. -1.
         11   -1    0    0    0    0 -0.00000000000E+00 -0.00000000000E+00 -0.45593999997E+02  0.45594000000E+02  0.51100000000E-03 0.  1.
         23    2    1    2    0    0  0.00000000000E+00  0.00000000000E+00  0.00000000000E+00  0.91188000000E+02  0.91188000000E+02 0.  0.
    9900012    2    3    3    0    0  0.11057168843E+02 -0.11931724571E+02 -0.33032602994E+02  0.54367083463E+02  0.39999998370E+02 0.  0.
         12    1    3    3    0    0 -0.11057168843E+02  0.11931724571E+02  0.33032602994E+02  0.36820916537E+02  0.00000000000E+00 0. -1.
         11    1    4    4    0    0  0.30765833528E+01 -0.14573609034E+02  0.73089070015E+00  0.14912734386E+02  0.51100000000E-03 0. -1.
        -11    1    4    4    0    0 -0.12296218045E+01  0.46792663337E+01 -0.48219472026E+00  0.48620998770E+01  0.51100000000E-03 0.  1.
        -12    1    4    4    0    0  0.92102072944E+01 -0.20373818711E+01 -0.33281298974E+02  0.34592249200E+02  0.00000000000E+00 0.  1.
</event>
<event>
 8    1  0.2450026E-006  0.9118800E+02  0.7816164E-02  0.1184000E+00
        -11   -1    0    0    0    0  0.00000000000E+00  0.00000000000E+00  0.45593999997E+02  0.45594000000E+02  0.51100000000E-03 0.  1.
         11   -1    0    0    0    0 -0.00000000000E+00 -0.00000000000E+00 -0.45593999997E+02  0.45594000000E+02  0.51100000000E-03 0. -1.
         23    2    1    2    0    0  0.00000000000E+00  0.35527136788E-14  0.00000000000E+00  0.91188000000E+02  0.91188000000E+02 0.  0.
    9900012    2    3    3    0    0  0.21317696688E+02 -0.21131715313E+02 -0.21325703186E+02  0.54367092889E+02  0.40000019858E+02 0.  0.
        -12    1    3    3    0    0 -0.21317696688E+02  0.21131715313E+02  0.21325703186E+02  0.36820907111E+02  0.00000000000E+00 0.  1.
         11    1    4    4    0    0  0.66248213874E+01 -0.77080578226E+01  0.25637544667E+01  0.10482139621E+02  0.51100000000E-03 0.  1.
        -11    1    4    4    0    0  0.18513183220E+02 -0.19148080370E+02 -0.25438380701E+02  0.36830668576E+02  0.51100000000E-03 0. -1.
         12    1    4    4    0    0 -0.38203079202E+01  0.57244228788E+01  0.15489230485E+01  0.70542846916E+01  0.00000000000E+00 0. -1.
</event>
<event>
 8    1  0.2450026E-006  0.9118800E+02  0.7816164E-02  0.1184000E+00
        -11   -1    0    0    0    0  0.00000000000E+00  0.00000000000E+00  0.45593999997E+02  0.45594000000E+02  0.51100000000E-03 0.  1.
         11   -1    0    0    0    0 -0.00000000000E+00 -0.00000000000E+00 -0.45593999997E+02  0.45594000000E+02  0.51100000000E-03 0. -1.
         23    2    1    2    0    0  0.00000000000E+00  0.00000000000E+00  0.00000000000E+00  0.91188000000E+02  0.91188000000E+02 0.  0.
    9900012    2    3    3    0    0  0.36201731955E+02  0.64580208889E+01 -0.18734945723E+01  0.54367062855E+02  0.39999951390E+02 0.  0.
         12    1    3    3    0    0 -0.36201731955E+02 -0.64580208889E+01  0.18734945723E+01  0.36820937145E+02  0.00000000000E+00 0. -1.
         11    1    4    4    0    0  0.77131450690E+00 -0.28693855385E+01  0.62346488040E+01  0.69064567911E+01  0.51100000000E-03 0. -1.
        -11    1    4    4    0    0 -0.46838327742E+01  0.20789759007E+01 -0.39794724366E+01  0.64881916885E+01  0.51100000000E-03 0.  1.
        -12    1    4    4    0    0  0.40114250222E+02  0.72484305266E+01 -0.41286709398E+01  0.40972414375E+02  0.00000000000E+00 0.  1.
</event>
<event>
 8    1  0.2450026E-006  0.9118800E+02  0.7816164E-02  0.1184000E+00
        -11   -1    0    0    0    0  0.00000000000E+00  0.00000000000E+00  0.45593999997E+02  0.45594000000E+02  0.51100000000E-03 0.  1.
         11   -1    0    0    0    0 -0.00000000000E+00 -0.00000000000E+00 -0.45593999997E+02  0.45594000000E+02  0.51100000000E-03 0. -1.
         23    2    1    2    0    0 -0.13322676296E-14  0.00000000000E+00  0.00000000000E+00  0.91188000000E+02  0.91188000000E+02 0.  0.
    9900012    2    3    3    0    0  0.31900324608E+01 -0.11629772899E+01  0.36664025652E+02  0.54367087460E+02  0.40000007483E+02 0.  0.
         12    1    3    3    0    0 -0.31900324608E+01  0.11629772899E+01 -0.36664025652E+02  0.36820912540E+02  0.00000000000E+00 0. -1.
         11    1    4    4    0    0 -0.32521832700E+01  0.12690912114E+01  0.16963427250E+02  0.17318924702E+02  0.51100000000E-03 0. -1.
        -11    1    4    4    0    0  0.69564437382E+01  0.29019583799E+01  0.26977696215E+02  0.28010882979E+02  0.51100000000E-03 0.  1.
         12    1    4    4    0    0 -0.51422800740E+00 -0.53340268812E+01 -0.72770978133E+01  0.90372797786E+01  0.00000000000E+00 0. -1.
</event>
<event>
 8    1  0.2450026E-006  0.9118800E+02  0.7816164E-02  0.1184000E+00
        -11   -1    0    0    0    0  0.00000000000E+00  0.00000000000E+00  0.45593999997E+02  0.45594000000E+02  0.51100000000E-03 0. -1.
         11   -1    0    0    0    0 -0.00000000000E+00 -0.00000000000E+00 -0.45593999997E+02  0.45594000000E+02  0.51100000000E-03 0.  1.
         23    2    1    2    0    0 -0.88817841970E-15  0.35527136788E-14 -0.35527136788E-14  0.91188000000E+02  0.91188000000E+02 0.  0.
    9900012    2    3    3    0    0  0.40354700341E+01 -0.27825291458E+02  0.23774961124E+02  0.54367073348E+02  0.39999975311E+02 0.  0.
        -12    1    3    3    0    0 -0.40354700341E+01  0.27825291458E+02 -0.23774961124E+02  0.36820926652E+02  0.00000000000E+00 0.  1.
         11    1    4    4    0    0 -0.66387459173E+01 -0.11617672645E+02  0.14196800509E+02  0.19508777768E+02  0.51100000000E-03 0. -1.
        -11    1    4    4    0    0 -0.46799170588E+01 -0.15945054761E+02  0.10183942567E+02  0.19489973870E+02  0.51100000000E-03 0.  1.
        -12    1    4    4    0    0  0.15354133010E+02 -0.26256405221E+00 -0.60578195326E+00  0.15368321709E+02  0.00000000000E+00 0.  1.
</event>
<event>
 8    1  0.2450026E-006  0.9118800E+02  0.7816164E-02  0.1184000E+00
        -11   -1    0    0    0    0  0.00000000000E+00  0.00000000000E+00  0.45593999997E+02  0.45594000000E+02  0.51100000000E-03 0.  1.
         11   -1    0    0    0    0 -0.00000000000E+00 -0.00000000000E+00 -0.45593999997E+02  0.45594000000E+02  0.51100000000E-03 0. -1.
         23    2    1    2    0    0  0.00000000000E+00 -0.17763568394E-14 -0.71054273576E-14  0.91188000000E+02  0.91188000000E+02 0.  0.
    9900012    2    3    3    0    0 -0.88913013944E+01  0.98240121186E+01 -0.34354235278E+02  0.54367082899E+02  0.39999997085E+02 0.  0.
        -12    1    3    3    0    0  0.88913013944E+01 -0.98240121186E+01  0.34354235278E+02  0.36820917101E+02  0.00000000000E+00 0.  1.
         11    1    4    4    0    0 -0.13748100090E+02  0.23946121338E+01 -0.23595299994E+02  0.27413183059E+02  0.51100000000E-03 0. -1.
        -11    1    4    4    0    0  0.63790462536E+01  0.12347071855E+02 -0.14879261303E+02  0.20360128479E+02  0.51100000000E-03 0.  1.
         12    1    4    4    0    0 -0.15222475582E+01 -0.49176718703E+01  0.41203260194E+01  0.65937713608E+01  0.00000000000E+00 0. -1.
</event>
<event>
 8    1  0.2450026E-006  0.9118800E+02  0.7816164E-02  0.1184000E+00
        -11   -1    0    0    0    0  0.00000000000E+00  0.00000000000E+00  0.45593999997E+02  0.45594000000E+02  0.51100000000E-03 0. -1.
         11   -1    0    0    0    0 -0.00000000000E+00 -0.00000000000E+00 -0.45593999997E+02  0.45594000000E+02  0.51100000000E-03 0.  1.
         23    2    1    2    0    0  0.88817841970E-15 -0.44408920985E-15  0.00000000000E+00  0.91188000000E+02  0.91188000000E+02 0.  0.
    9900012    2    3    3    0    0  0.65034734104E+01  0.37026475323E+01  0.36052398316E+02  0.54367079459E+02  0.39999989242E+02 0.  0.
        -12    1    3    3    0    0 -0.65034734104E+01 -0.37026475323E+01 -0.36052398316E+02  0.36820920541E+02  0.00000000000E+00 0.  1.
         11    1    4    4    0    0  0.99291129853E+01  0.44293602876E+01  0.14650154308E+02  0.18243726010E+02  0.51100000000E-03 0. -1.
        -11    1    4    4    0    0 -0.21851719124E+01  0.10856202841E+02 -0.74534920074E+00  0.11098993742E+02  0.51100000000E-03 0.  1.
         12    1    4    4    0    0 -0.12404676625E+01 -0.11582915596E+02  0.22147593209E+02  0.25024359706E+02  0.00000000000E+00 0. -1.
</event>
<event>
 8    1  0.2450026E-006  0.9118800E+02  0.7816164E-02  0.1184000E+00
        -11   -1    0    0    0    0  0.00000000000E+00  0.00000000000E+00  0.45593999997E+02  0.45594000000E+02  0.51100000000E-03 0.  1.
         11   -1    0    0    0    0 -0.00000000000E+00 -0.00000000000E+00 -0.45593999997E+02  0.45594000000E+02  0.51100000000E-03 0. -1.
         23    2    1    2    0    0  0.35527136788E-14  0.71054273576E-14 -0.44408920985E-15  0.91188000000E+02  0.91188000000E+02 0.  0.
    9900012    2    3    3    0    0  0.88378561657E+01 -0.35669211604E+02 -0.23193102907E+01  0.54367088030E+02  0.40000008782E+02 0.  0.
         12    1    3    3    0    0 -0.88378561657E+01  0.35669211604E+02  0.23193102907E+01  0.36820911970E+02  0.00000000000E+00 0. -1.
         11    1    4    4    0    0 -0.64944612776E+01 -0.12280245363E+02 -0.95749310416E+01  0.16871922184E+02  0.51100000000E-03 0. -1.
        -11    1    4    4    0    0 -0.28246799736E+01 -0.16972063478E+02  0.95066578836E+00  0.17231759091E+02  0.51100000000E-03 0.  1.
        -12    1    4    4    0    0  0.18156997417E+02 -0.64169027634E+01  0.63049549626E+01  0.20263406756E+02  0.00000000000E+00 0.  1.
</event>
<event>
 8    1  0.2450026E-006  0.9118800E+02  0.7816164E-02  0.1184000E+00
        -11   -1    0    0    0    0  0.00000000000E+00  0.00000000000E+00  0.45593999997E+02  0.45594000000E+02  0.51100000000E-03 0.  1.
         11   -1    0    0    0    0 -0.00000000000E+00 -0.00000000000E+00 -0.45593999997E+02  0.45594000000E+02  0.51100000000E-03 0. -1.
         23    2    1    2    0    0  0.17763568394E-14  0.00000000000E+00  0.00000000000E+00  0.91188000000E+02  0.91188000000E+02 0.  0.
    9900012    2    3    3    0    0 -0.11981158476E+02 -0.23655874387E+02  0.25546600082E+02  0.54367118327E+02  0.40000077849E+02 0.  0.
         12    1    3    3    0    0  0.11981158476E+02  0.23655874387E+02 -0.25546600082E+02  0.36820881673E+02  0.00000000000E+00 0. -1.
         11    1    4    4    0    0  0.37370645361E+01 -0.10799617690E+02  0.84912805457E+01  0.14237248300E+02  0.51100000000E-03 0. -1.
        -11    1    4    4    0    0 -0.69787424699E+01 -0.22048914850E+02  0.77222371954E+01  0.24382174638E+02  0.51100000000E-03 0.  1.
         12    1    4    4    0    0 -0.87394805421E+01  0.91926581527E+01  0.93330823410E+01  0.15747695388E+02  0.00000000000E+00 0. -1.
</event>
<event>
 8    1  0.2450026E-006  0.9118800E+02  0.7816164E-02  0.1184000E+00
        -11   -1    0    0    0    0  0.00000000000E+00  0.00000000000E+00  0.45593999997E+02  0.45594000000E+02  0.51100000000E-03 0. -1.
         11   -1    0    0    0    0 -0.00000000000E+00 -0.00000000000E+00 -0.45593999997E+02  0.45594000000E+02  0.51100000000E-03 0.  1.
         23    2    1    2    0    0 -0.35527136788E-14  0.00000000000E+00  0.00000000000E+00  0.91188000000E+02  0.91188000000E+02 0.  0.
    9900012    2    3    3    0    0 -0.27292521600E+02  0.99950868297E+01 -0.22605215206E+02  0.54367092209E+02  0.40000018309E+02 0.  0.
         12    1    3    3    0    0  0.27292521600E+02 -0.99950868297E+01  0.22605215206E+02  0.36820907791E+02  0.00000000000E+00 0. -1.
         11    1    4    4    0    0 -0.20224742112E+01  0.11896126808E+01  0.58072423774E+01  0.62633572911E+01  0.51100000000E-03 0. -1.
        -11    1    4    4    0    0 -0.25519736198E+02 -0.13149504847E+01 -0.10702090424E+02  0.27704165212E+02  0.51100000000E-03 0.  1.
        -12    1    4    4    0    0  0.24968880881E+00  0.10120424634E+02 -0.17710367160E+02  0.20399569706E+02  0.00000000000E+00 0.  1.
</event>
<event>
 8    1  0.2450026E-006  0.9118800E+02  0.7816164E-02  0.1184000E+00
        -11   -1    0    0    0    0  0.00000000000E+00  0.00000000000E+00  0.45593999997E+02  0.45594000000E+02  0.51100000000E-03 0. -1.
         11   -1    0    0    0    0 -0.00000000000E+00 -0.00000000000E+00 -0.45593999997E+02  0.45594000000E+02  0.51100000000E-03 0.  1.
         23    2    1    2    0    0 -0.35527136788E-14  0.00000000000E+00  0.00000000000E+00  0.91188000000E+02  0.91188000000E+02 0.  0.
    9900012    2    3    3    0    0 -0.29681196563E+02 -0.19849272457E+02 -0.89896356989E+01  0.54367073932E+02  0.39999976642E+02 0.  0.
         12    1    3    3    0    0  0.29681196563E+02  0.19849272457E+02  0.89896356989E+01  0.36820926068E+02  0.00000000000E+00 0. -1.
         11    1    4    4    0    0 -0.31107681979E+02 -0.17226511200E+02 -0.46886250685E+01  0.35866750222E+02  0.51100000000E-03 0. -1.
        -11    1    4    4    0    0  0.22539893579E+01 -0.99556463835E+01 -0.55035578111E+00  0.10222438784E+02  0.51100000000E-03 0.  1.
         12    1    4    4    0    0 -0.82750394219E+00  0.73328851257E+01 -0.37506548494E+01  0.82778849255E+01  0.00000000000E+00 0. -1.
</event>
<event>
 8    1  0.2450026E-006  0.9118800E+02  0.7816164E-02  0.1184000E+00
        -11   -1    0    0    0    0  0.00000000000E+00  0.00000000000E+00  0.45593999997E+02  0.45594000000E+02  0.51100000000E-03 0. -1.
         11   -1    0    0    0    0 -0.00000000000E+00 -0.00000000000E+00 -0.45593999997E+02  0.45594000000E+02  0.51100000000E-03 0.  1.
         23    2    1    2    0    0 -0.17763568394E-14  0.00000000000E+00  0.00000000000E+00  0.91188000000E+02  0.91188000000E+02 0.  0.
    9900012    2    3    3    0    0 -0.13426970637E+02 -0.31786076336E+02 -0.12850765327E+02  0.54367077160E+02  0.39999984002E+02 0.  0.
         12    1    3    3    0    0  0.13426970637E+02  0.31786076336E+02  0.12850765327E+02  0.36820922840E+02  0.00000000000E+00 0. -1.
         11    1    4    4    0    0 -0.88637182684E+01 -0.20716570186E+01  0.50920260449E+01  0.10430052437E+02  0.51100000000E-03 0. -1.
        -11    1    4    4    0    0  0.11722671782E+00  0.27234196959E+01 -0.97927758817E+01  0.10165097967E+02  0.51100000000E-03 0.  1.
        -12    1    4    4    0    0 -0.46804790864E+01 -0.32437839013E+02 -0.81500154904E+01  0.33771926756E+02  0.00000000000E+00 0.  1.
</event>
<event>
 8    1  0.2450026E-006  0.9118800E+02  0.7816164E-02  0.1184000E+00
        -11   -1    0    0    0    0  0.00000000000E+00  0.00000000000E+00  0.45593999997E+02  0.45594000000E+02  0.51100000000E-03 0.  1.
         11   -1    0    0    0    0 -0.00000000000E+00 -0.00000000000E+00 -0.45593999997E+02  0.45594000000E+02  0.51100000000E-03 0. -1.
         23    2    1    2    0    0  0.35527136788E-14  0.00000000000E+00  0.00000000000E+00  0.91188000000E+02  0.91188000000E+02 0.  0.
    9900012    2    3    3    0    0  0.23683562418E+02  0.19425307945E+02 -0.20433461103E+02  0.54367081350E+02  0.39999993553E+02 0.  0.
        -12    1    3    3    0    0 -0.23683562418E+02 -0.19425307945E+02  0.20433461103E+02  0.36820918650E+02  0.00000000000E+00 0.  1.
         11    1    4    4    0    0 -0.18156817123E+01  0.14292525394E+02 -0.20686578955E+02  0.25209274709E+02  0.51100000000E-03 0. -1.
        -11    1    4    4    0    0  0.14458111432E+01  0.48242642619E+01 -0.69347182223E+00  0.50837780203E+01  0.51100000000E-03 0.  1.
        -12    1    4    4    0    0  0.24053432987E+02  0.30851828917E+00  0.94658967451E+00  0.24074028620E+02  0.00000000000E+00 0.  1.
</event>
<event>
 8    1  0.2450026E-006  0.9118800E+02  0.7816164E-02  0.1184000E+00
        -11   -1    0    0    0    0  0.00000000000E+00  0.00000000000E+00  0.45593999997E+02  0.45594000000E+02  0.51100000000E-03 0.  1.
         11   -1    0    0    0    0 -0.00000000000E+00 -0.00000000000E+00 -0.45593999997E+02  0.45594000000E+02  0.51100000000E-03 0. -1.
         23    2    1    2    0    0  0.17763568394E-14  0.00000000000E+00 -0.44408920985E-15  0.91188000000E+02  0.91188000000E+02 0.  0.
    9900012    2    3    3    0    0 -0.15964742170E+02  0.33060250716E+02 -0.28151284092E+01  0.54367107589E+02  0.40000053371E+02 0.  0.
        -12    1    3    3    0    0  0.15964742170E+02 -0.33060250716E+02  0.28151284092E+01  0.36820892411E+02  0.00000000000E+00 0.  1.
         11    1    4    4    0    0 -0.65378503664E+01  0.15120512153E+02  0.56519620588E+01  0.17416028553E+02  0.51100000000E-03 0. -1.
        -11    1    4    4    0    0 -0.11461439152E+02 -0.50741172624E+00  0.64309585703E+01  0.13152158853E+02  0.51100000000E-03 0.  1.
         12    1    4    4    0    0  0.20345473490E+01  0.18447150290E+02 -0.14898049038E+02  0.23798920183E+02  0.00000000000E+00 0. -1.
</event>
<event>
 8    1  0.2450026E-006  0.9118800E+02  0.7816164E-02  0.1184000E+00
        -11   -1    0    0    0    0  0.00000000000E+00  0.00000000000E+00  0.45593999997E+02  0.45594000000E+02  0.51100000000E-03 0.  1.
         11   -1    0    0    0    0 -0.00000000000E+00 -0.00000000000E+00 -0.45593999997E+02  0.45594000000E+02  0.51100000000E-03 0. -1.
         23    2    1    2    0    0  0.00000000000E+00 -0.44408920985E-15  0.00000000000E+00  0.91188000000E+02  0.91188000000E+02 0.  0.
    9900012    2    3    3    0    0  0.10003531672E+02  0.24508508516E+01  0.35351117393E+02  0.54367098100E+02  0.40000031739E+02 0.  0.
         12    1    3    3    0    0 -0.10003531672E+02 -0.24508508516E+01 -0.35351117393E+02  0.36820901900E+02  0.00000000000E+00 0. -1.
         11    1    4    4    0    0  0.46910800808E+01 -0.74829332347E+01  0.19184585981E+01  0.90377544652E+01  0.51100000000E-03 0. -1.
        -11    1    4    4    0    0  0.51197170749E+01 -0.85605531080E+00 -0.38843681122E+01  0.64832591738E+01  0.51100000000E-03 0.  1.
        -12    1    4    4    0    0  0.19273451673E+00  0.10789839397E+02  0.37317026907E+02  0.38846084461E+02  0.00000000000E+00 0.  1.
</event>
<event>
 8    1  0.2450026E-006  0.9118800E+02  0.7816164E-02  0.1184000E+00
        -11   -1    0    0    0    0  0.00000000000E+00  0.00000000000E+00  0.45593999997E+02  0.45594000000E+02  0.51100000000E-03 0.  1.
         11   -1    0    0    0    0 -0.00000000000E+00 -0.00000000000E+00 -0.45593999997E+02  0.45594000000E+02  0.51100000000E-03 0. -1.
         23    2    1    2    0    0  0.00000000000E+00  0.35527136788E-14 -0.88817841970E-15  0.91188000000E+02  0.91188000000E+02 0.  0.
    9900012    2    3    3    0    0  0.33351720123E+02  0.13940065566E+02  0.70083176812E+01  0.54367093169E+02  0.40000020497E+02 0.  0.
        -12    1    3    3    0    0 -0.33351720123E+02 -0.13940065566E+02 -0.70083176812E+01  0.36820906831E+02  0.00000000000E+00 0.  1.
         11    1    4    4    0    0  0.65023783684E+01 -0.78662499941E+01 -0.26349176478E+01  0.10540474595E+02  0.51100000000E-03 0. -1.
        -11    1    4    4    0    0  0.17336776012E+02  0.30115135925E+01  0.13791500416E+02  0.22357068247E+02  0.51100000000E-03 0.  1.
         12    1    4    4    0    0  0.95125657430E+01  0.18794801967E+02 -0.41482650871E+01  0.21469550327E+02  0.00000000000E+00 0. -1.
</event>
<event>
 8    1  0.2450026E-006  0.9118800E+02  0.7816164E-02  0.1184000E+00
        -11   -1    0    0    0    0  0.00000000000E+00  0.00000000000E+00  0.45593999997E+02  0.45594000000E+02  0.51100000000E-03 0.  1.
         11   -1    0    0    0    0 -0.00000000000E+00 -0.00000000000E+00 -0.45593999997E+02  0.45594000000E+02  0.51100000000E-03 0. -1.
         23    2    1    2    0    0 -0.71054273576E-14 -0.26645352591E-14 -0.22204460493E-15  0.91188000000E+02  0.91188000000E+02 0.  0.
    9900012    2    3    3    0    0  0.36225236253E+02  0.64971794611E+01 -0.11402788224E+01  0.54367064130E+02  0.39999954297E+02 0.  0.
         12    1    3    3    0    0 -0.36225236253E+02 -0.64971794611E+01  0.11402788224E+01  0.36820935870E+02  0.00000000000E+00 0. -1.
         11    1    4    4    0    0  0.24878801439E+02  0.35027351180E+01 -0.10683357653E+02  0.27301246223E+02  0.51100000000E-03 0. -1.
        -11    1    4    4    0    0  0.10472111072E+02 -0.86847309853E+01  0.55255698294E+01  0.14684058867E+02  0.51100000000E-03 0.  1.
        -12    1    4    4    0    0  0.87432374239E+00  0.11679175328E+02  0.40175090011E+01  0.12381759040E+02  0.00000000000E+00 0.  1.
</event>
<event>
 8    1  0.2450026E-006  0.9118800E+02  0.7816164E-02  0.1184000E+00
        -11   -1    0    0    0    0  0.00000000000E+00  0.00000000000E+00  0.45593999997E+02  0.45594000000E+02  0.51100000000E-03 0. -1.
         11   -1    0    0    0    0 -0.00000000000E+00 -0.00000000000E+00 -0.45593999997E+02  0.45594000000E+02  0.51100000000E-03 0.  1.
         23    2    1    2    0    0  0.00000000000E+00  0.00000000000E+00  0.00000000000E+00  0.91188000000E+02  0.91188000000E+02 0.  0.
    9900012    2    3    3    0    0 -0.49432940387E+01 -0.35518338961E+02 -0.83540256054E+01  0.54367105085E+02  0.40000047663E+02 0.  0.
         12    1    3    3    0    0  0.49432940387E+01  0.35518338961E+02  0.83540256054E+01  0.36820894915E+02  0.00000000000E+00 0. -1.
         11    1    4    4    0    0  0.80632431789E+01 -0.11852029456E+02  0.72504919516E+01  0.16064125454E+02  0.51100000000E-03 0. -1.
        -11    1    4    4    0    0 -0.16016873783E+02 -0.66573880799E+01 -0.10564890491E+02  0.20309553742E+02  0.51100000000E-03 0.  1.
        -12    1    4    4    0    0  0.30103365657E+01 -0.17008921425E+02 -0.50396270660E+01  0.17993425890E+02  0.00000000000E+00 0.  1.
</event>
<event>
 8    1  0.2450026E-006  0.9118800E+02  0.7816164E-02  0.1184000E+00
        -11   -1    0    0    0    0  0.00000000000E+00  0.00000000000E+00  0.45593999997E+02  0.45594000000E+02  0.51100000000E-03 0. -1.
         11   -1    0    0    0    0 -0.00000000000E+00 -0.00000000000E+00 -0.45593999997E+02  0.45594000000E+02  0.51100000000E-03 0.  1.
         23    2    1    2    0    0  0.00000000000E+00  0.88817841970E-15  0.00000000000E+00  0.91188000000E+02  0.91188000000E+02 0.  0.
    9900012    2    3    3    0    0 -0.16249322738E+02 -0.60461793487E+01 -0.32483586999E+02  0.54367079337E+02  0.39999988964E+02 0.  0.
         12    1    3    3    0    0  0.16249322738E+02  0.60461793487E+01  0.32483586999E+02  0.36820920663E+02  0.00000000000E+00 0. -1.
         11    1    4    4    0    0 -0.80298381118E+01 -0.43592535277E+01 -0.60197810219E+01  0.10941624890E+02  0.51100000000E-03 0. -1.
        -11    1    4    4    0    0 -0.11691963515E+02 -0.15630901663E+02 -0.11391300631E+02  0.22600637777E+02  0.51100000000E-03 0.  1.
        -12    1    4    4    0    0  0.34724788887E+01  0.13943975842E+02 -0.15072505346E+02  0.20824816669E+02  0.00000000000E+00 0.  1.
</event>
<event>
 8    1  0.2450026E-006  0.9118800E+02  0.7816164E-02  0.1184000E+00
        -11   -1    0    0    0    0  0.00000000000E+00  0.00000000000E+00  0.45593999997E+02  0.45594000000E+02  0.51100000000E-03 0.  1.
         11   -1    0    0    0    0 -0.00000000000E+00 -0.00000000000E+00 -0.45593999997E+02  0.45594000000E+02  0.51100000000E-03 0. -1.
         23    2    1    2    0    0  0.00000000000E+00 -0.35527136788E-14  0.00000000000E+00  0.91188000000E+02  0.91188000000E+02 0.  0.
    9900012    2    3    3    0    0  0.19833561850E+02  0.24506716082E+02 -0.19021807872E+02  0.54367102625E+02  0.40000042054E+02 0.  0.
        -12    1    3    3    0    0 -0.19833561850E+02 -0.24506716082E+02  0.19021807872E+02  0.36820897375E+02  0.00000000000E+00 0.  1.
         11    1    4    4    0    0  0.29510861900E+02  0.24091357418E+02 -0.14915717404E+02  0.40911649909E+02  0.51100000000E-03 0. -1.
        -11    1    4    4    0    0 -0.73903415822E+01  0.34677935442E+01 -0.45606957588E+00  0.81762302124E+01  0.51100000000E-03 0.  1.
         12    1    4    4    0    0 -0.22869584676E+01 -0.30524348801E+01 -0.36500208924E+01  0.52792225038E+01  0.00000000000E+00 0. -1.
</event>
<event>
 8    1  0.2450026E-006  0.9118800E+02  0.7816164E-02  0.1184000E+00
        -11   -1    0    0    0    0  0.00000000000E+00  0.00000000000E+00  0.45593999997E+02  0.45594000000E+02  0.51100000000E-03 0.  1.
         11   -1    0    0    0    0 -0.00000000000E+00 -0.00000000000E+00 -0.45593999997E+02  0.45594000000E+02  0.51100000000E-03 0. -1.
         23    2    1    2    0    0  0.35527136788E-14  0.44408920985E-15  0.00000000000E+00  0.91188000000E+02  0.91188000000E+02 0.  0.
    9900012    2    3    3    0    0 -0.17003704988E+02 -0.21210341918E+01  0.32590707845E+02  0.54367095513E+02  0.40000025842E+02 0.  0.
         12    1    3    3    0    0  0.17003704988E+02  0.21210341918E+01 -0.32590707845E+02  0.36820904487E+02  0.00000000000E+00 0. -1.
         11    1    4    4    0    0 -0.24033150280E+02  0.83092237087E+01  0.18288279118E+02  0.31322462617E+02  0.51100000000E-03 0. -1.
        -11    1    4    4    0    0  0.28255362077E+01 -0.89631828230E+01  0.15768711830E+02  0.18356867222E+02  0.51100000000E-03 0.  1.
         12    1    4    4    0    0  0.42039090845E+01 -0.14670750774E+01 -0.14662831031E+01  0.46877656737E+01  0.00000000000E+00 0. -1.
</event>
<event>
 8    1  0.2450026E-006  0.9118800E+02  0.7816164E-02  0.1184000E+00
        -11   -1    0    0    0    0  0.00000000000E+00  0.00000000000E+00  0.45593999997E+02  0.45594000000E+02  0.51100000000E-03 0. -1.
         11   -1    0    0    0    0 -0.00000000000E+00 -0.00000000000E+00 -0.45593999997E+02  0.45594000000E+02  0.51100000000E-03 0.  1.
         23    2    1    2    0    0  0.35527136788E-14  0.00000000000E+00  0.00000000000E+00  0.91188000000E+02  0.91188000000E+02 0.  0.
    9900012    2    3    3    0    0  0.15860430823E+02  0.27584872562E+02 -0.18528397518E+02  0.54367082375E+02  0.39999995891E+02 0.  0.
         12    1    3    3    0    0 -0.15860430823E+02 -0.27584872562E+02  0.18528397518E+02  0.36820917625E+02  0.00000000000E+00 0. -1.
         11    1    4    4    0    0  0.32892804311E+01  0.54835493239E+01 -0.59684614362E+00  0.64222195947E+01  0.51100000000E-03 0. -1.
        -11    1    4    4    0    0  0.21495264869E+02  0.37374564664E+01 -0.16726960902E+02  0.27491929978E+02  0.51100000000E-03 0.  1.
         12    1    4    4    0    0 -0.89241144773E+01  0.18363866772E+02 -0.12045904721E+01  0.20452932803E+02  0.00000000000E+00 0. -1.
</event>
<event>
 8    1  0.2450026E-006  0.9118800E+02  0.7816164E-02  0.1184000E+00
        -11   -1    0    0    0    0  0.00000000000E+00  0.00000000000E+00  0.45593999997E+02  0.45594000000E+02  0.51100000000E-03 0.  1.
         11   -1    0    0    0    0 -0.00000000000E+00 -0.00000000000E+00 -0.45593999997E+02  0.45594000000E+02  0.51100000000E-03 0. -1.
         23    2    1    2    0    0  0.00000000000E+00  0.72164496601E-15 -0.71054273576E-14  0.91188000000E+02  0.91188000000E+02 0.  0.
    9900012    2    3    3    0    0  0.94361597450E+01  0.16875270012E-01  0.35591277637E+02  0.54367076067E+02  0.39999981509E+02 0.  0.
         12    1    3    3    0    0 -0.94361597450E+01 -0.16875270012E-01 -0.35591277637E+02  0.36820923933E+02  0.00000000000E+00 0. -1.
         11    1    4    4    0    0  0.11996343933E+02  0.39698709021E+01  0.23376846426E+02  0.26573465936E+02  0.51100000000E-03 0. -1.
        -11    1    4    4    0    0  0.52763699710E+01 -0.12329779687E+02  0.54475569379E+01  0.14475476643E+02  0.51100000000E-03 0.  1.
        -12    1    4    4    0    0 -0.78365541586E+01  0.83767840547E+01  0.67668742723E+01  0.13318133488E+02  0.00000000000E+00 0.  1.
</event>
<event>
 8    1  0.2450026E-006  0.9118800E+02  0.7816164E-02  0.1184000E+00
        -11   -1    0    0    0    0  0.00000000000E+00  0.00000000000E+00  0.45593999997E+02  0.45594000000E+02  0.51100000000E-03 0.  1.
         11   -1    0    0    0    0 -0.00000000000E+00 -0.00000000000E+00 -0.45593999997E+02  0.45594000000E+02  0.51100000000E-03 0. -1.
         23    2    1    2    0    0 -0.35527136788E-14 -0.26645352591E-14  0.00000000000E+00  0.91188000000E+02  0.91188000000E+02 0.  0.
    9900012    2    3    3    0    0 -0.31510490316E+02 -0.50749955265E+01  0.18360574556E+02  0.54367119001E+02  0.40000079385E+02 0.  0.
         12    1    3    3    0    0  0.31510490316E+02  0.50749955265E+01 -0.18360574556E+02  0.36820880999E+02  0.00000000000E+00 0. -1.
         11    1    4    4    0    0 -0.23760640155E+02 -0.10676022774E+02  0.50743376867E+01  0.26538545290E+02  0.51100000000E-03 0.  1.
        -11    1    4    4    0    0 -0.25314028872E+01 -0.86108669890E+01  0.27631195983E+01  0.93909456955E+01  0.51100000000E-03 0. -1.
         12    1    4    4    0    0 -0.52184472736E+01  0.14211894237E+02  0.10523117271E+02  0.18437628015E+02  0.00000000000E+00 0. -1.
</event>
<event>
 8    1  0.2450026E-006  0.9118800E+02  0.7816164E-02  0.1184000E+00
        -11   -1    0    0    0    0  0.00000000000E+00  0.00000000000E+00  0.45593999997E+02  0.45594000000E+02  0.51100000000E-03 0. -1.
         11   -1    0    0    0    0 -0.00000000000E+00 -0.00000000000E+00 -0.45593999997E+02  0.45594000000E+02  0.51100000000E-03 0.  1.
         23    2    1    2    0    0  0.35527136788E-14  0.35527136788E-14  0.35527136788E-14  0.91188000000E+02  0.91188000000E+02 0.  0.
    9900012    2    3    3    0    0  0.94673788329E+01  0.28782298387E+02  0.20921955638E+02  0.54367079450E+02  0.39999989223E+02 0.  0.
        -12    1    3    3    0    0 -0.94673788329E+01 -0.28782298387E+02 -0.20921955638E+02  0.36820920550E+02  0.00000000000E+00 0.  1.
         11    1    4    4    0    0 -0.84755624053E+01  0.13153344928E+02  0.19866545662E+02  0.25288837017E+02  0.51100000000E-03 0.  1.
        -11    1    4    4    0    0  0.19272931306E+02  0.11824059402E+02  0.53010765185E+01  0.23224032259E+02  0.51100000000E-03 0. -1.
         12    1    4    4    0    0 -0.13299900676E+01  0.38048940573E+01 -0.42456665429E+01  0.58542101739E+01  0.00000000000E+00 0. -1.
</event>
<event>
 8    1  0.2450026E-006  0.9118800E+02  0.7816164E-02  0.1184000E+00
        -11   -1    0    0    0    0  0.00000000000E+00  0.00000000000E+00  0.45593999997E+02  0.45594000000E+02  0.51100000000E-03 0. -1.
         11   -1    0    0    0    0 -0.00000000000E+00 -0.00000000000E+00 -0.45593999997E+02  0.45594000000E+02  0.51100000000E-03 0.  1.
         23    2    1    2    0    0  0.35527136788E-14 -0.17763568394E-14  0.00000000000E+00  0.91188000000E+02  0.91188000000E+02 0.  0.
    9900012    2    3    3    0    0 -0.31416486252E+02  0.93558838102E+01  0.16770632873E+02  0.54367050837E+02  0.39999923993E+02 0.  0.
        -12    1    3    3    0    0  0.31416486252E+02 -0.93558838102E+01 -0.16770632873E+02  0.36820949163E+02  0.00000000000E+00 0.  1.
         11    1    4    4    0    0 -0.13677773563E+02  0.13941165702E+02  0.69354429198E+01  0.20725297574E+02  0.51100000000E-03 0. -1.
        -11    1    4    4    0    0 -0.18343720556E+02 -0.13698909903E+02  0.55749588717E+01  0.23563369518E+02  0.51100000000E-03 0.  1.
        -12    1    4    4    0    0  0.60500786697E+00  0.91136280113E+01  0.42602310818E+01  0.10078383745E+02  0.00000000000E+00 0.  1.
</event>
<event>
 8    1  0.2450026E-006  0.9118800E+02  0.7816164E-02  0.1184000E+00
        -11   -1    0    0    0    0  0.00000000000E+00  0.00000000000E+00  0.45593999997E+02  0.45594000000E+02  0.51100000000E-03 0.  1.
         11   -1    0    0    0    0 -0.00000000000E+00 -0.00000000000E+00 -0.45593999997E+02  0.45594000000E+02  0.51100000000E-03 0. -1.
         23    2    1    2    0    0  0.00000000000E+00 -0.17763568394E-14  0.00000000000E+00  0.91188000000E+02  0.91188000000E+02 0.  0.
    9900012    2    3    3    0    0 -0.98048639014E+01 -0.14981439964E+02  0.32174562666E+02  0.54367063262E+02  0.39999952318E+02 0.  0.
         12    1    3    3    0    0  0.98048639014E+01  0.14981439964E+02 -0.32174562666E+02  0.36820936738E+02  0.00000000000E+00 0. -1.
         11    1    4    4    0    0 -0.55620704075E+01 -0.29500332490E+01 -0.63765769912E+01  0.89610299505E+01  0.51100000000E-03 0. -1.
        -11    1    4    4    0    0 -0.63429314101E+01  0.24071240659E+01  0.23433930318E+02  0.24396231585E+02  0.51100000000E-03 0.  1.
        -12    1    4    4    0    0  0.21001379163E+01 -0.14438530781E+02  0.15117209339E+02  0.21009801727E+02  0.00000000000E+00 0.  1.
</event>
<event>
 8    1  0.2450026E-006  0.9118800E+02  0.7816164E-02  0.1184000E+00
        -11   -1    0    0    0    0  0.00000000000E+00  0.00000000000E+00  0.45593999997E+02  0.45594000000E+02  0.51100000000E-03 0.  1.
         11   -1    0    0    0    0 -0.00000000000E+00 -0.00000000000E+00 -0.45593999997E+02  0.45594000000E+02  0.51100000000E-03 0. -1.
         23    2    1    2    0    0  0.71054273576E-14 -0.35527136788E-14  0.12212453271E-14  0.91188000000E+02  0.91188000000E+02 0.  0.
    9900012    2    3    3    0    0  0.33870944671E+02 -0.14423037495E+02 -0.71723293540E+00  0.54367091177E+02  0.40000015956E+02 0.  0.
         12    1    3    3    0    0 -0.33870944671E+02  0.14423037495E+02  0.71723293540E+00  0.36820908823E+02  0.00000000000E+00 0. -1.
         11    1    4    4    0    0 -0.13107200754E+01 -0.47262631642E+01  0.61750771680E+01  0.78858816187E+01  0.51100000000E-03 0. -1.
        -11    1    4    4    0    0  0.23487662753E+02 -0.16644161886E+02  0.39891378826E+01  0.29062203078E+02  0.51100000000E-03 0.  1.
        -12    1    4    4    0    0  0.11694001994E+02  0.69473875550E+01 -0.10881447986E+02  0.17419006480E+02  0.00000000000E+00 0.  1.
</event>
<event>
 8    1  0.2450026E-006  0.9118800E+02  0.7816164E-02  0.1184000E+00
        -11   -1    0    0    0    0  0.00000000000E+00  0.00000000000E+00  0.45593999997E+02  0.45594000000E+02  0.51100000000E-03 0. -1.
         11   -1    0    0    0    0 -0.00000000000E+00 -0.00000000000E+00 -0.45593999997E+02  0.45594000000E+02  0.51100000000E-03 0.  1.
         23    2    1    2    0    0 -0.35527136788E-14 -0.88817841970E-15  0.00000000000E+00  0.91188000000E+02  0.91188000000E+02 0.  0.
    9900012    2    3    3    0    0  0.16213143117E+02  0.65209681868E+01  0.32409762398E+02  0.54367058479E+02  0.39999941414E+02 0.  0.
         12    1    3    3    0    0 -0.16213143117E+02 -0.65209681868E+01 -0.32409762398E+02  0.36820941521E+02  0.00000000000E+00 0. -1.
         11    1    4    4    0    0 -0.52361081059E+01  0.78815361511E+01  0.18898545952E+01  0.96491963836E+01  0.51100000000E-03 0. -1.
        -11    1    4    4    0    0  0.75019461843E+01  0.93142486549E+01  0.34465261690E+01  0.12446403796E+02  0.51100000000E-03 0.  1.
         12    1    4    4    0    0  0.13947305039E+02 -0.10674816619E+02  0.27073381633E+02  0.32271458299E+02  0.00000000000E+00 0. -1.
</event>
<event>
 8    1  0.2450026E-006  0.9118800E+02  0.7816164E-02  0.1184000E+00
        -11   -1    0    0    0    0  0.00000000000E+00  0.00000000000E+00  0.45593999997E+02  0.45594000000E+02  0.51100000000E-03 0. -1.
         11   -1    0    0    0    0 -0.00000000000E+00 -0.00000000000E+00 -0.45593999997E+02  0.45594000000E+02  0.51100000000E-03 0.  1.
         23    2    1    2    0    0  0.35527136788E-14  0.35527136788E-14  0.88817841970E-15  0.91188000000E+02  0.91188000000E+02 0.  0.
    9900012    2    3    3    0    0  0.18748081680E+02  0.31192904746E+02  0.55939518721E+01  0.54367079714E+02  0.39999989824E+02 0.  0.
        -12    1    3    3    0    0 -0.18748081680E+02 -0.31192904746E+02 -0.55939518721E+01  0.36820920286E+02  0.00000000000E+00 0.  1.
         11    1    4    4    0    0 -0.45721328431E+01  0.17730117218E+02  0.44767655690E+01  0.18849479715E+02  0.51100000000E-03 0. -1.
        -11    1    4    4    0    0  0.27920066952E+02  0.97001725021E+01  0.97280687921E+00  0.29573126968E+02  0.51100000000E-03 0.  1.
         12    1    4    4    0    0 -0.45998524291E+01  0.37626150257E+01  0.14437942392E+00  0.59444730312E+01  0.00000000000E+00 0. -1.
</event>
<event>
 8    1  0.2450026E-006  0.9118800E+02  0.7816164E-02  0.1184000E+00
        -11   -1    0    0    0    0  0.00000000000E+00  0.00000000000E+00  0.45593999997E+02  0.45594000000E+02  0.51100000000E-03 0.  1.
         11   -1    0    0    0    0 -0.00000000000E+00 -0.00000000000E+00 -0.45593999997E+02  0.45594000000E+02  0.51100000000E-03 0. -1.
         23    2    1    2    0    0  0.35527136788E-14  0.00000000000E+00  0.00000000000E+00  0.91188000000E+02  0.91188000000E+02 0.  0.
    9900012    2    3    3    0    0 -0.99887659172E+01 -0.76813408001E+01 -0.34597810260E+02  0.54366988121E+02  0.39999781018E+02 0.  0.
        -12    1    3    3    0    0  0.99887659172E+01  0.76813408001E+01  0.34597810260E+02  0.36821011879E+02  0.00000000000E+00 0.  1.
         11    1    4    4    0    0 -0.17636196157E+01 -0.21311715344E+00 -0.13271336879E+01  0.22174438339E+01  0.51100000000E-03 0. -1.
        -11    1    4    4    0    0 -0.23478267744E+02 -0.73572301052E+01 -0.17385479619E+02  0.30126612703E+02  0.51100000000E-03 0.  1.
        -12    1    4    4    0    0  0.15253121443E+02 -0.11099354146E+00 -0.15885196953E+02  0.22022931584E+02  0.00000000000E+00 0.  1.
</event>
<event>
 8    1  0.2450026E-006  0.9118800E+02  0.7816164E-02  0.1184000E+00
        -11   -1    0    0    0    0  0.00000000000E+00  0.00000000000E+00  0.45593999997E+02  0.45594000000E+02  0.51100000000E-03 0.  1.
         11   -1    0    0    0    0 -0.00000000000E+00 -0.00000000000E+00 -0.45593999997E+02  0.45594000000E+02  0.51100000000E-03 0. -1.
         23    2    1    2    0    0  0.00000000000E+00  0.00000000000E+00 -0.35527136788E-14  0.91188000000E+02  0.91188000000E+02 0.  0.
    9900012    2    3    3    0    0  0.14680172452E+02  0.21392311489E+02 -0.26127381471E+02  0.54367102176E+02  0.40000041030E+02 0.  0.
        -12    1    3    3    0    0 -0.14680172452E+02 -0.21392311489E+02  0.26127381471E+02  0.36820897824E+02  0.00000000000E+00 0.  1.
         11    1    4    4    0    0  0.21678253463E+01  0.10912747729E+02  0.95520743452E+00  0.11166913236E+02  0.51100000000E-03 0. -1.
        -11    1    4    4    0    0  0.46997931298E+01 -0.10009036517E+02 -0.51910925774E+01  0.12215412800E+02  0.51100000000E-03 0.  1.
        -12    1    4    4    0    0  0.78125539759E+01  0.20488600277E+02 -0.21891496328E+02  0.30984776140E+02  0.00000000000E+00 0.  1.
</event>
<event>
 8    1  0.2450026E-006  0.9118800E+02  0.7816164E-02  0.1184000E+00
        -11   -1    0    0    0    0  0.00000000000E+00  0.00000000000E+00  0.45593999997E+02  0.45594000000E+02  0.51100000000E-03 0.  1.
         11   -1    0    0    0    0 -0.00000000000E+00 -0.00000000000E+00 -0.45593999997E+02  0.45594000000E+02  0.51100000000E-03 0. -1.
         23    2    1    2    0    0  0.00000000000E+00 -0.35527136788E-14  0.35527136788E-14  0.91188000000E+02  0.91188000000E+02 0.  0.
    9900012    2    3    3    0    0  0.48606870218E+01  0.28386440996E+02 -0.22942691361E+02  0.54367035895E+02  0.39999889930E+02 0.  0.
        -12    1    3    3    0    0 -0.48606870218E+01 -0.28386440996E+02  0.22942691361E+02  0.36820964105E+02  0.00000000000E+00 0.  1.
         11    1    4    4    0    0  0.59735626592E+01 -0.59226803224E+00 -0.87181656820E+01  0.10584925384E+02  0.51100000000E-03 0.  1.
        -11    1    4    4    0    0  0.68309023356E+01  0.26494073072E+02 -0.19791824653E+02  0.33768527626E+02  0.51100000000E-03 0. -1.
        -12    1    4    4    0    0 -0.79437779731E+01  0.24846359560E+01  0.55672989746E+01  0.10013582885E+02  0.00000000000E+00 0.  1.
</event>
<event>
 8    1  0.2450026E-006  0.9118800E+02  0.7816164E-02  0.1184000E+00
        -11   -1    0    0    0    0  0.00000000000E+00  0.00000000000E+00  0.45593999997E+02  0.45594000000E+02  0.51100000000E-03 0. -1.
         11   -1    0    0    0    0 -0.00000000000E+00 -0.00000000000E+00 -0.45593999997E+02  0.45594000000E+02  0.51100000000E-03 0.  1.
         23    2    1    2    0    0  0.17763568394E-14  0.00000000000E+00  0.00000000000E+00  0.91188000000E+02  0.91188000000E+02 0.  0.
    9900012    2    3    3    0    0  0.93176591730E+01  0.24573049905E+02  0.25790057922E+02  0.54367073318E+02  0.39999975243E+02 0.  0.
        -12    1    3    3    0    0 -0.93176591730E+01 -0.24573049905E+02 -0.25790057922E+02  0.36820926682E+02  0.00000000000E+00 0.  1.
         11    1    4    4    0    0  0.63826876405E+01  0.10444815638E+02  0.30832665054E+02  0.33173575476E+02  0.51100000000E-03 0. -1.
        -11    1    4    4    0    0 -0.21995963455E+01  0.23994741241E+00 -0.59606027709E+01  0.63580330683E+01  0.51100000000E-03 0.  1.
         12    1    4    4    0    0  0.51345678780E+01  0.13888286855E+02  0.91799563823E+00  0.14835464774E+02  0.00000000000E+00 0. -1.
</event>
<event>
 8    1  0.2450026E-006  0.9118800E+02  0.7816164E-02  0.1184000E+00
        -11   -1    0    0    0    0  0.00000000000E+00  0.00000000000E+00  0.45593999997E+02  0.45594000000E+02  0.51100000000E-03 0.  1.
         11   -1    0    0    0    0 -0.00000000000E+00 -0.00000000000E+00 -0.45593999997E+02  0.45594000000E+02  0.51100000000E-03 0. -1.
         23    2    1    2    0    0  0.00000000000E+00  0.17763568394E-14  0.00000000000E+00  0.91188000000E+02  0.91188000000E+02 0.  0.
    9900012    2    3    3    0    0  0.33171076768E+02  0.11324679991E+02 -0.11278944881E+02  0.54367037105E+02  0.39999892689E+02 0.  0.
        -12    1    3    3    0    0 -0.33171076768E+02 -0.11324679991E+02  0.11278944881E+02  0.36820962895E+02  0.00000000000E+00 0.  1.
         11    1    4    4    0    0  0.30557319281E+02 -0.57262545334E+00 -0.66167144289E+01  0.31270730270E+02  0.51100000000E-03 0. -1.
        -11    1    4    4    0    0  0.78811645219E+01  0.35481838827E+01 -0.88523575153E+01  0.12372008605E+02  0.51100000000E-03 0.  1.
        -12    1    4    4    0    0 -0.52674070349E+01  0.83491215614E+01  0.41901270630E+01  0.10724298230E+02  0.00000000000E+00 0.  1.
</event>
<event>
 8    1  0.2450026E-006  0.9118800E+02  0.7816164E-02  0.1184000E+00
        -11   -1    0    0    0    0  0.00000000000E+00  0.00000000000E+00  0.45593999997E+02  0.45594000000E+02  0.51100000000E-03 0.  1.
         11   -1    0    0    0    0 -0.00000000000E+00 -0.00000000000E+00 -0.45593999997E+02  0.45594000000E+02  0.51100000000E-03 0. -1.
         23    2    1    2    0    0  0.00000000000E+00  0.00000000000E+00 -0.17763568394E-14  0.91188000000E+02  0.91188000000E+02 0.  0.
    9900012    2    3    3    0    0  0.10026275989E+02  0.32413296829E+02 -0.14304951837E+02  0.54367086532E+02  0.40000005368E+02 0.  0.
        -12    1    3    3    0    0 -0.10026275989E+02 -0.32413296829E+02  0.14304951837E+02  0.36820913468E+02  0.00000000000E+00 0.  1.
         11    1    4    4    0    0  0.13262631271E+01  0.13403735562E+02 -0.40276492797E+01  0.14058487112E+02  0.51100000000E-03 0. -1.
        -11    1    4    4    0    0  0.15083332264E+02 -0.35131877466E+01 -0.28366132538E+01  0.15744706264E+02  0.51100000000E-03 0.  1.
        -12    1    4    4    0    0 -0.63833194015E+01  0.22522749014E+02 -0.74406893037E+01  0.24563893157E+02  0.00000000000E+00 0.  1.
</event>
<event>
 8    1  0.2450026E-006  0.9118800E+02  0.7816164E-02  0.1184000E+00
        -11   -1    0    0    0    0  0.00000000000E+00  0.00000000000E+00  0.45593999997E+02  0.45594000000E+02  0.51100000000E-03 0. -1.
         11   -1    0    0    0    0 -0.00000000000E+00 -0.00000000000E+00 -0.45593999997E+02  0.45594000000E+02  0.51100000000E-03 0.  1.
         23    2    1    2    0    0 -0.35527136788E-14  0.00000000000E+00  0.00000000000E+00  0.91188000000E+02  0.91188000000E+02 0.  0.
    9900012    2    3    3    0    0  0.30059365925E+02 -0.28848938159E+01 -0.21068681210E+02  0.54367117066E+02  0.40000074975E+02 0.  0.
        -12    1    3    3    0    0 -0.30059365925E+02  0.28848938159E+01  0.21068681210E+02  0.36820882934E+02  0.00000000000E+00 0.  1.
         11    1    4    4    0    0 -0.50869772980E+01  0.40822656394E+01 -0.69193263058E+01  0.95089067494E+01  0.51100000000E-03 0. -1.
        -11    1    4    4    0    0  0.30290250668E+01  0.26610028369E+01 -0.10358065092E+02  0.11115099714E+02  0.51100000000E-03 0.  1.
         12    1    4    4    0    0  0.32117318156E+02 -0.96281622922E+01 -0.37912898125E+01  0.33743110602E+02  0.00000000000E+00 0. -1.
</event>
<event>
 8    1  0.2450026E-006  0.9118800E+02  0.7816164E-02  0.1184000E+00
        -11   -1    0    0    0    0  0.00000000000E+00  0.00000000000E+00  0.45593999997E+02  0.45594000000E+02  0.51100000000E-03 0.  1.
         11   -1    0    0    0    0 -0.00000000000E+00 -0.00000000000E+00 -0.45593999997E+02  0.45594000000E+02  0.51100000000E-03 0. -1.
         23    2    1    2    0    0  0.00000000000E+00 -0.35527136788E-14  0.71054273576E-14  0.91188000000E+02  0.91188000000E+02 0.  0.
    9900012    2    3    3    0    0  0.12759578389E+02  0.24554979728E+02  0.24290530379E+02  0.54367031298E+02  0.39999879449E+02 0.  0.
         12    1    3    3    0    0 -0.12759578389E+02 -0.24554979728E+02 -0.24290530379E+02  0.36820968702E+02  0.00000000000E+00 0. -1.
         11    1    4    4    0    0 -0.50638731981E+01 -0.33329234523E+01  0.16985396801E+00  0.60646550716E+01  0.51100000000E-03 0. -1.
        -11    1    4    4    0    0  0.10839065321E+02  0.28331400278E+02  0.27118714809E+02  0.40688797867E+02  0.51100000000E-03 0.  1.
         12    1    4    4    0    0  0.69843862658E+01 -0.44349709716E+00 -0.29980383985E+01  0.76135783587E+01  0.00000000000E+00 0. -1.
</event>
<event>
 8    1  0.2450026E-006  0.9118800E+02  0.7816164E-02  0.1184000E+00
        -11   -1    0    0    0    0  0.00000000000E+00  0.00000000000E+00  0.45593999997E+02  0.45594000000E+02  0.51100000000E-03 0.  1.
         11   -1    0    0    0    0 -0.00000000000E+00 -0.00000000000E+00 -0.45593999997E+02  0.45594000000E+02  0.51100000000E-03 0. -1.
         23    2    1    2    0    0  0.35527136788E-14  0.35527136788E-14  0.00000000000E+00  0.91188000000E+02  0.91188000000E+02 0.  0.
    9900012    2    3    3    0    0 -0.26380237629E+02  0.17233622785E+02 -0.19048992129E+02  0.54367098425E+02  0.40000032480E+02 0.  0.
        -12    1    3    3    0    0  0.26380237629E+02 -0.17233622785E+02  0.19048992129E+02  0.36820901575E+02  0.00000000000E+00 0.  1.
         11    1    4    4    0    0 -0.99473737718E+01  0.20155407948E+02 -0.31505470738E+00  0.22478655971E+02  0.51100000000E-03 0. -1.
        -11    1    4    4    0    0 -0.20716863017E+02 -0.29095056954E+00 -0.14193939075E+02  0.25114556978E+02  0.51100000000E-03 0.  1.
        -12    1    4    4    0    0  0.42839991596E+01 -0.26308345934E+01 -0.45399983467E+01  0.67738854762E+01  0.00000000000E+00 0.  1.
</event>
<event>
 8    1  0.2450026E-006  0.9118800E+02  0.7816164E-02  0.1184000E+00
        -11   -1    0    0    0    0  0.00000000000E+00  0.00000000000E+00  0.45593999997E+02  0.45594000000E+02  0.51100000000E-03 0.  1.
         11   -1    0    0    0    0 -0.00000000000E+00 -0.00000000000E+00 -0.45593999997E+02  0.45594000000E+02  0.51100000000E-03 0. -1.
         23    2    1    2    0    0 -0.17763568394E-14  0.00000000000E+00  0.00000000000E+00  0.91188000000E+02  0.91188000000E+02 0.  0.
    9900012    2    3    3    0    0  0.14861614844E+02 -0.27189602138E+02  0.19890705518E+02  0.54367051801E+02  0.39999926192E+02 0.  0.
         12    1    3    3    0    0 -0.14861614844E+02  0.27189602138E+02 -0.19890705518E+02  0.36820948199E+02  0.00000000000E+00 0. -1.
         11    1    4    4    0    0  0.97994781157E+01  0.73452185231E+01  0.89204952768E+01  0.15151146582E+02  0.51100000000E-03 0. -1.
        -11    1    4    4    0    0  0.56100992594E+01 -0.30042154817E+02  0.14156341985E+02  0.33680948597E+02  0.51100000000E-03 0.  1.
         12    1    4    4    0    0 -0.54796253078E+00 -0.44926658448E+01 -0.31861317436E+01  0.55349566227E+01  0.00000000000E+00 0. -1.
</event>
<event>
 8    1  0.2450026E-006  0.9118800E+02  0.7816164E-02  0.1184000E+00
        -11   -1    0    0    0    0  0.00000000000E+00  0.00000000000E+00  0.45593999997E+02  0.45594000000E+02  0.51100000000E-03 0.  1.
         11   -1    0    0    0    0 -0.00000000000E+00 -0.00000000000E+00 -0.45593999997E+02  0.45594000000E+02  0.51100000000E-03 0. -1.
         23    2    1    2    0    0  0.00000000000E+00  0.35527136788E-14 -0.35527136788E-14  0.91188000000E+02  0.91188000000E+02 0.  0.
    9900012    2    3    3    0    0 -0.91698244287E+01  0.26072776622E+02 -0.24329077822E+02  0.54367090336E+02  0.40000014039E+02 0.  0.
         12    1    3    3    0    0  0.91698244287E+01 -0.26072776622E+02  0.24329077822E+02  0.36820909664E+02  0.00000000000E+00 0. -1.
         11    1    4    4    0    0  0.29354075926E-01  0.15946963712E+01 -0.80263568535E+01  0.81832953496E+01  0.51100000000E-03 0. -1.
        -11    1    4    4    0    0 -0.11803802883E+01 -0.71612765357E+01 -0.10906962443E+02  0.13101107176E+02  0.51100000000E-03 0.  1.
        -12    1    4    4    0    0 -0.80187982164E+01  0.31639356786E+02 -0.53957585256E+01  0.33082687810E+02  0.00000000000E+00 0.  1.
</event>
<event>
 8    1  0.2450026E-006  0.9118800E+02  0.7816164E-02  0.1184000E+00
        -11   -1    0    0    0    0  0.00000000000E+00  0.00000000000E+00  0.45593999997E+02  0.45594000000E+02  0.51100000000E-03 0.  1.
         11   -1    0    0    0    0 -0.00000000000E+00 -0.00000000000E+00 -0.45593999997E+02  0.45594000000E+02  0.51100000000E-03 0. -1.
         23    2    1    2    0    0  0.17763568394E-14  0.00000000000E+00  0.00000000000E+00  0.91188000000E+02  0.91188000000E+02 0.  0.
    9900012    2    3    3    0    0 -0.12297155184E+02  0.22738237656E+02 -0.26220859276E+02  0.54367069288E+02  0.39999966056E+02 0.  0.
        -12    1    3    3    0    0  0.12297155184E+02 -0.22738237656E+02  0.26220859276E+02  0.36820930712E+02  0.00000000000E+00 0.  1.
         11    1    4    4    0    0 -0.11776321532E+02  0.20531614657E+02 -0.26278087738E+02  0.35366182218E+02  0.51100000000E-03 0. -1.
        -11    1    4    4    0    0 -0.24518607082E+01 -0.54228184578E+01  0.65124237236E+01  0.88221450892E+01  0.51100000000E-03 0.  1.
        -12    1    4    4    0    0  0.19310270569E+01  0.76294414567E+01 -0.64551952616E+01  0.10178741980E+02  0.00000000000E+00 0.  1.
</event>
<event>
 8    1  0.2450026E-006  0.9118800E+02  0.7816164E-02  0.1184000E+00
        -11   -1    0    0    0    0  0.00000000000E+00  0.00000000000E+00  0.45593999997E+02  0.45594000000E+02  0.51100000000E-03 0.  1.
         11   -1    0    0    0    0 -0.00000000000E+00 -0.00000000000E+00 -0.45593999997E+02  0.45594000000E+02  0.51100000000E-03 0. -1.
         23    2    1    2    0    0  0.13322676296E-14  0.00000000000E+00  0.00000000000E+00  0.91188000000E+02  0.91188000000E+02 0.  0.
    9900012    2    3    3    0    0  0.14985591468E+01  0.52392037085E+01 -0.36415439037E+02  0.54367093774E+02  0.40000021878E+02 0.  0.
        -12    1    3    3    0    0 -0.14985591468E+01 -0.52392037085E+01  0.36415439037E+02  0.36820906226E+02  0.00000000000E+00 0.  1.
         11    1    4    4    0    0  0.80723182304E+01  0.57531774310E+01 -0.28956310850E+02  0.30606033890E+02  0.51100000000E-03 0. -1.
        -11    1    4    4    0    0  0.62642945947E+01  0.31036716057E+01 -0.77271794452E+01  0.10420339085E+02  0.51100000000E-03 0.  1.
         12    1    4    4    0    0 -0.12838053678E+02 -0.36176453281E+01  0.26805125849E+00  0.13340720799E+02  0.00000000000E+00 0. -1.
</event>
<event>
 8    1  0.2450026E-006  0.9118800E+02  0.7816164E-02  0.1184000E+00
        -11   -1    0    0    0    0  0.00000000000E+00  0.00000000000E+00  0.45593999997E+02  0.45594000000E+02  0.51100000000E-03 0. -1.
         11   -1    0    0    0    0 -0.00000000000E+00 -0.00000000000E+00 -0.45593999997E+02  0.45594000000E+02  0.51100000000E-03 0.  1.
         23    2    1    2    0    0  0.00000000000E+00  0.00000000000E+00  0.00000000000E+00  0.91188000000E+02  0.91188000000E+02 0.  0.
    9900012    2    3    3    0    0 -0.20839543384E+02 -0.30033516276E+02  0.44137645713E+01  0.54367082222E+02  0.39999995541E+02 0.  0.
        -12    1    3    3    0    0  0.20839543384E+02  0.30033516276E+02 -0.44137645713E+01  0.36820917778E+02  0.00000000000E+00 0.  1.
         11    1    4    4    0    0  0.13611959740E+01 -0.11030785771E+02 -0.17277179518E+01  0.11247937535E+02  0.51100000000E-03 0. -1.
        -11    1    4    4    0    0 -0.23192561724E+02 -0.12633673406E+02  0.16338529918E+02  0.31055630459E+02  0.51100000000E-03 0.  1.
        -12    1    4    4    0    0  0.99182236615E+00 -0.63690570992E+01 -0.10197047395E+02  0.12063514228E+02  0.00000000000E+00 0.  1.
</event>
<event>
 8    1  0.2450026E-006  0.9118800E+02  0.7816164E-02  0.1184000E+00
        -11   -1    0    0    0    0  0.00000000000E+00  0.00000000000E+00  0.45593999997E+02  0.45594000000E+02  0.51100000000E-03 0. -1.
         11   -1    0    0    0    0 -0.00000000000E+00 -0.00000000000E+00 -0.45593999997E+02  0.45594000000E+02  0.51100000000E-03 0.  1.
         23    2    1    2    0    0  0.00000000000E+00  0.00000000000E+00  0.00000000000E+00  0.91188000000E+02  0.91188000000E+02 0.  0.
    9900012    2    3    3    0    0 -0.19183400838E+02  0.30089164072E+02  0.90785036686E+01  0.54367083511E+02  0.39999998480E+02 0.  0.
        -12    1    3    3    0    0  0.19183400838E+02 -0.30089164072E+02 -0.90785036686E+01  0.36820916489E+02  0.00000000000E+00 0.  1.
         11    1    4    4    0    0  0.36545158180E+01 -0.70760279802E+01  0.43576370480E+01  0.90782519652E+01  0.51100000000E-03 0. -1.
        -11    1    4    4    0    0 -0.97237448893E+01  0.23088608783E+02  0.67424929567E+01  0.25944099170E+02  0.51100000000E-03 0.  1.
         12    1    4    4    0    0 -0.13114171766E+02  0.14076583269E+02 -0.20216263361E+01  0.19344732376E+02  0.00000000000E+00 0. -1.
</event>
<event>
 8    1  0.2450026E-006  0.9118800E+02  0.7816164E-02  0.1184000E+00
        -11   -1    0    0    0    0  0.00000000000E+00  0.00000000000E+00  0.45593999997E+02  0.45594000000E+02  0.51100000000E-03 0.  1.
         11   -1    0    0    0    0 -0.00000000000E+00 -0.00000000000E+00 -0.45593999997E+02  0.45594000000E+02  0.51100000000E-03 0. -1.
         23    2    1    2    0    0  0.00000000000E+00  0.35527136788E-14  0.00000000000E+00  0.91188000000E+02  0.91188000000E+02 0.  0.
    9900012    2    3    3    0    0  0.20854212725E+02  0.25277413662E+02 -0.16790835835E+02  0.54367109220E+02  0.40000057088E+02 0.  0.
        -12    1    3    3    0    0 -0.20854212725E+02 -0.25277413662E+02  0.16790835835E+02  0.36820890780E+02  0.00000000000E+00 0.  1.
         11    1    4    4    0    0  0.18698553327E+02  0.15798179671E+02 -0.58067042470E+01  0.25158223147E+02  0.51100000000E-03 0. -1.
        -11    1    4    4    0    0 -0.16066377403E+01 -0.33424181850E+01  0.63310956501E+01  0.73372894549E+01  0.51100000000E-03 0.  1.
        -12    1    4    4    0    0  0.37622971379E+01  0.12821652176E+02 -0.17315227239E+02  0.21871596618E+02  0.00000000000E+00 0.  1.
</event>
<event>
 8    1  0.2450026E-006  0.9118800E+02  0.7816164E-02  0.1184000E+00
        -11   -1    0    0    0    0  0.00000000000E+00  0.00000000000E+00  0.45593999997E+02  0.45594000000E+02  0.51100000000E-03 0.  1.
         11   -1    0    0    0    0 -0.00000000000E+00 -0.00000000000E+00 -0.45593999997E+02  0.45594000000E+02  0.51100000000E-03 0. -1.
         23    2    1    2    0    0  0.71054273576E-14 -0.17763568394E-14 -0.35527136788E-14  0.91188000000E+02  0.91188000000E+02 0.  0.
    9900012    2    3    3    0    0 -0.23769581850E+02  0.95342301717E+01  0.26455340446E+02  0.54367087404E+02  0.40000007355E+02 0.  0.
         12    1    3    3    0    0  0.23769581850E+02 -0.95342301717E+01 -0.26455340446E+02  0.36820912596E+02  0.00000000000E+00 0. -1.
         11    1    4    4    0    0 -0.96374098268E+00  0.12076756860E+02  0.14175228333E+02  0.18647089625E+02  0.51100000000E-03 0. -1.
        -11    1    4    4    0    0  0.52159023255E+01 -0.12905264231E+01  0.89226066764E+00  0.54467627889E+01  0.51100000000E-03 0.  1.
        -12    1    4    4    0    0 -0.28021743192E+02 -0.12520002650E+01  0.11387851445E+02  0.30273234990E+02  0.00000000000E+00 0.  1.
</event>
<event>
 8    1  0.2450026E-006  0.9118800E+02  0.7816164E-02  0.1184000E+00
        -11   -1    0    0    0    0  0.00000000000E+00  0.00000000000E+00  0.45593999997E+02  0.45594000000E+02  0.51100000000E-03 0. -1.
         11   -1    0    0    0    0 -0.00000000000E+00 -0.00000000000E+00 -0.45593999997E+02  0.45594000000E+02  0.51100000000E-03 0.  1.
         23    2    1    2    0    0  0.44408920985E-15  0.71054273576E-14  0.00000000000E+00  0.91188000000E+02  0.91188000000E+02 0.  0.
    9900012    2    3    3    0    0 -0.39248229406E+01  0.33377361319E+02  0.15044211483E+02  0.54367071401E+02  0.39999970874E+02 0.  0.
         12    1    3    3    0    0  0.39248229406E+01 -0.33377361319E+02 -0.15044211483E+02  0.36820928599E+02  0.00000000000E+00 0. -1.
         11    1    4    4    0    0 -0.24932163660E+01  0.26460192171E+01 -0.16666545216E+01  0.39994103441E+01  0.51100000000E-03 0. -1.
        -11    1    4    4    0    0 -0.13022269561E+02  0.48401504505E+01  0.17056427319E+02  0.21998369804E+02  0.51100000000E-03 0.  1.
        -12    1    4    4    0    0  0.11590662987E+02  0.25891191651E+02 -0.34556131402E+00  0.28369291253E+02  0.00000000000E+00 0.  1.
</event>
<event>
 8    1  0.2450026E-006  0.9118800E+02  0.7816164E-02  0.1184000E+00
        -11   -1    0    0    0    0  0.00000000000E+00  0.00000000000E+00  0.45593999997E+02  0.45594000000E+02  0.51100000000E-03 0.  1.
         11   -1    0    0    0    0 -0.00000000000E+00 -0.00000000000E+00 -0.45593999997E+02  0.45594000000E+02  0.51100000000E-03 0. -1.
         23    2    1    2    0    0  0.26645352591E-14  0.00000000000E+00  0.00000000000E+00  0.91188000000E+02  0.91188000000E+02 0.  0.
    9900012    2    3    3    0    0 -0.53943760532E+00  0.35757856563E+02 -0.87665414156E+01  0.54367251131E+02  0.40000380601E+02 0.  0.
        -12    1    3    3    0    0  0.53943760532E+00 -0.35757856563E+02  0.87665414156E+01  0.36820748869E+02  0.00000000000E+00 0.  1.
         11    1    4    4    0    0 -0.17274980390E+02  0.30886779821E+02 -0.72145021581E+01  0.36117407947E+02  0.51100000000E-03 0. -1.
        -11    1    4    4    0    0  0.12472255438E+02  0.58703910773E+01 -0.15446298764E+01  0.13870995957E+02  0.51100000000E-03 0.  1.
         12    1    4    4    0    0  0.42632873458E+01 -0.99931433562E+00 -0.74093811005E-02  0.43788472265E+01  0.00000000000E+00 0. -1.
</event>
<event>
 8    1  0.2450026E-006  0.9118800E+02  0.7816164E-02  0.1184000E+00
        -11   -1    0    0    0    0  0.00000000000E+00  0.00000000000E+00  0.45593999997E+02  0.45594000000E+02  0.51100000000E-03 0. -1.
         11   -1    0    0    0    0 -0.00000000000E+00 -0.00000000000E+00 -0.45593999997E+02  0.45594000000E+02  0.51100000000E-03 0.  1.
         23    2    1    2    0    0 -0.88817841970E-15  0.00000000000E+00  0.00000000000E+00  0.91188000000E+02  0.91188000000E+02 0.  0.
    9900012    2    3    3    0    0  0.74780705025E+01 -0.31016277331E+02 -0.18380640530E+02  0.54367096368E+02  0.40000027791E+02 0.  0.
         12    1    3    3    0    0 -0.74780705025E+01  0.31016277331E+02  0.18380640530E+02  0.36820903632E+02  0.00000000000E+00 0. -1.
         11    1    4    4    0    0  0.24946158858E+01 -0.90001410859E+01  0.47158360339E+01  0.10462540693E+02  0.51100000000E-03 0. -1.
        -11    1    4    4    0    0  0.11258901456E+02 -0.26930154112E+02 -0.16312630442E+02  0.33437972048E+02  0.51100000000E-03 0.  1.
        -12    1    4    4    0    0 -0.62754468390E+01  0.49140178668E+01 -0.67838461219E+01  0.10466583627E+02  0.00000000000E+00 0.  1.
</event>
<event>
 8    1  0.2450026E-006  0.9118800E+02  0.7816164E-02  0.1184000E+00
        -11   -1    0    0    0    0  0.00000000000E+00  0.00000000000E+00  0.45593999997E+02  0.45594000000E+02  0.51100000000E-03 0.  1.
         11   -1    0    0    0    0 -0.00000000000E+00 -0.00000000000E+00 -0.45593999997E+02  0.45594000000E+02  0.51100000000E-03 0. -1.
         23    2    1    2    0    0 -0.35527136788E-14 -0.35527136788E-14  0.35527136788E-14  0.91188000000E+02  0.91188000000E+02 0.  0.
    9900012    2    3    3    0    0 -0.11438228635E+02 -0.19061930007E+02  0.29352845251E+02  0.54367085098E+02  0.40000002097E+02 0.  0.
         12    1    3    3    0    0  0.11438228635E+02  0.19061930007E+02 -0.29352845251E+02  0.36820914902E+02  0.00000000000E+00 0. -1.
         11    1    4    4    0    0  0.11959061747E+02  0.36192930590E+01  0.10128632556E+02  0.16084391125E+02  0.51100000000E-03 0. -1.
        -11    1    4    4    0    0 -0.15676040996E+02 -0.15609753866E+02  0.16085432582E+02  0.27352217802E+02  0.51100000000E-03 0.  1.
         12    1    4    4    0    0 -0.77212493873E+01 -0.70714691993E+01  0.31387801132E+01  0.10930476172E+02  0.00000000000E+00 0. -1.
</event>
<event>
 8    1  0.2450026E-006  0.9118800E+02  0.7816164E-02  0.1184000E+00
        -11   -1    0    0    0    0  0.00000000000E+00  0.00000000000E+00  0.45593999997E+02  0.45594000000E+02  0.51100000000E-03 0. -1.
         11   -1    0    0    0    0 -0.00000000000E+00 -0.00000000000E+00 -0.45593999997E+02  0.45594000000E+02  0.51100000000E-03 0.  1.
         23    2    1    2    0    0  0.88817841970E-15 -0.22204460493E-15  0.00000000000E+00  0.91188000000E+02  0.91188000000E+02 0.  0.
    9900012    2    3    3    0    0 -0.57064279274E+01 -0.15115574412E+01  0.36344664078E+02  0.54367044926E+02  0.39999910519E+02 0.  0.
        -12    1    3    3    0    0  0.57064279274E+01  0.15115574412E+01 -0.36344664078E+02  0.36820955074E+02  0.00000000000E+00 0.  1.
         11    1    4    4    0    0 -0.63103927438E+01 -0.97857934574E+01  0.51926728031E+01  0.12749378858E+02  0.51100000000E-03 0. -1.
        -11    1    4    4    0    0  0.47141945418E+00  0.15280277925E+02  0.76529551335E+01  0.17096106349E+02  0.51100000000E-03 0.  1.
        -12    1    4    4    0    0  0.13254536227E+00 -0.70060419085E+01  0.23499036141E+02  0.24521559719E+02  0.00000000000E+00 0.  1.
</event>
<event>
 8    1  0.2450026E-006  0.9118800E+02  0.7816164E-02  0.1184000E+00
        -11   -1    0    0    0    0  0.00000000000E+00  0.00000000000E+00  0.45593999997E+02  0.45594000000E+02  0.51100000000E-03 0.  1.
         11   -1    0    0    0    0 -0.00000000000E+00 -0.00000000000E+00 -0.45593999997E+02  0.45594000000E+02  0.51100000000E-03 0. -1.
         23    2    1    2    0    0  0.17763568394E-14  0.00000000000E+00 -0.22204460493E-15  0.91188000000E+02  0.91188000000E+02 0.  0.
    9900012    2    3    3    0    0 -0.14110467050E+02 -0.34007408978E+02 -0.41254818065E+00  0.54367090971E+02  0.40000015485E+02 0.  0.
         12    1    3    3    0    0  0.14110467050E+02  0.34007408978E+02  0.41254818065E+00  0.36820909029E+02  0.00000000000E+00 0. -1.
         11    1    4    4    0    0 -0.22627350301E+01  0.16484128681E+01 -0.52074034586E+01  0.59122149692E+01  0.51100000000E-03 0. -1.
        -11    1    4    4    0    0 -0.10283183056E+02 -0.22059809000E+02  0.17344216280E+02  0.29886466260E+02  0.51100000000E-03 0.  1.
        -12    1    4    4    0    0 -0.15645489636E+01 -0.13596012846E+02 -0.12549361002E+02  0.18568409742E+02  0.00000000000E+00 0.  1.
</event>
<event>
 8    1  0.2450026E-006  0.9118800E+02  0.7816164E-02  0.1184000E+00
        -11   -1    0    0    0    0  0.00000000000E+00  0.00000000000E+00  0.45593999997E+02  0.45594000000E+02  0.51100000000E-03 0. -1.
         11   -1    0    0    0    0 -0.00000000000E+00 -0.00000000000E+00 -0.45593999997E+02  0.45594000000E+02  0.51100000000E-03 0.  1.
         23    2    1    2    0    0  0.35527136788E-14  0.00000000000E+00  0.17763568394E-14  0.91188000000E+02  0.91188000000E+02 0.  0.
    9900012    2    3    3    0    0  0.30098239498E+02  0.18810753826E+02 -0.97995628275E+01  0.54367083227E+02  0.39999997833E+02 0.  0.
         12    1    3    3    0    0 -0.30098239498E+02 -0.18810753826E+02  0.97995628275E+01  0.36820916773E+02  0.00000000000E+00 0. -1.
         11    1    4    4    0    0  0.29552193894E+02  0.19774307161E+01  0.28927849916E+01  0.29759210363E+02  0.51100000000E-03 0. -1.
        -11    1    4    4    0    0  0.28696635528E+01 -0.95406215620E-01 -0.52209733612E+01  0.59584087097E+01  0.51100000000E-03 0.  1.
         12    1    4    4    0    0 -0.23236179485E+01  0.16928729326E+02 -0.74713744579E+01  0.18649464154E+02  0.00000000000E+00 0. -1.
</event>
<event>
 8    1  0.2450026E-006  0.9118800E+02  0.7816164E-02  0.1184000E+00
        -11   -1    0    0    0    0  0.00000000000E+00  0.00000000000E+00  0.45593999997E+02  0.45594000000E+02  0.51100000000E-03 0.  1.
         11   -1    0    0    0    0 -0.00000000000E+00 -0.00000000000E+00 -0.45593999997E+02  0.45594000000E+02  0.51100000000E-03 0. -1.
         23    2    1    2    0    0  0.71054273576E-14 -0.44408920985E-15  0.00000000000E+00  0.91188000000E+02  0.91188000000E+02 0.  0.
    9900012    2    3    3    0    0 -0.32170319420E+02  0.34815231388E+01  0.17570714428E+02  0.54367075779E+02  0.39999980854E+02 0.  0.
         12    1    3    3    0    0  0.32170319420E+02 -0.34815231388E+01 -0.17570714428E+02  0.36820924221E+02  0.00000000000E+00 0. -1.
         11    1    4    4    0    0 -0.71501191604E+01  0.45812468427E+00 -0.31415364664E+01  0.78232559632E+01  0.51100000000E-03 0. -1.
        -11    1    4    4    0    0 -0.24316360181E+02 -0.94704943127E+01  0.51917501478E+01  0.26606952190E+02  0.51100000000E-03 0.  1.
         12    1    4    4    0    0 -0.70384007935E+00  0.12493892767E+02  0.15520500746E+02  0.19936867626E+02  0.00000000000E+00 0. -1.
</event>
<event>
 8    1  0.2450026E-006  0.9118800E+02  0.7816164E-02  0.1184000E+00
        -11   -1    0    0    0    0  0.00000000000E+00  0.00000000000E+00  0.45593999997E+02  0.45594000000E+02  0.51100000000E-03 0. -1.
         11   -1    0    0    0    0 -0.00000000000E+00 -0.00000000000E+00 -0.45593999997E+02  0.45594000000E+02  0.51100000000E-03 0.  1.
         23    2    1    2    0    0 -0.22204460493E-15  0.00000000000E+00  0.35527136788E-14  0.91188000000E+02  0.91188000000E+02 0.  0.
    9900012    2    3    3    0    0 -0.95368841978E+00  0.28374739509E+02 -0.23446560400E+02  0.54367128767E+02  0.40000101649E+02 0.  0.
         12    1    3    3    0    0  0.95368841978E+00 -0.28374739509E+02  0.23446560400E+02  0.36820871233E+02  0.00000000000E+00 0. -1.
         11    1    4    4    0    0 -0.19370522513E+00  0.29312045411E+02 -0.11625023739E+02  0.31533707442E+02  0.51100000000E-03 0. -1.
        -11    1    4    4    0    0  0.47224798273E+01  0.78028947558E+01 -0.66842164846E+01  0.11307773104E+02  0.51100000000E-03 0.  1.
         12    1    4    4    0    0 -0.54824630219E+01 -0.87402006574E+01 -0.51373201757E+01  0.11525648221E+02  0.00000000000E+00 0. -1.
</event>
<event>
 8    1  0.2450026E-006  0.9118800E+02  0.7816164E-02  0.1184000E+00
        -11   -1    0    0    0    0  0.00000000000E+00  0.00000000000E+00  0.45593999997E+02  0.45594000000E+02  0.51100000000E-03 0.  1.
         11   -1    0    0    0    0 -0.00000000000E+00 -0.00000000000E+00 -0.45593999997E+02  0.45594000000E+02  0.51100000000E-03 0. -1.
         23    2    1    2    0    0  0.00000000000E+00  0.71054273576E-14 -0.88817841970E-15  0.91188000000E+02  0.91188000000E+02 0.  0.
    9900012    2    3    3    0    0  0.13654503036E+02 -0.34035765852E+02  0.33012809858E+01  0.54367119152E+02  0.40000079730E+02 0.  0.
        -12    1    3    3    0    0 -0.13654503036E+02  0.34035765852E+02 -0.33012809858E+01  0.36820880848E+02  0.00000000000E+00 0.  1.
         11    1    4    4    0    0  0.38248284685E+01 -0.18730646484E+01  0.17903929644E+01  0.46198691777E+01  0.51100000000E-03 0. -1.
        -11    1    4    4    0    0  0.21109217247E+02 -0.24058069701E+02 -0.79041201979E+01  0.32967633929E+02  0.51100000000E-03 0.  1.
         12    1    4    4    0    0 -0.11279542679E+02 -0.81046315030E+01  0.94150082192E+01  0.16779616045E+02  0.00000000000E+00 0. -1.
</event>
<event>
 8    1  0.2450026E-006  0.9118800E+02  0.7816164E-02  0.1184000E+00
        -11   -1    0    0    0    0  0.00000000000E+00  0.00000000000E+00  0.45593999997E+02  0.45594000000E+02  0.51100000000E-03 0. -1.
         11   -1    0    0    0    0 -0.00000000000E+00 -0.00000000000E+00 -0.45593999997E+02  0.45594000000E+02  0.51100000000E-03 0.  1.
         23    2    1    2    0    0 -0.35527136788E-14 -0.17763568394E-14  0.35527136788E-14  0.91188000000E+02  0.91188000000E+02 0.  0.
    9900012    2    3    3    0    0 -0.25023744595E+02 -0.57998666042E+01  0.26380931422E+02  0.54367084899E+02  0.40000001644E+02 0.  0.
        -12    1    3    3    0    0  0.25023744595E+02  0.57998666042E+01 -0.26380931422E+02  0.36820915101E+02  0.00000000000E+00 0.  1.
         11    1    4    4    0    0 -0.17604921430E+02 -0.14715994471E+02  0.33180788534E+02  0.40341770906E+02  0.51100000000E-03 0. -1.
        -11    1    4    4    0    0 -0.56202057944E+01  0.88228890109E+01 -0.56608574573E+01  0.11894342818E+02  0.51100000000E-03 0.  1.
         12    1    4    4    0    0 -0.17986173707E+01  0.93238856021E-01 -0.11389996551E+01  0.21309711741E+01  0.00000000000E+00 0. -1.
</event>
<event>
 8    1  0.2450026E-006  0.9118800E+02  0.7816164E-02  0.1184000E+00
        -11   -1    0    0    0    0  0.00000000000E+00  0.00000000000E+00  0.45593999997E+02  0.45594000000E+02  0.51100000000E-03 0. -1.
         11   -1    0    0    0    0 -0.00000000000E+00 -0.00000000000E+00 -0.45593999997E+02  0.45594000000E+02  0.51100000000E-03 0.  1.
         23    2    1    2    0    0  0.00000000000E+00 -0.35527136788E-14  0.00000000000E+00  0.91188000000E+02  0.91188000000E+02 0.  0.
    9900012    2    3    3    0    0  0.12362977674E+02  0.29838757545E+02 -0.17680078951E+02  0.54367083926E+02  0.39999999426E+02 0.  0.
         12    1    3    3    0    0 -0.12362977674E+02 -0.29838757545E+02  0.17680078951E+02  0.36820916074E+02  0.00000000000E+00 0. -1.
         11    1    4    4    0    0 -0.94814980708E+01 -0.43366934847E+00 -0.17846173106E+01  0.96577292350E+01  0.51100000000E-03 0. -1.
        -11    1    4    4    0    0  0.19910460730E+02  0.18000633175E+02 -0.17705624547E+02  0.32154912254E+02  0.51100000000E-03 0.  1.
         12    1    4    4    0    0  0.19340150149E+01  0.12271793719E+02  0.18101629067E+01  0.12554442437E+02  0.00000000000E+00 0. -1.
</event>
<event>
 8    1  0.2450026E-006  0.9118800E+02  0.7816164E-02  0.1184000E+00
        -11   -1    0    0    0    0  0.00000000000E+00  0.00000000000E+00  0.45593999997E+02  0.45594000000E+02  0.51100000000E-03 0.  1.
         11   -1    0    0    0    0 -0.00000000000E+00 -0.00000000000E+00 -0.45593999997E+02  0.45594000000E+02  0.51100000000E-03 0. -1.
         23    2    1    2    0    0  0.00000000000E+00  0.00000000000E+00  0.00000000000E+00  0.91188000000E+02  0.91188000000E+02 0.  0.
    9900012    2    3    3    0    0  0.21079442433E+02  0.19223892376E+02  0.23278282962E+02  0.54367090329E+02  0.40000014023E+02 0.  0.
         12    1    3    3    0    0 -0.21079442433E+02 -0.19223892376E+02 -0.23278282962E+02  0.36820909671E+02  0.00000000000E+00 0. -1.
         11    1    4    4    0    0  0.19473657131E+02  0.25190571548E+01  0.19933931335E+02  0.27980896872E+02  0.51100000000E-03 0. -1.
        -11    1    4    4    0    0  0.87650474142E+00  0.87565982315E+01  0.11824965138E+02  0.14740287443E+02  0.51100000000E-03 0.  1.
        -12    1    4    4    0    0  0.72928055986E+00  0.79482369894E+01 -0.84806135101E+01  0.11645906014E+02  0.00000000000E+00 0.  1.
</event>
<event>
 8    1  0.2450026E-006  0.9118800E+02  0.7816164E-02  0.1184000E+00
        -11   -1    0    0    0    0  0.00000000000E+00  0.00000000000E+00  0.45593999997E+02  0.45594000000E+02  0.51100000000E-03 0. -1.
         11   -1    0    0    0    0 -0.00000000000E+00 -0.00000000000E+00 -0.45593999997E+02  0.45594000000E+02  0.51100000000E-03 0.  1.
         23    2    1    2    0    0 -0.88817841970E-15  0.17763568394E-14  0.71054273576E-14  0.91188000000E+02  0.91188000000E+02 0.  0.
    9900012    2    3    3    0    0  0.55636053144E+01 -0.67509470164E+01 -0.35766645488E+02  0.54367055971E+02  0.39999935697E+02 0.  0.
         12    1    3    3    0    0 -0.55636053144E+01  0.67509470164E+01  0.35766645488E+02  0.36820944029E+02  0.00000000000E+00 0. -1.
         11    1    4    4    0    0  0.64283077529E+01 -0.10326579603E+02  0.47077906009E+01  0.13043185173E+02  0.51100000000E-03 0.  1.
        -11    1    4    4    0    0 -0.97231703418E+00  0.30006856419E+01 -0.54681627861E+01  0.63127109274E+01  0.51100000000E-03 0. -1.
        -12    1    4    4    0    0  0.10761459565E+00  0.57494694475E+00 -0.35006273303E+02  0.35011159870E+02  0.00000000000E+00 0.  1.
</event>
<event>
 8    1  0.2450026E-006  0.9118800E+02  0.7816164E-02  0.1184000E+00
        -11   -1    0    0    0    0  0.00000000000E+00  0.00000000000E+00  0.45593999997E+02  0.45594000000E+02  0.51100000000E-03 0.  1.
         11   -1    0    0    0    0 -0.00000000000E+00 -0.00000000000E+00 -0.45593999997E+02  0.45594000000E+02  0.51100000000E-03 0. -1.
         23    2    1    2    0    0 -0.88817841970E-15  0.00000000000E+00  0.11102230246E-14  0.91188000000E+02  0.91188000000E+02 0.  0.
    9900012    2    3    3    0    0  0.25837004857E+01  0.36691074310E+02 -0.16941584500E+01  0.54367073680E+02  0.39999976069E+02 0.  0.
         12    1    3    3    0    0 -0.25837004857E+01 -0.36691074310E+02  0.16941584500E+01  0.36820926320E+02  0.00000000000E+00 0. -1.
         11    1    4    4    0    0 -0.30612850406E+01 -0.38302071489E+01  0.22453306948E+01  0.53929085931E+01  0.51100000000E-03 0. -1.
        -11    1    4    4    0    0 -0.63076049929E+00  0.33220118191E+02  0.74597463524E+01  0.34053221982E+02  0.51100000000E-03 0.  1.
        -12    1    4    4    0    0  0.62757460256E+01  0.73011632672E+01 -0.11399235497E+02  0.14920943105E+02  0.00000000000E+00 0.  1.
</event>
<event>
 8    1  0.2450026E-006  0.9118800E+02  0.7816164E-02  0.1184000E+00
        -11   -1    0    0    0    0  0.00000000000E+00  0.00000000000E+00  0.45593999997E+02  0.45594000000E+02  0.51100000000E-03 0.  1.
         11   -1    0    0    0    0 -0.00000000000E+00 -0.00000000000E+00 -0.45593999997E+02  0.45594000000E+02  0.51100000000E-03 0. -1.
         23    2    1    2    0    0  0.00000000000E+00  0.35527136788E-14 -0.35527136788E-14  0.91188000000E+02  0.91188000000E+02 0.  0.
    9900012    2    3    3    0    0 -0.12997668118E+02 -0.25416389241E+02  0.23256185863E+02  0.54367049449E+02  0.39999920830E+02 0.  0.
        -12    1    3    3    0    0  0.12997668118E+02  0.25416389241E+02 -0.23256185863E+02  0.36820950551E+02  0.00000000000E+00 0.  1.
         11    1    4    4    0    0 -0.21450984627E+01  0.60455885718E+01 -0.11385667344E+01  0.65151303183E+01  0.51100000000E-03 0.  1.
        -11    1    4    4    0    0 -0.63780452850E+01 -0.15791570762E+02  0.26416126374E+02  0.31430318192E+02  0.51100000000E-03 0. -1.
         12    1    4    4    0    0 -0.44745243707E+01 -0.15670407050E+02 -0.20213737760E+01  0.16421600939E+02  0.00000000000E+00 0. -1.
</event>
<event>
 8    1  0.2450026E-006  0.9118800E+02  0.7816164E-02  0.1184000E+00
        -11   -1    0    0    0    0  0.00000000000E+00  0.00000000000E+00  0.45593999997E+02  0.45594000000E+02  0.51100000000E-03 0.  1.
         11   -1    0    0    0    0 -0.00000000000E+00 -0.00000000000E+00 -0.45593999997E+02  0.45594000000E+02  0.51100000000E-03 0. -1.
         23    2    1    2    0    0 -0.17763568394E-14  0.35527136788E-14  0.35527136788E-14  0.91188000000E+02  0.91188000000E+02 0.  0.
    9900012    2    3    3    0    0 -0.14133474586E+02 -0.28314536257E+02  0.18823192648E+02  0.54367073222E+02  0.39999975024E+02 0.  0.
         12    1    3    3    0    0  0.14133474586E+02  0.28314536257E+02 -0.18823192648E+02  0.36820926778E+02  0.00000000000E+00 0. -1.
         11    1    4    4    0    0 -0.33666263313E+01  0.72327485838E+01 -0.14023739210E+01  0.81002146765E+01  0.51100000000E-03 0. -1.
        -11    1    4    4    0    0 -0.91512548331E+01 -0.45178112313E+01  0.76160310169E+01  0.12734206377E+02  0.51100000000E-03 0.  1.
        -12    1    4    4    0    0 -0.16155934214E+01 -0.31029473610E+02  0.12609535552E+02  0.33532652168E+02  0.00000000000E+00 0.  1.
</event>
<event>
 8    1  0.2450026E-006  0.9118800E+02  0.7816164E-02  0.1184000E+00
        -11   -1    0    0    0    0  0.00000000000E+00  0.00000000000E+00  0.45593999997E+02  0.45594000000E+02  0.51100000000E-03 0.  1.
         11   -1    0    0    0    0 -0.00000000000E+00 -0.00000000000E+00 -0.45593999997E+02  0.45594000000E+02  0.51100000000E-03 0. -1.
         23    2    1    2    0    0  0.00000000000E+00 -0.35527136788E-14  0.00000000000E+00  0.91188000000E+02  0.91188000000E+02 0.  0.
    9900012    2    3    3    0    0 -0.20193780234E+02 -0.24724554094E+02 -0.18349033156E+02  0.54367090818E+02  0.40000015137E+02 0.  0.
        -12    1    3    3    0    0  0.20193780234E+02  0.24724554094E+02  0.18349033156E+02  0.36820909182E+02  0.00000000000E+00 0.  1.
         11    1    4    4    0    0 -0.35030265646E+01 -0.78613872315E+01 -0.48306270063E+00  0.86200901474E+01  0.51100000000E-03 0. -1.
        -11    1    4    4    0    0  0.21450796000E+00 -0.23707313250E+02 -0.12110241163E+02  0.26622183541E+02  0.51100000000E-03 0.  1.
         12    1    4    4    0    0 -0.16905261629E+02  0.68441463879E+01 -0.57557292924E+01  0.19124817129E+02  0.00000000000E+00 0. -1.
</event>
<event>
 8    1  0.2450026E-006  0.9118800E+02  0.7816164E-02  0.1184000E+00
        -11   -1    0    0    0    0  0.00000000000E+00  0.00000000000E+00  0.45593999997E+02  0.45594000000E+02  0.51100000000E-03 0. -1.
         11   -1    0    0    0    0 -0.00000000000E+00 -0.00000000000E+00 -0.45593999997E+02  0.45594000000E+02  0.51100000000E-03 0.  1.
         23    2    1    2    0    0  0.00000000000E+00  0.88817841970E-15  0.00000000000E+00  0.91188000000E+02  0.91188000000E+02 0.  0.
    9900012    2    3    3    0    0  0.18413680522E+02 -0.98431810372E+00  0.31870798342E+02  0.54367077966E+02  0.39999985840E+02 0.  0.
        -12    1    3    3    0    0 -0.18413680522E+02  0.98431810372E+00 -0.31870798342E+02  0.36820922034E+02  0.00000000000E+00 0.  1.
         11    1    4    4    0    0  0.30562402222E+01 -0.79989676536E+00  0.13762368243E+02  0.14120312285E+02  0.51100000000E-03 0. -1.
        -11    1    4    4    0    0  0.18618849868E+02 -0.13005234372E+02  0.11213130610E+02  0.25328481790E+02  0.51100000000E-03 0.  1.
        -12    1    4    4    0    0 -0.32614095680E+01  0.12820813033E+02  0.68952994893E+01  0.14918283891E+02  0.00000000000E+00 0.  1.
</event>
<event>
 8    1  0.2450026E-006  0.9118800E+02  0.7816164E-02  0.1184000E+00
        -11   -1    0    0    0    0  0.00000000000E+00  0.00000000000E+00  0.45593999997E+02  0.45594000000E+02  0.51100000000E-03 0. -1.
         11   -1    0    0    0    0 -0.00000000000E+00 -0.00000000000E+00 -0.45593999997E+02  0.45594000000E+02  0.51100000000E-03 0.  1.
         23    2    1    2    0    0  0.00000000000E+00  0.00000000000E+00  0.00000000000E+00  0.91188000000E+02  0.91188000000E+02 0.  0.
    9900012    2    3    3    0    0 -0.25386952255E+02  0.73969457732E+01 -0.25623562666E+02  0.54367094046E+02  0.40000022496E+02 0.  0.
         12    1    3    3    0    0  0.25386952255E+02 -0.73969457732E+01  0.25623562666E+02  0.36820905954E+02  0.00000000000E+00 0. -1.
         11    1    4    4    0    0 -0.27966681887E+02 -0.23795365753E+01 -0.10953008319E+02  0.30129153350E+02  0.51100000000E-03 0. -1.
        -11    1    4    4    0    0 -0.43185244961E+01  0.10529144178E+02 -0.12638833348E+02  0.17007428953E+02  0.51100000000E-03 0.  1.
         12    1    4    4    0    0  0.68982541277E+01 -0.75266182990E+00 -0.20317209995E+01  0.72305117427E+01  0.00000000000E+00 0. -1.
</event>
<event>
 8    1  0.2450026E-006  0.9118800E+02  0.7816164E-02  0.1184000E+00
        -11   -1    0    0    0    0  0.00000000000E+00  0.00000000000E+00  0.45593999997E+02  0.45594000000E+02  0.51100000000E-03 0.  1.
         11   -1    0    0    0    0 -0.00000000000E+00 -0.00000000000E+00 -0.45593999997E+02  0.45594000000E+02  0.51100000000E-03 0. -1.
         23    2    1    2    0    0  0.88817841970E-15  0.00000000000E+00  0.00000000000E+00  0.91188000000E+02  0.91188000000E+02 0.  0.
    9900012    2    3    3    0    0  0.79573969346E+01  0.10563367047E+02 -0.34363864145E+02  0.54367081376E+02  0.39999993612E+02 0.  0.
        -12    1    3    3    0    0 -0.79573969346E+01 -0.10563367047E+02  0.34363864145E+02  0.36820918624E+02  0.00000000000E+00 0.  1.
         11    1    4    4    0    0  0.37009783403E+01 -0.56133745478E+01  0.15548173097E+01  0.69010630788E+01  0.51100000000E-03 0. -1.
        -11    1    4    4    0    0  0.33673970569E+01  0.10883956329E+02 -0.24988738574E+00  0.11395714645E+02  0.51100000000E-03 0.  1.
        -12    1    4    4    0    0  0.88902153737E+00  0.52927852662E+01 -0.35668794069E+02  0.36070303652E+02  0.00000000000E+00 0.  1.
</event>
<event>
 8    1  0.2450026E-006  0.9118800E+02  0.7816164E-02  0.1184000E+00
        -11   -1    0    0    0    0  0.00000000000E+00  0.00000000000E+00  0.45593999997E+02  0.45594000000E+02  0.51100000000E-03 0.  1.
         11   -1    0    0    0    0 -0.00000000000E+00 -0.00000000000E+00 -0.45593999997E+02  0.45594000000E+02  0.51100000000E-03 0. -1.
         23    2    1    2    0    0  0.35527136788E-14  0.00000000000E+00 -0.35527136788E-14  0.91188000000E+02  0.91188000000E+02 0.  0.
    9900012    2    3    3    0    0  0.18265844063E+02 -0.18041486074E+02 -0.26393999479E+02  0.54367088990E+02  0.40000010971E+02 0.  0.
        -12    1    3    3    0    0 -0.18265844063E+02  0.18041486074E+02  0.26393999479E+02  0.36820911010E+02  0.00000000000E+00 0.  1.
         11    1    4    4    0    0  0.16271896109E+02 -0.17283647104E+02 -0.24468107933E+01  0.23863904616E+02  0.51100000000E-03 0. -1.
        -11    1    4    4    0    0 -0.32979848041E+01  0.55829252083E+01 -0.16000965352E+01  0.66787773456E+01  0.51100000000E-03 0.  1.
         12    1    4    4    0    0  0.52919327583E+01 -0.63407641783E+01 -0.22347092150E+02  0.23824407028E+02  0.00000000000E+00 0. -1.
</event>
<event>
 8    1  0.2450026E-006  0.9118800E+02  0.7816164E-02  0.1184000E+00
        -11   -1    0    0    0    0  0.00000000000E+00  0.00000000000E+00  0.45593999997E+02  0.45594000000E+02  0.51100000000E-03 0.  1.
         11   -1    0    0    0    0 -0.00000000000E+00 -0.00000000000E+00 -0.45593999997E+02  0.45594000000E+02  0.51100000000E-03 0. -1.
         23    2    1    2    0    0 -0.35527136788E-14  0.00000000000E+00  0.00000000000E+00  0.91188000000E+02  0.91188000000E+02 0.  0.
    9900012    2    3    3    0    0  0.21770436797E+02 -0.11320754166E+02 -0.27453035636E+02  0.54367074443E+02  0.39999977809E+02 0.  0.
        -12    1    3    3    0    0 -0.21770436797E+02  0.11320754166E+02  0.27453035636E+02  0.36820925557E+02  0.00000000000E+00 0.  1.
         11    1    4    4    0    0  0.21236782607E+02 -0.12215890069E+02 -0.14853704980E+01  0.24544556045E+02  0.51100000000E-03 0. -1.
        -11    1    4    4    0    0  0.28134696573E+01  0.52168092029E+01 -0.36160964423E+01  0.69431162681E+01  0.51100000000E-03 0.  1.
         12    1    4    4    0    0 -0.22798154675E+01 -0.43216732995E+01 -0.22351568696E+02  0.22879402130E+02  0.00000000000E+00 0. -1.
</event>
<event>
 8    1  0.2450026E-006  0.9118800E+02  0.7816164E-02  0.1184000E+00
        -11   -1    0    0    0    0  0.00000000000E+00  0.00000000000E+00  0.45593999997E+02  0.45594000000E+02  0.51100000000E-03 0.  1.
         11   -1    0    0    0    0 -0.00000000000E+00 -0.00000000000E+00 -0.45593999997E+02  0.45594000000E+02  0.51100000000E-03 0. -1.
         23    2    1    2    0    0  0.35527136788E-14 -0.35527136788E-14  0.00000000000E+00  0.91188000000E+02  0.91188000000E+02 0.  0.
    9900012    2    3    3    0    0  0.28797318472E+02 -0.22775646377E+02  0.27886260866E+01  0.54366918341E+02  0.39999621941E+02 0.  0.
         12    1    3    3    0    0 -0.28797318472E+02  0.22775646377E+02 -0.27886260866E+01  0.36821081659E+02  0.00000000000E+00 0. -1.
         11    1    4    4    0    0  0.19555718068E+02 -0.24740908608E+02  0.57352234438E+01  0.32053571659E+02  0.51100000000E-03 0. -1.
        -11    1    4    4    0    0 -0.14665542078E+01 -0.31636309237E+01  0.63427840973E+01  0.72381110955E+01  0.51100000000E-03 0.  1.
         12    1    4    4    0    0  0.10708154611E+02  0.51288931548E+01 -0.92893814545E+01  0.15075235586E+02  0.00000000000E+00 0. -1.
</event>
<event>
 8    1  0.2450026E-006  0.9118800E+02  0.7816164E-02  0.1184000E+00
        -11   -1    0    0    0    0  0.00000000000E+00  0.00000000000E+00  0.45593999997E+02  0.45594000000E+02  0.51100000000E-03 0.  1.
         11   -1    0    0    0    0 -0.00000000000E+00 -0.00000000000E+00 -0.45593999997E+02  0.45594000000E+02  0.51100000000E-03 0. -1.
         23    2    1    2    0    0  0.00000000000E+00  0.00000000000E+00  0.00000000000E+00  0.91188000000E+02  0.91188000000E+02 0.  0.
    9900012    2    3    3    0    0  0.96871731455E+01  0.28271098638E+02 -0.21510082602E+02  0.54367082096E+02  0.39999995255E+02 0.  0.
        -12    1    3    3    0    0 -0.96871731455E+01 -0.28271098638E+02  0.21510082602E+02  0.36820917904E+02  0.00000000000E+00 0.  1.
         11    1    4    4    0    0  0.13506151701E+02  0.10383780535E+02 -0.25571599328E+02  0.30726954363E+02  0.51100000000E-03 0. -1.
        -11    1    4    4    0    0 -0.76195475725E+01  0.67922975514E+01 -0.20561479958E+01  0.10412519199E+02  0.51100000000E-03 0.  1.
         12    1    4    4    0    0  0.38005690174E+01  0.11095020551E+02  0.61176647219E+01  0.13227608534E+02  0.00000000000E+00 0. -1.
</event>
<event>
 8    1  0.2450026E-006  0.9118800E+02  0.7816164E-02  0.1184000E+00
        -11   -1    0    0    0    0  0.00000000000E+00  0.00000000000E+00  0.45593999997E+02  0.45594000000E+02  0.51100000000E-03 0.  1.
         11   -1    0    0    0    0 -0.00000000000E+00 -0.00000000000E+00 -0.45593999997E+02  0.45594000000E+02  0.51100000000E-03 0. -1.
         23    2    1    2    0    0 -0.35527136788E-14  0.00000000000E+00 -0.35527136788E-14  0.91188000000E+02  0.91188000000E+02 0.  0.
    9900012    2    3    3    0    0  0.23340027244E+02  0.19826368225E+02  0.20443526498E+02  0.54367088490E+02  0.40000009831E+02 0.  0.
        -12    1    3    3    0    0 -0.23340027244E+02 -0.19826368225E+02 -0.20443526498E+02  0.36820911510E+02  0.00000000000E+00 0.  1.
         11    1    4    4    0    0  0.20065062769E+02  0.72553718911E+01 -0.27846871245E+01  0.21517473083E+02  0.51100000000E-03 0. -1.
        -11    1    4    4    0    0  0.10148305792E+02  0.10196435598E+02  0.20581827134E+02  0.25111093520E+02  0.51100000000E-03 0.  1.
        -12    1    4    4    0    0 -0.68733413172E+01  0.23745607367E+01  0.26463864883E+01  0.77385218873E+01  0.00000000000E+00 0.  1.
</event>
<event>
 8    1  0.2450026E-006  0.9118800E+02  0.7816164E-02  0.1184000E+00
        -11   -1    0    0    0    0  0.00000000000E+00  0.00000000000E+00  0.45593999997E+02  0.45594000000E+02  0.51100000000E-03 0. -1.
         11   -1    0    0    0    0 -0.00000000000E+00 -0.00000000000E+00 -0.45593999997E+02  0.45594000000E+02  0.51100000000E-03 0.  1.
         23    2    1    2    0    0  0.00000000000E+00  0.00000000000E+00  0.00000000000E+00  0.91188000000E+02  0.91188000000E+02 0.  0.
    9900012    2    3    3    0    0 -0.15317082037E+02  0.24126312954E+02 -0.23218282094E+02  0.54367073854E+02  0.39999976464E+02 0.  0.
         12    1    3    3    0    0  0.15317082037E+02 -0.24126312954E+02  0.23218282094E+02  0.36820926146E+02  0.00000000000E+00 0. -1.
         11    1    4    4    0    0 -0.71848692587E+01  0.40845415618E+01  0.53697149740E+01  0.98559456774E+01  0.51100000000E-03 0. -1.
        -11    1    4    4    0    0 -0.16644061042E+02  0.88493774942E+01 -0.10424379581E+02  0.21540750681E+02  0.51100000000E-03 0.  1.
        -12    1    4    4    0    0  0.85118482640E+01  0.11192393898E+02 -0.18163617487E+02  0.22970377495E+02  0.00000000000E+00 0.  1.
</event>
<event>
 8    1  0.2450026E-006  0.9118800E+02  0.7816164E-02  0.1184000E+00
        -11   -1    0    0    0    0  0.00000000000E+00  0.00000000000E+00  0.45593999997E+02  0.45594000000E+02  0.51100000000E-03 0.  1.
         11   -1    0    0    0    0 -0.00000000000E+00 -0.00000000000E+00 -0.45593999997E+02  0.45594000000E+02  0.51100000000E-03 0. -1.
         23    2    1    2    0    0  0.00000000000E+00  0.35527136788E-14  0.88817841970E-15  0.91188000000E+02  0.91188000000E+02 0.  0.
    9900012    2    3    3    0    0 -0.32379168692E+02 -0.16388533714E+02  0.62277863431E+01  0.54367083048E+02  0.39999997424E+02 0.  0.
        -12    1    3    3    0    0  0.32379168692E+02  0.16388533714E+02 -0.62277863431E+01  0.36820916952E+02  0.00000000000E+00 0.  1.
         11    1    4    4    0    0 -0.29058471628E+02 -0.12097570401E+02 -0.35541445214E+01  0.31676141281E+02  0.51100000000E-03 0. -1.
        -11    1    4    4    0    0  0.66445036244E+01  0.37837464910E+01  0.38025732962E+01  0.85396563079E+01  0.51100000000E-03 0.  1.
        -12    1    4    4    0    0 -0.99652006888E+01 -0.80747098046E+01  0.59793575683E+01  0.14151285458E+02  0.00000000000E+00 0.  1.
</event>
<event>
 8    1  0.2450026E-006  0.9118800E+02  0.7816164E-02  0.1184000E+00
        -11   -1    0    0    0    0  0.00000000000E+00  0.00000000000E+00  0.45593999997E+02  0.45594000000E+02  0.51100000000E-03 0. -1.
         11   -1    0    0    0    0 -0.00000000000E+00 -0.00000000000E+00 -0.45593999997E+02  0.45594000000E+02  0.51100000000E-03 0.  1.
         23    2    1    2    0    0  0.00000000000E+00  0.17763568394E-14  0.35527136788E-14  0.91188000000E+02  0.91188000000E+02 0.  0.
    9900012    2    3    3    0    0 -0.11213020413E+02  0.15252593898E+02  0.31581745432E+02  0.54367080784E+02  0.39999992263E+02 0.  0.
        -12    1    3    3    0    0  0.11213020413E+02 -0.15252593898E+02 -0.31581745432E+02  0.36820919216E+02  0.00000000000E+00 0.  1.
         11    1    4    4    0    0 -0.74515281242E+00 -0.42448838338E+01  0.59432246264E+01  0.73414038642E+01  0.51100000000E-03 0.  1.
        -11    1    4    4    0    0 -0.58990153077E+00 -0.47899257448E+01  0.19512157071E+02  0.20100140454E+02  0.51100000000E-03 0. -1.
        -12    1    4    4    0    0 -0.98779660702E+01  0.24287403477E+02  0.61263637344E+01  0.26925536465E+02  0.00000000000E+00 0.  1.
</event>
<event>
 8    1  0.2450026E-006  0.9118800E+02  0.7816164E-02  0.1184000E+00
        -11   -1    0    0    0    0  0.00000000000E+00  0.00000000000E+00  0.45593999997E+02  0.45594000000E+02  0.51100000000E-03 0. -1.
         11   -1    0    0    0    0 -0.00000000000E+00 -0.00000000000E+00 -0.45593999997E+02  0.45594000000E+02  0.51100000000E-03 0.  1.
         23    2    1    2    0    0 -0.71054273576E-14 -0.13322676296E-14 -0.35527136788E-14  0.91188000000E+02  0.91188000000E+02 0.  0.
    9900012    2    3    3    0    0  0.26828598287E+02 -0.24621191819E+01  0.25098664717E+02  0.54367099855E+02  0.40000035739E+02 0.  0.
         12    1    3    3    0    0 -0.26828598287E+02  0.24621191819E+01 -0.25098664717E+02  0.36820900145E+02  0.00000000000E+00 0. -1.
         11    1    4    4    0    0 -0.55036559198E+01 -0.73995882190E+01  0.20171096982E+01  0.94399611276E+01  0.51100000000E-03 0. -1.
        -11    1    4    4    0    0  0.24518090020E+02  0.23050704368E+00  0.55128555464E+01  0.25131284254E+02  0.51100000000E-03 0.  1.
         12    1    4    4    0    0  0.78141641868E+01  0.47069619934E+01  0.17568699473E+02  0.19795854473E+02  0.00000000000E+00 0. -1.
</event>
<event>
 8    1  0.2450026E-006  0.9118800E+02  0.7816164E-02  0.1184000E+00
        -11   -1    0    0    0    0  0.00000000000E+00  0.00000000000E+00  0.45593999997E+02  0.45594000000E+02  0.51100000000E-03 0.  1.
         11   -1    0    0    0    0 -0.00000000000E+00 -0.00000000000E+00 -0.45593999997E+02  0.45594000000E+02  0.51100000000E-03 0. -1.
         23    2    1    2    0    0 -0.35527136788E-14  0.00000000000E+00  0.00000000000E+00  0.91188000000E+02  0.91188000000E+02 0.  0.
    9900012    2    3    3    0    0  0.27037264329E+02 -0.15757356105E+02 -0.19402952185E+02  0.54367048256E+02  0.39999918110E+02 0.  0.
        -12    1    3    3    0    0 -0.27037264329E+02  0.15757356105E+02  0.19402952185E+02  0.36820951744E+02  0.00000000000E+00 0.  1.
         11    1    4    4    0    0  0.30789198978E+01  0.40239957083E+01 -0.13802129417E+02  0.14702757085E+02  0.51100000000E-03 0. -1.
        -11    1    4    4    0    0 -0.41535613823E+01 -0.69113593832E+01  0.75897161434E+00  0.80990739503E+01  0.51100000000E-03 0.  1.
        -12    1    4    4    0    0  0.28111905813E+02 -0.12869992430E+02 -0.63597943825E+01  0.31565217221E+02  0.00000000000E+00 0.  1.
</event>
<event>
 8    1  0.2450026E-006  0.9118800E+02  0.7816164E-02  0.1184000E+00
        -11   -1    0    0    0    0  0.00000000000E+00  0.00000000000E+00  0.45593999997E+02  0.45594000000E+02  0.51100000000E-03 0.  1.
         11   -1    0    0    0    0 -0.00000000000E+00 -0.00000000000E+00 -0.45593999997E+02  0.45594000000E+02  0.51100000000E-03 0. -1.
         23    2    1    2    0    0  0.00000000000E+00  0.00000000000E+00  0.00000000000E+00  0.91188000000E+02  0.91188000000E+02 0.  0.
    9900012    2    3    3    0    0 -0.36820017830E+01 -0.27325402372E+02 -0.24403781376E+02  0.54367091573E+02  0.40000016859E+02 0.  0.
        -12    1    3    3    0    0  0.36820017830E+01  0.27325402372E+02  0.24403781376E+02  0.36820908427E+02  0.00000000000E+00 0.  1.
         11    1    4    4    0    0 -0.27060304653E+01  0.25980986789E+00  0.28209393925E+01  0.39176270068E+01  0.51100000000E-03 0. -1.
        -11    1    4    4    0    0 -0.51857611677E+01 -0.12125842075E+02  0.52835587523E+01  0.14207186852E+02  0.51100000000E-03 0.  1.
         12    1    4    4    0    0  0.42097898501E+01 -0.15459370165E+02 -0.32508279521E+02  0.36242277714E+02  0.00000000000E+00 0. -1.
</event>
<event>
 8    1  0.2450026E-006  0.9118800E+02  0.7816164E-02  0.1184000E+00
        -11   -1    0    0    0    0  0.00000000000E+00  0.00000000000E+00  0.45593999997E+02  0.45594000000E+02  0.51100000000E-03 0. -1.
         11   -1    0    0    0    0 -0.00000000000E+00 -0.00000000000E+00 -0.45593999997E+02  0.45594000000E+02  0.51100000000E-03 0.  1.
         23    2    1    2    0    0  0.17763568394E-14  0.00000000000E+00  0.00000000000E+00  0.91188000000E+02  0.91188000000E+02 0.  0.
    9900012    2    3    3    0    0 -0.23759763204E+01  0.26971791848E+02 -0.24953248217E+02  0.54366981335E+02  0.39999765548E+02 0.  0.
         12    1    3    3    0    0  0.23759763204E+01 -0.26971791848E+02  0.24953248217E+02  0.36821018665E+02  0.00000000000E+00 0. -1.
         11    1    4    4    0    0 -0.82565202883E+01  0.29585461677E+00 -0.18975789648E+02  0.20696334223E+02  0.51100000000E-03 0. -1.
        -11    1    4    4    0    0  0.76114971692E+01  0.24871513925E+02 -0.10859061366E+02  0.28185923935E+02  0.51100000000E-03 0.  1.
         12    1    4    4    0    0 -0.17309532013E+01  0.18044233071E+01  0.48816027974E+01  0.54847231769E+01  0.00000000000E+00 0. -1.
</event>
<event>
 8    1  0.2450026E-006  0.9118800E+02  0.7816164E-02  0.1184000E+00
        -11   -1    0    0    0    0  0.00000000000E+00  0.00000000000E+00  0.45593999997E+02  0.45594000000E+02  0.51100000000E-03 0. -1.
         11   -1    0    0    0    0 -0.00000000000E+00 -0.00000000000E+00 -0.45593999997E+02  0.45594000000E+02  0.51100000000E-03 0.  1.
         23    2    1    2    0    0  0.71054273576E-14  0.00000000000E+00  0.00000000000E+00  0.91188000000E+02  0.91188000000E+02 0.  0.
    9900012    2    3    3    0    0  0.36506559286E+02  0.23196710754E+01  0.42033730069E+01  0.54367107976E+02  0.40000054252E+02 0.  0.
         12    1    3    3    0    0 -0.36506559286E+02 -0.23196710754E+01 -0.42033730069E+01  0.36820892024E+02  0.00000000000E+00 0. -1.
         11    1    4    4    0    0  0.13344986130E+02 -0.12589052580E+02  0.13439137402E+02  0.22741664716E+02  0.51100000000E-03 0. -1.
        -11    1    4    4    0    0  0.33378400691E+01 -0.15481916837E+01 -0.38084311107E+01  0.52954906857E+01  0.51100000000E-03 0.  1.
        -12    1    4    4    0    0  0.19823733088E+02  0.16456915339E+02 -0.54273332848E+01  0.26329952574E+02  0.00000000000E+00 0.  1.
</event>
<event>
 8    1  0.2450026E-006  0.9118800E+02  0.7816164E-02  0.1184000E+00
        -11   -1    0    0    0    0  0.00000000000E+00  0.00000000000E+00  0.45593999997E+02  0.45594000000E+02  0.51100000000E-03 0. -1.
         11   -1    0    0    0    0 -0.00000000000E+00 -0.00000000000E+00 -0.45593999997E+02  0.45594000000E+02  0.51100000000E-03 0.  1.
         23    2    1    2    0    0  0.35527136788E-14  0.35527136788E-14  0.66613381478E-15  0.91188000000E+02  0.91188000000E+02 0.  0.
    9900012    2    3    3    0    0 -0.28694722251E+02 -0.23005831470E+02  0.17676421840E+01  0.54367083043E+02  0.39999997413E+02 0.  0.
         12    1    3    3    0    0  0.28694722251E+02  0.23005831470E+02 -0.17676421840E+01  0.36820916957E+02  0.00000000000E+00 0. -1.
         11    1    4    4    0    0 -0.10684462157E+02 -0.36833224489E+01  0.69883278162E+01  0.13287637931E+02  0.51100000000E-03 0. -1.
        -11    1    4    4    0    0 -0.21219752198E+02 -0.21039969042E+02  0.49385595862E+01  0.30287745900E+02  0.51100000000E-03 0.  1.
        -12    1    4    4    0    0  0.32094921046E+01  0.17174600211E+01 -0.10159245218E+02  0.10791699213E+02  0.00000000000E+00 0.  1.
</event>
<event>
 8    1  0.2450026E-006  0.9118800E+02  0.7816164E-02  0.1184000E+00
        -11   -1    0    0    0    0  0.00000000000E+00  0.00000000000E+00  0.45593999997E+02  0.45594000000E+02  0.51100000000E-03 0. -1.
         11   -1    0    0    0    0 -0.00000000000E+00 -0.00000000000E+00 -0.45593999997E+02  0.45594000000E+02  0.51100000000E-03 0.  1.
         23    2    1    2    0    0  0.00000000000E+00  0.00000000000E+00 -0.54817261841E-15  0.91188000000E+02  0.91188000000E+02 0.  0.
    9900012    2    3    3    0    0 -0.33415073214E+02  0.15466437255E+02 -0.53038276158E-01  0.54367073718E+02  0.39999976154E+02 0.  0.
         12    1    3    3    0    0  0.33415073214E+02 -0.15466437255E+02  0.53038276158E-01  0.36820926282E+02  0.00000000000E+00 0. -1.
         11    1    4    4    0    0 -0.20318391005E+02 -0.69731395635E+01  0.73999595643E+01  0.22720499339E+02  0.51100000000E-03 0. -1.
        -11    1    4    4    0    0 -0.11345007186E+02  0.19228028749E+02 -0.12365821993E+02  0.25521360297E+02  0.51100000000E-03 0.  1.
        -12    1    4    4    0    0 -0.17516750230E+01  0.32115480701E+01  0.49128241521E+01  0.61252140813E+01  0.00000000000E+00 0.  1.
</event>
<event>
 8    1  0.2450026E-006  0.9118800E+02  0.7816164E-02  0.1184000E+00
        -11   -1    0    0    0    0  0.00000000000E+00  0.00000000000E+00  0.45593999997E+02  0.45594000000E+02  0.51100000000E-03 0.  1.
         11   -1    0    0    0    0 -0.00000000000E+00 -0.00000000000E+00 -0.45593999997E+02  0.45594000000E+02  0.51100000000E-03 0. -1.
         23    2    1    2    0    0 -0.55511151231E-15  0.44408920985E-15 -0.71054273576E-14  0.91188000000E+02  0.91188000000E+02 0.  0.
    9900012    2    3    3    0    0  0.51441501364E+00  0.33768074728E+01  0.36662124493E+02  0.54367098004E+02  0.40000031519E+02 0.  0.
         12    1    3    3    0    0 -0.51441501364E+00 -0.33768074728E+01 -0.36662124493E+02  0.36820901996E+02  0.00000000000E+00 0. -1.
         11    1    4    4    0    0  0.11676136508E+02 -0.26399911000E+01  0.43823415014E+01  0.12747808991E+02  0.51100000000E-03 0. -1.
        -11    1    4    4    0    0 -0.34483737168E+01  0.14441669392E+02  0.18432875287E+02  0.23669051264E+02  0.51100000000E-03 0.  1.
         12    1    4    4    0    0 -0.77133477777E+01 -0.84248708197E+01  0.13846907705E+02  0.17950237749E+02  0.00000000000E+00 0. -1.
</event>
<event>
 8    1  0.2450026E-006  0.9118800E+02  0.7816164E-02  0.1184000E+00
        -11   -1    0    0    0    0  0.00000000000E+00  0.00000000000E+00  0.45593999997E+02  0.45594000000E+02  0.51100000000E-03 0.  1.
         11   -1    0    0    0    0 -0.00000000000E+00 -0.00000000000E+00 -0.45593999997E+02  0.45594000000E+02  0.51100000000E-03 0. -1.
         23    2    1    2    0    0 -0.35527136788E-14  0.35527136788E-14  0.17763568394E-14  0.91188000000E+02  0.91188000000E+02 0.  0.
    9900012    2    3    3    0    0  0.25053399093E+02 -0.24372596578E+02 -0.11579405182E+02  0.54367097045E+02  0.40000029334E+02 0.  0.
        -12    1    3    3    0    0 -0.25053399093E+02  0.24372596578E+02  0.11579405182E+02  0.36820902955E+02  0.00000000000E+00 0.  1.
         11    1    4    4    0    0 -0.15016414107E+01  0.54690662629E+01 -0.98120985525E+01  0.11333264798E+02  0.51100000000E-03 0. -1.
        -11    1    4    4    0    0  0.12036613937E+02 -0.17468434415E+02  0.65812675493E+01  0.22211243972E+02  0.51100000000E-03 0.  1.
         12    1    4    4    0    0  0.14518426566E+02 -0.12373228426E+02 -0.83485741788E+01  0.20822588275E+02  0.00000000000E+00 0. -1.
</event>
<event>
 8    1  0.2450026E-006  0.9118800E+02  0.7816164E-02  0.1184000E+00
        -11   -1    0    0    0    0  0.00000000000E+00  0.00000000000E+00  0.45593999997E+02  0.45594000000E+02  0.51100000000E-03 0.  1.
         11   -1    0    0    0    0 -0.00000000000E+00 -0.00000000000E+00 -0.45593999997E+02  0.45594000000E+02  0.51100000000E-03 0. -1.
         23    2    1    2    0    0 -0.88817841970E-15  0.00000000000E+00  0.00000000000E+00  0.91188000000E+02  0.91188000000E+02 0.  0.
    9900012    2    3    3    0    0  0.68080009336E+01  0.21164840093E+02 -0.29350881743E+02  0.54367169049E+02  0.40000193480E+02 0.  0.
        -12    1    3    3    0    0 -0.68080009336E+01 -0.21164840093E+02  0.29350881743E+02  0.36820830951E+02  0.00000000000E+00 0.  1.
         11    1    4    4    0    0  0.85501212523E+01  0.11853139671E+02 -0.68429561069E+01  0.16137767566E+02  0.51100000000E-03 0. -1.
        -11    1    4    4    0    0 -0.73708977422E+01 -0.60470434549E+01 -0.19347749131E+02  0.21569243491E+02  0.51100000000E-03 0.  1.
        -12    1    4    4    0    0  0.56287774235E+01  0.15358743877E+02 -0.31601765052E+01  0.16660157992E+02  0.00000000000E+00 0.  1.
</event>
<event>
 8    1  0.2450026E-006  0.9118800E+02  0.7816164E-02  0.1184000E+00
        -11   -1    0    0    0    0  0.00000000000E+00  0.00000000000E+00  0.45593999997E+02  0.45594000000E+02  0.51100000000E-03 0.  1.
         11   -1    0    0    0    0 -0.00000000000E+00 -0.00000000000E+00 -0.45593999997E+02  0.45594000000E+02  0.51100000000E-03 0. -1.
         23    2    1    2    0    0  0.00000000000E+00  0.00000000000E+00  0.00000000000E+00  0.91188000000E+02  0.91188000000E+02 0.  0.
    9900012    2    3    3    0    0  0.18605895985E+02 -0.25633537537E+02  0.18775497716E+02  0.54367123768E+02  0.40000090253E+02 0.  0.
        -12    1    3    3    0    0 -0.18605895985E+02  0.25633537537E+02 -0.18775497716E+02  0.36820876232E+02  0.00000000000E+00 0.  1.
         11    1    4    4    0    0 -0.44837333807E+01 -0.15547007772E+02  0.69608248292E+01  0.17614380439E+02  0.51100000000E-03 0. -1.
        -11    1    4    4    0    0  0.43512172775E+01  0.69422865996E+01 -0.12050205266E+01  0.82813350227E+01  0.51100000000E-03 0.  1.
         12    1    4    4    0    0  0.18738412088E+02 -0.17028816364E+02  0.13019693413E+02  0.28471408306E+02  0.00000000000E+00 0. -1.
</event>
<event>
 8    1  0.2450026E-006  0.9118800E+02  0.7816164E-02  0.1184000E+00
        -11   -1    0    0    0    0  0.00000000000E+00  0.00000000000E+00  0.45593999997E+02  0.45594000000E+02  0.51100000000E-03 0.  1.
         11   -1    0    0    0    0 -0.00000000000E+00 -0.00000000000E+00 -0.45593999997E+02  0.45594000000E+02  0.51100000000E-03 0. -1.
         23    2    1    2    0    0  0.71054273576E-14  0.00000000000E+00 -0.53290705182E-14  0.91188000000E+02  0.91188000000E+02 0.  0.
    9900012    2    3    3    0    0  0.35369792323E+02  0.62960986955E+01 -0.80694920449E+01  0.54367085161E+02  0.40000002241E+02 0.  0.
        -12    1    3    3    0    0 -0.35369792323E+02 -0.62960986955E+01  0.80694920449E+01  0.36820914839E+02  0.00000000000E+00 0.  1.
         11    1    4    4    0    0  0.28217986631E+02 -0.25666915387E+01 -0.14377074126E+02  0.31773305393E+02  0.51100000000E-03 0. -1.
        -11    1    4    4    0    0  0.11261467782E+02  0.56851853992E+01  0.10101410904E+02  0.16161079547E+02  0.51100000000E-03 0.  1.
        -12    1    4    4    0    0 -0.41096620900E+01  0.31776048349E+01 -0.37938288228E+01  0.64327002198E+01  0.00000000000E+00 0.  1.
</event>
<event>
 8    1  0.2450026E-006  0.9118800E+02  0.7816164E-02  0.1184000E+00
        -11   -1    0    0    0    0  0.00000000000E+00  0.00000000000E+00  0.45593999997E+02  0.45594000000E+02  0.51100000000E-03 0. -1.
         11   -1    0    0    0    0 -0.00000000000E+00 -0.00000000000E+00 -0.45593999997E+02  0.45594000000E+02  0.51100000000E-03 0.  1.
         23    2    1    2    0    0  0.71054273576E-14  0.17763568394E-14  0.35527136788E-14  0.91188000000E+02  0.91188000000E+02 0.  0.
    9900012    2    3    3    0    0 -0.28238609406E+02  0.11527477151E+02 -0.20627163077E+02  0.54367059663E+02  0.39999944115E+02 0.  0.
        -12    1    3    3    0    0  0.28238609406E+02 -0.11527477151E+02  0.20627163077E+02  0.36820940337E+02  0.00000000000E+00 0.  1.
         11    1    4    4    0    0 -0.11931734910E+02 -0.21823557555E+01 -0.37998284740E+01  0.12710927240E+02  0.51100000000E-03 0. -1.
        -11    1    4    4    0    0  0.67788434254E+01  0.85507820319E+01  0.23997052740E+01  0.11172608344E+02  0.51100000000E-03 0.  1.
        -12    1    4    4    0    0 -0.23085717922E+02  0.51590508748E+01 -0.19227039877E+02  0.30483524080E+02  0.00000000000E+00 0.  1.
</event>
<event>
 8    1  0.2450026E-006  0.9118800E+02  0.7816164E-02  0.1184000E+00
        -11   -1    0    0    0    0  0.00000000000E+00  0.00000000000E+00  0.45593999997E+02  0.45594000000E+02  0.51100000000E-03 0.  1.
         11   -1    0    0    0    0 -0.00000000000E+00 -0.00000000000E+00 -0.45593999997E+02  0.45594000000E+02  0.51100000000E-03 0. -1.
         23    2    1    2    0    0  0.00000000000E+00  0.00000000000E+00 -0.35527136788E-14  0.91188000000E+02  0.91188000000E+02 0.  0.
    9900012    2    3    3    0    0  0.20760215247E+02 -0.16738411134E+02 -0.25389395962E+02  0.54367049826E+02  0.39999921688E+02 0.  0.
        -12    1    3    3    0    0 -0.20760215247E+02  0.16738411134E+02  0.25389395962E+02  0.36820950174E+02  0.00000000000E+00 0.  1.
         11    1    4    4    0    0  0.19130307692E+02 -0.31689081886E+01 -0.63505187647E+01  0.20404404925E+02  0.51100000000E-03 0. -1.
        -11    1    4    4    0    0 -0.19058196669E+01 -0.48348237468E+01  0.55660354789E+01  0.76150128351E+01  0.51100000000E-03 0.  1.
         12    1    4    4    0    0  0.35357272224E+01 -0.87346791987E+01 -0.24604912676E+02  0.26347632066E+02  0.00000000000E+00 0. -1.
</event>
<event>
 8    1  0.2450026E-006  0.9118800E+02  0.7816164E-02  0.1184000E+00
        -11   -1    0    0    0    0  0.00000000000E+00  0.00000000000E+00  0.45593999997E+02  0.45594000000E+02  0.51100000000E-03 0.  1.
         11   -1    0    0    0    0 -0.00000000000E+00 -0.00000000000E+00 -0.45593999997E+02  0.45594000000E+02  0.51100000000E-03 0. -1.
         23    2    1    2    0    0  0.00000000000E+00  0.00000000000E+00  0.00000000000E+00  0.91188000000E+02  0.91188000000E+02 0.  0.
    9900012    2    3    3    0    0 -0.26063539995E+02  0.25964712141E+02  0.15184700720E+01  0.54367080064E+02  0.39999990621E+02 0.  0.
        -12    1    3    3    0    0  0.26063539995E+02 -0.25964712141E+02 -0.15184700720E+01  0.36820919936E+02  0.00000000000E+00 0.  1.
         11    1    4    4    0    0  0.86779803702E+00  0.15727469322E+02 -0.84210196513E+00  0.15773886670E+02  0.51100000000E-03 0. -1.
        -11    1    4    4    0    0  0.20460029526E+01 -0.52542208222E+01 -0.13561619148E+00  0.56401557198E+01  0.51100000000E-03 0.  1.
         12    1    4    4    0    0 -0.28977340984E+02  0.15491463641E+02  0.24961882287E+01  0.32953037674E+02  0.00000000000E+00 0. -1.
</event>
<event>
 8    1  0.2450026E-006  0.9118800E+02  0.7816164E-02  0.1184000E+00
        -11   -1    0    0    0    0  0.00000000000E+00  0.00000000000E+00  0.45593999997E+02  0.45594000000E+02  0.51100000000E-03 0.  1.
         11   -1    0    0    0    0 -0.00000000000E+00 -0.00000000000E+00 -0.45593999997E+02  0.45594000000E+02  0.51100000000E-03 0. -1.
         23    2    1    2    0    0 -0.88817841970E-15 -0.35527136788E-14  0.00000000000E+00  0.91188000000E+02  0.91188000000E+02 0.  0.
    9900012    2    3    3    0    0  0.51503742941E+01  0.19939958257E+02 -0.30522957665E+02  0.54367092416E+02  0.40000018781E+02 0.  0.
        -12    1    3    3    0    0 -0.51503742941E+01 -0.19939958257E+02  0.30522957665E+02  0.36820907584E+02  0.00000000000E+00 0.  1.
         11    1    4    4    0    0 -0.70247589340E+01 -0.19966228688E+01 -0.14813541078E+02  0.16515893572E+02  0.51100000000E-03 0. -1.
        -11    1    4    4    0    0 -0.49668156894E+01  0.15212199435E+02 -0.79659719816E+01  0.17875597322E+02  0.51100000000E-03 0.  1.
        -12    1    4    4    0    0  0.17141948917E+02  0.67243816908E+01 -0.77434446061E+01  0.19975601522E+02  0.00000000000E+00 0.  1.
</event>
<event>
 8    1  0.2450026E-006  0.9118800E+02  0.7816164E-02  0.1184000E+00
        -11   -1    0    0    0    0  0.00000000000E+00  0.00000000000E+00  0.45593999997E+02  0.45594000000E+02  0.51100000000E-03 0.  1.
         11   -1    0    0    0    0 -0.00000000000E+00 -0.00000000000E+00 -0.45593999997E+02  0.45594000000E+02  0.51100000000E-03 0. -1.
         23    2    1    2    0    0  0.00000000000E+00  0.88817841970E-15  0.00000000000E+00  0.91188000000E+02  0.91188000000E+02 0.  0.
    9900012    2    3    3    0    0 -0.28989426768E+02  0.73236914738E+01  0.21488679470E+02  0.54366991506E+02  0.39999788736E+02 0.  0.
         12    1    3    3    0    0  0.28989426768E+02 -0.73236914738E+01 -0.21488679470E+02  0.36821008494E+02  0.00000000000E+00 0. -1.
         11    1    4    4    0    0  0.15610968686E+01 -0.82442960435E+01  0.95191634647E+01  0.12689362238E+02  0.51100000000E-03 0. -1.
        -11    1    4    4    0    0 -0.21991153805E+01  0.53395363187E+01  0.99069135964E+01  0.11467069976E+02  0.51100000000E-03 0.  1.
        -12    1    4    4    0    0 -0.28351408256E+02  0.10228451199E+02  0.20626024087E+01  0.30210559292E+02  0.00000000000E+00 0.  1.
</event>
<event>
 8    1  0.2450026E-006  0.9118800E+02  0.7816164E-02  0.1184000E+00
        -11   -1    0    0    0    0  0.00000000000E+00  0.00000000000E+00  0.45593999997E+02  0.45594000000E+02  0.51100000000E-03 0.  1.
         11   -1    0    0    0    0 -0.00000000000E+00 -0.00000000000E+00 -0.45593999997E+02  0.45594000000E+02  0.51100000000E-03 0. -1.
         23    2    1    2    0    0 -0.35527136788E-14  0.35527136788E-14 -0.35527136788E-14  0.91188000000E+02  0.91188000000E+02 0.  0.
    9900012    2    3    3    0    0 -0.18304677177E+02  0.21452818712E+02 -0.23674789181E+02  0.54367078230E+02  0.39999986441E+02 0.  0.
        -12    1    3    3    0    0  0.18304677177E+02 -0.21452818712E+02  0.23674789181E+02  0.36820921770E+02  0.00000000000E+00 0.  1.
         11    1    4    4    0    0 -0.13848175227E+02  0.16842614409E-01 -0.14519657504E+02  0.20064712684E+02  0.51100000000E-03 0. -1.
        -11    1    4    4    0    0 -0.12539583740E+02  0.40215079599E+01 -0.33145912367E+00  0.13172833866E+02  0.51100000000E-03 0.  1.
         12    1    4    4    0    0  0.80830817897E+01  0.17414468138E+02 -0.88236725525E+01  0.21129531681E+02  0.00000000000E+00 0. -1.
</event>
<event>
 8    1  0.2450026E-006  0.9118800E+02  0.7816164E-02  0.1184000E+00
        -11   -1    0    0    0    0  0.00000000000E+00  0.00000000000E+00  0.45593999997E+02  0.45594000000E+02  0.51100000000E-03 0. -1.
         11   -1    0    0    0    0 -0.00000000000E+00 -0.00000000000E+00 -0.45593999997E+02  0.45594000000E+02  0.51100000000E-03 0.  1.
         23    2    1    2    0    0 -0.17763568394E-14  0.77715611724E-15  0.00000000000E+00  0.91188000000E+02  0.91188000000E+02 0.  0.
    9900012    2    3    3    0    0 -0.15737940047E+02  0.90763898355E+00  0.33275673028E+02  0.54367123029E+02  0.40000088569E+02 0.  0.
        -12    1    3    3    0    0  0.15737940047E+02 -0.90763898355E+00 -0.33275673028E+02  0.36820876971E+02  0.00000000000E+00 0.  1.
         11    1    4    4    0    0  0.43605547721E+01  0.52886804302E+01  0.10683997356E+02  0.12693792908E+02  0.51100000000E-03 0. -1.
        -11    1    4    4    0    0 -0.13075616829E+02  0.11081788604E+02  0.66633639115E+01  0.18389622427E+02  0.51100000000E-03 0.  1.
         12    1    4    4    0    0 -0.70228779904E+01 -0.15462830051E+02  0.15928311760E+02  0.23283707694E+02  0.00000000000E+00 0. -1.
</event>
<event>
 8    1  0.2450026E-006  0.9118800E+02  0.7816164E-02  0.1184000E+00
        -11   -1    0    0    0    0  0.00000000000E+00  0.00000000000E+00  0.45593999997E+02  0.45594000000E+02  0.51100000000E-03 0. -1.
         11   -1    0    0    0    0 -0.00000000000E+00 -0.00000000000E+00 -0.45593999997E+02  0.45594000000E+02  0.51100000000E-03 0.  1.
         23    2    1    2    0    0  0.00000000000E+00  0.00000000000E+00  0.00000000000E+00  0.91188000000E+02  0.91188000000E+02 0.  0.
    9900012    2    3    3    0    0  0.96440324094E+01  0.19872476581E+02 -0.29459406097E+02  0.54367091617E+02  0.40000016958E+02 0.  0.
         12    1    3    3    0    0 -0.96440324094E+01 -0.19872476581E+02  0.29459406097E+02  0.36820908383E+02  0.00000000000E+00 0. -1.
         11    1    4    4    0    0  0.15216214806E+02  0.70708994414E+01 -0.16223679108E+02  0.23339635301E+02  0.51100000000E-03 0. -1.
        -11    1    4    4    0    0  0.36202745802E+01  0.16583037609E+02 -0.39546350543E+01  0.17428214569E+02  0.51100000000E-03 0.  1.
        -12    1    4    4    0    0 -0.91924569772E+01 -0.37814604699E+01 -0.92810919352E+01  0.13599241746E+02  0.00000000000E+00 0.  1.
</event>
<event>
 8    1  0.2450026E-006  0.9118800E+02  0.7816164E-02  0.1184000E+00
        -11   -1    0    0    0    0  0.00000000000E+00  0.00000000000E+00  0.45593999997E+02  0.45594000000E+02  0.51100000000E-03 0.  1.
         11   -1    0    0    0    0 -0.00000000000E+00 -0.00000000000E+00 -0.45593999997E+02  0.45594000000E+02  0.51100000000E-03 0. -1.
         23    2    1    2    0    0  0.00000000000E+00  0.44408920985E-15  0.00000000000E+00  0.91188000000E+02  0.91188000000E+02 0.  0.
    9900012    2    3    3    0    0 -0.19701089916E+02 -0.28285823373E+01  0.30977985652E+02  0.54367225741E+02  0.40000322721E+02 0.  0.
         12    1    3    3    0    0  0.19701089916E+02  0.28285823373E+01 -0.30977985652E+02  0.36820774259E+02  0.00000000000E+00 0. -1.
         11    1    4    4    0    0 -0.18065681168E+01 -0.57624260531E+00 -0.61696738008E+00  0.19940894940E+01  0.51100000000E-03 0. -1.
        -11    1    4    4    0    0 -0.23169826951E+02 -0.14168833986E+02  0.27649986773E+02  0.38757173610E+02  0.51100000000E-03 0.  1.
         12    1    4    4    0    0  0.52753051519E+01  0.11916494254E+02  0.39449662597E+01  0.13615962637E+02  0.00000000000E+00 0. -1.
</event>
<event>
 8    1  0.2450026E-006  0.9118800E+02  0.7816164E-02  0.1184000E+00
        -11   -1    0    0    0    0  0.00000000000E+00  0.00000000000E+00  0.45593999997E+02  0.45594000000E+02  0.51100000000E-03 0.  1.
         11   -1    0    0    0    0 -0.00000000000E+00 -0.00000000000E+00 -0.45593999997E+02  0.45594000000E+02  0.51100000000E-03 0. -1.
         23    2    1    2    0    0  0.88817841970E-15  0.35527136788E-14 -0.35527136788E-14  0.91188000000E+02  0.91188000000E+02 0.  0.
    9900012    2    3    3    0    0  0.50487850202E+01 -0.19968267793E+02  0.30521466121E+02  0.54367057005E+02  0.39999938054E+02 0.  0.
         12    1    3    3    0    0 -0.50487850202E+01  0.19968267793E+02 -0.30521466121E+02  0.36820942995E+02  0.00000000000E+00 0. -1.
         11    1    4    4    0    0  0.19233560808E+01 -0.34349334774E+01  0.14030356480E+02  0.14572198524E+02  0.51100000000E-03 0. -1.
        -11    1    4    4    0    0 -0.78949455672E+01 -0.11628116095E+02  0.22336395010E+02  0.26390486765E+02  0.51100000000E-03 0.  1.
         12    1    4    4    0    0  0.11020374507E+02 -0.49052182209E+01 -0.58452853678E+01  0.13404371716E+02  0.00000000000E+00 0. -1.
</event>
<event>
 8    1  0.2450026E-006  0.9118800E+02  0.7816164E-02  0.1184000E+00
        -11   -1    0    0    0    0  0.00000000000E+00  0.00000000000E+00  0.45593999997E+02  0.45594000000E+02  0.51100000000E-03 0.  1.
         11   -1    0    0    0    0 -0.00000000000E+00 -0.00000000000E+00 -0.45593999997E+02  0.45594000000E+02  0.51100000000E-03 0. -1.
         23    2    1    2    0    0  0.00000000000E+00  0.00000000000E+00  0.00000000000E+00  0.91188000000E+02  0.91188000000E+02 0.  0.
    9900012    2    3    3    0    0 -0.49790134929E+01  0.22524398068E+02 -0.28699146077E+02  0.54367081092E+02  0.39999992964E+02 0.  0.
        -12    1    3    3    0    0  0.49790134929E+01 -0.22524398068E+02  0.28699146077E+02  0.36820918908E+02  0.00000000000E+00 0.  1.
         11    1    4    4    0    0 -0.10943785525E+02  0.13592011669E+02 -0.15280175161E+02  0.23194675596E+02  0.51100000000E-03 0. -1.
        -11    1    4    4    0    0 -0.10346923824E+02  0.36705952737E+01 -0.46944333456E+01  0.11940259921E+02  0.51100000000E-03 0.  1.
         12    1    4    4    0    0  0.16311695856E+02  0.52617911260E+01 -0.87245375704E+01  0.19232145574E+02  0.00000000000E+00 0. -1.
</event>
<event>
 8    1  0.2450026E-006  0.9118800E+02  0.7816164E-02  0.1184000E+00
        -11   -1    0    0    0    0  0.00000000000E+00  0.00000000000E+00  0.45593999997E+02  0.45594000000E+02  0.51100000000E-03 0.  1.
         11   -1    0    0    0    0 -0.00000000000E+00 -0.00000000000E+00 -0.45593999997E+02  0.45594000000E+02  0.51100000000E-03 0. -1.
         23    2    1    2    0    0 -0.35527136788E-14 -0.35527136788E-14 -0.17763568394E-14  0.91188000000E+02  0.91188000000E+02 0.  0.
    9900012    2    3    3    0    0  0.28337335286E+02  0.19959323026E+02  0.12425764772E+02  0.54367098641E+02  0.40000032971E+02 0.  0.
         12    1    3    3    0    0 -0.28337335286E+02 -0.19959323026E+02 -0.12425764772E+02  0.36820901359E+02  0.00000000000E+00 0. -1.
         11    1    4    4    0    0  0.61484271572E+01  0.21893969451E+01 -0.11439729955E+01  0.66261066974E+01  0.51100000000E-03 0. -1.
        -11    1    4    4    0    0 -0.51703247297E+01  0.12680242840E+02 -0.46692420157E+01  0.14467986644E+02  0.51100000000E-03 0.  1.
         12    1    4    4    0    0  0.27359232858E+02  0.50896832413E+01  0.18238979783E+02  0.33273005299E+02  0.00000000000E+00 0. -1.
</event>
<event>
 8    1  0.2450026E-006  0.9118800E+02  0.7816164E-02  0.1184000E+00
        -11   -1    0    0    0    0  0.00000000000E+00  0.00000000000E+00  0.45593999997E+02  0.45594000000E+02  0.51100000000E-03 0.  1.
         11   -1    0    0    0    0 -0.00000000000E+00 -0.00000000000E+00 -0.45593999997E+02  0.45594000000E+02  0.51100000000E-03 0. -1.
         23    2    1    2    0    0  0.55511151231E-15  0.71054273576E-14  0.35527136788E-14  0.91188000000E+02  0.91188000000E+02 0.  0.
    9900012    2    3    3    0    0  0.10223222617E+00  0.33802184699E+02  0.14600841197E+02  0.54367045293E+02  0.39999911355E+02 0.  0.
         12    1    3    3    0    0 -0.10223222617E+00 -0.33802184699E+02 -0.14600841197E+02  0.36820954707E+02  0.00000000000E+00 0. -1.
         11    1    4    4    0    0  0.10751312544E+02  0.23558548736E+01  0.72931837670E+01  0.13203458007E+02  0.51100000000E-03 0. -1.
        -11    1    4    4    0    0  0.21179277291E+01  0.92851127237E+01  0.11834252234E+02  0.15190406919E+02  0.51100000000E-03 0.  1.
         12    1    4    4    0    0 -0.12767008047E+02  0.22161217102E+02 -0.45265948044E+01  0.25973180368E+02  0.00000000000E+00 0. -1.
</event>
<event>
 8    1  0.2450026E-006  0.9118800E+02  0.7816164E-02  0.1184000E+00
        -11   -1    0    0    0    0  0.00000000000E+00  0.00000000000E+00  0.45593999997E+02  0.45594000000E+02  0.51100000000E-03 0.  1.
         11   -1    0    0    0    0 -0.00000000000E+00 -0.00000000000E+00 -0.45593999997E+02  0.45594000000E+02  0.51100000000E-03 0. -1.
         23    2    1    2    0    0  0.17763568394E-14  0.00000000000E+00  0.00000000000E+00  0.91188000000E+02  0.91188000000E+02 0.  0.
    9900012    2    3    3    0    0  0.15569784974E+02 -0.32420683238E+02 -0.78906524747E+01  0.54367064349E+02  0.39999954796E+02 0.  0.
         12    1    3    3    0    0 -0.15569784974E+02  0.32420683238E+02  0.78906524747E+01  0.36820935651E+02  0.00000000000E+00 0. -1.
         11    1    4    4    0    0  0.19071562787E+02 -0.11986317116E+02 -0.53585404478E+01  0.23154054961E+02  0.51100000000E-03 0.  1.
        -11    1    4    4    0    0  0.44658657397E+01 -0.79922922029E+01  0.87184753322E+01  0.12642488040E+02  0.51100000000E-03 0. -1.
         12    1    4    4    0    0 -0.79676435530E+01 -0.12442073919E+02 -0.11250587359E+02  0.18570521348E+02  0.00000000000E+00 0. -1.
</event>
<event>
 8    1  0.2450026E-006  0.9118800E+02  0.7816164E-02  0.1184000E+00
        -11   -1    0    0    0    0  0.00000000000E+00  0.00000000000E+00  0.45593999997E+02  0.45594000000E+02  0.51100000000E-03 0.  1.
         11   -1    0    0    0    0 -0.00000000000E+00 -0.00000000000E+00 -0.45593999997E+02  0.45594000000E+02  0.51100000000E-03 0. -1.
         23    2    1    2    0    0  0.44408920985E-15  0.00000000000E+00  0.00000000000E+00  0.91188000000E+02  0.91188000000E+02 0.  0.
    9900012    2    3    3    0    0  0.14992226320E+01  0.12545960392E+02  0.34585121635E+02  0.54367089784E+02  0.40000012780E+02 0.  0.
         12    1    3    3    0    0 -0.14992226320E+01 -0.12545960392E+02 -0.34585121635E+02  0.36820910216E+02  0.00000000000E+00 0. -1.
         11    1    4    4    0    0 -0.60644400323E+01 -0.79420721753E+01  0.24786273815E+02  0.26724769658E+02  0.51100000000E-03 0. -1.
        -11    1    4    4    0    0  0.35858853685E+01 -0.97811524231E+00  0.30001056723E+01  0.47766010520E+01  0.51100000000E-03 0.  1.
         12    1    4    4    0    0  0.39777772957E+01  0.21466147809E+02  0.67987421472E+01  0.22865719074E+02  0.00000000000E+00 0. -1.
</event>
<event>
 8    1  0.2450026E-006  0.9118800E+02  0.7816164E-02  0.1184000E+00
        -11   -1    0    0    0    0  0.00000000000E+00  0.00000000000E+00  0.45593999997E+02  0.45594000000E+02  0.51100000000E-03 0.  1.
         11   -1    0    0    0    0 -0.00000000000E+00 -0.00000000000E+00 -0.45593999997E+02  0.45594000000E+02  0.51100000000E-03 0. -1.
         23    2    1    2    0    0  0.88817841970E-15  0.00000000000E+00  0.00000000000E+00  0.91188000000E+02  0.91188000000E+02 0.  0.
    9900012    2    3    3    0    0 -0.60394340982E+01 -0.82459521495E+01 -0.35373819560E+02  0.54367114604E+02  0.40000069362E+02 0.  0.
        -12    1    3    3    0    0  0.60394340982E+01  0.82459521495E+01  0.35373819560E+02  0.36820885396E+02  0.00000000000E+00 0.  1.
         11    1    4    4    0    0  0.14852322221E+01 -0.31980984087E+01 -0.24277550264E+02  0.24532288830E+02  0.51100000000E-03 0. -1.
        -11    1    4    4    0    0  0.41090393463E+01  0.25165535400E-01  0.67700184055E+01  0.79194688664E+01  0.51100000000E-03 0.  1.
        -12    1    4    4    0    0 -0.11633705667E+02 -0.50730192762E+01 -0.17866287702E+02  0.21915356907E+02  0.00000000000E+00 0.  1.
</event>
<event>
 8    1  0.2450026E-006  0.9118800E+02  0.7816164E-02  0.1184000E+00
        -11   -1    0    0    0    0  0.00000000000E+00  0.00000000000E+00  0.45593999997E+02  0.45594000000E+02  0.51100000000E-03 0.  1.
         11   -1    0    0    0    0 -0.00000000000E+00 -0.00000000000E+00 -0.45593999997E+02  0.45594000000E+02  0.51100000000E-03 0. -1.
         23    2    1    2    0    0  0.17763568394E-14 -0.88817841970E-15  0.71054273576E-14  0.91188000000E+02  0.91188000000E+02 0.  0.
    9900012    2    3    3    0    0 -0.84077601430E+01  0.21554686014E+01  0.35783282268E+02  0.54367085218E+02  0.40000002372E+02 0.  0.
         12    1    3    3    0    0  0.84077601430E+01 -0.21554686014E+01 -0.35783282268E+02  0.36820914782E+02  0.00000000000E+00 0. -1.
         11    1    4    4    0    0 -0.22009541989E+01  0.88019240679E+01 -0.54546326553E+01  0.10586363131E+02  0.51100000000E-03 0. -1.
        -11    1    4    4    0    0  0.24748726807E+01  0.14170308442E+01  0.76702810552E+01  0.81832868045E+01  0.51100000000E-03 0.  1.
        -12    1    4    4    0    0 -0.86816786247E+01 -0.80634863107E+01  0.33567633868E+02  0.35597435283E+02  0.00000000000E+00 0.  1.
</event>
<event>
 8    1  0.2450026E-006  0.9118800E+02  0.7816164E-02  0.1184000E+00
        -11   -1    0    0    0    0  0.00000000000E+00  0.00000000000E+00  0.45593999997E+02  0.45594000000E+02  0.51100000000E-03 0.  1.
         11   -1    0    0    0    0 -0.00000000000E+00 -0.00000000000E+00 -0.45593999997E+02  0.45594000000E+02  0.51100000000E-03 0. -1.
         23    2    1    2    0    0  0.00000000000E+00 -0.35527136788E-14 -0.17763568394E-14  0.91188000000E+02  0.91188000000E+02 0.  0.
    9900012    2    3    3    0    0  0.21602770773E+02  0.29100716830E+02  0.64999861207E+01  0.54367065130E+02  0.39999956578E+02 0.  0.
         12    1    3    3    0    0 -0.21602770773E+02 -0.29100716830E+02 -0.64999861207E+01  0.36820934870E+02  0.00000000000E+00 0. -1.
         11    1    4    4    0    0  0.78473393383E+01 -0.11188205026E+01  0.22522510668E+01  0.82404568525E+01  0.51100000000E-03 0. -1.
        -11    1    4    4    0    0  0.12082634308E+02 -0.14865749211E+01 -0.48412893046E+01  0.13101070155E+02  0.51100000000E-03 0.  1.
        -12    1    4    4    0    0  0.16727971262E+01  0.31706112254E+02  0.90890243585E+01  0.33025538123E+02  0.00000000000E+00 0.  1.
</event>
<event>
 8    1  0.2450026E-006  0.9118800E+02  0.7816164E-02  0.1184000E+00
        -11   -1    0    0    0    0  0.00000000000E+00  0.00000000000E+00  0.45593999997E+02  0.45594000000E+02  0.51100000000E-03 0.  1.
         11   -1    0    0    0    0 -0.00000000000E+00 -0.00000000000E+00 -0.45593999997E+02  0.45594000000E+02  0.51100000000E-03 0. -1.
         23    2    1    2    0    0  0.35527136788E-14  0.17763568394E-14  0.00000000000E+00  0.91188000000E+02  0.91188000000E+02 0.  0.
    9900012    2    3    3    0    0  0.24445141595E+02 -0.15958269978E+02  0.22439881803E+02  0.54367087143E+02  0.40000006760E+02 0.  0.
         12    1    3    3    0    0 -0.24445141595E+02  0.15958269978E+02 -0.22439881803E+02  0.36820912857E+02  0.00000000000E+00 0. -1.
         11    1    4    4    0    0  0.14984345592E+02 -0.22813050844E+02  0.21246639223E+02  0.34588807151E+02  0.51100000000E-03 0. -1.
        -11    1    4    4    0    0  0.87314042606E+01  0.13062826940E+01  0.73286426258E+01  0.11474005309E+02  0.51100000000E-03 0.  1.
        -12    1    4    4    0    0  0.72939174238E+00  0.55484981716E+01 -0.61354000459E+01  0.83042746822E+01  0.00000000000E+00 0.  1.
</event>
<event>
 8    1  0.2450026E-006  0.9118800E+02  0.7816164E-02  0.1184000E+00
        -11   -1    0    0    0    0  0.00000000000E+00  0.00000000000E+00  0.45593999997E+02  0.45594000000E+02  0.51100000000E-03 0. -1.
         11   -1    0    0    0    0 -0.00000000000E+00 -0.00000000000E+00 -0.45593999997E+02  0.45594000000E+02  0.51100000000E-03 0.  1.
         23    2    1    2    0    0  0.17763568394E-14  0.00000000000E+00  0.00000000000E+00  0.91188000000E+02  0.91188000000E+02 0.  0.
    9900012    2    3    3    0    0 -0.12133402532E+02  0.30810061702E+02 -0.16102805320E+02  0.54367086130E+02  0.40000004450E+02 0.  0.
         12    1    3    3    0    0  0.12133402532E+02 -0.30810061702E+02  0.16102805320E+02  0.36820913870E+02  0.00000000000E+00 0. -1.
         11    1    4    4    0    0  0.85575605227E+01  0.11151158738E+01 -0.12075153985E+02  0.14841990080E+02  0.51100000000E-03 0. -1.
        -11    1    4    4    0    0 -0.47559828487E+01 -0.64227711726E+00 -0.19947882750E+01  0.51972178399E+01  0.51100000000E-03 0.  1.
        -12    1    4    4    0    0 -0.15934980206E+02  0.30337222945E+02 -0.20328630604E+01  0.34327878210E+02  0.00000000000E+00 0.  1.
</event>
<event>
 8    1  0.2450026E-006  0.9118800E+02  0.7816164E-02  0.1184000E+00
        -11   -1    0    0    0    0  0.00000000000E+00  0.00000000000E+00  0.45593999997E+02  0.45594000000E+02  0.51100000000E-03 0.  1.
         11   -1    0    0    0    0 -0.00000000000E+00 -0.00000000000E+00 -0.45593999997E+02  0.45594000000E+02  0.51100000000E-03 0. -1.
         23    2    1    2    0    0  0.71054273576E-14  0.35527136788E-14  0.17763568394E-14  0.91188000000E+02  0.91188000000E+02 0.  0.
    9900012    2    3    3    0    0 -0.24200034479E+02 -0.25924547628E+02 -0.99023322645E+01  0.54367081723E+02  0.39999994403E+02 0.  0.
        -12    1    3    3    0    0  0.24200034479E+02  0.25924547628E+02  0.99023322645E+01  0.36820918277E+02  0.00000000000E+00 0.  1.
         11    1    4    4    0    0 -0.83190629135E+01 -0.77421698176E+01 -0.46106166332E-01  0.11364423755E+02  0.51100000000E-03 0. -1.
        -11    1    4    4    0    0  0.91028527839E+01 -0.30582332837E+01 -0.99075616365E+01  0.13797626516E+02  0.51100000000E-03 0.  1.
        -12    1    4    4    0    0 -0.24983824349E+02 -0.15124144527E+02  0.51335538373E-01  0.29205031452E+02  0.00000000000E+00 0.  1.
</event>
<event>
 8    1  0.2450026E-006  0.9118800E+02  0.7816164E-02  0.1184000E+00
        -11   -1    0    0    0    0  0.00000000000E+00  0.00000000000E+00  0.45593999997E+02  0.45594000000E+02  0.51100000000E-03 0. -1.
         11   -1    0    0    0    0 -0.00000000000E+00 -0.00000000000E+00 -0.45593999997E+02  0.45594000000E+02  0.51100000000E-03 0.  1.
         23    2    1    2    0    0  0.00000000000E+00  0.00000000000E+00  0.35527136788E-14  0.91188000000E+02  0.91188000000E+02 0.  0.
    9900012    2    3    3    0    0  0.21992380889E+02  0.61106066131E+01 -0.28892349148E+02  0.54367188363E+02  0.40000237510E+02 0.  0.
         12    1    3    3    0    0 -0.21992380889E+02 -0.61106066131E+01  0.28892349148E+02  0.36820811637E+02  0.00000000000E+00 0. -1.
         11    1    4    4    0    0  0.14300859072E+02 -0.11916465785E+02 -0.28672864279E+02  0.34185521398E+02  0.51100000000E-03 0. -1.
        -11    1    4    4    0    0  0.40828349967E+01  0.46751947044E+01 -0.11769601498E+01  0.63176120956E+01  0.51100000000E-03 0.  1.
         12    1    4    4    0    0  0.36086868205E+01  0.13351877694E+02  0.95747528149E+00  0.13864054870E+02  0.00000000000E+00 0. -1.
</event>
<event>
 8    1  0.2450026E-006  0.9118800E+02  0.7816164E-02  0.1184000E+00
        -11   -1    0    0    0    0  0.00000000000E+00  0.00000000000E+00  0.45593999997E+02  0.45594000000E+02  0.51100000000E-03 0.  1.
         11   -1    0    0    0    0 -0.00000000000E+00 -0.00000000000E+00 -0.45593999997E+02  0.45594000000E+02  0.51100000000E-03 0. -1.
         23    2    1    2    0    0  0.00000000000E+00  0.00000000000E+00  0.00000000000E+00  0.91188000000E+02  0.91188000000E+02 0.  0.
    9900012    2    3    3    0    0 -0.32857498660E+02  0.12122787711E+02 -0.11366736014E+02  0.54367083558E+02  0.39999998586E+02 0.  0.
        -12    1    3    3    0    0  0.32857498660E+02 -0.12122787711E+02  0.11366736014E+02  0.36820916442E+02  0.00000000000E+00 0.  1.
         11    1    4    4    0    0 -0.11353228062E+02 -0.42872068899E+01 -0.50823436435E+01  0.13156980942E+02  0.51100000000E-03 0. -1.
        -11    1    4    4    0    0 -0.26603896208E+02  0.38134545875E+01 -0.63690092077E+01  0.27620173929E+02  0.51100000000E-03 0.  1.
        -12    1    4    4    0    0  0.50996256104E+01  0.12596540014E+02  0.84616837580E-01  0.13589928686E+02  0.00000000000E+00 0.  1.
</event>
<event>
 8    1  0.2450026E-006  0.9118800E+02  0.7816164E-02  0.1184000E+00
        -11   -1    0    0    0    0  0.00000000000E+00  0.00000000000E+00  0.45593999997E+02  0.45594000000E+02  0.51100000000E-03 0.  1.
         11   -1    0    0    0    0 -0.00000000000E+00 -0.00000000000E+00 -0.45593999997E+02  0.45594000000E+02  0.51100000000E-03 0. -1.
         23    2    1    2    0    0  0.35527136788E-14  0.00000000000E+00 -0.35527136788E-14  0.91188000000E+02  0.91188000000E+02 0.  0.
    9900012    2    3    3    0    0  0.19846179408E+02  0.17559489271E+02 -0.25565370829E+02  0.54366882606E+02  0.39999540473E+02 0.  0.
        -12    1    3    3    0    0 -0.19846179408E+02 -0.17559489271E+02  0.25565370829E+02  0.36821117394E+02  0.00000000000E+00 0.  1.
         11    1    4    4    0    0  0.34277871000E+01  0.65851565165E+01 -0.13161172561E+02  0.15110608002E+02  0.51100000000E-03 0. -1.
        -11    1    4    4    0    0  0.12563625733E+02  0.17727429427E+02  0.30645964836E+01  0.21943067186E+02  0.51100000000E-03 0.  1.
         12    1    4    4    0    0  0.38547665745E+01 -0.67530966727E+01 -0.15468794752E+02  0.17313207418E+02  0.00000000000E+00 0. -1.
</event>
<event>
 8    1  0.2450026E-006  0.9118800E+02  0.7816164E-02  0.1184000E+00
        -11   -1    0    0    0    0  0.00000000000E+00  0.00000000000E+00  0.45593999997E+02  0.45594000000E+02  0.51100000000E-03 0. -1.
         11   -1    0    0    0    0 -0.00000000000E+00 -0.00000000000E+00 -0.45593999997E+02  0.45594000000E+02  0.51100000000E-03 0.  1.
         23    2    1    2    0    0  0.00000000000E+00 -0.17763568394E-14  0.55511151231E-15  0.91188000000E+02  0.91188000000E+02 0.  0.
    9900012    2    3    3    0    0  0.34021427192E+02  0.14080775069E+02  0.23180342254E+00  0.54367089262E+02  0.40000011591E+02 0.  0.
        -12    1    3    3    0    0 -0.34021427192E+02 -0.14080775069E+02 -0.23180342254E+00  0.36820910738E+02  0.00000000000E+00 0.  1.
         11    1    4    4    0    0  0.25553260867E+01 -0.20904281908E+01  0.10316320902E+02  0.10831715406E+02  0.51100000000E-03 0. -1.
        -11    1    4    4    0    0  0.22973311454E+02  0.17215581851E+01 -0.13105633723E+02  0.26504611623E+02  0.51100000000E-03 0.  1.
        -12    1    4    4    0    0  0.84927896512E+01  0.14449645075E+02  0.30211162438E+01  0.17030762232E+02  0.00000000000E+00 0.  1.
</event>
<event>
 8    1  0.2450026E-006  0.9118800E+02  0.7816164E-02  0.1184000E+00
        -11   -1    0    0    0    0  0.00000000000E+00  0.00000000000E+00  0.45593999997E+02  0.45594000000E+02  0.51100000000E-03 0. -1.
         11   -1    0    0    0    0 -0.00000000000E+00 -0.00000000000E+00 -0.45593999997E+02  0.45594000000E+02  0.51100000000E-03 0.  1.
         23    2    1    2    0    0  0.00000000000E+00  0.00000000000E+00  0.00000000000E+00  0.91188000000E+02  0.91188000000E+02 0.  0.
    9900012    2    3    3    0    0  0.18049034642E+02  0.26555365830E+02 -0.18022906477E+02  0.54367078451E+02  0.39999986944E+02 0.  0.
         12    1    3    3    0    0 -0.18049034642E+02 -0.26555365830E+02  0.18022906477E+02  0.36820921549E+02  0.00000000000E+00 0. -1.
         11    1    4    4    0    0  0.16761435869E+02  0.27438331262E+02 -0.11237414966E+02  0.34060053585E+02  0.51100000000E-03 0. -1.
        -11    1    4    4    0    0  0.93790427436E+01  0.34580273432E+00 -0.76078307300E+01  0.12081602170E+02  0.51100000000E-03 0.  1.
        -12    1    4    4    0    0 -0.80914439706E+01 -0.12287681663E+01  0.82233921893E+00  0.82254226960E+01  0.00000000000E+00 0.  1.
</event>
<event>
 8    1  0.2450026E-006  0.9118800E+02  0.7816164E-02  0.1184000E+00
        -11   -1    0    0    0    0  0.00000000000E+00  0.00000000000E+00  0.45593999997E+02  0.45594000000E+02  0.51100000000E-03 0. -1.
         11   -1    0    0    0    0 -0.00000000000E+00 -0.00000000000E+00 -0.45593999997E+02  0.45594000000E+02  0.51100000000E-03 0.  1.
         23    2    1    2    0    0  0.44408920985E-15  0.71054273576E-14 -0.44408920985E-15  0.91188000000E+02  0.91188000000E+02 0.  0.
    9900012    2    3    3    0    0  0.24423035289E+01 -0.36659676139E+02  0.24242065946E+01  0.54367170586E+02  0.40000196984E+02 0.  0.
         12    1    3    3    0    0 -0.24423035289E+01  0.36659676139E+02 -0.24242065946E+01  0.36820829414E+02  0.00000000000E+00 0. -1.
         11    1    4    4    0    0  0.52857971228E+01  0.35501155856E+01  0.81526933858E+01  0.10344533900E+02  0.51100000000E-03 0. -1.
        -11    1    4    4    0    0  0.65467087875E+01 -0.96095751976E+01 -0.10697312622E+01  0.11676799932E+02  0.51100000000E-03 0.  1.
        -12    1    4    4    0    0 -0.93902023814E+01 -0.30600216527E+02 -0.46587555290E+01  0.32345836754E+02  0.00000000000E+00 0.  1.
</event>
<event>
 8    1  0.2450026E-006  0.9118800E+02  0.7816164E-02  0.1184000E+00
        -11   -1    0    0    0    0  0.00000000000E+00  0.00000000000E+00  0.45593999997E+02  0.45594000000E+02  0.51100000000E-03 0.  1.
         11   -1    0    0    0    0 -0.00000000000E+00 -0.00000000000E+00 -0.45593999997E+02  0.45594000000E+02  0.51100000000E-03 0. -1.
         23    2    1    2    0    0 -0.35527136788E-14  0.00000000000E+00 -0.17763568394E-14  0.91188000000E+02  0.91188000000E+02 0.  0.
    9900012    2    3    3    0    0 -0.17157361544E+02  0.32031172987E+02 -0.59506182734E+01  0.54367069051E+02  0.39999965516E+02 0.  0.
         12    1    3    3    0    0  0.17157361544E+02 -0.32031172987E+02  0.59506182734E+01  0.36820930949E+02  0.00000000000E+00 0. -1.
         11    1    4    4    0    0 -0.20142266968E+02  0.19436473963E+02 -0.47185302767E+01  0.28385770502E+02  0.51100000000E-03 0. -1.
        -11    1    4    4    0    0 -0.58258249349E+01  0.42315904902E+01  0.79704868999E+01  0.10741287443E+02  0.51100000000E-03 0.  1.
         12    1    4    4    0    0  0.88107303590E+01  0.83631085335E+01 -0.92025748966E+01  0.15240011107E+02  0.00000000000E+00 0. -1.
</event>
<event>
 8    1  0.2450026E-006  0.9118800E+02  0.7816164E-02  0.1184000E+00
        -11   -1    0    0    0    0  0.00000000000E+00  0.00000000000E+00  0.45593999997E+02  0.45594000000E+02  0.51100000000E-03 0. -1.
         11   -1    0    0    0    0 -0.00000000000E+00 -0.00000000000E+00 -0.45593999997E+02  0.45594000000E+02  0.51100000000E-03 0.  1.
         23    2    1    2    0    0  0.00000000000E+00  0.00000000000E+00  0.00000000000E+00  0.91188000000E+02  0.91188000000E+02 0.  0.
    9900012    2    3    3    0    0 -0.25397084437E+02 -0.13657827614E+02  0.22896126040E+02  0.54367071974E+02  0.39999972180E+02 0.  0.
        -12    1    3    3    0    0  0.25397084437E+02  0.13657827614E+02 -0.22896126040E+02  0.36820928026E+02  0.00000000000E+00 0.  1.
         11    1    4    4    0    0 -0.14889398024E+02 -0.13164040272E+02  0.21573505458E+02  0.29332614405E+02  0.51100000000E-03 0. -1.
        -11    1    4    4    0    0  0.50861437422E+01  0.56686431936E+01 -0.21451949423E+01  0.79122838311E+01  0.51100000000E-03 0.  1.
        -12    1    4    4    0    0 -0.15593830156E+02 -0.61624305351E+01  0.34678155238E+01  0.17122173738E+02  0.00000000000E+00 0.  1.
</event>
<event>
 8    1  0.2450026E-006  0.9118800E+02  0.7816164E-02  0.1184000E+00
        -11   -1    0    0    0    0  0.00000000000E+00  0.00000000000E+00  0.45593999997E+02  0.45594000000E+02  0.51100000000E-03 0.  1.
         11   -1    0    0    0    0 -0.00000000000E+00 -0.00000000000E+00 -0.45593999997E+02  0.45594000000E+02  0.51100000000E-03 0. -1.
         23    2    1    2    0    0  0.71054273576E-14  0.00000000000E+00  0.88817841970E-15  0.91188000000E+02  0.91188000000E+02 0.  0.
    9900012    2    3    3    0    0 -0.25735500897E+02  0.26284594346E+02 -0.16073522155E+01  0.54367088991E+02  0.40000010973E+02 0.  0.
        -12    1    3    3    0    0  0.25735500897E+02 -0.26284594346E+02  0.16073522155E+01  0.36820911009E+02  0.00000000000E+00 0.  1.
         11    1    4    4    0    0 -0.20919282248E+02  0.15407404019E+02  0.53139494559E-02  0.25980848655E+02  0.51100000000E-03 0. -1.
        -11    1    4    4    0    0  0.64402641345E+01  0.93289480287E+01  0.76926113660E+01  0.13699727856E+02  0.51100000000E-03 0.  1.
        -12    1    4    4    0    0 -0.11256482784E+02  0.15482422987E+01 -0.93052775310E+01  0.14686512480E+02  0.00000000000E+00 0.  1.
</event>
<event>
 8    1  0.2450026E-006  0.9118800E+02  0.7816164E-02  0.1184000E+00
        -11   -1    0    0    0    0  0.00000000000E+00  0.00000000000E+00  0.45593999997E+02  0.45594000000E+02  0.51100000000E-03 0.  1.
         11   -1    0    0    0    0 -0.00000000000E+00 -0.00000000000E+00 -0.45593999997E+02  0.45594000000E+02  0.51100000000E-03 0. -1.
         23    2    1    2    0    0 -0.35527136788E-14  0.00000000000E+00  0.00000000000E+00  0.91188000000E+02  0.91188000000E+02 0.  0.
    9900012    2    3    3    0    0 -0.23851109140E+02  0.25223072025E+02  0.12276024802E+02  0.54367088081E+02  0.40000008898E+02 0.  0.
         12    1    3    3    0    0  0.23851109140E+02 -0.25223072025E+02 -0.12276024802E+02  0.36820911919E+02  0.00000000000E+00 0. -1.
         11    1    4    4    0    0 -0.76692759005E+01  0.42616584785E+01  0.21584533523E+01  0.90353996569E+01  0.51100000000E-03 0.  1.
        -11    1    4    4    0    0  0.12854451468E+00 -0.94927704334E+01  0.37254605956E+01  0.10198444543E+02  0.51100000000E-03 0. -1.
         12    1    4    4    0    0 -0.16310377754E+02  0.30454183980E+02  0.63921108545E+01  0.35133243881E+02  0.00000000000E+00 0. -1.
</event>
<event>
 8    1  0.2450026E-006  0.9118800E+02  0.7816164E-02  0.1184000E+00
        -11   -1    0    0    0    0  0.00000000000E+00  0.00000000000E+00  0.45593999997E+02  0.45594000000E+02  0.51100000000E-03 0.  1.
         11   -1    0    0    0    0 -0.00000000000E+00 -0.00000000000E+00 -0.45593999997E+02  0.45594000000E+02  0.51100000000E-03 0. -1.
         23    2    1    2    0    0 -0.13322676296E-14  0.00000000000E+00 -0.35527136788E-14  0.91188000000E+02  0.91188000000E+02 0.  0.
    9900012    2    3    3    0    0 -0.31904240632E+01 -0.23492190388E+02 -0.28172989645E+02  0.54367093433E+02  0.40000021099E+02 0.  0.
        -12    1    3    3    0    0  0.31904240632E+01  0.23492190388E+02  0.28172989645E+02  0.36820906567E+02  0.00000000000E+00 0.  1.
         11    1    4    4    0    0  0.39171116688E+01  0.98610438801E+00 -0.86338734656E+00  0.41305694113E+01  0.51100000000E-03 0. -1.
        -11    1    4    4    0    0 -0.16483532292E+02 -0.20194946895E+02 -0.62760649744E+01  0.26812901908E+02  0.51100000000E-03 0.  1.
        -12    1    4    4    0    0  0.93759965603E+01 -0.42833478812E+01 -0.21033537324E+02  0.23423622113E+02  0.00000000000E+00 0.  1.
</event>
<event>
 8    1  0.2450026E-006  0.9118800E+02  0.7816164E-02  0.1184000E+00
        -11   -1    0    0    0    0  0.00000000000E+00  0.00000000000E+00  0.45593999997E+02  0.45594000000E+02  0.51100000000E-03 0.  1.
         11   -1    0    0    0    0 -0.00000000000E+00 -0.00000000000E+00 -0.45593999997E+02  0.45594000000E+02  0.51100000000E-03 0. -1.
         23    2    1    2    0    0 -0.17763568394E-14  0.00000000000E+00  0.35527136788E-14  0.91188000000E+02  0.91188000000E+02 0.  0.
    9900012    2    3    3    0    0  0.84222566271E+01 -0.21909863910E+02 -0.28369068824E+02  0.54367073760E+02  0.39999976250E+02 0.  0.
        -12    1    3    3    0    0 -0.84222566271E+01  0.21909863910E+02  0.28369068824E+02  0.36820926240E+02  0.00000000000E+00 0.  1.
         11    1    4    4    0    0  0.15092501004E+00 -0.81796683498E+01 -0.22345432901E+02  0.23795968660E+02  0.51100000000E-03 0. -1.
        -11    1    4    4    0    0  0.13608810898E+02 -0.23147704608E+01 -0.10343614897E+02  0.17249587408E+02  0.51100000000E-03 0.  1.
        -12    1    4    4    0    0 -0.53374792807E+01 -0.11415425099E+02  0.43199789744E+01  0.13321517692E+02  0.00000000000E+00 0.  1.
</event>
<event>
 8    1  0.2450026E-006  0.9118800E+02  0.7816164E-02  0.1184000E+00
        -11   -1    0    0    0    0  0.00000000000E+00  0.00000000000E+00  0.45593999997E+02  0.45594000000E+02  0.51100000000E-03 0. -1.
         11   -1    0    0    0    0 -0.00000000000E+00 -0.00000000000E+00 -0.45593999997E+02  0.45594000000E+02  0.51100000000E-03 0.  1.
         23    2    1    2    0    0  0.00000000000E+00  0.00000000000E+00 -0.22204460493E-15  0.91188000000E+02  0.91188000000E+02 0.  0.
    9900012    2    3    3    0    0 -0.29856282273E+02  0.21500660575E+02  0.14509137408E+01  0.54367066457E+02  0.39999959601E+02 0.  0.
         12    1    3    3    0    0  0.29856282273E+02 -0.21500660575E+02 -0.14509137408E+01  0.36820933543E+02  0.00000000000E+00 0. -1.
         11    1    4    4    0    0 -0.22000857330E+02  0.91453828810E+01 -0.14721835817E+01  0.23871386136E+02  0.51100000000E-03 0. -1.
        -11    1    4    4    0    0 -0.13765796892E+02  0.17565057064E+02  0.77777221647E+00  0.22330099051E+02  0.51100000000E-03 0.  1.
         12    1    4    4    0    0  0.59103719497E+01 -0.52097793697E+01  0.21453251060E+01  0.81655812699E+01  0.00000000000E+00 0. -1.
</event>
<event>
 8    1  0.2450026E-006  0.9118800E+02  0.7816164E-02  0.1184000E+00
        -11   -1    0    0    0    0  0.00000000000E+00  0.00000000000E+00  0.45593999997E+02  0.45594000000E+02  0.51100000000E-03 0. -1.
         11   -1    0    0    0    0 -0.00000000000E+00 -0.00000000000E+00 -0.45593999997E+02  0.45594000000E+02  0.51100000000E-03 0.  1.
         23    2    1    2    0    0  0.00000000000E+00 -0.17763568394E-14  0.53290705182E-14  0.91188000000E+02  0.91188000000E+02 0.  0.
    9900012    2    3    3    0    0  0.33149659107E+02 -0.82161358126E+01  0.13761299889E+02  0.54367107001E+02  0.40000052031E+02 0.  0.
        -12    1    3    3    0    0 -0.33149659107E+02  0.82161358126E+01 -0.13761299889E+02  0.36820892999E+02  0.00000000000E+00 0.  1.
         11    1    4    4    0    0 -0.23329343286E+01 -0.24001689966E+01 -0.37701142202E+01  0.50415429472E+01  0.51100000000E-03 0.  1.
        -11    1    4    4    0    0  0.26173610778E+02 -0.16927370578E+02  0.87405226443E+01  0.32372681573E+02  0.51100000000E-03 0. -1.
         12    1    4    4    0    0  0.93089826576E+01  0.11111403762E+02  0.87908914649E+01  0.16952882482E+02  0.00000000000E+00 0. -1.
</event>
<event>
 8    1  0.2450026E-006  0.9118800E+02  0.7816164E-02  0.1184000E+00
        -11   -1    0    0    0    0  0.00000000000E+00  0.00000000000E+00  0.45593999997E+02  0.45594000000E+02  0.51100000000E-03 0. -1.
         11   -1    0    0    0    0 -0.00000000000E+00 -0.00000000000E+00 -0.45593999997E+02  0.45594000000E+02  0.51100000000E-03 0.  1.
         23    2    1    2    0    0  0.00000000000E+00 -0.17763568394E-14  0.00000000000E+00  0.91188000000E+02  0.91188000000E+02 0.  0.
    9900012    2    3    3    0    0 -0.26776354004E+02 -0.12673155695E+02  0.21867822212E+02  0.54367032369E+02  0.39999881891E+02 0.  0.
        -12    1    3    3    0    0  0.26776354004E+02  0.12673155695E+02 -0.21867822212E+02  0.36820967631E+02  0.00000000000E+00 0.  1.
         11    1    4    4    0    0 -0.22746241434E+02 -0.12119176808E+02  0.82701937057E+01  0.27067730789E+02  0.51100000000E-03 0. -1.
        -11    1    4    4    0    0 -0.87717245969E+01  0.84656241662E+01  0.29113895158E+01  0.12533400740E+02  0.51100000000E-03 0.  1.
        -12    1    4    4    0    0  0.47416120271E+01 -0.90196030527E+01  0.10686238991E+02  0.14765900840E+02  0.00000000000E+00 0.  1.
</event>
<event>
 8    1  0.2450026E-006  0.9118800E+02  0.7816164E-02  0.1184000E+00
        -11   -1    0    0    0    0  0.00000000000E+00  0.00000000000E+00  0.45593999997E+02  0.45594000000E+02  0.51100000000E-03 0. -1.
         11   -1    0    0    0    0 -0.00000000000E+00 -0.00000000000E+00 -0.45593999997E+02  0.45594000000E+02  0.51100000000E-03 0.  1.
         23    2    1    2    0    0  0.00000000000E+00 -0.17763568394E-14  0.17763568394E-14  0.91188000000E+02  0.91188000000E+02 0.  0.
    9900012    2    3    3    0    0  0.34045260738E+02 -0.84736748835E+01  0.11175712931E+02  0.54367088764E+02  0.40000010455E+02 0.  0.
        -12    1    3    3    0    0 -0.34045260738E+02  0.84736748835E+01 -0.11175712931E+02  0.36820911236E+02  0.00000000000E+00 0.  1.
         11    1    4    4    0    0  0.26112172507E+02  0.28047412251E+01  0.20223459630E+02  0.33146650600E+02  0.51100000000E-03 0. -1.
        -11    1    4    4    0    0  0.38656368610E+01 -0.12430384393E+02 -0.22429341188E+01  0.13209404159E+02  0.51100000000E-03 0.  1.
         12    1    4    4    0    0  0.40674513700E+01  0.11519682845E+01 -0.68048125801E+01  0.80110340048E+01  0.00000000000E+00 0. -1.
</event>
<event>
 8    1  0.2450026E-006  0.9118800E+02  0.7816164E-02  0.1184000E+00
        -11   -1    0    0    0    0  0.00000000000E+00  0.00000000000E+00  0.45593999997E+02  0.45594000000E+02  0.51100000000E-03 0.  1.
         11   -1    0    0    0    0 -0.00000000000E+00 -0.00000000000E+00 -0.45593999997E+02  0.45594000000E+02  0.51100000000E-03 0. -1.
         23    2    1    2    0    0 -0.88817841970E-15  0.00000000000E+00  0.00000000000E+00  0.91188000000E+02  0.91188000000E+02 0.  0.
    9900012    2    3    3    0    0 -0.63197200041E+01 -0.29455492811E+02  0.21171078522E+02  0.54367089046E+02  0.40000011099E+02 0.  0.
         12    1    3    3    0    0  0.63197200041E+01  0.29455492811E+02 -0.21171078522E+02  0.36820910954E+02  0.00000000000E+00 0. -1.
         11    1    4    4    0    0 -0.68378430348E+01 -0.54801910692E+01 -0.23082975276E+01  0.90618336588E+01  0.51100000000E-03 0. -1.
        -11    1    4    4    0    0  0.48753605452E+01 -0.68852618324E+01 -0.64133318709E+01  0.10597490122E+02  0.51100000000E-03 0.  1.
        -12    1    4    4    0    0 -0.43572375145E+01 -0.17090039909E+02  0.29892707921E+02  0.34707765265E+02  0.00000000000E+00 0.  1.
</event>
<event>
 8    1  0.2450026E-006  0.9118800E+02  0.7816164E-02  0.1184000E+00
        -11   -1    0    0    0    0  0.00000000000E+00  0.00000000000E+00  0.45593999997E+02  0.45594000000E+02  0.51100000000E-03 0. -1.
         11   -1    0    0    0    0 -0.00000000000E+00 -0.00000000000E+00 -0.45593999997E+02  0.45594000000E+02  0.51100000000E-03 0.  1.
         23    2    1    2    0    0  0.35527136788E-14  0.00000000000E+00  0.00000000000E+00  0.91188000000E+02  0.91188000000E+02 0.  0.
    9900012    2    3    3    0    0 -0.25962534490E+02  0.15868315039E+02  0.20734671945E+02  0.54367038036E+02  0.39999894810E+02 0.  0.
        -12    1    3    3    0    0  0.25962534490E+02 -0.15868315039E+02 -0.20734671945E+02  0.36820961964E+02  0.00000000000E+00 0.  1.
         11    1    4    4    0    0 -0.24222689771E+02  0.19801208678E+02  0.84828904052E+01  0.32415829386E+02  0.51100000000E-03 0. -1.
        -11    1    4    4    0    0 -0.74759296014E-01  0.24882004526E+01  0.14678275615E+02  0.14887864378E+02  0.51100000000E-03 0.  1.
        -12    1    4    4    0    0 -0.16650854231E+01 -0.64210940919E+01 -0.24264940758E+01  0.70633442719E+01  0.00000000000E+00 0.  1.
</event>
<event>
 8    1  0.2450026E-006  0.9118800E+02  0.7816164E-02  0.1184000E+00
        -11   -1    0    0    0    0  0.00000000000E+00  0.00000000000E+00  0.45593999997E+02  0.45594000000E+02  0.51100000000E-03 0.  1.
         11   -1    0    0    0    0 -0.00000000000E+00 -0.00000000000E+00 -0.45593999997E+02  0.45594000000E+02  0.51100000000E-03 0. -1.
         23    2    1    2    0    0  0.71054273576E-14  0.00000000000E+00  0.88817841970E-15  0.91188000000E+02  0.91188000000E+02 0.  0.
    9900012    2    3    3    0    0 -0.36583689392E+02  0.18842257159E+01  0.37228152699E+01  0.54367136490E+02  0.40000119257E+02 0.  0.
         12    1    3    3    0    0  0.36583689392E+02 -0.18842257159E+01 -0.37228152699E+01  0.36820863510E+02  0.00000000000E+00 0. -1.
         11    1    4    4    0    0  0.21703073713E+01  0.44579454607E+01  0.76082677753E+00  0.50162106677E+01  0.51100000000E-03 0. -1.
        -11    1    4    4    0    0 -0.33092044080E+01 -0.16101015688E+01 -0.10728268517E+02  0.11341913706E+02  0.51100000000E-03 0.  1.
        -12    1    4    4    0    0 -0.35444792355E+02 -0.96361817601E+00  0.13690257010E+02  0.38009012117E+02  0.00000000000E+00 0.  1.
</event>
<event>
 8    1  0.2450026E-006  0.9118800E+02  0.7816164E-02  0.1184000E+00
        -11   -1    0    0    0    0  0.00000000000E+00  0.00000000000E+00  0.45593999997E+02  0.45594000000E+02  0.51100000000E-03 0.  1.
         11   -1    0    0    0    0 -0.00000000000E+00 -0.00000000000E+00 -0.45593999997E+02  0.45594000000E+02  0.51100000000E-03 0. -1.
         23    2    1    2    0    0  0.17763568394E-14  0.17763568394E-14  0.00000000000E+00  0.91188000000E+02  0.91188000000E+02 0.  0.
    9900012    2    3    3    0    0 -0.10928426441E+02  0.15184057107E+02  0.31714237803E+02  0.54367095962E+02  0.40000026865E+02 0.  0.
         12    1    3    3    0    0  0.10928426441E+02 -0.15184057107E+02 -0.31714237803E+02  0.36820904038E+02  0.00000000000E+00 0. -1.
         11    1    4    4    0    0 -0.17331715196E+02  0.14797469359E+02  0.19492494197E+02  0.29988510822E+02  0.51100000000E-03 0. -1.
        -11    1    4    4    0    0 -0.59383979324E+01 -0.21887646766E+01  0.96045279479E+01  0.11502270131E+02  0.51100000000E-03 0.  1.
        -12    1    4    4    0    0  0.12341686687E+02  0.25753524252E+01  0.26172156586E+01  0.12876315008E+02  0.00000000000E+00 0.  1.
</event>
<event>
 8    1  0.2450026E-006  0.9118800E+02  0.7816164E-02  0.1184000E+00
        -11   -1    0    0    0    0  0.00000000000E+00  0.00000000000E+00  0.45593999997E+02  0.45594000000E+02  0.51100000000E-03 0. -1.
         11   -1    0    0    0    0 -0.00000000000E+00 -0.00000000000E+00 -0.45593999997E+02  0.45594000000E+02  0.51100000000E-03 0.  1.
         23    2    1    2    0    0  0.00000000000E+00 -0.12212453271E-14  0.00000000000E+00  0.91188000000E+02  0.91188000000E+02 0.  0.
    9900012    2    3    3    0    0 -0.21739046542E+01 -0.48573698841E+00  0.36753487123E+02  0.54367073646E+02  0.39999975991E+02 0.  0.
        -12    1    3    3    0    0  0.21739046542E+01  0.48573698841E+00 -0.36753487123E+02  0.36820926354E+02  0.00000000000E+00 0.  1.
         11    1    4    4    0    0 -0.17290854607E+01  0.41940265715E+01  0.19632639881E+02  0.20149941548E+02  0.51100000000E-03 0. -1.
        -11    1    4    4    0    0 -0.66488657427E+00  0.98878510589E+01  0.16964479779E+02  0.19647016240E+02  0.51100000000E-03 0.  1.
        -12    1    4    4    0    0  0.22006738084E+00 -0.14567614619E+02  0.15636746339E+00  0.14570115858E+02  0.00000000000E+00 0.  1.
</event>
<event>
 8    1  0.2450026E-006  0.9118800E+02  0.7816164E-02  0.1184000E+00
        -11   -1    0    0    0    0  0.00000000000E+00  0.00000000000E+00  0.45593999997E+02  0.45594000000E+02  0.51100000000E-03 0.  1.
         11   -1    0    0    0    0 -0.00000000000E+00 -0.00000000000E+00 -0.45593999997E+02  0.45594000000E+02  0.51100000000E-03 0. -1.
         23    2    1    2    0    0  0.00000000000E+00  0.00000000000E+00  0.35527136788E-14  0.91188000000E+02  0.91188000000E+02 0.  0.
    9900012    2    3    3    0    0 -0.27817288386E+02  0.14028614491E+02  0.19625904916E+02  0.54367086087E+02  0.40000004351E+02 0.  0.
         12    1    3    3    0    0  0.27817288386E+02 -0.14028614491E+02 -0.19625904916E+02  0.36820913913E+02  0.00000000000E+00 0. -1.
         11    1    4    4    0    0 -0.11382655909E+02 -0.20914306344E+01  0.16576158648E+01  0.11691305670E+02  0.51100000000E-03 0. -1.
        -11    1    4    4    0    0 -0.18018358911E+02  0.22579006949E+02  0.67990062235E+01  0.29676578282E+02  0.51100000000E-03 0.  1.
        -12    1    4    4    0    0  0.15837264343E+01 -0.64589618238E+01  0.11169282827E+02  0.12999202135E+02  0.00000000000E+00 0.  1.
</event>
<event>
 8    1  0.2450026E-006  0.9118800E+02  0.7816164E-02  0.1184000E+00
        -11   -1    0    0    0    0  0.00000000000E+00  0.00000000000E+00  0.45593999997E+02  0.45594000000E+02  0.51100000000E-03 0. -1.
         11   -1    0    0    0    0 -0.00000000000E+00 -0.00000000000E+00 -0.45593999997E+02  0.45594000000E+02  0.51100000000E-03 0.  1.
         23    2    1    2    0    0 -0.71054273576E-14  0.17763568394E-14 -0.11102230246E-14  0.91188000000E+02  0.91188000000E+02 0.  0.
    9900012    2    3    3    0    0 -0.34050824697E+02  0.13997990110E+02  0.61246869093E+00  0.54367115878E+02  0.40000072266E+02 0.  0.
        -12    1    3    3    0    0  0.34050824697E+02 -0.13997990110E+02 -0.61246869093E+00  0.36820884122E+02  0.00000000000E+00 0.  1.
         11    1    4    4    0    0 -0.12598948229E+02 -0.95368022334E+01 -0.87239445949E+01  0.18049689827E+02  0.51100000000E-03 0. -1.
        -11    1    4    4    0    0 -0.52593026720E+01 -0.88853522659E+00 -0.61742737987E+00  0.53694484144E+01  0.51100000000E-03 0.  1.
        -12    1    4    4    0    0 -0.16192573796E+02  0.24423327570E+02  0.99538406657E+01  0.30947977636E+02  0.00000000000E+00 0.  1.
</event>
<event>
 8    1  0.2450026E-006  0.9118800E+02  0.7816164E-02  0.1184000E+00
        -11   -1    0    0    0    0  0.00000000000E+00  0.00000000000E+00  0.45593999997E+02  0.45594000000E+02  0.51100000000E-03 0.  1.
         11   -1    0    0    0    0 -0.00000000000E+00 -0.00000000000E+00 -0.45593999997E+02  0.45594000000E+02  0.51100000000E-03 0. -1.
         23    2    1    2    0    0  0.00000000000E+00  0.00000000000E+00  0.00000000000E+00  0.91188000000E+02  0.91188000000E+02 0.  0.
    9900012    2    3    3    0    0 -0.33094735122E+02  0.60839408971E+01  0.14950045515E+02  0.54367086234E+02  0.40000004688E+02 0.  0.
         12    1    3    3    0    0  0.33094735122E+02 -0.60839408971E+01 -0.14950045515E+02  0.36820913766E+02  0.00000000000E+00 0. -1.
         11    1    4    4    0    0 -0.13427376931E+02  0.85913293063E+01 -0.95814286776E+01  0.18598633451E+02  0.51100000000E-03 0. -1.
        -11    1    4    4    0    0 -0.18073538095E+02  0.25043730429E+01  0.24451159618E+02  0.30508750721E+02  0.51100000000E-03 0.  1.
        -12    1    4    4    0    0 -0.15938200958E+01 -0.50117614521E+01  0.80314574686E-01  0.52597020620E+01  0.00000000000E+00 0.  1.
</event>
<event>
 8    1  0.2450026E-006  0.9118800E+02  0.7816164E-02  0.1184000E+00
        -11   -1    0    0    0    0  0.00000000000E+00  0.00000000000E+00  0.45593999997E+02  0.45594000000E+02  0.51100000000E-03 0.  1.
         11   -1    0    0    0    0 -0.00000000000E+00 -0.00000000000E+00 -0.45593999997E+02  0.45594000000E+02  0.51100000000E-03 0. -1.
         23    2    1    2    0    0 -0.35527136788E-14  0.00000000000E+00  0.00000000000E+00  0.91188000000E+02  0.91188000000E+02 0.  0.
    9900012    2    3    3    0    0 -0.10632782623E+02 -0.13834070196E+02 -0.32424401081E+02  0.54367090859E+02  0.40000015232E+02 0.  0.
        -12    1    3    3    0    0  0.10632782623E+02  0.13834070196E+02  0.32424401081E+02  0.36820909141E+02  0.00000000000E+00 0.  1.
         11    1    4    4    0    0  0.85984752450E+01  0.22678090798E+01 -0.43148338849E+01  0.98840541417E+01  0.51100000000E-03 0. -1.
        -11    1    4    4    0    0  0.41902552144E+01  0.18225532718E+01 -0.16437161880E+01  0.48561036190E+01  0.51100000000E-03 0.  1.
         12    1    4    4    0    0 -0.23421513082E+02 -0.17924432547E+02 -0.26465851008E+02  0.39626933099E+02  0.00000000000E+00 0. -1.
</event>
<event>
 8    1  0.2450026E-006  0.9118800E+02  0.7816164E-02  0.1184000E+00
        -11   -1    0    0    0    0  0.00000000000E+00  0.00000000000E+00  0.45593999997E+02  0.45594000000E+02  0.51100000000E-03 0. -1.
         11   -1    0    0    0    0 -0.00000000000E+00 -0.00000000000E+00 -0.45593999997E+02  0.45594000000E+02  0.51100000000E-03 0.  1.
         23    2    1    2    0    0  0.35527136788E-14  0.00000000000E+00  0.00000000000E+00  0.91188000000E+02  0.91188000000E+02 0.  0.
    9900012    2    3    3    0    0 -0.27036896028E+02 -0.10932542461E+02  0.22478185460E+02  0.54367040574E+02  0.39999900596E+02 0.  0.
        -12    1    3    3    0    0  0.27036896028E+02  0.10932542461E+02 -0.22478185460E+02  0.36820959426E+02  0.00000000000E+00 0.  1.
         11    1    4    4    0    0  0.44032680953E+00  0.22658071888E+01  0.18780612076E+02  0.18921922739E+02  0.51100000000E-03 0. -1.
        -11    1    4    4    0    0 -0.41654029218E+01 -0.10821931349E+02 -0.64363364895E+00  0.11613743762E+02  0.51100000000E-03 0.  1.
         12    1    4    4    0    0 -0.23311819915E+02 -0.23764183010E+01  0.43412070326E+01  0.23831374073E+02  0.00000000000E+00 0. -1.
</event>
<event>
 8    1  0.2450026E-006  0.9118800E+02  0.7816164E-02  0.1184000E+00
        -11   -1    0    0    0    0  0.00000000000E+00  0.00000000000E+00  0.45593999997E+02  0.45594000000E+02  0.51100000000E-03 0.  1.
         11   -1    0    0    0    0 -0.00000000000E+00 -0.00000000000E+00 -0.45593999997E+02  0.45594000000E+02  0.51100000000E-03 0. -1.
         23    2    1    2    0    0  0.00000000000E+00  0.00000000000E+00 -0.17763568394E-14  0.91188000000E+02  0.91188000000E+02 0.  0.
    9900012    2    3    3    0    0 -0.55574234226E+01  0.33979665791E+02  0.13049014293E+02  0.54367089958E+02  0.40000013176E+02 0.  0.
         12    1    3    3    0    0  0.55574234226E+01 -0.33979665791E+02 -0.13049014293E+02  0.36820910042E+02  0.00000000000E+00 0. -1.
         11    1    4    4    0    0  0.70021696446E+01 -0.43347716522E+01  0.78820769432E+01  0.11399463242E+02  0.51100000000E-03 0. -1.
        -11    1    4    4    0    0 -0.14254462316E+02  0.38397193199E+02  0.48975047506E+01  0.41249481143E+02  0.51100000000E-03 0.  1.
        -12    1    4    4    0    0  0.16948692483E+01 -0.82755756714E-01  0.26943259885E+00  0.17181455729E+01  0.00000000000E+00 0.  1.
</event>
<event>
 8    1  0.2450026E-006  0.9118800E+02  0.7816164E-02  0.1184000E+00
        -11   -1    0    0    0    0  0.00000000000E+00  0.00000000000E+00  0.45593999997E+02  0.45594000000E+02  0.51100000000E-03 0. -1.
         11   -1    0    0    0    0 -0.00000000000E+00 -0.00000000000E+00 -0.45593999997E+02  0.45594000000E+02  0.51100000000E-03 0.  1.
         23    2    1    2    0    0  0.00000000000E+00  0.18873791419E-14  0.71054273576E-14  0.91188000000E+02  0.91188000000E+02 0.  0.
    9900012    2    3    3    0    0  0.14289276782E+02  0.60511354975E+00  0.33929773287E+02  0.54367094136E+02  0.40000022702E+02 0.  0.
        -12    1    3    3    0    0 -0.14289276782E+02 -0.60511354975E+00 -0.33929773287E+02  0.36820905864E+02  0.00000000000E+00 0.  1.
         11    1    4    4    0    0  0.14243036890E+02 -0.97065377789E+01 -0.22389372828E+00  0.17237491237E+02  0.51100000000E-03 0.  1.
        -11    1    4    4    0    0  0.18751781942E+01  0.11909697739E+02  0.26848093740E+02  0.29430890765E+02  0.51100000000E-03 0. -1.
         12    1    4    4    0    0 -0.18289383016E+01 -0.15980464104E+01  0.73055732748E+01  0.76987121335E+01  0.00000000000E+00 0. -1.
</event>
<event>
 8    1  0.2450026E-006  0.9118800E+02  0.7816164E-02  0.1184000E+00
        -11   -1    0    0    0    0  0.00000000000E+00  0.00000000000E+00  0.45593999997E+02  0.45594000000E+02  0.51100000000E-03 0.  1.
         11   -1    0    0    0    0 -0.00000000000E+00 -0.00000000000E+00 -0.45593999997E+02  0.45594000000E+02  0.51100000000E-03 0. -1.
         23    2    1    2    0    0  0.00000000000E+00  0.00000000000E+00  0.00000000000E+00  0.91188000000E+02  0.91188000000E+02 0.  0.
    9900012    2    3    3    0    0  0.34574931239E+02 -0.11779349190E+02  0.46475225160E+01  0.54367103717E+02  0.40000044544E+02 0.  0.
        -12    1    3    3    0    0 -0.34574931239E+02  0.11779349190E+02 -0.46475225160E+01  0.36820896283E+02  0.00000000000E+00 0.  1.
         11    1    4    4    0    0  0.10624275203E+02 -0.83010341049E+00  0.83700440852E+01  0.13550717085E+02  0.51100000000E-03 0. -1.
        -11    1    4    4    0    0  0.22861026632E+02  0.58423911896E+01 -0.42771962518E+01  0.23980293608E+02  0.51100000000E-03 0.  1.
        -12    1    4    4    0    0  0.10896294042E+01 -0.16791636969E+02  0.55467468258E+00  0.16836093025E+02  0.00000000000E+00 0.  1.
</event>
<event>
 8    1  0.2450026E-006  0.9118800E+02  0.7816164E-02  0.1184000E+00
        -11   -1    0    0    0    0  0.00000000000E+00  0.00000000000E+00  0.45593999997E+02  0.45594000000E+02  0.51100000000E-03 0.  1.
         11   -1    0    0    0    0 -0.00000000000E+00 -0.00000000000E+00 -0.45593999997E+02  0.45594000000E+02  0.51100000000E-03 0. -1.
         23    2    1    2    0    0  0.35527136788E-14  0.35527136788E-14  0.00000000000E+00  0.91188000000E+02  0.91188000000E+02 0.  0.
    9900012    2    3    3    0    0  0.24234800674E+02  0.20990303002E+02  0.18106940693E+02  0.54367086309E+02  0.40000004858E+02 0.  0.
         12    1    3    3    0    0 -0.24234800674E+02 -0.20990303002E+02 -0.18106940693E+02  0.36820913691E+02  0.00000000000E+00 0. -1.
         11    1    4    4    0    0  0.78428722825E+00  0.12826044446E+02  0.27785945536E-01  0.12850030931E+02  0.51100000000E-03 0. -1.
        -11    1    4    4    0    0  0.27103994743E+02 -0.10846769482E+01  0.15507357692E+02  0.31245498844E+02  0.51100000000E-03 0.  1.
        -12    1    4    4    0    0 -0.36534812980E+01  0.92489355038E+01  0.25717970552E+01  0.10271556535E+02  0.00000000000E+00 0.  1.
</event>
<event>
 8    1  0.2450026E-006  0.9118800E+02  0.7816164E-02  0.1184000E+00
        -11   -1    0    0    0    0  0.00000000000E+00  0.00000000000E+00  0.45593999997E+02  0.45594000000E+02  0.51100000000E-03 0.  1.
         11   -1    0    0    0    0 -0.00000000000E+00 -0.00000000000E+00 -0.45593999997E+02  0.45594000000E+02  0.51100000000E-03 0. -1.
         23    2    1    2    0    0  0.35527136788E-14 -0.35527136788E-14 -0.18873791419E-14  0.91188000000E+02  0.91188000000E+02 0.  0.
    9900012    2    3    3    0    0 -0.29176056007E+02 -0.22451120535E+02 -0.69532085564E+00  0.54367102014E+02  0.40000040661E+02 0.  0.
         12    1    3    3    0    0  0.29176056007E+02  0.22451120535E+02  0.69532085564E+00  0.36820897986E+02  0.00000000000E+00 0. -1.
         11    1    4    4    0    0  0.31235548041E+01 -0.23625419125E+01  0.12282372413E+02  0.12891658980E+02  0.51100000000E-03 0. -1.
        -11    1    4    4    0    0 -0.13384215382E+02 -0.50115647029E+01 -0.60199452095E+00  0.14304383938E+02  0.51100000000E-03 0.  1.
         12    1    4    4    0    0 -0.18915395428E+02 -0.15077013920E+02 -0.12375698747E+02  0.27171059097E+02  0.00000000000E+00 0. -1.
</event>
<event>
 8    1  0.2450026E-006  0.9118800E+02  0.7816164E-02  0.1184000E+00
        -11   -1    0    0    0    0  0.00000000000E+00  0.00000000000E+00  0.45593999997E+02  0.45594000000E+02  0.51100000000E-03 0. -1.
         11   -1    0    0    0    0 -0.00000000000E+00 -0.00000000000E+00 -0.45593999997E+02  0.45594000000E+02  0.51100000000E-03 0.  1.
         23    2    1    2    0    0 -0.17763568394E-14  0.00000000000E+00  0.88817841970E-15  0.91188000000E+02  0.91188000000E+02 0.  0.
    9900012    2    3    3    0    0 -0.12930769658E+02 -0.34196023168E+02 -0.43827673849E+01  0.54367062283E+02  0.39999950086E+02 0.  0.
         12    1    3    3    0    0  0.12930769658E+02  0.34196023168E+02  0.43827673849E+01  0.36820937717E+02  0.00000000000E+00 0. -1.
         11    1    4    4    0    0  0.25436961435E+01 -0.74862126335E+01 -0.74587914267E+01  0.10869560224E+02  0.51100000000E-03 0. -1.
        -11    1    4    4    0    0 -0.19584652735E+02 -0.31086021591E+02 -0.23278588822E-01  0.36740983973E+02  0.51100000000E-03 0.  1.
        -12    1    4    4    0    0  0.41101869334E+01  0.43762110572E+01  0.30993026305E+01  0.67565180855E+01  0.00000000000E+00 0.  1.
</event>
<event>
 8    1  0.2450026E-006  0.9118800E+02  0.7816164E-02  0.1184000E+00
        -11   -1    0    0    0    0  0.00000000000E+00  0.00000000000E+00  0.45593999997E+02  0.45594000000E+02  0.51100000000E-03 0.  1.
         11   -1    0    0    0    0 -0.00000000000E+00 -0.00000000000E+00 -0.45593999997E+02  0.45594000000E+02  0.51100000000E-03 0. -1.
         23    2    1    2    0    0  0.00000000000E+00  0.00000000000E+00  0.00000000000E+00  0.91188000000E+02  0.91188000000E+02 0.  0.
    9900012    2    3    3    0    0  0.88146863142E+01  0.34118818376E+02 -0.10676579786E+02  0.54367057343E+02  0.39999938825E+02 0.  0.
        -12    1    3    3    0    0 -0.88146863142E+01 -0.34118818376E+02  0.10676579786E+02  0.36820942657E+02  0.00000000000E+00 0.  1.
         11    1    4    4    0    0  0.37696340992E+01  0.34494446416E+02 -0.20765770643E+02  0.40438771068E+02  0.51100000000E-03 0. -1.
        -11    1    4    4    0    0 -0.16542892257E+01  0.53182120873E+00  0.54726258497E+01  0.57418760516E+01  0.51100000000E-03 0.  1.
         12    1    4    4    0    0  0.66993414407E+01 -0.90744924870E+00  0.46165650079E+01  0.81864102237E+01  0.00000000000E+00 0. -1.
</event>
<event>
 8    1  0.2450026E-006  0.9118800E+02  0.7816164E-02  0.1184000E+00
        -11   -1    0    0    0    0  0.00000000000E+00  0.00000000000E+00  0.45593999997E+02  0.45594000000E+02  0.51100000000E-03 0.  1.
         11   -1    0    0    0    0 -0.00000000000E+00 -0.00000000000E+00 -0.45593999997E+02  0.45594000000E+02  0.51100000000E-03 0. -1.
         23    2    1    2    0    0  0.00000000000E+00 -0.17763568394E-14  0.35527136788E-14  0.91188000000E+02  0.91188000000E+02 0.  0.
    9900012    2    3    3    0    0  0.19627655695E+02  0.15083096597E+02  0.27258539404E+02  0.54367181955E+02  0.40000222903E+02 0.  0.
         12    1    3    3    0    0 -0.19627655695E+02 -0.15083096597E+02 -0.27258539404E+02  0.36820818045E+02  0.00000000000E+00 0. -1.
         11    1    4    4    0    0 -0.75311622669E+01  0.69705013713E+01  0.26347784947E+01  0.10594732297E+02  0.51100000000E-03 0. -1.
        -11    1    4    4    0    0  0.25256073241E+01  0.10364371357E+02  0.11810056862E+02  0.15914657688E+02  0.51100000000E-03 0.  1.
        -12    1    4    4    0    0  0.24633210638E+02 -0.22517761320E+01  0.12813704048E+02  0.27857791971E+02  0.00000000000E+00 0.  1.
</event>
<event>
 8    1  0.2450026E-006  0.9118800E+02  0.7816164E-02  0.1184000E+00
        -11   -1    0    0    0    0  0.00000000000E+00  0.00000000000E+00  0.45593999997E+02  0.45594000000E+02  0.51100000000E-03 0. -1.
         11   -1    0    0    0    0 -0.00000000000E+00 -0.00000000000E+00 -0.45593999997E+02  0.45594000000E+02  0.51100000000E-03 0.  1.
         23    2    1    2    0    0  0.00000000000E+00  0.00000000000E+00  0.00000000000E+00  0.91188000000E+02  0.91188000000E+02 0.  0.
    9900012    2    3    3    0    0  0.11333231593E+02 -0.98278023989E+00 -0.35019601282E+02  0.54367075660E+02  0.39999980582E+02 0.  0.
         12    1    3    3    0    0 -0.11333231593E+02  0.98278023989E+00  0.35019601282E+02  0.36820924340E+02  0.00000000000E+00 0. -1.
         11    1    4    4    0    0  0.51094838119E+01 -0.81975013803E+01 -0.82752601087E+01  0.12719504072E+02  0.51100000000E-03 0. -1.
        -11    1    4    4    0    0  0.68053906862E+00 -0.22188140140E+01 -0.30110550360E+02  0.30199859475E+02  0.51100000000E-03 0.  1.
        -12    1    4    4    0    0  0.55432087125E+01  0.94335351545E+01  0.33662091870E+01  0.11447712113E+02  0.00000000000E+00 0.  1.
</event>
<event>
 8    1  0.2450026E-006  0.9118800E+02  0.7816164E-02  0.1184000E+00
        -11   -1    0    0    0    0  0.00000000000E+00  0.00000000000E+00  0.45593999997E+02  0.45594000000E+02  0.51100000000E-03 0. -1.
         11   -1    0    0    0    0 -0.00000000000E+00 -0.00000000000E+00 -0.45593999997E+02  0.45594000000E+02  0.51100000000E-03 0.  1.
         23    2    1    2    0    0  0.35527136788E-14  0.00000000000E+00  0.35527136788E-14  0.91188000000E+02  0.91188000000E+02 0.  0.
    9900012    2    3    3    0    0 -0.16633330254E+02 -0.18780521877E+02 -0.26951880347E+02  0.54367088393E+02  0.40000009610E+02 0.  0.
         12    1    3    3    0    0  0.16633330254E+02  0.18780521877E+02  0.26951880347E+02  0.36820911607E+02  0.00000000000E+00 0. -1.
         11    1    4    4    0    0 -0.10116209155E+02  0.82141238882E+01  0.92350183472E+00  0.13063781031E+02  0.51100000000E-03 0.  1.
        -11    1    4    4    0    0  0.10814794840E+01 -0.52601410625E+01 -0.29882993110E+00  0.53784738970E+01  0.51100000000E-03 0. -1.
        -12    1    4    4    0    0 -0.75986005830E+01 -0.21734504703E+02 -0.27576552251E+02  0.35924833466E+02  0.00000000000E+00 0.  1.
</event>
<event>
 8    1  0.2450026E-006  0.9118800E+02  0.7816164E-02  0.1184000E+00
        -11   -1    0    0    0    0  0.00000000000E+00  0.00000000000E+00  0.45593999997E+02  0.45594000000E+02  0.51100000000E-03 0.  1.
         11   -1    0    0    0    0 -0.00000000000E+00 -0.00000000000E+00 -0.45593999997E+02  0.45594000000E+02  0.51100000000E-03 0. -1.
         23    2    1    2    0    0  0.00000000000E+00  0.00000000000E+00  0.00000000000E+00  0.91188000000E+02  0.91188000000E+02 0.  0.
    9900012    2    3    3    0    0  0.18793584873E+01 -0.13020771552E+02  0.34390454386E+02  0.54367138616E+02  0.40000124103E+02 0.  0.
         12    1    3    3    0    0 -0.18793584873E+01  0.13020771552E+02 -0.34390454386E+02  0.36820861384E+02  0.00000000000E+00 0. -1.
         11    1    4    4    0    0 -0.41950902119E+01  0.88353156796E+01  0.27774376142E+02  0.29446180659E+02  0.51100000000E-03 0.  1.
        -11    1    4    4    0    0  0.14904218279E+01 -0.64605758810E+00 -0.10185560191E+01  0.19173430202E+01  0.51100000000E-03 0. -1.
        -12    1    4    4    0    0  0.45840268714E+01 -0.21210029644E+02  0.76346342636E+01  0.23003614937E+02  0.00000000000E+00 0.  1.
</event>
<event>
 8    1  0.2450026E-006  0.9118800E+02  0.7816164E-02  0.1184000E+00
        -11   -1    0    0    0    0  0.00000000000E+00  0.00000000000E+00  0.45593999997E+02  0.45594000000E+02  0.51100000000E-03 0.  1.
         11   -1    0    0    0    0 -0.00000000000E+00 -0.00000000000E+00 -0.45593999997E+02  0.45594000000E+02  0.51100000000E-03 0. -1.
         23    2    1    2    0    0  0.00000000000E+00  0.44408920985E-15 -0.39968028887E-14  0.91188000000E+02  0.91188000000E+02 0.  0.
    9900012    2    3    3    0    0  0.36573460001E+02  0.37137059057E+01  0.20906697923E+01  0.54367075403E+02  0.39999979996E+02 0.  0.
        -12    1    3    3    0    0 -0.36573460001E+02 -0.37137059057E+01 -0.20906697923E+01  0.36820924597E+02  0.00000000000E+00 0.  1.
         11    1    4    4    0    0  0.64552237161E+01  0.32452545967E+01 -0.15841535070E+02  0.17411370545E+02  0.51100000000E-03 0. -1.
        -11    1    4    4    0    0  0.22884900536E+02 -0.99399413492E-01  0.18841455428E+02  0.29643363434E+02  0.51100000000E-03 0.  1.
         12    1    4    4    0    0  0.72333357493E+01  0.56785072246E+00 -0.90925056570E+00  0.73123414237E+01  0.00000000000E+00 0. -1.
</event>
<event>
 8    1  0.2450026E-006  0.9118800E+02  0.7816164E-02  0.1184000E+00
        -11   -1    0    0    0    0  0.00000000000E+00  0.00000000000E+00  0.45593999997E+02  0.45594000000E+02  0.51100000000E-03 0.  1.
         11   -1    0    0    0    0 -0.00000000000E+00 -0.00000000000E+00 -0.45593999997E+02  0.45594000000E+02  0.51100000000E-03 0. -1.
         23    2    1    2    0    0  0.71054273576E-14  0.00000000000E+00 -0.35527136788E-14  0.91188000000E+02  0.91188000000E+02 0.  0.
    9900012    2    3    3    0    0 -0.29613017143E+02 -0.14911800137E+01  0.21831757608E+02  0.54367081456E+02  0.39999993796E+02 0.  0.
        -12    1    3    3    0    0  0.29613017143E+02  0.14911800137E+01 -0.21831757608E+02  0.36820918544E+02  0.00000000000E+00 0.  1.
         11    1    4    4    0    0  0.43888070178E+01  0.44518177071E+01  0.95305584634E+01  0.11397888086E+02  0.51100000000E-03 0. -1.
        -11    1    4    4    0    0 -0.46842529005E+01  0.29781920901E+00  0.12116833027E+02  0.12994174247E+02  0.51100000000E-03 0.  1.
         12    1    4    4    0    0 -0.29317571260E+02 -0.62408169298E+01  0.18436611765E+00  0.29975019123E+02  0.00000000000E+00 0. -1.
</event>
<event>
 8    1  0.2450026E-006  0.9118800E+02  0.7816164E-02  0.1184000E+00
        -11   -1    0    0    0    0  0.00000000000E+00  0.00000000000E+00  0.45593999997E+02  0.45594000000E+02  0.51100000000E-03 0. -1.
         11   -1    0    0    0    0 -0.00000000000E+00 -0.00000000000E+00 -0.45593999997E+02  0.45594000000E+02  0.51100000000E-03 0.  1.
         23    2    1    2    0    0  0.17763568394E-14  0.00000000000E+00 -0.35527136788E-14  0.91188000000E+02  0.91188000000E+02 0.  0.
    9900012    2    3    3    0    0 -0.97961795853E+01 -0.20225509234E+02  0.29167504040E+02  0.54367086783E+02  0.40000005938E+02 0.  0.
        -12    1    3    3    0    0  0.97961795853E+01  0.20225509234E+02 -0.29167504040E+02  0.36820913217E+02  0.00000000000E+00 0.  1.
         11    1    4    4    0    0 -0.27681842922E+01 -0.14041022260E+02 -0.27375542053E+01  0.14570770524E+02  0.51100000000E-03 0. -1.
        -11    1    4    4    0    0 -0.17604847952E+01  0.20812248124E+01 -0.26959119652E+01  0.38338942368E+01  0.51100000000E-03 0.  1.
         12    1    4    4    0    0 -0.52675104978E+01 -0.82657117868E+01  0.34600970210E+02  0.35962422022E+02  0.00000000000E+00 0. -1.
</event>
<event>
 8    1  0.2450026E-006  0.9118800E+02  0.7816164E-02  0.1184000E+00
        -11   -1    0    0    0    0  0.00000000000E+00  0.00000000000E+00  0.45593999997E+02  0.45594000000E+02  0.51100000000E-03 0. -1.
         11   -1    0    0    0    0 -0.00000000000E+00 -0.00000000000E+00 -0.45593999997E+02  0.45594000000E+02  0.51100000000E-03 0.  1.
         23    2    1    2    0    0  0.44408920985E-15  0.17763568394E-14  0.00000000000E+00  0.91188000000E+02  0.91188000000E+02 0.  0.
    9900012    2    3    3    0    0  0.18849471414E+01  0.89665148868E+01 -0.35662697777E+02  0.54367089804E+02  0.40000012825E+02 0.  0.
         12    1    3    3    0    0 -0.18849471414E+01 -0.89665148868E+01  0.35662697777E+02  0.36820910196E+02  0.00000000000E+00 0. -1.
         11    1    4    4    0    0  0.10615528719E+02 -0.35790818664E+01 -0.57399451559E+01  0.12587543352E+02  0.51100000000E-03 0. -1.
        -11    1    4    4    0    0  0.86240170049E+01  0.64222989306E+01 -0.10820718579E+02  0.15254754789E+02  0.51100000000E-03 0.  1.
        -12    1    4    4    0    0 -0.17354598582E+02  0.61232978226E+01 -0.19102034042E+02  0.26524791662E+02  0.00000000000E+00 0.  1.
</event>
<event>
 8    1  0.2450026E-006  0.9118800E+02  0.7816164E-02  0.1184000E+00
        -11   -1    0    0    0    0  0.00000000000E+00  0.00000000000E+00  0.45593999997E+02  0.45594000000E+02  0.51100000000E-03 0.  1.
         11   -1    0    0    0    0 -0.00000000000E+00 -0.00000000000E+00 -0.45593999997E+02  0.45594000000E+02  0.51100000000E-03 0. -1.
         23    2    1    2    0    0  0.00000000000E+00  0.26645352591E-14 -0.17763568394E-14  0.91188000000E+02  0.91188000000E+02 0.  0.
    9900012    2    3    3    0    0 -0.36203506207E+02  0.29552908975E+01  0.60296762844E+01  0.54367019539E+02  0.39999852643E+02 0.  0.
        -12    1    3    3    0    0  0.36203506207E+02 -0.29552908975E+01 -0.60296762844E+01  0.36820980461E+02  0.00000000000E+00 0.  1.
         11    1    4    4    0    0 -0.30430308247E+02 -0.10560511125E+02  0.15689486489E+02  0.35828592518E+02  0.51100000000E-03 0. -1.
        -11    1    4    4    0    0 -0.19492955736E+01  0.98533444917E+01 -0.40660555631E+01  0.10836095192E+02  0.51100000000E-03 0.  1.
         12    1    4    4    0    0 -0.38239023865E+01  0.36624575306E+01 -0.55937546415E+01  0.77023318296E+01  0.00000000000E+00 0. -1.
</event>
<event>
 8    1  0.2450026E-006  0.9118800E+02  0.7816164E-02  0.1184000E+00
        -11   -1    0    0    0    0  0.00000000000E+00  0.00000000000E+00  0.45593999997E+02  0.45594000000E+02  0.51100000000E-03 0. -1.
         11   -1    0    0    0    0 -0.00000000000E+00 -0.00000000000E+00 -0.45593999997E+02  0.45594000000E+02  0.51100000000E-03 0.  1.
         23    2    1    2    0    0 -0.71054273576E-14  0.00000000000E+00  0.17763568394E-14  0.91188000000E+02  0.91188000000E+02 0.  0.
    9900012    2    3    3    0    0  0.33653070251E+02 -0.58098799391E+01  0.13765713177E+02  0.54367099665E+02  0.40000035306E+02 0.  0.
        -12    1    3    3    0    0 -0.33653070251E+02  0.58098799391E+01 -0.13765713177E+02  0.36820900335E+02  0.00000000000E+00 0.  1.
         11    1    4    4    0    0  0.88041947055E+01 -0.45178402468E+01  0.88516331265E+00  0.99352020241E+01  0.51100000000E-03 0. -1.
        -11    1    4    4    0    0 -0.75358811556E+01 -0.33020122355E+00 -0.32808280310E+01  0.82257139794E+01  0.51100000000E-03 0.  1.
        -12    1    4    4    0    0  0.32384756701E+02 -0.96183846877E+00  0.16161377895E+02  0.36206183661E+02  0.00000000000E+00 0.  1.
</event>
<event>
 8    1  0.2450026E-006  0.9118800E+02  0.7816164E-02  0.1184000E+00
        -11   -1    0    0    0    0  0.00000000000E+00  0.00000000000E+00  0.45593999997E+02  0.45594000000E+02  0.51100000000E-03 0. -1.
         11   -1    0    0    0    0 -0.00000000000E+00 -0.00000000000E+00 -0.45593999997E+02  0.45594000000E+02  0.51100000000E-03 0.  1.
         23    2    1    2    0    0 -0.17763568394E-14  0.35527136788E-14  0.00000000000E+00  0.91188000000E+02  0.91188000000E+02 0.  0.
    9900012    2    3    3    0    0 -0.14222895909E+02 -0.31121315910E+02 -0.13599771058E+02  0.54367070559E+02  0.39999968954E+02 0.  0.
         12    1    3    3    0    0  0.14222895909E+02  0.31121315910E+02  0.13599771058E+02  0.36820929441E+02  0.00000000000E+00 0. -1.
         11    1    4    4    0    0  0.19627949724E+01 -0.14168534442E+02  0.58212426912E+01  0.15443017810E+02  0.51100000000E-03 0. -1.
        -11    1    4    4    0    0 -0.76525966553E+01 -0.20977566069E+02 -0.71525696706E+01  0.23447382944E+02  0.51100000000E-03 0.  1.
         12    1    4    4    0    0 -0.85330942261E+01  0.40247846010E+01 -0.12268444079E+02  0.15476669806E+02  0.00000000000E+00 0. -1.
</event>
<event>
 8    1  0.2450026E-006  0.9118800E+02  0.7816164E-02  0.1184000E+00
        -11   -1    0    0    0    0  0.00000000000E+00  0.00000000000E+00  0.45593999997E+02  0.45594000000E+02  0.51100000000E-03 0.  1.
         11   -1    0    0    0    0 -0.00000000000E+00 -0.00000000000E+00 -0.45593999997E+02  0.45594000000E+02  0.51100000000E-03 0. -1.
         23    2    1    2    0    0  0.00000000000E+00  0.00000000000E+00 -0.88817841970E-15  0.91188000000E+02  0.91188000000E+02 0.  0.
    9900012    2    3    3    0    0 -0.28300570277E+02 -0.22551162629E+02 -0.68045724238E+01  0.54367089910E+02  0.40000013068E+02 0.  0.
        -12    1    3    3    0    0  0.28300570277E+02  0.22551162629E+02  0.68045724238E+01  0.36820910090E+02  0.00000000000E+00 0.  1.
         11    1    4    4    0    0 -0.21795068643E+02  0.45247431248E+01 -0.91767396379E+01  0.24077185636E+02  0.51100000000E-03 0. -1.
        -11    1    4    4    0    0 -0.53156178121E+01 -0.42493476605E+01  0.29684372348E+01  0.74245786509E+01  0.51100000000E-03 0.  1.
         12    1    4    4    0    0 -0.11898838218E+01 -0.22826558094E+02 -0.59627002073E+00  0.22865325623E+02  0.00000000000E+00 0. -1.
</event>
<event>
 8    1  0.2450026E-006  0.9118800E+02  0.7816164E-02  0.1184000E+00
        -11   -1    0    0    0    0  0.00000000000E+00  0.00000000000E+00  0.45593999997E+02  0.45594000000E+02  0.51100000000E-03 0.  1.
         11   -1    0    0    0    0 -0.00000000000E+00 -0.00000000000E+00 -0.45593999997E+02  0.45594000000E+02  0.51100000000E-03 0. -1.
         23    2    1    2    0    0  0.00000000000E+00  0.00000000000E+00  0.00000000000E+00  0.91188000000E+02  0.91188000000E+02 0.  0.
    9900012    2    3    3    0    0 -0.26881077554E+02 -0.23797791059E+02  0.81763601452E+01  0.54367081285E+02  0.39999993406E+02 0.  0.
        -12    1    3    3    0    0  0.26881077554E+02  0.23797791059E+02 -0.81763601452E+01  0.36820918715E+02  0.00000000000E+00 0.  1.
         11    1    4    4    0    0 -0.15928880547E+02  0.12158843571E+00 -0.29910982835E+00  0.15932152591E+02  0.51100000000E-03 0. -1.
        -11    1    4    4    0    0 -0.81537337983E+01 -0.23682248767E+02 -0.42487821844E+01  0.25404417565E+02  0.51100000000E-03 0.  1.
        -12    1    4    4    0    0 -0.27984632081E+01 -0.23713072860E+00  0.12724252158E+02  0.13030511129E+02  0.00000000000E+00 0.  1.
</event>
<event>
 8    1  0.2450026E-006  0.9118800E+02  0.7816164E-02  0.1184000E+00
        -11   -1    0    0    0    0  0.00000000000E+00  0.00000000000E+00  0.45593999997E+02  0.45594000000E+02  0.51100000000E-03 0.  1.
         11   -1    0    0    0    0 -0.00000000000E+00 -0.00000000000E+00 -0.45593999997E+02  0.45594000000E+02  0.51100000000E-03 0. -1.
         23    2    1    2    0    0  0.00000000000E+00 -0.17763568394E-14  0.71054273576E-14  0.91188000000E+02  0.91188000000E+02 0.  0.
    9900012    2    3    3    0    0 -0.86306949084E+01  0.71104869242E+01  0.35081793100E+02  0.54367080321E+02  0.39999991209E+02 0.  0.
         12    1    3    3    0    0  0.86306949084E+01 -0.71104869242E+01 -0.35081793100E+02  0.36820919679E+02  0.00000000000E+00 0. -1.
         11    1    4    4    0    0 -0.17441463912E+01 -0.13310666645E+02  0.78762188773E+01  0.15564405457E+02  0.51100000000E-03 0. -1.
        -11    1    4    4    0    0 -0.91027541487E+01  0.22718690808E+02  0.23956449926E+02  0.34247781512E+02  0.51100000000E-03 0.  1.
        -12    1    4    4    0    0  0.22162056316E+01 -0.22975372394E+01  0.32491242957E+01  0.45548933530E+01  0.00000000000E+00 0.  1.
</event>
<event>
 8    1  0.2450026E-006  0.9118800E+02  0.7816164E-02  0.1184000E+00
        -11   -1    0    0    0    0  0.00000000000E+00  0.00000000000E+00  0.45593999997E+02  0.45594000000E+02  0.51100000000E-03 0. -1.
         11   -1    0    0    0    0 -0.00000000000E+00 -0.00000000000E+00 -0.45593999997E+02  0.45594000000E+02  0.51100000000E-03 0.  1.
         23    2    1    2    0    0  0.44408920985E-15 -0.35527136788E-14 -0.35527136788E-14  0.91188000000E+02  0.91188000000E+02 0.  0.
    9900012    2    3    3    0    0  0.16629231863E+01 -0.26069174272E+02 -0.25950182755E+02  0.54367093632E+02  0.40000021553E+02 0.  0.
         12    1    3    3    0    0 -0.16629231863E+01  0.26069174272E+02  0.25950182755E+02  0.36820906368E+02  0.00000000000E+00 0. -1.
         11    1    4    4    0    0 -0.28902796498E+01 -0.20882925943E+02 -0.71678482323E+01  0.22267203708E+02  0.51100000000E-03 0. -1.
        -11    1    4    4    0    0  0.19668910314E+01  0.60428518615E+01  0.33231307877E+01  0.71713260589E+01  0.51100000000E-03 0.  1.
        -12    1    4    4    0    0  0.25863118047E+01 -0.11229100190E+02 -0.22105465310E+02  0.24928563866E+02  0.00000000000E+00 0.  1.
</event>
<event>
 8    1  0.2450026E-006  0.9118800E+02  0.7816164E-02  0.1184000E+00
        -11   -1    0    0    0    0  0.00000000000E+00  0.00000000000E+00  0.45593999997E+02  0.45594000000E+02  0.51100000000E-03 0. -1.
         11   -1    0    0    0    0 -0.00000000000E+00 -0.00000000000E+00 -0.45593999997E+02  0.45594000000E+02  0.51100000000E-03 0.  1.
         23    2    1    2    0    0  0.00000000000E+00  0.00000000000E+00 -0.88817841970E-15  0.91188000000E+02  0.91188000000E+02 0.  0.
    9900012    2    3    3    0    0 -0.89405486590E+01  0.35613121264E+02  0.27480907346E+01  0.54367084487E+02  0.40000000705E+02 0.  0.
        -12    1    3    3    0    0  0.89405486590E+01 -0.35613121264E+02 -0.27480907346E+01  0.36820915513E+02  0.00000000000E+00 0.  1.
         11    1    4    4    0    0  0.31928626418E+00  0.11942696798E+02  0.12232486229E+02  0.17098645272E+02  0.51100000000E-03 0. -1.
        -11    1    4    4    0    0 -0.10014776167E+02 -0.20512113644E+01 -0.38676810054E+01  0.10929874947E+02  0.51100000000E-03 0.  1.
         12    1    4    4    0    0  0.75494124342E+00  0.25721635831E+02 -0.56167144888E+01  0.26338564269E+02  0.00000000000E+00 0. -1.
</event>
<event>
 8    1  0.2450026E-006  0.9118800E+02  0.7816164E-02  0.1184000E+00
        -11   -1    0    0    0    0  0.00000000000E+00  0.00000000000E+00  0.45593999997E+02  0.45594000000E+02  0.51100000000E-03 0.  1.
         11   -1    0    0    0    0 -0.00000000000E+00 -0.00000000000E+00 -0.45593999997E+02  0.45594000000E+02  0.51100000000E-03 0. -1.
         23    2    1    2    0    0  0.00000000000E+00 -0.17763568394E-14  0.35527136788E-14  0.91188000000E+02  0.91188000000E+02 0.  0.
    9900012    2    3    3    0    0 -0.23239373482E+02 -0.13667446460E+02  0.25078121546E+02  0.54367085388E+02  0.40000002759E+02 0.  0.
         12    1    3    3    0    0  0.23239373482E+02  0.13667446460E+02 -0.25078121546E+02  0.36820914612E+02  0.00000000000E+00 0. -1.
         11    1    4    4    0    0 -0.85122648224E+01 -0.21682738105E+01  0.11408009250E+02  0.14398011634E+02  0.51100000000E-03 0. -1.
        -11    1    4    4    0    0 -0.11489272334E+02 -0.10648433452E+02  0.24251419029E+02  0.28870812925E+02  0.51100000000E-03 0.  1.
         12    1    4    4    0    0 -0.32378363261E+01 -0.85073919773E+00 -0.10581306733E+02  0.11098260829E+02  0.00000000000E+00 0. -1.
</event>
<event>
 8    1  0.2450026E-006  0.9118800E+02  0.7816164E-02  0.1184000E+00
        -11   -1    0    0    0    0  0.00000000000E+00  0.00000000000E+00  0.45593999997E+02  0.45594000000E+02  0.51100000000E-03 0. -1.
         11   -1    0    0    0    0 -0.00000000000E+00 -0.00000000000E+00 -0.45593999997E+02  0.45594000000E+02  0.51100000000E-03 0.  1.
         23    2    1    2    0    0  0.00000000000E+00  0.00000000000E+00  0.00000000000E+00  0.91188000000E+02  0.91188000000E+02 0.  0.
    9900012    2    3    3    0    0 -0.17053401665E+02  0.30824631771E+02  0.10714620398E+02  0.54367088518E+02  0.40000009894E+02 0.  0.
        -12    1    3    3    0    0  0.17053401665E+02 -0.30824631771E+02 -0.10714620398E+02  0.36820911482E+02  0.00000000000E+00 0.  1.
         11    1    4    4    0    0  0.32197224295E+01  0.23065557729E+02  0.73744595046E+01  0.24428860373E+02  0.51100000000E-03 0. -1.
        -11    1    4    4    0    0 -0.15029731366E-01  0.15253434399E+01  0.80770660143E+01  0.82198475754E+01  0.51100000000E-03 0.  1.
        -12    1    4    4    0    0 -0.20258094363E+02  0.62337306015E+01 -0.47369051211E+01  0.21718380569E+02  0.00000000000E+00 0.  1.
</event>
<event>
 8    1  0.2450026E-006  0.9118800E+02  0.7816164E-02  0.1184000E+00
        -11   -1    0    0    0    0  0.00000000000E+00  0.00000000000E+00  0.45593999997E+02  0.45594000000E+02  0.51100000000E-03 0. -1.
         11   -1    0    0    0    0 -0.00000000000E+00 -0.00000000000E+00 -0.45593999997E+02  0.45594000000E+02  0.51100000000E-03 0.  1.
         23    2    1    2    0    0  0.35527136788E-14 -0.35527136788E-14  0.00000000000E+00  0.91188000000E+02  0.91188000000E+02 0.  0.
    9900012    2    3    3    0    0 -0.29019210323E+02  0.22195108341E+02 -0.45871623636E+01  0.54367089357E+02  0.40000011807E+02 0.  0.
        -12    1    3    3    0    0  0.29019210323E+02 -0.22195108341E+02  0.45871623636E+01  0.36820910643E+02  0.00000000000E+00 0.  1.
         11    1    4    4    0    0 -0.94282440851E+01 -0.41866908616E+01  0.22633812187E+01  0.10561394875E+02  0.51100000000E-03 0. -1.
        -11    1    4    4    0    0 -0.24880591619E+02  0.27866517212E+02 -0.79712112801E+01  0.38198518693E+02  0.51100000000E-03 0.  1.
        -12    1    4    4    0    0  0.52896253806E+01 -0.14847180098E+01  0.11206676978E+01  0.56071757886E+01  0.00000000000E+00 0.  1.
</event>
<event>
 8    1  0.2450026E-006  0.9118800E+02  0.7816164E-02  0.1184000E+00
        -11   -1    0    0    0    0  0.00000000000E+00  0.00000000000E+00  0.45593999997E+02  0.45594000000E+02  0.51100000000E-03 0. -1.
         11   -1    0    0    0    0 -0.00000000000E+00 -0.00000000000E+00 -0.45593999997E+02  0.45594000000E+02  0.51100000000E-03 0.  1.
         23    2    1    2    0    0  0.71054273576E-14 -0.88817841970E-15  0.00000000000E+00  0.91188000000E+02  0.91188000000E+02 0.  0.
    9900012    2    3    3    0    0  0.35362676086E+02 -0.60574373325E+01  0.82806551299E+01  0.54367073119E+02  0.39999974790E+02 0.  0.
        -12    1    3    3    0    0 -0.35362676086E+02  0.60574373325E+01 -0.82806551299E+01  0.36820926881E+02  0.00000000000E+00 0.  1.
         11    1    4    4    0    0 -0.51093494037E+01 -0.91078755498E+01  0.88135145940E+00  0.10480249473E+02  0.51100000000E-03 0. -1.
        -11    1    4    4    0    0  0.16063617527E+02 -0.53619546581E+01  0.62248828600E+01  0.18042714117E+02  0.51100000000E-03 0.  1.
        -12    1    4    4    0    0  0.24408407962E+02  0.84123928754E+01  0.11744208104E+01  0.25844109530E+02  0.00000000000E+00 0.  1.
</event>
<event>
 8    1  0.2450026E-006  0.9118800E+02  0.7816164E-02  0.1184000E+00
        -11   -1    0    0    0    0  0.00000000000E+00  0.00000000000E+00  0.45593999997E+02  0.45594000000E+02  0.51100000000E-03 0.  1.
         11   -1    0    0    0    0 -0.00000000000E+00 -0.00000000000E+00 -0.45593999997E+02  0.45594000000E+02  0.51100000000E-03 0. -1.
         23    2    1    2    0    0 -0.35527136788E-14  0.00000000000E+00  0.71054273576E-14  0.91188000000E+02  0.91188000000E+02 0.  0.
    9900012    2    3    3    0    0  0.17535146637E+02 -0.11698279450E+02 -0.30190189489E+02  0.54367100350E+02  0.40000036867E+02 0.  0.
        -12    1    3    3    0    0 -0.17535146637E+02  0.11698279450E+02  0.30190189489E+02  0.36820899650E+02  0.00000000000E+00 0.  1.
         11    1    4    4    0    0 -0.97734698795E+01 -0.41268899397E+01 -0.13544796026E+02  0.17205040939E+02  0.51100000000E-03 0. -1.
        -11    1    4    4    0    0  0.35714417835E+01 -0.64648637822E+01  0.11495833177E+01  0.74747041547E+01  0.51100000000E-03 0.  1.
         12    1    4    4    0    0  0.23737174733E+02 -0.11065257280E+01 -0.17794976781E+02  0.29687355256E+02  0.00000000000E+00 0. -1.
</event>
<event>
 8    1  0.2450026E-006  0.9118800E+02  0.7816164E-02  0.1184000E+00
        -11   -1    0    0    0    0  0.00000000000E+00  0.00000000000E+00  0.45593999997E+02  0.45594000000E+02  0.51100000000E-03 0. -1.
         11   -1    0    0    0    0 -0.00000000000E+00 -0.00000000000E+00 -0.45593999997E+02  0.45594000000E+02  0.51100000000E-03 0.  1.
         23    2    1    2    0    0 -0.35527136788E-14  0.35527136788E-14  0.00000000000E+00  0.91188000000E+02  0.91188000000E+02 0.  0.
    9900012    2    3    3    0    0 -0.22652155201E+02 -0.27742511858E+02  0.85448410676E+01  0.54367062909E+02  0.39999951513E+02 0.  0.
        -12    1    3    3    0    0  0.22652155201E+02  0.27742511858E+02 -0.85448410676E+01  0.36820937091E+02  0.00000000000E+00 0.  1.
         11    1    4    4    0    0 -0.15407150767E+02 -0.22563605653E+02  0.19502553541E+02  0.33568529751E+02  0.51100000000E-03 0. -1.
        -11    1    4    4    0    0  0.46429893824E+01  0.21202327365E-02 -0.37061868502E+01  0.59408060169E+01  0.51100000000E-03 0.  1.
        -12    1    4    4    0    0 -0.11887993816E+02 -0.51810264377E+01 -0.72515256227E+01  0.14857727140E+02  0.00000000000E+00 0.  1.
</event>
<event>
 8    1  0.2450026E-006  0.9118800E+02  0.7816164E-02  0.1184000E+00
        -11   -1    0    0    0    0  0.00000000000E+00  0.00000000000E+00  0.45593999997E+02  0.45594000000E+02  0.51100000000E-03 0. -1.
         11   -1    0    0    0    0 -0.00000000000E+00 -0.00000000000E+00 -0.45593999997E+02  0.45594000000E+02  0.51100000000E-03 0.  1.
         23    2    1    2    0    0  0.00000000000E+00  0.00000000000E+00 -0.88817841970E-15  0.91188000000E+02  0.91188000000E+02 0.  0.
    9900012    2    3    3    0    0 -0.15542231472E+02 -0.33310777192E+02 -0.21476376903E+01  0.54367065956E+02  0.39999958460E+02 0.  0.
        -12    1    3    3    0    0  0.15542231472E+02  0.33310777192E+02  0.21476376903E+01  0.36820934044E+02  0.00000000000E+00 0.  1.
         11    1    4    4    0    0  0.35540570060E+01 -0.13829943474E+02 -0.44646995646E+00  0.14286286899E+02  0.51100000000E-03 0. -1.
        -11    1    4    4    0    0  0.67038523918E+01 -0.44864781779E+01 -0.58338447446E+01  0.99550925710E+01  0.51100000000E-03 0.  1.
         12    1    4    4    0    0 -0.25800140870E+02 -0.14994355540E+02  0.41326770108E+01  0.30125686486E+02  0.00000000000E+00 0. -1.
</event>
<event>
 8    1  0.2450026E-006  0.9118800E+02  0.7816164E-02  0.1184000E+00
        -11   -1    0    0    0    0  0.00000000000E+00  0.00000000000E+00  0.45593999997E+02  0.45594000000E+02  0.51100000000E-03 0. -1.
         11   -1    0    0    0    0 -0.00000000000E+00 -0.00000000000E+00 -0.45593999997E+02  0.45594000000E+02  0.51100000000E-03 0.  1.
         23    2    1    2    0    0  0.17763568394E-14  0.00000000000E+00 -0.88817841970E-15  0.91188000000E+02  0.91188000000E+02 0.  0.
    9900012    2    3    3    0    0 -0.11840513420E+02 -0.34374820013E+02  0.58270366795E+01  0.54367077070E+02  0.39999983797E+02 0.  0.
         12    1    3    3    0    0  0.11840513420E+02  0.34374820013E+02 -0.58270366795E+01  0.36820922930E+02  0.00000000000E+00 0. -1.
         11    1    4    4    0    0 -0.74866609730E+01  0.14729037373E+01 -0.56194453745E+01  0.94761650747E+01  0.51100000000E-03 0. -1.
        -11    1    4    4    0    0 -0.13480283500E+02 -0.14268359736E+02  0.80516185165E+01  0.21216330828E+02  0.51100000000E-03 0.  1.
         12    1    4    4    0    0  0.91264310535E+01 -0.21579364014E+02  0.33948635376E+01  0.23674581168E+02  0.00000000000E+00 0. -1.
</event>
<event>
 8    1  0.2450026E-006  0.9118800E+02  0.7816164E-02  0.1184000E+00
        -11   -1    0    0    0    0  0.00000000000E+00  0.00000000000E+00  0.45593999997E+02  0.45594000000E+02  0.51100000000E-03 0. -1.
         11   -1    0    0    0    0 -0.00000000000E+00 -0.00000000000E+00 -0.45593999997E+02  0.45594000000E+02  0.51100000000E-03 0.  1.
         23    2    1    2    0    0  0.00000000000E+00 -0.88817841970E-15  0.35527136788E-14  0.91188000000E+02  0.91188000000E+02 0.  0.
    9900012    2    3    3    0    0  0.25342964456E+02  0.61208786452E+01 -0.26000933599E+02  0.54367088131E+02  0.40000009013E+02 0.  0.
         12    1    3    3    0    0 -0.25342964456E+02 -0.61208786452E+01  0.26000933599E+02  0.36820911869E+02  0.00000000000E+00 0. -1.
         11    1    4    4    0    0  0.16023118229E+02  0.72983379882E+01 -0.29123506828E-01  0.17607012910E+02  0.51100000000E-03 0. -1.
        -11    1    4    4    0    0  0.86515245352E+01  0.42701663835E+01  0.56224373242E+00  0.96643321550E+01  0.51100000000E-03 0.  1.
         12    1    4    4    0    0  0.66832169188E+00 -0.54476257265E+01 -0.26534053825E+02  0.27095743066E+02  0.00000000000E+00 0. -1.
</event>
<event>
 8    1  0.2450026E-006  0.9118800E+02  0.7816164E-02  0.1184000E+00
        -11   -1    0    0    0    0  0.00000000000E+00  0.00000000000E+00  0.45593999997E+02  0.45594000000E+02  0.51100000000E-03 0. -1.
         11   -1    0    0    0    0 -0.00000000000E+00 -0.00000000000E+00 -0.45593999997E+02  0.45594000000E+02  0.51100000000E-03 0.  1.
         23    2    1    2    0    0  0.88817841970E-15  0.00000000000E+00  0.00000000000E+00  0.91188000000E+02  0.91188000000E+02 0.  0.
    9900012    2    3    3    0    0  0.75647589936E+01  0.32356287865E+02 -0.15862663972E+02  0.54367094914E+02  0.40000024476E+02 0.  0.
         12    1    3    3    0    0 -0.75647589936E+01 -0.32356287865E+02  0.15862663972E+02  0.36820905086E+02  0.00000000000E+00 0. -1.
         11    1    4    4    0    0 -0.31744224945E+01 -0.21053155294E+00  0.51740603958E+01  0.60738935576E+01  0.51100000000E-03 0. -1.
        -11    1    4    4    0    0 -0.43134982825E+00  0.32149875207E+02 -0.13884253660E+02  0.35022464768E+02  0.51100000000E-03 0.  1.
        -12    1    4    4    0    0  0.11170531316E+02  0.41694421106E+00 -0.71524707085E+01  0.13270736588E+02  0.00000000000E+00 0.  1.
</event>
<event>
 8    1  0.2450026E-006  0.9118800E+02  0.7816164E-02  0.1184000E+00
        -11   -1    0    0    0    0  0.00000000000E+00  0.00000000000E+00  0.45593999997E+02  0.45594000000E+02  0.51100000000E-03 0.  1.
         11   -1    0    0    0    0 -0.00000000000E+00 -0.00000000000E+00 -0.45593999997E+02  0.45594000000E+02  0.51100000000E-03 0. -1.
         23    2    1    2    0    0  0.00000000000E+00  0.17763568394E-14 -0.22204460493E-15  0.91188000000E+02  0.91188000000E+02 0.  0.
    9900012    2    3    3    0    0 -0.34609500278E+02 -0.12541265078E+02  0.82363673824E+00  0.54367092668E+02  0.40000019356E+02 0.  0.
        -12    1    3    3    0    0  0.34609500278E+02  0.12541265078E+02 -0.82363673824E+00  0.36820907332E+02  0.00000000000E+00 0.  1.
         11    1    4    4    0    0 -0.15862000281E+02 -0.15898809742E+02 -0.19123659674E+01  0.22539572932E+02  0.51100000000E-03 0.  1.
        -11    1    4    4    0    0  0.12682181266E+01  0.54164309906E+00 -0.85613983301E+01  0.86717527693E+01  0.51100000000E-03 0. -1.
         12    1    4    4    0    0 -0.20015718124E+02  0.28159015648E+01  0.11297401036E+02  0.23155766966E+02  0.00000000000E+00 0. -1.
</event>
<event>
 8    1  0.2450026E-006  0.9118800E+02  0.7816164E-02  0.1184000E+00
        -11   -1    0    0    0    0  0.00000000000E+00  0.00000000000E+00  0.45593999997E+02  0.45594000000E+02  0.51100000000E-03 0. -1.
         11   -1    0    0    0    0 -0.00000000000E+00 -0.00000000000E+00 -0.45593999997E+02  0.45594000000E+02  0.51100000000E-03 0.  1.
         23    2    1    2    0    0  0.00000000000E+00  0.00000000000E+00 -0.26645352591E-14  0.91188000000E+02  0.91188000000E+02 0.  0.
    9900012    2    3    3    0    0  0.31630541567E+02 -0.17158947815E+02 -0.78011851268E+01  0.54367093719E+02  0.40000021752E+02 0.  0.
         12    1    3    3    0    0 -0.31630541567E+02  0.17158947815E+02  0.78011851268E+01  0.36820906281E+02  0.00000000000E+00 0. -1.
         11    1    4    4    0    0 -0.36110225816E+01 -0.15978784090E+01  0.46412061004E+01  0.60937257751E+01  0.51100000000E-03 0. -1.
        -11    1    4    4    0    0  0.97230324976E+01 -0.15670183453E+02 -0.13304780788E+02  0.22740035235E+02  0.51100000000E-03 0.  1.
        -12    1    4    4    0    0  0.25518531651E+02  0.10911404722E+00  0.86238956085E+00  0.25533332709E+02  0.00000000000E+00 0.  1.
</event>
<event>
 8    1  0.2450026E-006  0.9118800E+02  0.7816164E-02  0.1184000E+00
        -11   -1    0    0    0    0  0.00000000000E+00  0.00000000000E+00  0.45593999997E+02  0.45594000000E+02  0.51100000000E-03 0.  1.
         11   -1    0    0    0    0 -0.00000000000E+00 -0.00000000000E+00 -0.45593999997E+02  0.45594000000E+02  0.51100000000E-03 0. -1.
         23    2    1    2    0    0 -0.88817841970E-15  0.00000000000E+00  0.35527136788E-14  0.91188000000E+02  0.91188000000E+02 0.  0.
    9900012    2    3    3    0    0 -0.42502258952E+01 -0.28360980728E+02  0.23094809099E+02  0.54367083997E+02  0.39999999588E+02 0.  0.
         12    1    3    3    0    0  0.42502258952E+01  0.28360980728E+02 -0.23094809099E+02  0.36820916003E+02  0.00000000000E+00 0. -1.
         11    1    4    4    0    0  0.33378778724E+01 -0.18854443278E+02 -0.54363812633E+01  0.19904414122E+02  0.51100000000E-03 0. -1.
        -11    1    4    4    0    0 -0.10299422387E+02 -0.26312954488E+01  0.10349193866E+02  0.14836024777E+02  0.51100000000E-03 0.  1.
         12    1    4    4    0    0  0.27113186196E+01 -0.68752420009E+01  0.18181996496E+02  0.19626645098E+02  0.00000000000E+00 0. -1.
</event>
<event>
 8    1  0.2450026E-006  0.9118800E+02  0.7816164E-02  0.1184000E+00
        -11   -1    0    0    0    0  0.00000000000E+00  0.00000000000E+00  0.45593999997E+02  0.45594000000E+02  0.51100000000E-03 0.  1.
         11   -1    0    0    0    0 -0.00000000000E+00 -0.00000000000E+00 -0.45593999997E+02  0.45594000000E+02  0.51100000000E-03 0. -1.
         23    2    1    2    0    0 -0.44408920985E-15  0.00000000000E+00  0.00000000000E+00  0.91188000000E+02  0.91188000000E+02 0.  0.
    9900012    2    3    3    0    0  0.24866821792E+01  0.20235350662E+02 -0.30661527446E+02  0.54367051207E+02  0.39999924837E+02 0.  0.
        -12    1    3    3    0    0 -0.24866821792E+01 -0.20235350662E+02  0.30661527446E+02  0.36820948793E+02  0.00000000000E+00 0.  1.
         11    1    4    4    0    0  0.49147094399E+01  0.10403857399E+02 -0.15253603213E+02  0.19106727321E+02  0.51100000000E-03 0. -1.
        -11    1    4    4    0    0  0.98695443565E+01  0.62718592649E+01  0.36954602299E+01  0.12263790239E+02  0.51100000000E-03 0.  1.
        -12    1    4    4    0    0 -0.12297571617E+02  0.35596339980E+01 -0.19103384463E+02  0.22996533648E+02  0.00000000000E+00 0.  1.
</event>
<event>
 8    1  0.2450026E-006  0.9118800E+02  0.7816164E-02  0.1184000E+00
        -11   -1    0    0    0    0  0.00000000000E+00  0.00000000000E+00  0.45593999997E+02  0.45594000000E+02  0.51100000000E-03 0.  1.
         11   -1    0    0    0    0 -0.00000000000E+00 -0.00000000000E+00 -0.45593999997E+02  0.45594000000E+02  0.51100000000E-03 0. -1.
         23    2    1    2    0    0  0.00000000000E+00  0.00000000000E+00  0.00000000000E+00  0.91188000000E+02  0.91188000000E+02 0.  0.
    9900012    2    3    3    0    0 -0.27827373923E+02  0.91912371036E+01  0.22292059530E+02  0.54367116020E+02  0.40000072591E+02 0.  0.
         12    1    3    3    0    0  0.27827373923E+02 -0.91912371036E+01 -0.22292059530E+02  0.36820883980E+02  0.00000000000E+00 0. -1.
         11    1    4    4    0    0 -0.14473011911E+01  0.10054993307E+02 -0.23186719385E+01  0.10419875765E+02  0.51100000000E-03 0. -1.
        -11    1    4    4    0    0 -0.23972758246E+02  0.39309284478E+00  0.29705357854E+02  0.38174021866E+02  0.51100000000E-03 0.  1.
        -12    1    4    4    0    0 -0.24073144862E+01 -0.12568490481E+01 -0.50946263853E+01  0.57732183894E+01  0.00000000000E+00 0.  1.
</event>
<event>
 8    1  0.2450026E-006  0.9118800E+02  0.7816164E-02  0.1184000E+00
        -11   -1    0    0    0    0  0.00000000000E+00  0.00000000000E+00  0.45593999997E+02  0.45594000000E+02  0.51100000000E-03 0.  1.
         11   -1    0    0    0    0 -0.00000000000E+00 -0.00000000000E+00 -0.45593999997E+02  0.45594000000E+02  0.51100000000E-03 0. -1.
         23    2    1    2    0    0  0.35527136788E-14  0.00000000000E+00  0.35527136788E-14  0.91188000000E+02  0.91188000000E+02 0.  0.
    9900012    2    3    3    0    0  0.31045336893E+02 -0.24632706505E+01  0.19644327160E+02  0.54367078846E+02  0.39999987845E+02 0.  0.
         12    1    3    3    0    0 -0.31045336893E+02  0.24632706505E+01 -0.19644327160E+02  0.36820921154E+02  0.00000000000E+00 0. -1.
         11    1    4    4    0    0  0.17373971532E+02  0.10617781082E+02 -0.17358887252E+01  0.20435397520E+02  0.51100000000E-03 0. -1.
        -11    1    4    4    0    0  0.16296371202E+02 -0.67873654381E+01  0.90416094483E+01  0.19834080407E+02  0.51100000000E-03 0.  1.
        -12    1    4    4    0    0 -0.26250058407E+01 -0.62936862943E+01  0.12338606437E+02  0.14097600918E+02  0.00000000000E+00 0.  1.
</event>
<event>
 8    1  0.2450026E-006  0.9118800E+02  0.7816164E-02  0.1184000E+00
        -11   -1    0    0    0    0  0.00000000000E+00  0.00000000000E+00  0.45593999997E+02  0.45594000000E+02  0.51100000000E-03 0. -1.
         11   -1    0    0    0    0 -0.00000000000E+00 -0.00000000000E+00 -0.45593999997E+02  0.45594000000E+02  0.51100000000E-03 0.  1.
         23    2    1    2    0    0  0.00000000000E+00  0.71054273576E-14 -0.17763568394E-14  0.91188000000E+02  0.91188000000E+02 0.  0.
    9900012    2    3    3    0    0 -0.22721043748E+01  0.34795745099E+02 -0.11826818275E+02  0.54367082496E+02  0.39999996167E+02 0.  0.
        -12    1    3    3    0    0  0.22721043748E+01 -0.34795745099E+02  0.11826818275E+02  0.36820917504E+02  0.00000000000E+00 0.  1.
         11    1    4    4    0    0 -0.29557171589E+01  0.51850561101E+01 -0.84316536351E+01  0.10330239788E+02  0.51100000000E-03 0. -1.
        -11    1    4    4    0    0  0.19899534851E+00  0.68907727073E+01 -0.16444936875E+02  0.17831385161E+02  0.51100000000E-03 0.  1.
         12    1    4    4    0    0  0.48461743562E+00  0.22719916282E+02  0.13049772236E+02  0.26205457548E+02  0.00000000000E+00 0. -1.
</event>
<event>
 8    1  0.2450026E-006  0.9118800E+02  0.7816164E-02  0.1184000E+00
        -11   -1    0    0    0    0  0.00000000000E+00  0.00000000000E+00  0.45593999997E+02  0.45594000000E+02  0.51100000000E-03 0. -1.
         11   -1    0    0    0    0 -0.00000000000E+00 -0.00000000000E+00 -0.45593999997E+02  0.45594000000E+02  0.51100000000E-03 0.  1.
         23    2    1    2    0    0  0.00000000000E+00  0.00000000000E+00 -0.35527136788E-14  0.91188000000E+02  0.91188000000E+02 0.  0.
    9900012    2    3    3    0    0  0.29537886448E+01  0.18533576775E+02  0.31679051070E+02  0.54367073720E+02  0.39999976159E+02 0.  0.
        -12    1    3    3    0    0 -0.29537886448E+01 -0.18533576775E+02 -0.31679051070E+02  0.36820926280E+02  0.00000000000E+00 0.  1.
         11    1    4    4    0    0 -0.14357602945E+01  0.11211192813E+02  0.82315668323E+01  0.13982522830E+02  0.51100000000E-03 0. -1.
        -11    1    4    4    0    0  0.16810692532E+02  0.97838569396E+01  0.98442223726E+01  0.21799815467E+02  0.51100000000E-03 0.  1.
        -12    1    4    4    0    0 -0.12421143593E+02 -0.24614729773E+01  0.13603261865E+02  0.18584735423E+02  0.00000000000E+00 0.  1.
</event>
<event>
 8    1  0.2450026E-006  0.9118800E+02  0.7816164E-02  0.1184000E+00
        -11   -1    0    0    0    0  0.00000000000E+00  0.00000000000E+00  0.45593999997E+02  0.45594000000E+02  0.51100000000E-03 0.  1.
         11   -1    0    0    0    0 -0.00000000000E+00 -0.00000000000E+00 -0.45593999997E+02  0.45594000000E+02  0.51100000000E-03 0. -1.
         23    2    1    2    0    0 -0.35527136788E-14  0.00000000000E+00 -0.71054273576E-14  0.91188000000E+02  0.91188000000E+02 0.  0.
    9900012    2    3    3    0    0  0.10895906056E+02  0.58117323671E+01  0.34688355207E+02  0.54367095763E+02  0.40000026410E+02 0.  0.
         12    1    3    3    0    0 -0.10895906056E+02 -0.58117323671E+01 -0.34688355207E+02  0.36820904237E+02  0.00000000000E+00 0. -1.
         11    1    4    4    0    0  0.46821533168E+00 -0.78953017161E+01  0.48967327494E+01  0.93023118989E+01  0.51100000000E-03 0. -1.
        -11    1    4    4    0    0  0.14695007782E+01  0.21262920588E+02  0.23638386365E+02  0.31828360540E+02  0.51100000000E-03 0.  1.
        -12    1    4    4    0    0  0.89581899459E+01 -0.75558865051E+01  0.61532360925E+01  0.13236423323E+02  0.00000000000E+00 0.  1.
</event>
<event>
 8    1  0.2450026E-006  0.9118800E+02  0.7816164E-02  0.1184000E+00
        -11   -1    0    0    0    0  0.00000000000E+00  0.00000000000E+00  0.45593999997E+02  0.45594000000E+02  0.51100000000E-03 0.  1.
         11   -1    0    0    0    0 -0.00000000000E+00 -0.00000000000E+00 -0.45593999997E+02  0.45594000000E+02  0.51100000000E-03 0. -1.
         23    2    1    2    0    0 -0.71054273576E-14 -0.17763568394E-14 -0.17763568394E-14  0.91188000000E+02  0.91188000000E+02 0.  0.
    9900012    2    3    3    0    0  0.32983221137E+02 -0.96764034676E+01  0.13200539133E+02  0.54367083471E+02  0.39999998388E+02 0.  0.
         12    1    3    3    0    0 -0.32983221137E+02  0.96764034676E+01 -0.13200539133E+02  0.36820916529E+02  0.00000000000E+00 0. -1.
         11    1    4    4    0    0  0.60086378326E-01  0.61303449924E+00  0.68843687914E+01  0.69118706287E+01  0.51100000000E-03 0. -1.
        -11    1    4    4    0    0  0.86161595400E+01  0.10883209735E+01  0.16583737806E+02  0.18720123066E+02  0.51100000000E-03 0.  1.
         12    1    4    4    0    0  0.24306975219E+02 -0.11377758940E+02 -0.10267567464E+02  0.28735089776E+02  0.00000000000E+00 0. -1.
</event>
<event>
 8    1  0.2450026E-006  0.9118800E+02  0.7816164E-02  0.1184000E+00
        -11   -1    0    0    0    0  0.00000000000E+00  0.00000000000E+00  0.45593999997E+02  0.45594000000E+02  0.51100000000E-03 0. -1.
         11   -1    0    0    0    0 -0.00000000000E+00 -0.00000000000E+00 -0.45593999997E+02  0.45594000000E+02  0.51100000000E-03 0.  1.
         23    2    1    2    0    0  0.00000000000E+00  0.71054273576E-14  0.17763568394E-14  0.91188000000E+02  0.91188000000E+02 0.  0.
    9900012    2    3    3    0    0  0.16361907891E+02  0.32907797430E+02  0.22652053223E+01  0.54367267842E+02  0.40000418697E+02 0.  0.
         12    1    3    3    0    0 -0.16361907891E+02 -0.32907797430E+02 -0.22652053223E+01  0.36820732158E+02  0.00000000000E+00 0. -1.
         11    1    4    4    0    0 -0.68267901817E+01  0.25533346746E+02  0.26863299983E+01  0.26566392856E+02  0.51100000000E-03 0. -1.
        -11    1    4    4    0    0  0.68940414408E+01  0.32039996448E+01  0.61142978473E+01  0.97559243303E+01  0.51100000000E-03 0.  1.
        -12    1    4    4    0    0  0.16294656632E+02  0.41704510389E+01 -0.65354225234E+01  0.18044950656E+02  0.00000000000E+00 0.  1.
</event>
<event>
 8    1  0.2450026E-006  0.9118800E+02  0.7816164E-02  0.1184000E+00
        -11   -1    0    0    0    0  0.00000000000E+00  0.00000000000E+00  0.45593999997E+02  0.45594000000E+02  0.51100000000E-03 0.  1.
         11   -1    0    0    0    0 -0.00000000000E+00 -0.00000000000E+00 -0.45593999997E+02  0.45594000000E+02  0.51100000000E-03 0. -1.
         23    2    1    2    0    0  0.00000000000E+00 -0.71054273576E-14  0.00000000000E+00  0.91188000000E+02  0.91188000000E+02 0.  0.
    9900012    2    3    3    0    0 -0.43460142681E+01 -0.33150706959E+02 -0.15424808419E+02  0.54367055869E+02  0.39999935465E+02 0.  0.
        -12    1    3    3    0    0  0.43460142681E+01  0.33150706959E+02  0.15424808419E+02  0.36820944131E+02  0.00000000000E+00 0.  1.
         11    1    4    4    0    0  0.18771079055E+01 -0.12015140674E+02 -0.93669105927E+01  0.15350119016E+02  0.51100000000E-03 0. -1.
        -11    1    4    4    0    0 -0.10500071364E+02  0.39460959903E+01 -0.75633033258E+01  0.13528737180E+02  0.51100000000E-03 0.  1.
         12    1    4    4    0    0  0.42769491904E+01 -0.25081662275E+02  0.15054054997E+01  0.25488199673E+02  0.00000000000E+00 0. -1.
</event>
<event>
 8    1  0.2450026E-006  0.9118800E+02  0.7816164E-02  0.1184000E+00
        -11   -1    0    0    0    0  0.00000000000E+00  0.00000000000E+00  0.45593999997E+02  0.45594000000E+02  0.51100000000E-03 0. -1.
         11   -1    0    0    0    0 -0.00000000000E+00 -0.00000000000E+00 -0.45593999997E+02  0.45594000000E+02  0.51100000000E-03 0.  1.
         23    2    1    2    0    0  0.00000000000E+00  0.35527136788E-14  0.00000000000E+00  0.91188000000E+02  0.91188000000E+02 0.  0.
    9900012    2    3    3    0    0  0.23432700469E+02 -0.26817695887E+02 -0.93550558645E+01  0.54366846648E+02  0.39999458500E+02 0.  0.
        -12    1    3    3    0    0 -0.23432700469E+02  0.26817695887E+02  0.93550558645E+01  0.36821153352E+02  0.00000000000E+00 0.  1.
         11    1    4    4    0    0  0.73126040731E+00 -0.12745613385E+02 -0.39748364705E+01  0.13371040631E+02  0.51100000000E-03 0. -1.
        -11    1    4    4    0    0  0.14780723315E+02 -0.23142251066E+02  0.77795148122E+00  0.27470689378E+02  0.51100000000E-03 0.  1.
        -12    1    4    4    0    0  0.79207167467E+01  0.90701685642E+01 -0.61581708753E+01  0.13525116639E+02  0.00000000000E+00 0.  1.
</event>
<event>
 8    1  0.2450026E-006  0.9118800E+02  0.7816164E-02  0.1184000E+00
        -11   -1    0    0    0    0  0.00000000000E+00  0.00000000000E+00  0.45593999997E+02  0.45594000000E+02  0.51100000000E-03 0.  1.
         11   -1    0    0    0    0 -0.00000000000E+00 -0.00000000000E+00 -0.45593999997E+02  0.45594000000E+02  0.51100000000E-03 0. -1.
         23    2    1    2    0    0  0.00000000000E+00  0.17763568394E-14  0.00000000000E+00  0.91188000000E+02  0.91188000000E+02 0.  0.
    9900012    2    3    3    0    0  0.33524019826E+02  0.15181770000E+02  0.11976681458E+01  0.54367075859E+02  0.39999981035E+02 0.  0.
         12    1    3    3    0    0 -0.33524019826E+02 -0.15181770000E+02 -0.11976681458E+01  0.36820924141E+02  0.00000000000E+00 0. -1.
         11    1    4    4    0    0  0.95011106702E+01  0.27758129796E+01 -0.36559293685E+01  0.10551874785E+02  0.51100000000E-03 0.  1.
        -11    1    4    4    0    0  0.29952465394E+01  0.19601095781E+02 -0.33796608540E+01  0.20114585887E+02  0.51100000000E-03 0. -1.
         12    1    4    4    0    0  0.21027662616E+02 -0.71951387603E+01  0.82332583684E+01  0.23700615187E+02  0.00000000000E+00 0. -1.
</event>
<event>
 8    1  0.2450026E-006  0.9118800E+02  0.7816164E-02  0.1184000E+00
        -11   -1    0    0    0    0  0.00000000000E+00  0.00000000000E+00  0.45593999997E+02  0.45594000000E+02  0.51100000000E-03 0.  1.
         11   -1    0    0    0    0 -0.00000000000E+00 -0.00000000000E+00 -0.45593999997E+02  0.45594000000E+02  0.51100000000E-03 0. -1.
         23    2    1    2    0    0  0.00000000000E+00  0.00000000000E+00  0.35527136788E-14  0.91188000000E+02  0.91188000000E+02 0.  0.
    9900012    2    3    3    0    0 -0.12323512649E+02 -0.23425222904E+02  0.25596292356E+02  0.54367079119E+02  0.39999988469E+02 0.  0.
         12    1    3    3    0    0  0.12323512649E+02  0.23425222904E+02 -0.25596292356E+02  0.36820920881E+02  0.00000000000E+00 0. -1.
         11    1    4    4    0    0  0.13591451945E+01 -0.56818371837E+01  0.35645544296E+01  0.68437269075E+01  0.51100000000E-03 0. -1.
        -11    1    4    4    0    0 -0.12872415415E+02 -0.17862088433E+02  0.31272952825E+02  0.38245926064E+02  0.51100000000E-03 0.  1.
        -12    1    4    4    0    0 -0.81024242814E+00  0.11870271275E+00 -0.92412148988E+01  0.92774261480E+01  0.00000000000E+00 0.  1.
</event>
<event>
 8    1  0.2450026E-006  0.9118800E+02  0.7816164E-02  0.1184000E+00
        -11   -1    0    0    0    0  0.00000000000E+00  0.00000000000E+00  0.45593999997E+02  0.45594000000E+02  0.51100000000E-03 0.  1.
         11   -1    0    0    0    0 -0.00000000000E+00 -0.00000000000E+00 -0.45593999997E+02  0.45594000000E+02  0.51100000000E-03 0. -1.
         23    2    1    2    0    0  0.00000000000E+00  0.00000000000E+00  0.00000000000E+00  0.91188000000E+02  0.91188000000E+02 0.  0.
    9900012    2    3    3    0    0  0.34348783299E+02  0.10427891642E+02  0.81980892467E+01  0.54366966534E+02  0.39999731807E+02 0.  0.
         12    1    3    3    0    0 -0.34348783299E+02 -0.10427891642E+02 -0.81980892467E+01  0.36821033466E+02  0.00000000000E+00 0. -1.
         11    1    4    4    0    0  0.28887262207E+02  0.14117568145E+02  0.37357478034E+01  0.32368742022E+02  0.51100000000E-03 0. -1.
        -11    1    4    4    0    0  0.70205310144E+00  0.69230376143E+01  0.72381160363E+01  0.10040500604E+02  0.51100000000E-03 0.  1.
         12    1    4    4    0    0  0.47594679900E+01 -0.10612714117E+02 -0.27757745930E+01  0.11957723908E+02  0.00000000000E+00 0. -1.
</event>
<event>
 8    1  0.2450026E-006  0.9118800E+02  0.7816164E-02  0.1184000E+00
        -11   -1    0    0    0    0  0.00000000000E+00  0.00000000000E+00  0.45593999997E+02  0.45594000000E+02  0.51100000000E-03 0. -1.
         11   -1    0    0    0    0 -0.00000000000E+00 -0.00000000000E+00 -0.45593999997E+02  0.45594000000E+02  0.51100000000E-03 0.  1.
         23    2    1    2    0    0  0.88817841970E-15  0.00000000000E+00 -0.17763568394E-14  0.91188000000E+02  0.91188000000E+02 0.  0.
    9900012    2    3    3    0    0 -0.53075866435E+01 -0.35385476513E+02 -0.86877894363E+01  0.54367080548E+02  0.39999991725E+02 0.  0.
        -12    1    3    3    0    0  0.53075866435E+01  0.35385476513E+02  0.86877894363E+01  0.36820919452E+02  0.00000000000E+00 0.  1.
         11    1    4    4    0    0 -0.18783074295E+02 -0.30394555610E+02 -0.10719751201E+02  0.37303430898E+02  0.51100000000E-03 0. -1.
        -11    1    4    4    0    0  0.24592444247E+01 -0.41979813356E+01  0.33984739287E+01  0.59346908714E+01  0.51100000000E-03 0.  1.
        -12    1    4    4    0    0  0.11016243227E+02 -0.79293956664E+00 -0.13665121640E+01  0.11128958778E+02  0.00000000000E+00 0.  1.
</event>
<event>
 8    1  0.2450026E-006  0.9118800E+02  0.7816164E-02  0.1184000E+00
        -11   -1    0    0    0    0  0.00000000000E+00  0.00000000000E+00  0.45593999997E+02  0.45594000000E+02  0.51100000000E-03 0.  1.
         11   -1    0    0    0    0 -0.00000000000E+00 -0.00000000000E+00 -0.45593999997E+02  0.45594000000E+02  0.51100000000E-03 0. -1.
         23    2    1    2    0    0  0.00000000000E+00  0.00000000000E+00  0.00000000000E+00  0.91188000000E+02  0.91188000000E+02 0.  0.
    9900012    2    3    3    0    0  0.57771995888E+01 -0.50467952607E+01  0.36012922660E+02  0.54367125812E+02  0.40000094913E+02 0.  0.
         12    1    3    3    0    0 -0.57771995888E+01  0.50467952607E+01 -0.36012922660E+02  0.36820874188E+02  0.00000000000E+00 0. -1.
         11    1    4    4    0    0  0.19896034231E+02 -0.32328623796E+01  0.95618025609E+01  0.22309900174E+02  0.51100000000E-03 0. -1.
        -11    1    4    4    0    0 -0.29476571565E+01  0.15371198908E+01  0.16174680543E+02  0.16512774182E+02  0.51100000000E-03 0.  1.
         12    1    4    4    0    0 -0.11171177486E+02 -0.33510527719E+01  0.10276439556E+02  0.15544451455E+02  0.00000000000E+00 0. -1.
</event>
<event>
 8    1  0.2450026E-006  0.9118800E+02  0.7816164E-02  0.1184000E+00
        -11   -1    0    0    0    0  0.00000000000E+00  0.00000000000E+00  0.45593999997E+02  0.45594000000E+02  0.51100000000E-03 0. -1.
         11   -1    0    0    0    0 -0.00000000000E+00 -0.00000000000E+00 -0.45593999997E+02  0.45594000000E+02  0.51100000000E-03 0.  1.
         23    2    1    2    0    0  0.00000000000E+00  0.00000000000E+00  0.16098233857E-14  0.91188000000E+02  0.91188000000E+02 0.  0.
    9900012    2    3    3    0    0  0.16633959851E+02  0.32848127192E+02 -0.30268384382E+00  0.54367086135E+02  0.40000004462E+02 0.  0.
        -12    1    3    3    0    0 -0.16633959851E+02 -0.32848127192E+02  0.30268384382E+00  0.36820913865E+02  0.00000000000E+00 0.  1.
         11    1    4    4    0    0  0.10934485191E+00  0.75988206855E+01  0.12404963815E+02  0.14547754453E+02  0.51100000000E-03 0. -1.
        -11    1    4    4    0    0  0.42916246133E+01  0.18169656239E+02 -0.16788660314E+02  0.25108037858E+02  0.51100000000E-03 0.  1.
        -12    1    4    4    0    0  0.12232990386E+02  0.70796502674E+01  0.40810126545E+01  0.14711293824E+02  0.00000000000E+00 0.  1.
</event>
<event>
 8    1  0.2450026E-006  0.9118800E+02  0.7816164E-02  0.1184000E+00
        -11   -1    0    0    0    0  0.00000000000E+00  0.00000000000E+00  0.45593999997E+02  0.45594000000E+02  0.51100000000E-03 0.  1.
         11   -1    0    0    0    0 -0.00000000000E+00 -0.00000000000E+00 -0.45593999997E+02  0.45594000000E+02  0.51100000000E-03 0. -1.
         23    2    1    2    0    0  0.35527136788E-14  0.00000000000E+00  0.00000000000E+00  0.91188000000E+02  0.91188000000E+02 0.  0.
    9900012    2    3    3    0    0 -0.31285052195E+02 -0.17442493439E+02  0.85313097990E+01  0.54367104912E+02  0.40000047268E+02 0.  0.
         12    1    3    3    0    0  0.31285052195E+02  0.17442493439E+02 -0.85313097990E+01  0.36820895088E+02  0.00000000000E+00 0. -1.
         11    1    4    4    0    0  0.44233257879E+01 -0.62593718405E+01  0.59724321910E+01  0.97167635250E+01  0.51100000000E-03 0. -1.
        -11    1    4    4    0    0 -0.18233782283E+02 -0.10288133159E+02 -0.99116249338E+01  0.23163695934E+02  0.51100000000E-03 0.  1.
         12    1    4    4    0    0 -0.17474595700E+02 -0.89498843909E+00  0.12470502542E+02  0.21486645453E+02  0.00000000000E+00 0. -1.
</event>
<event>
 8    1  0.2450026E-006  0.9118800E+02  0.7816164E-02  0.1184000E+00
        -11   -1    0    0    0    0  0.00000000000E+00  0.00000000000E+00  0.45593999997E+02  0.45594000000E+02  0.51100000000E-03 0.  1.
         11   -1    0    0    0    0 -0.00000000000E+00 -0.00000000000E+00 -0.45593999997E+02  0.45594000000E+02  0.51100000000E-03 0. -1.
         23    2    1    2    0    0 -0.35527136788E-14  0.00000000000E+00  0.00000000000E+00  0.91188000000E+02  0.91188000000E+02 0.  0.
    9900012    2    3    3    0    0  0.19944179166E+02 -0.74811076811E+01  0.30033951005E+02  0.54367143577E+02  0.40000135413E+02 0.  0.
         12    1    3    3    0    0 -0.19944179166E+02  0.74811076811E+01 -0.30033951005E+02  0.36820856423E+02  0.00000000000E+00 0. -1.
         11    1    4    4    0    0  0.14835172079E+01 -0.30379267031E+01  0.11281171183E+02  0.11776869086E+02  0.51100000000E-03 0. -1.
        -11    1    4    4    0    0  0.21371516431E+02  0.98705436402E+01  0.12997706230E+02  0.26890699393E+02  0.51100000000E-03 0.  1.
         12    1    4    4    0    0 -0.29108544733E+01 -0.14313724618E+02  0.57550735913E+01  0.15699575098E+02  0.00000000000E+00 0. -1.
</event>
<event>
 8    1  0.2450026E-006  0.9118800E+02  0.7816164E-02  0.1184000E+00
        -11   -1    0    0    0    0  0.00000000000E+00  0.00000000000E+00  0.45593999997E+02  0.45594000000E+02  0.51100000000E-03 0.  1.
         11   -1    0    0    0    0 -0.00000000000E+00 -0.00000000000E+00 -0.45593999997E+02  0.45594000000E+02  0.51100000000E-03 0. -1.
         23    2    1    2    0    0  0.17763568394E-14  0.00000000000E+00  0.00000000000E+00  0.91188000000E+02  0.91188000000E+02 0.  0.
    9900012    2    3    3    0    0  0.12194588930E+02  0.24234581087E+02  0.24894914486E+02  0.54367086284E+02  0.40000004801E+02 0.  0.
         12    1    3    3    0    0 -0.12194588930E+02 -0.24234581087E+02 -0.24894914486E+02  0.36820913716E+02  0.00000000000E+00 0. -1.
         11    1    4    4    0    0  0.73567204586E+01  0.29587817193E+01 -0.16706385664E+00  0.79311812337E+01  0.51100000000E-03 0. -1.
        -11    1    4    4    0    0 -0.13750924800E+02  0.98838229461E+01  0.78842337746E+01  0.18679909833E+02  0.51100000000E-03 0.  1.
        -12    1    4    4    0    0  0.18588793271E+02  0.11391976422E+02  0.17177744568E+02  0.27755995217E+02  0.00000000000E+00 0.  1.
</event>
<event>
 8    1  0.2450026E-006  0.9118800E+02  0.7816164E-02  0.1184000E+00
        -11   -1    0    0    0    0  0.00000000000E+00  0.00000000000E+00  0.45593999997E+02  0.45594000000E+02  0.51100000000E-03 0. -1.
         11   -1    0    0    0    0 -0.00000000000E+00 -0.00000000000E+00 -0.45593999997E+02  0.45594000000E+02  0.51100000000E-03 0.  1.
         23    2    1    2    0    0  0.17763568394E-14  0.00000000000E+00  0.35527136788E-14  0.91188000000E+02  0.91188000000E+02 0.  0.
    9900012    2    3    3    0    0  0.91469630989E+01  0.24952492023E+02  0.25485015635E+02  0.54367084558E+02  0.40000000866E+02 0.  0.
        -12    1    3    3    0    0 -0.91469630989E+01 -0.24952492023E+02 -0.25485015635E+02  0.36820915442E+02  0.00000000000E+00 0.  1.
         11    1    4    4    0    0  0.13560451554E+02  0.97201606406E+00  0.14198362845E+02  0.19657674565E+02  0.51100000000E-03 0. -1.
        -11    1    4    4    0    0  0.36895592261E+00  0.35789541422E+01 -0.63646371467E+01  0.73112001405E+01  0.51100000000E-03 0.  1.
        -12    1    4    4    0    0 -0.47824443777E+01  0.20401521816E+02  0.17651289937E+02  0.27398209852E+02  0.00000000000E+00 0.  1.
</event>
<event>
 8    1  0.2450026E-006  0.9118800E+02  0.7816164E-02  0.1184000E+00
        -11   -1    0    0    0    0  0.00000000000E+00  0.00000000000E+00  0.45593999997E+02  0.45594000000E+02  0.51100000000E-03 0. -1.
         11   -1    0    0    0    0 -0.00000000000E+00 -0.00000000000E+00 -0.45593999997E+02  0.45594000000E+02  0.51100000000E-03 0.  1.
         23    2    1    2    0    0  0.00000000000E+00  0.00000000000E+00  0.44408920985E-15  0.91188000000E+02  0.91188000000E+02 0.  0.
    9900012    2    3    3    0    0  0.31204505917E+02 -0.19200087205E+02  0.36623031776E+01  0.54367122732E+02  0.40000087892E+02 0.  0.
         12    1    3    3    0    0 -0.31204505917E+02  0.19200087205E+02 -0.36623031776E+01  0.36820877268E+02  0.00000000000E+00 0. -1.
         11    1    4    4    0    0  0.24175055277E+02 -0.36580699003E+01  0.65024244755E+01  0.25300124454E+02  0.51100000000E-03 0. -1.
        -11    1    4    4    0    0  0.13352638901E+02 -0.15440144879E+02 -0.69050194008E+01  0.21549253646E+02  0.51100000000E-03 0.  1.
         12    1    4    4    0    0 -0.63231882607E+01 -0.10187242490E+00  0.40648981029E+01  0.75177446324E+01  0.00000000000E+00 0. -1.
</event>
<event>
 8    1  0.2450026E-006  0.9118800E+02  0.7816164E-02  0.1184000E+00
        -11   -1    0    0    0    0  0.00000000000E+00  0.00000000000E+00  0.45593999997E+02  0.45594000000E+02  0.51100000000E-03 0. -1.
         11   -1    0    0    0    0 -0.00000000000E+00 -0.00000000000E+00 -0.45593999997E+02  0.45594000000E+02  0.51100000000E-03 0.  1.
         23    2    1    2    0    0  0.00000000000E+00 -0.71054273576E-14  0.88817841970E-15  0.91188000000E+02  0.91188000000E+02 0.  0.
    9900012    2    3    3    0    0 -0.69004682012E+01 -0.35578878894E+02  0.65047309392E+01  0.54367019441E+02  0.39999852419E+02 0.  0.
         12    1    3    3    0    0  0.69004682012E+01  0.35578878894E+02 -0.65047309392E+01  0.36820980559E+02  0.00000000000E+00 0. -1.
         11    1    4    4    0    0 -0.40126660291E+01  0.39463750222E+01  0.47573744435E+01  0.73693945704E+01  0.51100000000E-03 0. -1.
        -11    1    4    4    0    0  0.79511403797E+01 -0.30220622325E+01  0.26474838683E+01  0.89085725326E+01  0.51100000000E-03 0.  1.
        -12    1    4    4    0    0 -0.10838942552E+02 -0.36503191683E+02 -0.90012737261E+00  0.38089052338E+02  0.00000000000E+00 0.  1.
</event>
<event>
 8    1  0.2450026E-006  0.9118800E+02  0.7816164E-02  0.1184000E+00
        -11   -1    0    0    0    0  0.00000000000E+00  0.00000000000E+00  0.45593999997E+02  0.45594000000E+02  0.51100000000E-03 0.  1.
         11   -1    0    0    0    0 -0.00000000000E+00 -0.00000000000E+00 -0.45593999997E+02  0.45594000000E+02  0.51100000000E-03 0. -1.
         23    2    1    2    0    0 -0.17763568394E-14  0.00000000000E+00  0.00000000000E+00  0.91188000000E+02  0.91188000000E+02 0.  0.
    9900012    2    3    3    0    0 -0.86213924020E+01  0.64264038924E+01  0.35215797986E+02  0.54367088798E+02  0.40000010533E+02 0.  0.
         12    1    3    3    0    0  0.86213924020E+01 -0.64264038924E+01 -0.35215797986E+02  0.36820911202E+02  0.00000000000E+00 0. -1.
         11    1    4    4    0    0  0.70414546497E+01 -0.31951479448E+01 -0.55982566327E+01  0.95462836517E+01  0.51100000000E-03 0. -1.
        -11    1    4    4    0    0 -0.30368132359E+01  0.29040368358E+01  0.84244601271E+01  0.94142016798E+01  0.51100000000E-03 0.  1.
         12    1    4    4    0    0 -0.12626033816E+02  0.67175150014E+01  0.32389594492E+02  0.35406603467E+02  0.00000000000E+00 0. -1.
</event>
<event>
 8    1  0.2450026E-006  0.9118800E+02  0.7816164E-02  0.1184000E+00
        -11   -1    0    0    0    0  0.00000000000E+00  0.00000000000E+00  0.45593999997E+02  0.45594000000E+02  0.51100000000E-03 0.  1.
         11   -1    0    0    0    0 -0.00000000000E+00 -0.00000000000E+00 -0.45593999997E+02  0.45594000000E+02  0.51100000000E-03 0. -1.
         23    2    1    2    0    0  0.35527136788E-14  0.00000000000E+00  0.55511151231E-15  0.91188000000E+02  0.91188000000E+02 0.  0.
    9900012    2    3    3    0    0 -0.16500311512E+02  0.32911758472E+02 -0.57884831212E+00  0.54367093016E+02  0.40000020149E+02 0.  0.
         12    1    3    3    0    0  0.16500311512E+02 -0.32911758472E+02  0.57884831212E+00  0.36820906984E+02  0.00000000000E+00 0. -1.
         11    1    4    4    0    0  0.79423874638E+01  0.16292492438E+02  0.30033115785E+01  0.18372444289E+02  0.51100000000E-03 0. -1.
        -11    1    4    4    0    0 -0.14696074125E+02  0.14368114677E+02  0.67312021986E+01  0.21626983085E+02  0.51100000000E-03 0.  1.
         12    1    4    4    0    0 -0.97466248510E+01  0.22511513570E+01 -0.10313362089E+02  0.14367665642E+02  0.00000000000E+00 0. -1.
</event>
<event>
 8    1  0.2450026E-006  0.9118800E+02  0.7816164E-02  0.1184000E+00
        -11   -1    0    0    0    0  0.00000000000E+00  0.00000000000E+00  0.45593999997E+02  0.45594000000E+02  0.51100000000E-03 0.  1.
         11   -1    0    0    0    0 -0.00000000000E+00 -0.00000000000E+00 -0.45593999997E+02  0.45594000000E+02  0.51100000000E-03 0. -1.
         23    2    1    2    0    0  0.00000000000E+00 -0.88817841970E-15  0.00000000000E+00  0.91188000000E+02  0.91188000000E+02 0.  0.
    9900012    2    3    3    0    0 -0.29848020205E+02 -0.29841261495E+01  0.21353473537E+02  0.54367079980E+02  0.39999990430E+02 0.  0.
         12    1    3    3    0    0  0.29848020205E+02  0.29841261495E+01 -0.21353473537E+02  0.36820920020E+02  0.00000000000E+00 0. -1.
         11    1    4    4    0    0 -0.88921480113E+01 -0.81361626546E+01  0.26722539344E+01  0.12345378907E+02  0.51100000000E-03 0. -1.
        -11    1    4    4    0    0 -0.17029866280E+02  0.17557123290E+02  0.10269514081E+02  0.26527944577E+02  0.51100000000E-03 0.  1.
        -12    1    4    4    0    0 -0.39260059133E+01 -0.12405086785E+02  0.84117055220E+01  0.15493756496E+02  0.00000000000E+00 0.  1.
</event>
<event>
 8    1  0.2450026E-006  0.9118800E+02  0.7816164E-02  0.1184000E+00
        -11   -1    0    0    0    0  0.00000000000E+00  0.00000000000E+00  0.45593999997E+02  0.45594000000E+02  0.51100000000E-03 0. -1.
         11   -1    0    0    0    0 -0.00000000000E+00 -0.00000000000E+00 -0.45593999997E+02  0.45594000000E+02  0.51100000000E-03 0.  1.
         23    2    1    2    0    0 -0.17763568394E-14  0.35527136788E-14  0.35527136788E-14  0.91188000000E+02  0.91188000000E+02 0.  0.
    9900012    2    3    3    0    0  0.11152016549E+02 -0.22146914702E+02 -0.27219987325E+02  0.54367068264E+02  0.39999963721E+02 0.  0.
         12    1    3    3    0    0 -0.11152016549E+02  0.22146914702E+02  0.27219987325E+02  0.36820931736E+02  0.00000000000E+00 0. -1.
         11    1    4    4    0    0 -0.73770411372E+01  0.12798849016E+01  0.58775804985E+01  0.95186550562E+01  0.51100000000E-03 0. -1.
        -11    1    4    4    0    0  0.62305502808E+01 -0.62614994764E+01 -0.69540914035E+01  0.11242131471E+02  0.51100000000E-03 0.  1.
         12    1    4    4    0    0  0.12298507405E+02 -0.17165300127E+02 -0.26143476420E+02  0.33606281737E+02  0.00000000000E+00 0. -1.
</event>
<event>
 8    1  0.2450026E-006  0.9118800E+02  0.7816164E-02  0.1184000E+00
        -11   -1    0    0    0    0  0.00000000000E+00  0.00000000000E+00  0.45593999997E+02  0.45594000000E+02  0.51100000000E-03 0.  1.
         11   -1    0    0    0    0 -0.00000000000E+00 -0.00000000000E+00 -0.45593999997E+02  0.45594000000E+02  0.51100000000E-03 0. -1.
         23    2    1    2    0    0  0.00000000000E+00  0.00000000000E+00 -0.35527136788E-14  0.91188000000E+02  0.91188000000E+02 0.  0.
    9900012    2    3    3    0    0 -0.13621204590E+02  0.17371527936E+02 -0.29469854814E+02  0.54367088278E+02  0.40000009347E+02 0.  0.
        -12    1    3    3    0    0  0.13621204590E+02 -0.17371527936E+02  0.29469854814E+02  0.36820911722E+02  0.00000000000E+00 0.  1.
         11    1    4    4    0    0 -0.70056296904E+01  0.12160147625E+02 -0.34495752474E+02  0.37241173138E+02  0.51100000000E-03 0. -1.
        -11    1    4    4    0    0  0.16197077888E+01  0.57466717663E+01 -0.19906026817E+01  0.62936626068E+01  0.51100000000E-03 0.  1.
         12    1    4    4    0    0 -0.82352826881E+01 -0.53529145536E+00  0.70165003421E+01  0.10832252533E+02  0.00000000000E+00 0. -1.
</event>
<event>
 8    1  0.2450026E-006  0.9118800E+02  0.7816164E-02  0.1184000E+00
        -11   -1    0    0    0    0  0.00000000000E+00  0.00000000000E+00  0.45593999997E+02  0.45594000000E+02  0.51100000000E-03 0. -1.
         11   -1    0    0    0    0 -0.00000000000E+00 -0.00000000000E+00 -0.45593999997E+02  0.45594000000E+02  0.51100000000E-03 0.  1.
         23    2    1    2    0    0  0.88817841970E-15  0.00000000000E+00  0.00000000000E+00  0.91188000000E+02  0.91188000000E+02 0.  0.
    9900012    2    3    3    0    0  0.14174597033E+01  0.34916200735E+02  0.11602928150E+02  0.54367106374E+02  0.40000050601E+02 0.  0.
        -12    1    3    3    0    0 -0.14174597033E+01 -0.34916200735E+02 -0.11602928150E+02  0.36820893626E+02  0.00000000000E+00 0.  1.
         11    1    4    4    0    0  0.69979882156E+01 -0.14359803068E+01  0.91916231737E+01  0.11641297837E+02  0.51100000000E-03 0. -1.
        -11    1    4    4    0    0 -0.67388969843E+01  0.15094876461E+02 -0.87336811368E+01  0.18696128327E+02  0.51100000000E-03 0.  1.
        -12    1    4    4    0    0  0.11583684721E+01  0.21257304580E+02  0.11144986113E+02  0.24029680210E+02  0.00000000000E+00 0.  1.
</event>
<event>
 8    1  0.2450026E-006  0.9118800E+02  0.7816164E-02  0.1184000E+00
        -11   -1    0    0    0    0  0.00000000000E+00  0.00000000000E+00  0.45593999997E+02  0.45594000000E+02  0.51100000000E-03 0. -1.
         11   -1    0    0    0    0 -0.00000000000E+00 -0.00000000000E+00 -0.45593999997E+02  0.45594000000E+02  0.51100000000E-03 0.  1.
         23    2    1    2    0    0  0.00000000000E+00 -0.17763568394E-14  0.17763568394E-14  0.91188000000E+02  0.91188000000E+02 0.  0.
    9900012    2    3    3    0    0 -0.32286496927E+02  0.86290791685E+01 -0.15456426990E+02  0.54367081674E+02  0.39999994291E+02 0.  0.
         12    1    3    3    0    0  0.32286496927E+02 -0.86290791685E+01  0.15456426990E+02  0.36820918326E+02  0.00000000000E+00 0. -1.
         11    1    4    4    0    0  0.28642544201E+01  0.14154525173E+02 -0.87597946703E+01  0.16890486647E+02  0.51100000000E-03 0. -1.
        -11    1    4    4    0    0 -0.71591166397E-01  0.11513481187E+01 -0.37072499782E+00  0.12116786169E+01  0.51100000000E-03 0.  1.
        -12    1    4    4    0    0 -0.35079160181E+02 -0.66767941229E+01 -0.63259073215E+01  0.36264916410E+02  0.00000000000E+00 0.  1.
</event>
<event>
 8    1  0.2450026E-006  0.9118800E+02  0.7816164E-02  0.1184000E+00
        -11   -1    0    0    0    0  0.00000000000E+00  0.00000000000E+00  0.45593999997E+02  0.45594000000E+02  0.51100000000E-03 0. -1.
         11   -1    0    0    0    0 -0.00000000000E+00 -0.00000000000E+00 -0.45593999997E+02  0.45594000000E+02  0.51100000000E-03 0.  1.
         23    2    1    2    0    0  0.00000000000E+00  0.00000000000E+00  0.35527136788E-14  0.91188000000E+02  0.91188000000E+02 0.  0.
    9900012    2    3    3    0    0 -0.23426614243E+02  0.82784130956E+01  0.27174290405E+02  0.54367076094E+02  0.39999981572E+02 0.  0.
        -12    1    3    3    0    0  0.23426614243E+02 -0.82784130956E+01 -0.27174290405E+02  0.36820923906E+02  0.00000000000E+00 0.  1.
         11    1    4    4    0    0 -0.41752482534E+01 -0.26711672611E+00  0.23880280063E+02  0.24244005970E+02  0.51100000000E-03 0. -1.
        -11    1    4    4    0    0 -0.17399905482E+02 -0.26743865088E+01 -0.17340141705E+01  0.17689427899E+02  0.51100000000E-03 0.  1.
        -12    1    4    4    0    0 -0.18514605072E+01  0.11219916331E+02  0.50280245122E+01  0.12433642225E+02  0.00000000000E+00 0.  1.
</event>
<event>
 8    1  0.2450026E-006  0.9118800E+02  0.7816164E-02  0.1184000E+00
        -11   -1    0    0    0    0  0.00000000000E+00  0.00000000000E+00  0.45593999997E+02  0.45594000000E+02  0.51100000000E-03 0. -1.
         11   -1    0    0    0    0 -0.00000000000E+00 -0.00000000000E+00 -0.45593999997E+02  0.45594000000E+02  0.51100000000E-03 0.  1.
         23    2    1    2    0    0 -0.35527136788E-14  0.00000000000E+00 -0.22204460493E-14  0.91188000000E+02  0.91188000000E+02 0.  0.
    9900012    2    3    3    0    0 -0.17447877550E+02  0.32348724886E+02 -0.22163704195E+01  0.54367072111E+02  0.39999972491E+02 0.  0.
         12    1    3    3    0    0  0.17447877550E+02 -0.32348724886E+02  0.22163704195E+01  0.36820927889E+02  0.00000000000E+00 0. -1.
         11    1    4    4    0    0 -0.19746441125E+02  0.26369545320E+02  0.71937714124E+01  0.33719804342E+02  0.51100000000E-03 0. -1.
        -11    1    4    4    0    0  0.34205959349E+01  0.10859001495E+02 -0.10539318285E+02  0.15514368185E+02  0.51100000000E-03 0.  1.
         12    1    4    4    0    0 -0.11220323604E+01 -0.48798219285E+01  0.11291764533E+01  0.51328995835E+01  0.00000000000E+00 0. -1.
</event>
<event>
 8    1  0.2450026E-006  0.9118800E+02  0.7816164E-02  0.1184000E+00
        -11   -1    0    0    0    0  0.00000000000E+00  0.00000000000E+00  0.45593999997E+02  0.45594000000E+02  0.51100000000E-03 0.  1.
         11   -1    0    0    0    0 -0.00000000000E+00 -0.00000000000E+00 -0.45593999997E+02  0.45594000000E+02  0.51100000000E-03 0. -1.
         23    2    1    2    0    0  0.35527136788E-14  0.35527136788E-14  0.00000000000E+00  0.91188000000E+02  0.91188000000E+02 0.  0.
    9900012    2    3    3    0    0  0.28332193256E+02 -0.22635571961E+02  0.63794395151E+01  0.54367088262E+02  0.40000009311E+02 0.  0.
         12    1    3    3    0    0 -0.28332193256E+02  0.22635571961E+02 -0.63794395151E+01  0.36820911738E+02  0.00000000000E+00 0. -1.
         11    1    4    4    0    0  0.17982590425E+01 -0.12226792939E+02 -0.70823382114E+00  0.12378602367E+02  0.51100000000E-03 0. -1.
        -11    1    4    4    0    0  0.28626654892E+02 -0.40529366838E+00  0.11504908967E+02  0.30854700839E+02  0.51100000000E-03 0.  1.
        -12    1    4    4    0    0 -0.20927206778E+01 -0.10003485353E+02 -0.44172356311E+01  0.11133785056E+02  0.00000000000E+00 0.  1.
</event>
<event>
 8    1  0.2450026E-006  0.9118800E+02  0.7816164E-02  0.1184000E+00
        -11   -1    0    0    0    0  0.00000000000E+00  0.00000000000E+00  0.45593999997E+02  0.45594000000E+02  0.51100000000E-03 0. -1.
         11   -1    0    0    0    0 -0.00000000000E+00 -0.00000000000E+00 -0.45593999997E+02  0.45594000000E+02  0.51100000000E-03 0.  1.
         23    2    1    2    0    0 -0.88817841970E-15  0.00000000000E+00  0.00000000000E+00  0.91188000000E+02  0.91188000000E+02 0.  0.
    9900012    2    3    3    0    0  0.21246311668E+01 -0.32971156146E+02  0.16253260208E+02  0.54367086613E+02  0.40000005553E+02 0.  0.
        -12    1    3    3    0    0 -0.21246311668E+01  0.32971156146E+02 -0.16253260208E+02  0.36820913387E+02  0.00000000000E+00 0.  1.
         11    1    4    4    0    0 -0.10948778059E+02 -0.27491881122E+02  0.14166316870E+02  0.32807983823E+02  0.51100000000E-03 0. -1.
        -11    1    4    4    0    0  0.58886098739E+00 -0.54077421388E+01  0.63547859009E+01  0.83650305684E+01  0.51100000000E-03 0.  1.
        -12    1    4    4    0    0  0.12484548238E+02 -0.71532885336E-01 -0.42678425627E+01  0.13194072222E+02  0.00000000000E+00 0.  1.
</event>
<event>
 8    1  0.2450026E-006  0.9118800E+02  0.7816164E-02  0.1184000E+00
        -11   -1    0    0    0    0  0.00000000000E+00  0.00000000000E+00  0.45593999997E+02  0.45594000000E+02  0.51100000000E-03 0. -1.
         11   -1    0    0    0    0 -0.00000000000E+00 -0.00000000000E+00 -0.45593999997E+02  0.45594000000E+02  0.51100000000E-03 0.  1.
         23    2    1    2    0    0  0.00000000000E+00  0.00000000000E+00  0.35527136788E-14  0.91188000000E+02  0.91188000000E+02 0.  0.
    9900012    2    3    3    0    0 -0.20288847225E+02 -0.19072759515E+02 -0.24090927330E+02  0.54367078545E+02  0.39999987158E+02 0.  0.
         12    1    3    3    0    0  0.20288847225E+02  0.19072759515E+02  0.24090927330E+02  0.36820921455E+02  0.00000000000E+00 0. -1.
         11    1    4    4    0    0 -0.84599806313E+00  0.11760859817E+01 -0.35828128787E+00  0.14923996453E+01  0.51100000000E-03 0. -1.
        -11    1    4    4    0    0 -0.42294089872E+01 -0.60751374805E+01 -0.30204157801E+02  0.31098011906E+02  0.51100000000E-03 0.  1.
         12    1    4    4    0    0 -0.15213440174E+02 -0.14173708016E+02  0.64715117593E+01  0.21776666993E+02  0.00000000000E+00 0. -1.
</event>
<event>
 8    1  0.2450026E-006  0.9118800E+02  0.7816164E-02  0.1184000E+00
        -11   -1    0    0    0    0  0.00000000000E+00  0.00000000000E+00  0.45593999997E+02  0.45594000000E+02  0.51100000000E-03 0. -1.
         11   -1    0    0    0    0 -0.00000000000E+00 -0.00000000000E+00 -0.45593999997E+02  0.45594000000E+02  0.51100000000E-03 0.  1.
         23    2    1    2    0    0  0.00000000000E+00  0.35527136788E-14  0.13322676296E-14  0.91188000000E+02  0.91188000000E+02 0.  0.
    9900012    2    3    3    0    0  0.24981708974E+02 -0.26859848869E+02 -0.32002562329E+01  0.54367096908E+02  0.40000029022E+02 0.  0.
         12    1    3    3    0    0 -0.24981708974E+02  0.26859848869E+02  0.32002562329E+01  0.36820903092E+02  0.00000000000E+00 0. -1.
         11    1    4    4    0    0  0.52124111636E+01  0.29312240210E+01 -0.51835222802E+01  0.79139249358E+01  0.51100000000E-03 0. -1.
        -11    1    4    4    0    0  0.15405330546E+02 -0.29764360039E+02  0.11943107426E+02  0.35579195508E+02  0.51100000000E-03 0.  1.
        -12    1    4    4    0    0  0.43639672642E+01 -0.26712850824E-01 -0.99598413785E+01  0.10873976464E+02  0.00000000000E+00 0.  1.
</event>
<event>
 8    1  0.2450026E-006  0.9118800E+02  0.7816164E-02  0.1184000E+00
        -11   -1    0    0    0    0  0.00000000000E+00  0.00000000000E+00  0.45593999997E+02  0.45594000000E+02  0.51100000000E-03 0.  1.
         11   -1    0    0    0    0 -0.00000000000E+00 -0.00000000000E+00 -0.45593999997E+02  0.45594000000E+02  0.51100000000E-03 0. -1.
         23    2    1    2    0    0 -0.17763568394E-14 -0.35527136788E-14  0.35527136788E-14  0.91188000000E+02  0.91188000000E+02 0.  0.
    9900012    2    3    3    0    0  0.76626395420E+01 -0.19767699208E+02 -0.30104909780E+02  0.54367033560E+02  0.39999884606E+02 0.  0.
        -12    1    3    3    0    0 -0.76626395420E+01  0.19767699208E+02  0.30104909780E+02  0.36820966440E+02  0.00000000000E+00 0.  1.
         11    1    4    4    0    0 -0.10070110075E+02 -0.11415405475E+02 -0.17648570841E+02  0.23306450868E+02  0.51100000000E-03 0. -1.
        -11    1    4    4    0    0  0.11220908050E+02  0.58700196250E+01 -0.71512227242E+01  0.14543242231E+02  0.51100000000E-03 0.  1.
         12    1    4    4    0    0  0.65118415665E+01 -0.14222313358E+02 -0.53051162144E+01  0.16517340461E+02  0.00000000000E+00 0. -1.
</event>
<event>
 8    1  0.2450026E-006  0.9118800E+02  0.7816164E-02  0.1184000E+00
        -11   -1    0    0    0    0  0.00000000000E+00  0.00000000000E+00  0.45593999997E+02  0.45594000000E+02  0.51100000000E-03 0.  1.
         11   -1    0    0    0    0 -0.00000000000E+00 -0.00000000000E+00 -0.45593999997E+02  0.45594000000E+02  0.51100000000E-03 0. -1.
         23    2    1    2    0    0  0.35527136788E-14 -0.35527136788E-14  0.00000000000E+00  0.91188000000E+02  0.91188000000E+02 0.  0.
    9900012    2    3    3    0    0 -0.25733755057E+02 -0.17835322100E+02  0.19376736172E+02  0.54367044439E+02  0.39999909408E+02 0.  0.
         12    1    3    3    0    0  0.25733755057E+02  0.17835322100E+02 -0.19376736172E+02  0.36820955561E+02  0.00000000000E+00 0. -1.
         11    1    4    4    0    0  0.12668689056E+01 -0.17599659783E+02  0.10905496919E+02  0.20743260222E+02  0.51100000000E-03 0. -1.
        -11    1    4    4    0    0 -0.17917447612E+02 -0.83126099282E+01  0.19978983574E+01  0.19852607155E+02  0.51100000000E-03 0.  1.
        -12    1    4    4    0    0 -0.90831763499E+01  0.80769476118E+01  0.64733408955E+01  0.13771177062E+02  0.00000000000E+00 0.  1.
</event>
<event>
 8    1  0.2450026E-006  0.9118800E+02  0.7816164E-02  0.1184000E+00
        -11   -1    0    0    0    0  0.00000000000E+00  0.00000000000E+00  0.45593999997E+02  0.45594000000E+02  0.51100000000E-03 0.  1.
         11   -1    0    0    0    0 -0.00000000000E+00 -0.00000000000E+00 -0.45593999997E+02  0.45594000000E+02  0.51100000000E-03 0. -1.
         23    2    1    2    0    0 -0.35527136788E-14  0.00000000000E+00 -0.35527136788E-14  0.91188000000E+02  0.91188000000E+02 0.  0.
    9900012    2    3    3    0    0  0.26130667827E+02  0.14950626752E+02 -0.21200169295E+02  0.54367079052E+02  0.39999988314E+02 0.  0.
        -12    1    3    3    0    0 -0.26130667827E+02 -0.14950626752E+02  0.21200169295E+02  0.36820920948E+02  0.00000000000E+00 0.  1.
         11    1    4    4    0    0  0.26364827798E+02  0.20904015403E+02 -0.94687842481E+01  0.34953395832E+02  0.51100000000E-03 0. -1.
        -11    1    4    4    0    0 -0.52947910199E+01  0.67119489628E+00 -0.40819001426E+00  0.53527501232E+01  0.51100000000E-03 0.  1.
        -12    1    4    4    0    0  0.50606310492E+01 -0.66245835477E+01 -0.11323195033E+02  0.14060933097E+02  0.00000000000E+00 0.  1.
</event>
<event>
 8    1  0.2450026E-006  0.9118800E+02  0.7816164E-02  0.1184000E+00
        -11   -1    0    0    0    0  0.00000000000E+00  0.00000000000E+00  0.45593999997E+02  0.45594000000E+02  0.51100000000E-03 0. -1.
         11   -1    0    0    0    0 -0.00000000000E+00 -0.00000000000E+00 -0.45593999997E+02  0.45594000000E+02  0.51100000000E-03 0.  1.
         23    2    1    2    0    0  0.00000000000E+00  0.00000000000E+00  0.35527136788E-14  0.91188000000E+02  0.91188000000E+02 0.  0.
    9900012    2    3    3    0    0 -0.18309883801E+02  0.26600569843E+02 -0.17690030902E+02  0.54367090802E+02  0.40000015102E+02 0.  0.
        -12    1    3    3    0    0  0.18309883801E+02 -0.26600569843E+02  0.17690030902E+02  0.36820909198E+02  0.00000000000E+00 0.  1.
         11    1    4    4    0    0 -0.48965875461E+00 -0.36944509345E+00  0.98447240150E+01  0.98638150107E+01  0.51100000000E-03 0. -1.
        -11    1    4    4    0    0  0.19744319528E+01  0.75636927201E+00 -0.17091610692E+01  0.27187695440E+01  0.51100000000E-03 0.  1.
         12    1    4    4    0    0 -0.19794656999E+02  0.26213645665E+02 -0.25825593848E+02  0.41784506248E+02  0.00000000000E+00 0. -1.
</event>
<event>
 8    1  0.2450026E-006  0.9118800E+02  0.7816164E-02  0.1184000E+00
        -11   -1    0    0    0    0  0.00000000000E+00  0.00000000000E+00  0.45593999997E+02  0.45594000000E+02  0.51100000000E-03 0. -1.
         11   -1    0    0    0    0 -0.00000000000E+00 -0.00000000000E+00 -0.45593999997E+02  0.45594000000E+02  0.51100000000E-03 0.  1.
         23    2    1    2    0    0  0.00000000000E+00  0.88817841970E-15  0.00000000000E+00  0.91188000000E+02  0.91188000000E+02 0.  0.
    9900012    2    3    3    0    0 -0.26937505772E+02 -0.72109990753E+01 -0.24044772356E+02  0.54367098293E+02  0.40000032178E+02 0.  0.
         12    1    3    3    0    0  0.26937505772E+02  0.72109990753E+01  0.24044772356E+02  0.36820901707E+02  0.00000000000E+00 0. -1.
         11    1    4    4    0    0 -0.59563681749E+01 -0.58571611908E+01 -0.13878359503E+02  0.16198565424E+02  0.51100000000E-03 0. -1.
        -11    1    4    4    0    0 -0.10858199323E+02  0.36532704538E+01 -0.20094940316E+02  0.23131223576E+02  0.51100000000E-03 0.  1.
         12    1    4    4    0    0 -0.10122938274E+02 -0.50071083383E+01  0.99285274623E+01  0.15037309293E+02  0.00000000000E+00 0. -1.
</event>
<event>
 8    1  0.2450026E-006  0.9118800E+02  0.7816164E-02  0.1184000E+00
        -11   -1    0    0    0    0  0.00000000000E+00  0.00000000000E+00  0.45593999997E+02  0.45594000000E+02  0.51100000000E-03 0. -1.
         11   -1    0    0    0    0 -0.00000000000E+00 -0.00000000000E+00 -0.45593999997E+02  0.45594000000E+02  0.51100000000E-03 0.  1.
         23    2    1    2    0    0  0.00000000000E+00 -0.71054273576E-14  0.17763568394E-14  0.91188000000E+02  0.91188000000E+02 0.  0.
    9900012    2    3    3    0    0  0.17565914296E+02 -0.30016638133E+02  0.12092162365E+02  0.54367077951E+02  0.39999985805E+02 0.  0.
        -12    1    3    3    0    0 -0.17565914296E+02  0.30016638133E+02 -0.12092162365E+02  0.36820922049E+02  0.00000000000E+00 0.  1.
         11    1    4    4    0    0  0.22008458443E+02 -0.12164142304E+02  0.12450114774E+02  0.28059650019E+02  0.51100000000E-03 0. -1.
        -11    1    4    4    0    0 -0.18600433796E+01  0.39282211379E+01  0.37004618914E+00  0.43620656947E+01  0.51100000000E-03 0.  1.
         12    1    4    4    0    0 -0.25825007669E+01 -0.21780716966E+02 -0.72799859727E+00  0.21945362238E+02  0.00000000000E+00 0. -1.
</event>
<event>
 8    1  0.2450026E-006  0.9118800E+02  0.7816164E-02  0.1184000E+00
        -11   -1    0    0    0    0  0.00000000000E+00  0.00000000000E+00  0.45593999997E+02  0.45594000000E+02  0.51100000000E-03 0. -1.
         11   -1    0    0    0    0 -0.00000000000E+00 -0.00000000000E+00 -0.45593999997E+02  0.45594000000E+02  0.51100000000E-03 0.  1.
         23    2    1    2    0    0  0.00000000000E+00  0.00000000000E+00 -0.35527136788E-14  0.91188000000E+02  0.91188000000E+02 0.  0.
    9900012    2    3    3    0    0  0.29466940054E+02  0.59045268841E+01  0.21274788727E+02  0.54367073487E+02  0.39999975628E+02 0.  0.
        -12    1    3    3    0    0 -0.29466940054E+02 -0.59045268841E+01 -0.21274788727E+02  0.36820926513E+02  0.00000000000E+00 0.  1.
         11    1    4    4    0    0  0.27882292582E+02  0.43718489514E+01  0.10603749529E+02  0.30149209064E+02  0.51100000000E-03 0. -1.
        -11    1    4    4    0    0 -0.44664660879E+01  0.52873317979E+01 -0.39396710136E+01  0.79640570573E+01  0.51100000000E-03 0.  1.
        -12    1    4    4    0    0  0.60511135603E+01 -0.37546538652E+01  0.14610710212E+02  0.16253807366E+02  0.00000000000E+00 0.  1.
</event>
<event>
 8    1  0.2450026E-006  0.9118800E+02  0.7816164E-02  0.1184000E+00
        -11   -1    0    0    0    0  0.00000000000E+00  0.00000000000E+00  0.45593999997E+02  0.45594000000E+02  0.51100000000E-03 0.  1.
         11   -1    0    0    0    0 -0.00000000000E+00 -0.00000000000E+00 -0.45593999997E+02  0.45594000000E+02  0.51100000000E-03 0. -1.
         23    2    1    2    0    0  0.00000000000E+00  0.00000000000E+00  0.00000000000E+00  0.91188000000E+02  0.91188000000E+02 0.  0.
    9900012    2    3    3    0    0  0.21010507965E+02 -0.88457935235E+01  0.28915259396E+02  0.54367058486E+02  0.39999941431E+02 0.  0.
         12    1    3    3    0    0 -0.21010507965E+02  0.88457935235E+01 -0.28915259396E+02  0.36820941514E+02  0.00000000000E+00 0. -1.
         11    1    4    4    0    0  0.11687241112E+02 -0.67727769355E-01 -0.35641947668E+01  0.12218824675E+02  0.51100000000E-03 0. -1.
        -11    1    4    4    0    0 -0.57890358783E+01  0.40002479847E+01  0.75982692171E+01  0.10356090754E+02  0.51100000000E-03 0.  1.
         12    1    4    4    0    0  0.15112302732E+02 -0.12778313739E+02  0.24881184946E+02  0.31792143057E+02  0.00000000000E+00 0. -1.
</event>
<event>
 8    1  0.2450026E-006  0.9118800E+02  0.7816164E-02  0.1184000E+00
        -11   -1    0    0    0    0  0.00000000000E+00  0.00000000000E+00  0.45593999997E+02  0.45594000000E+02  0.51100000000E-03 0.  1.
         11   -1    0    0    0    0 -0.00000000000E+00 -0.00000000000E+00 -0.45593999997E+02  0.45594000000E+02  0.51100000000E-03 0. -1.
         23    2    1    2    0    0  0.17763568394E-14  0.35527136788E-14  0.17763568394E-14  0.91188000000E+02  0.91188000000E+02 0.  0.
    9900012    2    3    3    0    0 -0.15778215859E+02 -0.31517443372E+02 -0.10652641808E+02  0.54367080539E+02  0.39999991706E+02 0.  0.
        -12    1    3    3    0    0  0.15778215859E+02  0.31517443372E+02  0.10652641808E+02  0.36820919461E+02  0.00000000000E+00 0.  1.
         11    1    4    4    0    0  0.84899857313E+00  0.89466164692E+00  0.39156698047E+01  0.41053243868E+01  0.51100000000E-03 0.  1.
        -11    1    4    4    0    0 -0.88077382650E+01 -0.36280527186E+02 -0.56031863626E+01  0.37752464872E+02  0.51100000000E-03 0. -1.
        -12    1    4    4    0    0 -0.78194761673E+01  0.38684221669E+01 -0.89651252500E+01  0.12509291280E+02  0.00000000000E+00 0.  1.
</event>
<event>
 8    1  0.2450026E-006  0.9118800E+02  0.7816164E-02  0.1184000E+00
        -11   -1    0    0    0    0  0.00000000000E+00  0.00000000000E+00  0.45593999997E+02  0.45594000000E+02  0.51100000000E-03 0.  1.
         11   -1    0    0    0    0 -0.00000000000E+00 -0.00000000000E+00 -0.45593999997E+02  0.45594000000E+02  0.51100000000E-03 0. -1.
         23    2    1    2    0    0  0.00000000000E+00  0.00000000000E+00  0.00000000000E+00  0.91188000000E+02  0.91188000000E+02 0.  0.
    9900012    2    3    3    0    0 -0.89827514012E+01  0.15429670996E+02 -0.32202709992E+02  0.54367094245E+02  0.40000022950E+02 0.  0.
        -12    1    3    3    0    0  0.89827514012E+01 -0.15429670996E+02  0.32202709992E+02  0.36820905755E+02  0.00000000000E+00 0.  1.
         11    1    4    4    0    0 -0.33634108501E+01  0.16254471364E+02 -0.89142206834E+01  0.18841011186E+02  0.51100000000E-03 0. -1.
        -11    1    4    4    0    0 -0.14639493636E+02 -0.66619329528E+01 -0.13983715261E+02  0.21312916678E+02  0.51100000000E-03 0.  1.
        -12    1    4    4    0    0  0.90201530844E+01  0.58371325845E+01 -0.93047740482E+01  0.14213166381E+02  0.00000000000E+00 0.  1.
</event>
<event>
 8    1  0.2450026E-006  0.9118800E+02  0.7816164E-02  0.1184000E+00
        -11   -1    0    0    0    0  0.00000000000E+00  0.00000000000E+00  0.45593999997E+02  0.45594000000E+02  0.51100000000E-03 0.  1.
         11   -1    0    0    0    0 -0.00000000000E+00 -0.00000000000E+00 -0.45593999997E+02  0.45594000000E+02  0.51100000000E-03 0. -1.
         23    2    1    2    0    0 -0.88817841970E-15  0.00000000000E+00 -0.17763568394E-14  0.91188000000E+02  0.91188000000E+02 0.  0.
    9900012    2    3    3    0    0  0.47026606615E+01 -0.33312970769E+02  0.14963641334E+02  0.54367087454E+02  0.40000007469E+02 0.  0.
         12    1    3    3    0    0 -0.47026606615E+01  0.33312970769E+02 -0.14963641334E+02  0.36820912546E+02  0.00000000000E+00 0. -1.
         11    1    4    4    0    0  0.15035254054E+02 -0.58153482493E+01 -0.40224615108E+01  0.16614973265E+02  0.51100000000E-03 0. -1.
        -11    1    4    4    0    0 -0.35853679686E+01 -0.19663496461E+02  0.54468537512E+01  0.20716567587E+02  0.51100000000E-03 0.  1.
         12    1    4    4    0    0 -0.67472254236E+01 -0.78341260583E+01  0.13539249094E+02  0.17035546602E+02  0.00000000000E+00 0. -1.
</event>
