<event>
 8    1  0.2501893E-006  0.9118800E+02  0.7816164E-02  0.1184000E+00
        -11   -1    0    0    0    0  0.00000000000E+00  0.00000000000E+00  0.45593999997E+02  0.45594000000E+02  0.51100000000E-03 0.  1.
         11   -1    0    0    0    0 -0.00000000000E+00 -0.00000000000E+00 -0.45593999997E+02  0.45594000000E+02  0.51100000000E-03 0. -1.
         23    2    1    2    0    0  0.00000000000E+00  0.35527136788E-14  0.00000000000E+00  0.91188000000E+02  0.91188000000E+02 0.  0.
    9900012    2    3    3    0    0  0.18265543029E+02  0.26818950442E+02 -0.17403849024E+02  0.54367080324E+02  0.39999991215E+02 0.  0.
        -12    1    3    3    0    0 -0.18265543029E+02 -0.26818950442E+02  0.17403849024E+02  0.36820919676E+02  0.00000000000E+00 0.  1.
         11    1    4    4    0    0 -0.56167610626E+01  0.15268847865E+02 -0.10595503437E+02  0.19415210874E+02  0.51100000000E-03 0. -1.
        -11    1    4    4    0    0  0.82997897738E+01  0.73676204409E+01  0.74938255985E+01  0.13391256984E+02  0.51100000000E-03 0.  1.
        -12    1    4    4    0    0  0.15582514318E+02  0.41824821361E+01 -0.14302171186E+02  0.21560612466E+02  0.00000000000E+00 0.  1.
</event>
<event>
 8    1  0.2501893E-006  0.9118800E+02  0.7816164E-02  0.1184000E+00
        -11   -1    0    0    0    0  0.00000000000E+00  0.00000000000E+00  0.45593999997E+02  0.45594000000E+02  0.51100000000E-03 0.  1.
         11   -1    0    0    0    0 -0.00000000000E+00 -0.00000000000E+00 -0.45593999997E+02  0.45594000000E+02  0.51100000000E-03 0. -1.
         23    2    1    2    0    0  0.00000000000E+00 -0.17763568394E-14  0.00000000000E+00  0.91188000000E+02  0.91188000000E+02 0.  0.
    9900012    2    3    3    0    0  0.18033014372E+02  0.82918469223E+01  0.31013514271E+02  0.54367049439E+02  0.39999920807E+02 0.  0.
         12    1    3    3    0    0 -0.18033014372E+02 -0.82918469223E+01 -0.31013514271E+02  0.36820950561E+02  0.00000000000E+00 0. -1.
         11    1    4    4    0    0  0.12145395274E+02 -0.80215790727E+01  0.40275560720E+01  0.15102237098E+02  0.51100000000E-03 0. -1.
        -11    1    4    4    0    0 -0.78121741232E+01  0.11427580031E+02  0.11262056967E+02  0.17845267644E+02  0.51100000000E-03 0.  1.
        -12    1    4    4    0    0  0.13699793222E+02  0.48858459642E+01  0.15723901232E+02  0.21419544698E+02  0.00000000000E+00 0.  1.
</event>
<event>
 8    1  0.2501893E-006  0.9118800E+02  0.7816164E-02  0.1184000E+00
        -11   -1    0    0    0    0  0.00000000000E+00  0.00000000000E+00  0.45593999997E+02  0.45594000000E+02  0.51100000000E-03 0.  1.
         11   -1    0    0    0    0 -0.00000000000E+00 -0.00000000000E+00 -0.45593999997E+02  0.45594000000E+02  0.51100000000E-03 0. -1.
         23    2    1    2    0    0  0.00000000000E+00  0.00000000000E+00  0.35527136788E-14  0.91188000000E+02  0.91188000000E+02 0.  0.
    9900012    2    3    3    0    0 -0.13100769173E+02 -0.26045257283E+02  0.22489862349E+02  0.54367088980E+02  0.40000010948E+02 0.  0.
        -12    1    3    3    0    0  0.13100769173E+02  0.26045257283E+02 -0.22489862349E+02  0.36820911020E+02  0.00000000000E+00 0.  1.
         11    1    4    4    0    0 -0.29222781011E+00  0.49778365830E+01  0.39303024604E+01  0.63491363060E+01  0.51100000000E-03 0. -1.
        -11    1    4    4    0    0 -0.83396255569E+00 -0.17664786808E+02  0.23499657244E+02  0.29410441639E+02  0.51100000000E-03 0.  1.
         12    1    4    4    0    0 -0.11974578807E+02 -0.13358307058E+02 -0.49400973558E+01  0.18607511036E+02  0.00000000000E+00 0. -1.
</event>
<event>
 8    1  0.2501893E-006  0.9118800E+02  0.7816164E-02  0.1184000E+00
        -11   -1    0    0    0    0  0.00000000000E+00  0.00000000000E+00  0.45593999997E+02  0.45594000000E+02  0.51100000000E-03 0. -1.
         11   -1    0    0    0    0 -0.00000000000E+00 -0.00000000000E+00 -0.45593999997E+02  0.45594000000E+02  0.51100000000E-03 0.  1.
         23    2    1    2    0    0 -0.35527136788E-14 -0.35527136788E-14  0.71054273576E-14  0.91188000000E+02  0.91188000000E+02 0.  0.
    9900012    2    3    3    0    0  0.15578487346E+02  0.15886021358E+02 -0.29338119363E+02  0.54367079448E+02  0.39999989217E+02 0.  0.
         12    1    3    3    0    0 -0.15578487346E+02 -0.15886021358E+02  0.29338119363E+02  0.36820920552E+02  0.00000000000E+00 0. -1.
         11    1    4    4    0    0  0.63146651335E+01 -0.93020083151E+01 -0.40424779585E+01  0.11947551329E+02  0.51100000000E-03 0. -1.
        -11    1    4    4    0    0  0.89512585182E+01  0.78282972302E+00 -0.33271045962E+01  0.95816218194E+01  0.51100000000E-03 0.  1.
         12    1    4    4    0    0  0.31256369424E+00  0.24405199950E+02 -0.21968536808E+02  0.32837906300E+02  0.00000000000E+00 0. -1.
</event>
<event>
 8    1  0.2501893E-006  0.9118800E+02  0.7816164E-02  0.1184000E+00
        -11   -1    0    0    0    0  0.00000000000E+00  0.00000000000E+00  0.45593999997E+02  0.45594000000E+02  0.51100000000E-03 0.  1.
         11   -1    0    0    0    0 -0.00000000000E+00 -0.00000000000E+00 -0.45593999997E+02  0.45594000000E+02  0.51100000000E-03 0. -1.
         23    2    1    2    0    0  0.35527136788E-14  0.00000000000E+00  0.35527136788E-14  0.91188000000E+02  0.91188000000E+02 0.  0.
    9900012    2    3    3    0    0 -0.13068356185E+02 -0.27679656131E+02 -0.20465461030E+02  0.54367076708E+02  0.39999982972E+02 0.  0.
        -12    1    3    3    0    0  0.13068356185E+02  0.27679656131E+02  0.20465461030E+02  0.36820923292E+02  0.00000000000E+00 0.  1.
         11    1    4    4    0    0  0.75640210565E+01 -0.62109280658E+01 -0.54464882249E+01  0.11200637313E+02  0.51100000000E-03 0. -1.
        -11    1    4    4    0    0 -0.16317379051E+02 -0.29101203234E+00  0.86753671011E+00  0.16343015856E+02  0.51100000000E-03 0.  1.
         12    1    4    4    0    0 -0.43149981912E+01 -0.21177716033E+02 -0.15886509515E+02  0.26823423538E+02  0.00000000000E+00 0. -1.
</event>
<event>
 8    1  0.2501893E-006  0.9118800E+02  0.7816164E-02  0.1184000E+00
        -11   -1    0    0    0    0  0.00000000000E+00  0.00000000000E+00  0.45593999997E+02  0.45594000000E+02  0.51100000000E-03 0.  1.
         11   -1    0    0    0    0 -0.00000000000E+00 -0.00000000000E+00 -0.45593999997E+02  0.45594000000E+02  0.51100000000E-03 0. -1.
         23    2    1    2    0    0  0.35527136788E-14  0.35527136788E-14  0.35527136788E-14  0.91188000000E+02  0.91188000000E+02 0.  0.
    9900012    2    3    3    0    0 -0.17711972018E+02 -0.24057433607E+02  0.21524533256E+02  0.54367087513E+02  0.40000007603E+02 0.  0.
         12    1    3    3    0    0  0.17711972018E+02  0.24057433607E+02 -0.21524533256E+02  0.36820912487E+02  0.00000000000E+00 0. -1.
         11    1    4    4    0    0 -0.35604933307E+01  0.49864913827E+01 -0.47474962796E+01  0.77511889574E+01  0.51100000000E-03 0. -1.
        -11    1    4    4    0    0 -0.88989575583E+01 -0.66941761754E+01 -0.74601637334E+00  0.11160644291E+02  0.51100000000E-03 0.  1.
        -12    1    4    4    0    0 -0.52525211289E+01 -0.22349748814E+02  0.27018045909E+02  0.35455254265E+02  0.00000000000E+00 0.  1.
</event>
<event>
 8    1  0.2501893E-006  0.9118800E+02  0.7816164E-02  0.1184000E+00
        -11   -1    0    0    0    0  0.00000000000E+00  0.00000000000E+00  0.45593999997E+02  0.45594000000E+02  0.51100000000E-03 0.  1.
         11   -1    0    0    0    0 -0.00000000000E+00 -0.00000000000E+00 -0.45593999997E+02  0.45594000000E+02  0.51100000000E-03 0. -1.
         23    2    1    2    0    0  0.35527136788E-14  0.00000000000E+00 -0.17763568394E-14  0.91188000000E+02  0.91188000000E+02 0.  0.
    9900012    2    3    3    0    0 -0.30179754702E+02  0.20603726864E+02  0.45210570092E+01  0.54367202738E+02  0.40000270280E+02 0.  0.
         12    1    3    3    0    0  0.30179754702E+02 -0.20603726864E+02 -0.45210570092E+01  0.36820797262E+02  0.00000000000E+00 0. -1.
         11    1    4    4    0    0 -0.21088615195E+02  0.17372075117E+02 -0.12516892151E+02  0.30053140836E+02  0.51100000000E-03 0. -1.
        -11    1    4    4    0    0 -0.50835864827E+01 -0.37478316554E+01  0.10332962366E+01  0.63997496059E+01  0.51100000000E-03 0.  1.
         12    1    4    4    0    0 -0.40075530240E+01  0.69794834023E+01  0.16004652924E+02  0.17914312296E+02  0.00000000000E+00 0. -1.
</event>
<event>
 8    1  0.2501893E-006  0.9118800E+02  0.7816164E-02  0.1184000E+00
        -11   -1    0    0    0    0  0.00000000000E+00  0.00000000000E+00  0.45593999997E+02  0.45594000000E+02  0.51100000000E-03 0.  1.
         11   -1    0    0    0    0 -0.00000000000E+00 -0.00000000000E+00 -0.45593999997E+02  0.45594000000E+02  0.51100000000E-03 0. -1.
         23    2    1    2    0    0  0.35527136788E-14  0.00000000000E+00  0.00000000000E+00  0.91188000000E+02  0.91188000000E+02 0.  0.
    9900012    2    3    3    0    0  0.27490913632E+02  0.10727899623E+02 -0.22021370478E+02  0.54367096693E+02  0.40000028530E+02 0.  0.
        -12    1    3    3    0    0 -0.27490913632E+02 -0.10727899623E+02  0.22021370478E+02  0.36820903307E+02  0.00000000000E+00 0.  1.
         11    1    4    4    0    0  0.17250277319E+02  0.13240643396E+02 -0.82569328307E+01  0.23260774819E+02  0.51100000000E-03 0. -1.
        -11    1    4    4    0    0  0.14125901792E+02  0.21888206963E+01  0.17830881350E+01  0.14405257409E+02  0.51100000000E-03 0.  1.
        -12    1    4    4    0    0 -0.38852654792E+01 -0.47015644690E+01 -0.15547525783E+02  0.16701064465E+02  0.00000000000E+00 0.  1.
</event>
<event>
 8    1  0.2501893E-006  0.9118800E+02  0.7816164E-02  0.1184000E+00
        -11   -1    0    0    0    0  0.00000000000E+00  0.00000000000E+00  0.45593999997E+02  0.45594000000E+02  0.51100000000E-03 0.  1.
         11   -1    0    0    0    0 -0.00000000000E+00 -0.00000000000E+00 -0.45593999997E+02  0.45594000000E+02  0.51100000000E-03 0. -1.
         23    2    1    2    0    0  0.13322676296E-14  0.00000000000E+00  0.88817841970E-15  0.91188000000E+02  0.91188000000E+02 0.  0.
    9900012    2    3    3    0    0  0.17637297011E+01  0.35984872052E+02 -0.75998904668E+01  0.54367080753E+02  0.39999992193E+02 0.  0.
         12    1    3    3    0    0 -0.17637297011E+01 -0.35984872052E+02  0.75998904668E+01  0.36820919247E+02  0.00000000000E+00 0. -1.
         11    1    4    4    0    0  0.14621265461E+02  0.69607214724E+01  0.27916516652E+01  0.16432479009E+02  0.51100000000E-03 0. -1.
        -11    1    4    4    0    0 -0.11334685643E+02  0.56217817259E+01 -0.62798866949E+01  0.14125031171E+02  0.51100000000E-03 0.  1.
         12    1    4    4    0    0 -0.15228501167E+01  0.23402368854E+02 -0.41116554371E+01  0.23809570573E+02  0.00000000000E+00 0. -1.
</event>
<event>
 8    1  0.2501893E-006  0.9118800E+02  0.7816164E-02  0.1184000E+00
        -11   -1    0    0    0    0  0.00000000000E+00  0.00000000000E+00  0.45593999997E+02  0.45594000000E+02  0.51100000000E-03 0.  1.
         11   -1    0    0    0    0 -0.00000000000E+00 -0.00000000000E+00 -0.45593999997E+02  0.45594000000E+02  0.51100000000E-03 0. -1.
         23    2    1    2    0    0  0.00000000000E+00  0.00000000000E+00 -0.35527136788E-14  0.91188000000E+02  0.91188000000E+02 0.  0.
    9900012    2    3    3    0    0  0.29413812882E+02 -0.11921591942E+02  0.18667700162E+02  0.54367085128E+02  0.40000002166E+02 0.  0.
         12    1    3    3    0    0 -0.29413812882E+02  0.11921591942E+02 -0.18667700162E+02  0.36820914872E+02  0.00000000000E+00 0. -1.
         11    1    4    4    0    0 -0.43710076380E+00  0.21230223795E+01  0.71860561478E+01  0.75058433452E+01  0.51100000000E-03 0. -1.
        -11    1    4    4    0    0  0.23295495580E+01  0.78581184507E+01 -0.31304121622E+01  0.87736142664E+01  0.51100000000E-03 0.  1.
        -12    1    4    4    0    0  0.27521364088E+02 -0.21902732772E+02  0.14612056177E+02  0.38087627516E+02  0.00000000000E+00 0.  1.
</event>
<event>
 8    1  0.2501893E-006  0.9118800E+02  0.7816164E-02  0.1184000E+00
        -11   -1    0    0    0    0  0.00000000000E+00  0.00000000000E+00  0.45593999997E+02  0.45594000000E+02  0.51100000000E-03 0.  1.
         11   -1    0    0    0    0 -0.00000000000E+00 -0.00000000000E+00 -0.45593999997E+02  0.45594000000E+02  0.51100000000E-03 0. -1.
         23    2    1    2    0    0 -0.35527136788E-14  0.35527136788E-14  0.00000000000E+00  0.91188000000E+02  0.91188000000E+02 0.  0.
    9900012    2    3    3    0    0  0.24014690599E+02 -0.27831314663E+02 -0.21195464646E+01  0.54367083150E+02  0.39999997657E+02 0.  0.
         12    1    3    3    0    0 -0.24014690599E+02  0.27831314663E+02  0.21195464646E+01  0.36820916850E+02  0.00000000000E+00 0. -1.
         11    1    4    4    0    0  0.11499803093E+00 -0.26225971087E+02 -0.20927191914E+01  0.26309584905E+02  0.51100000000E-03 0. -1.
        -11    1    4    4    0    0  0.72543357483E+00 -0.43957074404E+01 -0.14153725818E+01  0.46745884931E+01  0.51100000000E-03 0.  1.
        -12    1    4    4    0    0  0.23174258994E+02  0.27903638646E+01  0.13885453085E+01  0.23382909752E+02  0.00000000000E+00 0.  1.
</event>
<event>
 8    1  0.2501893E-006  0.9118800E+02  0.7816164E-02  0.1184000E+00
        -11   -1    0    0    0    0  0.00000000000E+00  0.00000000000E+00  0.45593999997E+02  0.45594000000E+02  0.51100000000E-03 0.  1.
         11   -1    0    0    0    0 -0.00000000000E+00 -0.00000000000E+00 -0.45593999997E+02  0.45594000000E+02  0.51100000000E-03 0. -1.
         23    2    1    2    0    0 -0.44408920985E-15 -0.35527136788E-14  0.00000000000E+00  0.91188000000E+02  0.91188000000E+02 0.  0.
    9900012    2    3    3    0    0  0.15732956700E+01 -0.28438918956E+02 -0.23335231010E+02  0.54367076914E+02  0.39999983440E+02 0.  0.
        -12    1    3    3    0    0 -0.15732956700E+01  0.28438918956E+02  0.23335231010E+02  0.36820923086E+02  0.00000000000E+00 0.  1.
         11    1    4    4    0    0  0.14304341329E+02 -0.86454862314E+01 -0.10300702887E+02  0.19633214033E+02  0.51100000000E-03 0. -1.
        -11    1    4    4    0    0 -0.16726008911E+02 -0.61847524363E+01 -0.90719333902E+01  0.20007761306E+02  0.51100000000E-03 0.  1.
         12    1    4    4    0    0  0.39949632523E+01 -0.13608680288E+02 -0.39625947326E+01  0.14726101574E+02  0.00000000000E+00 0. -1.
</event>
<event>
 8    1  0.2501893E-006  0.9118800E+02  0.7816164E-02  0.1184000E+00
        -11   -1    0    0    0    0  0.00000000000E+00  0.00000000000E+00  0.45593999997E+02  0.45594000000E+02  0.51100000000E-03 0. -1.
         11   -1    0    0    0    0 -0.00000000000E+00 -0.00000000000E+00 -0.45593999997E+02  0.45594000000E+02  0.51100000000E-03 0.  1.
         23    2    1    2    0    0 -0.35527136788E-14  0.00000000000E+00  0.35527136788E-14  0.91188000000E+02  0.91188000000E+02 0.  0.
    9900012    2    3    3    0    0 -0.16382309088E+02 -0.14268968973E+02  0.29728721295E+02  0.54367076649E+02  0.39999982836E+02 0.  0.
        -12    1    3    3    0    0  0.16382309088E+02  0.14268968973E+02 -0.29728721295E+02  0.36820923351E+02  0.00000000000E+00 0.  1.
         11    1    4    4    0    0 -0.40847694806E+01 -0.24983592520E+02  0.17341940725E+02  0.30685634184E+02  0.51100000000E-03 0. -1.
        -11    1    4    4    0    0 -0.21228770105E+01 -0.11334170216E+01 -0.14556507562E+01  0.28125007257E+01  0.51100000000E-03 0.  1.
         12    1    4    4    0    0 -0.10174662597E+02  0.11848040569E+02  0.13842431327E+02  0.20868941739E+02  0.00000000000E+00 0. -1.
</event>
<event>
 8    1  0.2501893E-006  0.9118800E+02  0.7816164E-02  0.1184000E+00
        -11   -1    0    0    0    0  0.00000000000E+00  0.00000000000E+00  0.45593999997E+02  0.45594000000E+02  0.51100000000E-03 0.  1.
         11   -1    0    0    0    0 -0.00000000000E+00 -0.00000000000E+00 -0.45593999997E+02  0.45594000000E+02  0.51100000000E-03 0. -1.
         23    2    1    2    0    0  0.35527136788E-14  0.00000000000E+00  0.15543122345E-14  0.91188000000E+02  0.91188000000E+02 0.  0.
    9900012    2    3    3    0    0  0.19527693195E+02  0.31210163778E+02  0.61068621714E+00  0.54367108346E+02  0.40000055095E+02 0.  0.
         12    1    3    3    0    0 -0.19527693195E+02 -0.31210163778E+02 -0.61068621714E+00  0.36820891654E+02  0.00000000000E+00 0. -1.
         11    1    4    4    0    0  0.92394301551E+01 -0.18522340666E+00 -0.98787458900E+01  0.13527416528E+02  0.51100000000E-03 0. -1.
        -11    1    4    4    0    0 -0.12804871869E+00  0.25121564327E+02  0.13204070522E+02  0.28380572040E+02  0.51100000000E-03 0.  1.
        -12    1    4    4    0    0  0.10416311759E+02  0.62738228581E+01 -0.27146384151E+01  0.12459119778E+02  0.00000000000E+00 0.  1.
</event>
<event>
 8    1  0.2501893E-006  0.9118800E+02  0.7816164E-02  0.1184000E+00
        -11   -1    0    0    0    0  0.00000000000E+00  0.00000000000E+00  0.45593999997E+02  0.45594000000E+02  0.51100000000E-03 0. -1.
         11   -1    0    0    0    0 -0.00000000000E+00 -0.00000000000E+00 -0.45593999997E+02  0.45594000000E+02  0.51100000000E-03 0.  1.
         23    2    1    2    0    0  0.35527136788E-14  0.00000000000E+00  0.17763568394E-14  0.91188000000E+02  0.91188000000E+02 0.  0.
    9900012    2    3    3    0    0  0.29501815761E+02 -0.15357529157E+02 -0.15797755996E+02  0.54367082990E+02  0.39999997291E+02 0.  0.
        -12    1    3    3    0    0 -0.29501815761E+02  0.15357529157E+02  0.15797755996E+02  0.36820917010E+02  0.00000000000E+00 0.  1.
         11    1    4    4    0    0  0.19453412518E+02  0.82247885121E+01 -0.12580237814E+02  0.24583425074E+02  0.51100000000E-03 0. -1.
        -11    1    4    4    0    0 -0.16941950744E+00  0.13140682390E+01 -0.25385326737E+01  0.28634990314E+01  0.51100000000E-03 0.  1.
         12    1    4    4    0    0  0.10217822750E+02 -0.24896385908E+02 -0.67898550898E+00  0.26920158884E+02  0.00000000000E+00 0. -1.
</event>
<event>
 8    1  0.2501893E-006  0.9118800E+02  0.7816164E-02  0.1184000E+00
        -11   -1    0    0    0    0  0.00000000000E+00  0.00000000000E+00  0.45593999997E+02  0.45594000000E+02  0.51100000000E-03 0.  1.
         11   -1    0    0    0    0 -0.00000000000E+00 -0.00000000000E+00 -0.45593999997E+02  0.45594000000E+02  0.51100000000E-03 0. -1.
         23    2    1    2    0    0  0.00000000000E+00  0.00000000000E+00  0.00000000000E+00  0.91188000000E+02  0.91188000000E+02 0.  0.
    9900012    2    3    3    0    0  0.16999869677E+02  0.40987921138E+01  0.32403448391E+02  0.54367093799E+02  0.40000021933E+02 0.  0.
         12    1    3    3    0    0 -0.16999869677E+02 -0.40987921138E+01 -0.32403448391E+02  0.36820906201E+02  0.00000000000E+00 0. -1.
         11    1    4    4    0    0  0.29183416690E+01  0.15133895061E+02  0.23494591743E+02  0.28098885018E+02  0.51100000000E-03 0. -1.
        -11    1    4    4    0    0  0.15977170165E+02 -0.37345125611E+01  0.90220253652E+01  0.18724676032E+02  0.51100000000E-03 0.  1.
         12    1    4    4    0    0 -0.18956421568E+01 -0.73005903864E+01 -0.11316871696E+00  0.75435327490E+01  0.00000000000E+00 0. -1.
</event>
<event>
 8    1  0.2501893E-006  0.9118800E+02  0.7816164E-02  0.1184000E+00
        -11   -1    0    0    0    0  0.00000000000E+00  0.00000000000E+00  0.45593999997E+02  0.45594000000E+02  0.51100000000E-03 0. -1.
         11   -1    0    0    0    0 -0.00000000000E+00 -0.00000000000E+00 -0.45593999997E+02  0.45594000000E+02  0.51100000000E-03 0.  1.
         23    2    1    2    0    0  0.00000000000E+00  0.35527136788E-14  0.35527136788E-14  0.91188000000E+02  0.91188000000E+02 0.  0.
    9900012    2    3    3    0    0 -0.17745851349E+02 -0.87805024524E+01 -0.31044605629E+02  0.54367082004E+02  0.39999995045E+02 0.  0.
         12    1    3    3    0    0  0.17745851349E+02  0.87805024524E+01  0.31044605629E+02  0.36820917996E+02  0.00000000000E+00 0. -1.
         11    1    4    4    0    0  0.13240144437E+01  0.73256157226E+01 -0.38252966619E+01  0.83696209457E+01  0.51100000000E-03 0. -1.
        -11    1    4    4    0    0 -0.78224147124E+01  0.22402851793E+00  0.41718446982E+01  0.88681818405E+01  0.51100000000E-03 0.  1.
        -12    1    4    4    0    0 -0.11247451081E+02 -0.16330146693E+02 -0.31391153665E+02  0.37129279218E+02  0.00000000000E+00 0.  1.
</event>
<event>
 8    1  0.2501893E-006  0.9118800E+02  0.7816164E-02  0.1184000E+00
        -11   -1    0    0    0    0  0.00000000000E+00  0.00000000000E+00  0.45593999997E+02  0.45594000000E+02  0.51100000000E-03 0.  1.
         11   -1    0    0    0    0 -0.00000000000E+00 -0.00000000000E+00 -0.45593999997E+02  0.45594000000E+02  0.51100000000E-03 0. -1.
         23    2    1    2    0    0  0.35527136788E-14  0.00000000000E+00 -0.88817841970E-15  0.91188000000E+02  0.91188000000E+02 0.  0.
    9900012    2    3    3    0    0 -0.29293729791E+02  0.20827326034E+02 -0.79924203618E+01  0.54367096996E+02  0.40000029221E+02 0.  0.
        -12    1    3    3    0    0  0.29293729791E+02 -0.20827326034E+02  0.79924203618E+01  0.36820903004E+02  0.00000000000E+00 0.  1.
         11    1    4    4    0    0 -0.76447872220E+01  0.79702671398E+00 -0.21921501143E+00  0.76893483946E+01  0.51100000000E-03 0. -1.
        -11    1    4    4    0    0 -0.22914962503E+02  0.27238864921E+02  0.54272527481E+00  0.35599800838E+02  0.51100000000E-03 0.  1.
        -12    1    4    4    0    0  0.12660199342E+01 -0.72085656005E+01 -0.83159306251E+01  0.11077947764E+02  0.00000000000E+00 0.  1.
</event>
<event>
 8    1  0.2501893E-006  0.9118800E+02  0.7816164E-02  0.1184000E+00
        -11   -1    0    0    0    0  0.00000000000E+00  0.00000000000E+00  0.45593999997E+02  0.45594000000E+02  0.51100000000E-03 0. -1.
         11   -1    0    0    0    0 -0.00000000000E+00 -0.00000000000E+00 -0.45593999997E+02  0.45594000000E+02  0.51100000000E-03 0.  1.
         23    2    1    2    0    0  0.00000000000E+00  0.00000000000E+00  0.17763568394E-14  0.91188000000E+02  0.91188000000E+02 0.  0.
    9900012    2    3    3    0    0  0.11781624115E+02  0.32321501022E+02 -0.13126099077E+02  0.54367074264E+02  0.39999977400E+02 0.  0.
         12    1    3    3    0    0 -0.11781624115E+02 -0.32321501022E+02  0.13126099077E+02  0.36820925736E+02  0.00000000000E+00 0. -1.
         11    1    4    4    0    0  0.15574895957E+02  0.23143664211E+02  0.50742299261E+01  0.28354089420E+02  0.51100000000E-03 0. -1.
        -11    1    4    4    0    0  0.10403064820E+00  0.79373733056E+01 -0.20020133852E+02  0.21536445322E+02  0.51100000000E-03 0.  1.
        -12    1    4    4    0    0 -0.38973024905E+01  0.12404635047E+01  0.18198048496E+01  0.44765395229E+01  0.00000000000E+00 0.  1.
</event>
<event>
 8    1  0.2501893E-006  0.9118800E+02  0.7816164E-02  0.1184000E+00
        -11   -1    0    0    0    0  0.00000000000E+00  0.00000000000E+00  0.45593999997E+02  0.45594000000E+02  0.51100000000E-03 0.  1.
         11   -1    0    0    0    0 -0.00000000000E+00 -0.00000000000E+00 -0.45593999997E+02  0.45594000000E+02  0.51100000000E-03 0. -1.
         23    2    1    2    0    0  0.35527136788E-14  0.00000000000E+00  0.35527136788E-14  0.91188000000E+02  0.91188000000E+02 0.  0.
    9900012    2    3    3    0    0  0.31431925776E+02 -0.47856123450E+01  0.18571789671E+02  0.54367089975E+02  0.40000013215E+02 0.  0.
         12    1    3    3    0    0 -0.31431925776E+02  0.47856123450E+01 -0.18571789671E+02  0.36820910025E+02  0.00000000000E+00 0. -1.
         11    1    4    4    0    0  0.14232942291E+02  0.47446141458E+01 -0.81086961159E+00  0.15024830097E+02  0.51100000000E-03 0. -1.
        -11    1    4    4    0    0  0.19303220710E+02 -0.60321178794E+00  0.22503253434E+02  0.29654251122E+02  0.51100000000E-03 0.  1.
        -12    1    4    4    0    0 -0.21042372246E+01 -0.89270147029E+01 -0.31205941510E+01  0.96880087561E+01  0.00000000000E+00 0.  1.
</event>
<event>
 8    1  0.2501893E-006  0.9118800E+02  0.7816164E-02  0.1184000E+00
        -11   -1    0    0    0    0  0.00000000000E+00  0.00000000000E+00  0.45593999997E+02  0.45594000000E+02  0.51100000000E-03 0. -1.
         11   -1    0    0    0    0 -0.00000000000E+00 -0.00000000000E+00 -0.45593999997E+02  0.45594000000E+02  0.51100000000E-03 0.  1.
         23    2    1    2    0    0 -0.53290705182E-14 -0.35527136788E-14 -0.35527136788E-14  0.91188000000E+02  0.91188000000E+02 0.  0.
    9900012    2    3    3    0    0 -0.14745732526E+02 -0.28992374138E+02 -0.17256458892E+02  0.54367085300E+02  0.40000002559E+02 0.  0.
        -12    1    3    3    0    0  0.14745732526E+02  0.28992374138E+02  0.17256458892E+02  0.36820914700E+02  0.00000000000E+00 0.  1.
         11    1    4    4    0    0  0.77373020492E+01 -0.88994337704E+01 -0.50433838194E+01  0.12825813231E+02  0.51100000000E-03 0. -1.
        -11    1    4    4    0    0 -0.21564285821E+02 -0.51349312855E+01 -0.14345451375E+02  0.26404126907E+02  0.51100000000E-03 0.  1.
         12    1    4    4    0    0 -0.91874875339E+00 -0.14958009082E+02  0.21323763027E+01  0.15137145162E+02  0.00000000000E+00 0. -1.
</event>
<event>
 8    1  0.2501893E-006  0.9118800E+02  0.7816164E-02  0.1184000E+00
        -11   -1    0    0    0    0  0.00000000000E+00  0.00000000000E+00  0.45593999997E+02  0.45594000000E+02  0.51100000000E-03 0.  1.
         11   -1    0    0    0    0 -0.00000000000E+00 -0.00000000000E+00 -0.45593999997E+02  0.45594000000E+02  0.51100000000E-03 0. -1.
         23    2    1    2    0    0  0.00000000000E+00  0.00000000000E+00 -0.35527136788E-14  0.91188000000E+02  0.91188000000E+02 0.  0.
    9900012    2    3    3    0    0 -0.16873735926E+02 -0.81913654729E+01 -0.31685304786E+02  0.54367082415E+02  0.39999995982E+02 0.  0.
        -12    1    3    3    0    0  0.16873735926E+02  0.81913654729E+01  0.31685304786E+02  0.36820917585E+02  0.00000000000E+00 0.  1.
         11    1    4    4    0    0 -0.78155290164E+00 -0.13436008156E+01 -0.15661635839E+02  0.15738580798E+02  0.51100000000E-03 0. -1.
        -11    1    4    4    0    0 -0.16327158310E+02 -0.16019548659E+01 -0.24004534358E+02  0.29075075716E+02  0.51100000000E-03 0.  1.
        -12    1    4    4    0    0  0.23497528585E+00 -0.52458097914E+01  0.79808654114E+01  0.95534259021E+01  0.00000000000E+00 0.  1.
</event>
<event>
 8    1  0.2501893E-006  0.9118800E+02  0.7816164E-02  0.1184000E+00
        -11   -1    0    0    0    0  0.00000000000E+00  0.00000000000E+00  0.45593999997E+02  0.45594000000E+02  0.51100000000E-03 0.  1.
         11   -1    0    0    0    0 -0.00000000000E+00 -0.00000000000E+00 -0.45593999997E+02  0.45594000000E+02  0.51100000000E-03 0. -1.
         23    2    1    2    0    0  0.00000000000E+00 -0.88817841970E-15  0.00000000000E+00  0.91188000000E+02  0.91188000000E+02 0.  0.
    9900012    2    3    3    0    0 -0.29126578840E+02 -0.57673001492E+01  0.21775207071E+02  0.54367095762E+02  0.40000026409E+02 0.  0.
         12    1    3    3    0    0  0.29126578840E+02  0.57673001492E+01 -0.21775207071E+02  0.36820904238E+02  0.00000000000E+00 0. -1.
         11    1    4    4    0    0  0.18743762745E+01  0.38095065531E+01 -0.65359125144E+01  0.77938295627E+01  0.51100000000E-03 0. -1.
        -11    1    4    4    0    0 -0.22496365068E+02  0.20029971424E+01  0.16420092286E+02  0.27923428689E+02  0.51100000000E-03 0.  1.
        -12    1    4    4    0    0 -0.85045900463E+01 -0.11579803845E+02  0.11891027299E+02  0.18649837511E+02  0.00000000000E+00 0.  1.
</event>
<event>
 8    1  0.2501893E-006  0.9118800E+02  0.7816164E-02  0.1184000E+00
        -11   -1    0    0    0    0  0.00000000000E+00  0.00000000000E+00  0.45593999997E+02  0.45594000000E+02  0.51100000000E-03 0. -1.
         11   -1    0    0    0    0 -0.00000000000E+00 -0.00000000000E+00 -0.45593999997E+02  0.45594000000E+02  0.51100000000E-03 0.  1.
         23    2    1    2    0    0  0.00000000000E+00 -0.35527136788E-14  0.00000000000E+00  0.91188000000E+02  0.91188000000E+02 0.  0.
    9900012    2    3    3    0    0  0.11344864520E+02 -0.26916826337E+02 -0.22417820784E+02  0.54367079592E+02  0.39999989545E+02 0.  0.
         12    1    3    3    0    0 -0.11344864520E+02  0.26916826337E+02  0.22417820784E+02  0.36820920408E+02  0.00000000000E+00 0. -1.
         11    1    4    4    0    0  0.17303096150E+01  0.36856206641E+01 -0.17008701012E+02  0.17489244736E+02  0.51100000000E-03 0. -1.
        -11    1    4    4    0    0  0.11397654767E+02 -0.11308489809E+02  0.19023170257E+01  0.16168094701E+02  0.51100000000E-03 0.  1.
         12    1    4    4    0    0 -0.17830998621E+01 -0.19293957192E+02 -0.73114367978E+01  0.20709740155E+02  0.00000000000E+00 0. -1.
</event>
<event>
 8    1  0.2501893E-006  0.9118800E+02  0.7816164E-02  0.1184000E+00
        -11   -1    0    0    0    0  0.00000000000E+00  0.00000000000E+00  0.45593999997E+02  0.45594000000E+02  0.51100000000E-03 0. -1.
         11   -1    0    0    0    0 -0.00000000000E+00 -0.00000000000E+00 -0.45593999997E+02  0.45594000000E+02  0.51100000000E-03 0.  1.
         23    2    1    2    0    0 -0.35527136788E-14  0.44408920985E-15  0.00000000000E+00  0.91188000000E+02  0.91188000000E+02 0.  0.
    9900012    2    3    3    0    0 -0.18250395418E+02  0.39084183535E+01 -0.31739984767E+02  0.54367091539E+02  0.40000016781E+02 0.  0.
         12    1    3    3    0    0  0.18250395418E+02 -0.39084183535E+01  0.31739984767E+02  0.36820908461E+02  0.00000000000E+00 0. -1.
         11    1    4    4    0    0 -0.44831364902E+01 -0.22928395288E+01 -0.14561279275E+01  0.52417492020E+01  0.51100000000E-03 0. -1.
        -11    1    4    4    0    0  0.51270481463E+01 -0.22328516519E+01 -0.27716938585E+02  0.28275447547E+02  0.51100000000E-03 0.  1.
        -12    1    4    4    0    0 -0.18894307074E+02  0.84341095342E+01 -0.25669182545E+01  0.20849894790E+02  0.00000000000E+00 0.  1.
</event>
<event>
 8    1  0.2501893E-006  0.9118800E+02  0.7816164E-02  0.1184000E+00
        -11   -1    0    0    0    0  0.00000000000E+00  0.00000000000E+00  0.45593999997E+02  0.45594000000E+02  0.51100000000E-03 0. -1.
         11   -1    0    0    0    0 -0.00000000000E+00 -0.00000000000E+00 -0.45593999997E+02  0.45594000000E+02  0.51100000000E-03 0.  1.
         23    2    1    2    0    0  0.44408920985E-15  0.17763568394E-14 -0.71054273576E-14  0.91188000000E+02  0.91188000000E+02 0.  0.
    9900012    2    3    3    0    0 -0.24664900434E+01  0.11674103028E+02 -0.34834048134E+02  0.54367093384E+02  0.40000020987E+02 0.  0.
         12    1    3    3    0    0  0.24664900434E+01 -0.11674103028E+02  0.34834048134E+02  0.36820906616E+02  0.00000000000E+00 0. -1.
         11    1    4    4    0    0  0.85191121186E+01  0.51511305301E+01 -0.11081043092E+01  0.10016851424E+02  0.51100000000E-03 0. -1.
        -11    1    4    4    0    0  0.30298980384E+01  0.12989439640E+02 -0.16605250577E+02  0.21298830279E+02  0.51100000000E-03 0.  1.
        -12    1    4    4    0    0 -0.14015500200E+02 -0.64664671420E+01 -0.17120693248E+02  0.23051411680E+02  0.00000000000E+00 0.  1.
</event>
<event>
 8    1  0.2501893E-006  0.9118800E+02  0.7816164E-02  0.1184000E+00
        -11   -1    0    0    0    0  0.00000000000E+00  0.00000000000E+00  0.45593999997E+02  0.45594000000E+02  0.51100000000E-03 0. -1.
         11   -1    0    0    0    0 -0.00000000000E+00 -0.00000000000E+00 -0.45593999997E+02  0.45594000000E+02  0.51100000000E-03 0.  1.
         23    2    1    2    0    0 -0.71054273576E-14  0.00000000000E+00  0.00000000000E+00  0.91188000000E+02  0.91188000000E+02 0.  0.
    9900012    2    3    3    0    0  0.21436732695E+02 -0.21338595630E+02 -0.20997870621E+02  0.54367085525E+02  0.40000003072E+02 0.  0.
         12    1    3    3    0    0 -0.21436732695E+02  0.21338595630E+02  0.20997870621E+02  0.36820914475E+02  0.00000000000E+00 0. -1.
         11    1    4    4    0    0 -0.56404877147E+01 -0.46323149721E+01 -0.93964627352E+01  0.11898191285E+02  0.51100000000E-03 0. -1.
        -11    1    4    4    0    0  0.21572966019E+02 -0.50729246595E+01 -0.17571073872E+02  0.28281974202E+02  0.51100000000E-03 0.  1.
         12    1    4    4    0    0  0.55042543913E+01 -0.11633355999E+02  0.59696659861E+01  0.14186920039E+02  0.00000000000E+00 0. -1.
</event>
<event>
 8    1  0.2501893E-006  0.9118800E+02  0.7816164E-02  0.1184000E+00
        -11   -1    0    0    0    0  0.00000000000E+00  0.00000000000E+00  0.45593999997E+02  0.45594000000E+02  0.51100000000E-03 0.  1.
         11   -1    0    0    0    0 -0.00000000000E+00 -0.00000000000E+00 -0.45593999997E+02  0.45594000000E+02  0.51100000000E-03 0. -1.
         23    2    1    2    0    0  0.00000000000E+00 -0.22204460493E-15  0.00000000000E+00  0.91188000000E+02  0.91188000000E+02 0.  0.
    9900012    2    3    3    0    0  0.19761560996E+02 -0.13886556499E+01 -0.31037602154E+02  0.54367076532E+02  0.39999982571E+02 0.  0.
        -12    1    3    3    0    0 -0.19761560996E+02  0.13886556499E+01  0.31037602154E+02  0.36820923468E+02  0.00000000000E+00 0.  1.
         11    1    4    4    0    0  0.14063323849E+02  0.18677773479E+01 -0.38073056307E+01  0.14688813646E+02  0.51100000000E-03 0. -1.
        -11    1    4    4    0    0  0.53037997012E+01 -0.99788489144E+00  0.50056516379E+01  0.73608840575E+01  0.51100000000E-03 0.  1.
         12    1    4    4    0    0  0.39443744551E+00 -0.22585481064E+01 -0.32235948162E+02  0.32317378828E+02  0.00000000000E+00 0. -1.
</event>
<event>
 8    1  0.2501893E-006  0.9118800E+02  0.7816164E-02  0.1184000E+00
        -11   -1    0    0    0    0  0.00000000000E+00  0.00000000000E+00  0.45593999997E+02  0.45594000000E+02  0.51100000000E-03 0. -1.
         11   -1    0    0    0    0 -0.00000000000E+00 -0.00000000000E+00 -0.45593999997E+02  0.45594000000E+02  0.51100000000E-03 0.  1.
         23    2    1    2    0    0 -0.35527136788E-14  0.00000000000E+00 -0.44408920985E-15  0.91188000000E+02  0.91188000000E+02 0.  0.
    9900012    2    3    3    0    0  0.17572175172E+02 -0.32291971648E+02  0.20538919246E+01  0.54367200916E+02  0.40000266127E+02 0.  0.
        -12    1    3    3    0    0 -0.17572175172E+02  0.32291971648E+02 -0.20538919246E+01  0.36820799084E+02  0.00000000000E+00 0.  1.
         11    1    4    4    0    0 -0.54280980930E+01 -0.37048834823E+01 -0.32446932063E+01  0.73292867858E+01  0.51100000000E-03 0. -1.
        -11    1    4    4    0    0  0.29508208382E+02 -0.23143468269E+02  0.75631121214E+01  0.38256439336E+02  0.51100000000E-03 0.  1.
        -12    1    4    4    0    0 -0.65079351173E+01 -0.54436198961E+01 -0.22645269904E+01  0.87814747938E+01  0.00000000000E+00 0.  1.
</event>
<event>
 8    1  0.2501893E-006  0.9118800E+02  0.7816164E-02  0.1184000E+00
        -11   -1    0    0    0    0  0.00000000000E+00  0.00000000000E+00  0.45593999997E+02  0.45594000000E+02  0.51100000000E-03 0.  1.
         11   -1    0    0    0    0 -0.00000000000E+00 -0.00000000000E+00 -0.45593999997E+02  0.45594000000E+02  0.51100000000E-03 0. -1.
         23    2    1    2    0    0  0.00000000000E+00  0.00000000000E+00 -0.35527136788E-14  0.91188000000E+02  0.91188000000E+02 0.  0.
    9900012    2    3    3    0    0  0.14197302870E+02  0.18151222084E+02  0.28718134915E+02  0.54367332639E+02  0.40000566413E+02 0.  0.
         12    1    3    3    0    0 -0.14197302870E+02 -0.18151222084E+02 -0.28718134915E+02  0.36820667361E+02  0.00000000000E+00 0. -1.
         11    1    4    4    0    0 -0.35748434347E+00  0.16723512434E+02  0.10519799504E+02  0.19760309843E+02  0.51100000000E-03 0. -1.
        -11    1    4    4    0    0  0.75371832590E+01 -0.93246872413E+01 -0.41216765916E+00  0.11997033219E+02  0.51100000000E-03 0.  1.
        -12    1    4    4    0    0  0.70176039542E+01  0.10752396891E+02  0.18610503070E+02  0.22609989577E+02  0.00000000000E+00 0.  1.
</event>
<event>
 8    1  0.2501893E-006  0.9118800E+02  0.7816164E-02  0.1184000E+00
        -11   -1    0    0    0    0  0.00000000000E+00  0.00000000000E+00  0.45593999997E+02  0.45594000000E+02  0.51100000000E-03 0.  1.
         11   -1    0    0    0    0 -0.00000000000E+00 -0.00000000000E+00 -0.45593999997E+02  0.45594000000E+02  0.51100000000E-03 0. -1.
         23    2    1    2    0    0  0.17763568394E-14  0.00000000000E+00  0.00000000000E+00  0.91188000000E+02  0.91188000000E+02 0.  0.
    9900012    2    3    3    0    0  0.13078437386E+02 -0.26275204736E+02 -0.22233927021E+02  0.54367089919E+02  0.40000013089E+02 0.  0.
        -12    1    3    3    0    0 -0.13078437386E+02  0.26275204736E+02  0.22233927021E+02  0.36820910081E+02  0.00000000000E+00 0.  1.
         11    1    4    4    0    0  0.43382412414E+01 -0.18313429599E+02 -0.22097162306E+01  0.18949535267E+02  0.51100000000E-03 0. -1.
        -11    1    4    4    0    0  0.12789506785E+02  0.63590478432E+01 -0.10822933596E+02  0.17920515203E+02  0.51100000000E-03 0.  1.
        -12    1    4    4    0    0 -0.40493106397E+01 -0.14320822981E+02 -0.92012771943E+01  0.17497039450E+02  0.00000000000E+00 0.  1.
</event>
<event>
 8    1  0.2501893E-006  0.9118800E+02  0.7816164E-02  0.1184000E+00
        -11   -1    0    0    0    0  0.00000000000E+00  0.00000000000E+00  0.45593999997E+02  0.45594000000E+02  0.51100000000E-03 0.  1.
         11   -1    0    0    0    0 -0.00000000000E+00 -0.00000000000E+00 -0.45593999997E+02  0.45594000000E+02  0.51100000000E-03 0. -1.
         23    2    1    2    0    0  0.00000000000E+00  0.17763568394E-14  0.00000000000E+00  0.91188000000E+02  0.91188000000E+02 0.  0.
    9900012    2    3    3    0    0 -0.89105277191E+01  0.79438919759E+01  0.34832123944E+02  0.54367084987E+02  0.40000001844E+02 0.  0.
         12    1    3    3    0    0  0.89105277191E+01 -0.79438919759E+01 -0.34832123944E+02  0.36820915013E+02  0.00000000000E+00 0. -1.
         11    1    4    4    0    0 -0.67524167024E+00 -0.83723774087E+01  0.52839255365E+01  0.99233323094E+01  0.51100000000E-03 0. -1.
        -11    1    4    4    0    0 -0.14256988043E+02  0.12691788123E+00  0.20426282754E+02  0.24910055071E+02  0.51100000000E-03 0.  1.
         12    1    4    4    0    0  0.60217019938E+01  0.16189351503E+02  0.91219156534E+01  0.19533697607E+02  0.00000000000E+00 0. -1.
</event>
<event>
 8    1  0.2501893E-006  0.9118800E+02  0.7816164E-02  0.1184000E+00
        -11   -1    0    0    0    0  0.00000000000E+00  0.00000000000E+00  0.45593999997E+02  0.45594000000E+02  0.51100000000E-03 0. -1.
         11   -1    0    0    0    0 -0.00000000000E+00 -0.00000000000E+00 -0.45593999997E+02  0.45594000000E+02  0.51100000000E-03 0.  1.
         23    2    1    2    0    0 -0.88817841970E-15  0.00000000000E+00  0.00000000000E+00  0.91188000000E+02  0.91188000000E+02 0.  0.
    9900012    2    3    3    0    0 -0.43084222814E+01  0.25567237934E+02  0.26144461085E+02  0.54367095564E+02  0.40000025956E+02 0.  0.
        -12    1    3    3    0    0  0.43084222814E+01 -0.25567237934E+02 -0.26144461085E+02  0.36820904436E+02  0.00000000000E+00 0.  1.
         11    1    4    4    0    0  0.96212740800E+01  0.12128778556E+02  0.21846101840E+02  0.26775517736E+02  0.51100000000E-03 0. -1.
        -11    1    4    4    0    0  0.28961729991E+01  0.90749871774E+01  0.36367770693E+01  0.10196536570E+02  0.51100000000E-03 0.  1.
        -12    1    4    4    0    0 -0.16825869361E+02  0.43634722004E+01  0.66158217577E+00  0.17395041258E+02  0.00000000000E+00 0.  1.
</event>
<event>
 8    1  0.2501893E-006  0.9118800E+02  0.7816164E-02  0.1184000E+00
        -11   -1    0    0    0    0  0.00000000000E+00  0.00000000000E+00  0.45593999997E+02  0.45594000000E+02  0.51100000000E-03 0.  1.
         11   -1    0    0    0    0 -0.00000000000E+00 -0.00000000000E+00 -0.45593999997E+02  0.45594000000E+02  0.51100000000E-03 0. -1.
         23    2    1    2    0    0 -0.88817841970E-15  0.00000000000E+00  0.00000000000E+00  0.91188000000E+02  0.91188000000E+02 0.  0.
    9900012    2    3    3    0    0 -0.40428585046E+01 -0.19977891766E+02  0.30664634225E+02  0.54367073118E+02  0.39999974787E+02 0.  0.
         12    1    3    3    0    0  0.40428585046E+01  0.19977891766E+02 -0.30664634225E+02  0.36820926882E+02  0.00000000000E+00 0. -1.
         11    1    4    4    0    0 -0.18171208586E+02 -0.59782065066E+01  0.28162986263E+01  0.19335545317E+02  0.51100000000E-03 0. -1.
        -11    1    4    4    0    0  0.54765083273E+01 -0.37138431715E+01  0.15188909333E+02  0.16567671579E+02  0.51100000000E-03 0.  1.
        -12    1    4    4    0    0  0.86518417539E+01 -0.10285842088E+02  0.12659426266E+02  0.18463856222E+02  0.00000000000E+00 0.  1.
</event>
<event>
 8    1  0.2501893E-006  0.9118800E+02  0.7816164E-02  0.1184000E+00
        -11   -1    0    0    0    0  0.00000000000E+00  0.00000000000E+00  0.45593999997E+02  0.45594000000E+02  0.51100000000E-03 0.  1.
         11   -1    0    0    0    0 -0.00000000000E+00 -0.00000000000E+00 -0.45593999997E+02  0.45594000000E+02  0.51100000000E-03 0. -1.
         23    2    1    2    0    0 -0.35527136788E-14  0.00000000000E+00  0.17763568394E-14  0.91188000000E+02  0.91188000000E+02 0.  0.
    9900012    2    3    3    0    0 -0.22987385399E+02  0.26763775881E+02  0.10538584730E+02  0.54367063632E+02  0.39999953161E+02 0.  0.
         12    1    3    3    0    0  0.22987385399E+02 -0.26763775881E+02 -0.10538584730E+02  0.36820936368E+02  0.00000000000E+00 0. -1.
         11    1    4    4    0    0  0.26960758150E+01  0.55242401420E+01  0.22972457750E+01  0.65622703662E+01  0.51100000000E-03 0. -1.
        -11    1    4    4    0    0  0.70309569770E+01  0.10340986566E+02  0.35935854824E+01  0.13010926794E+02  0.51100000000E-03 0.  1.
         12    1    4    4    0    0 -0.32714418191E+02  0.10898549173E+02  0.46477534729E+01  0.34793866471E+02  0.00000000000E+00 0. -1.
</event>
<event>
 8    1  0.2501893E-006  0.9118800E+02  0.7816164E-02  0.1184000E+00
        -11   -1    0    0    0    0  0.00000000000E+00  0.00000000000E+00  0.45593999997E+02  0.45594000000E+02  0.51100000000E-03 0. -1.
         11   -1    0    0    0    0 -0.00000000000E+00 -0.00000000000E+00 -0.45593999997E+02  0.45594000000E+02  0.51100000000E-03 0.  1.
         23    2    1    2    0    0  0.00000000000E+00  0.00000000000E+00  0.00000000000E+00  0.91188000000E+02  0.91188000000E+02 0.  0.
    9900012    2    3    3    0    0  0.23869405313E+02  0.22271627271E+02  0.17029556658E+02  0.54367086225E+02  0.40000004668E+02 0.  0.
        -12    1    3    3    0    0 -0.23869405313E+02 -0.22271627271E+02 -0.17029556658E+02  0.36820913775E+02  0.00000000000E+00 0.  1.
         11    1    4    4    0    0  0.25890659135E+02  0.47503468633E+01  0.11860767828E+02  0.28871609576E+02  0.51100000000E-03 0. -1.
        -11    1    4    4    0    0 -0.21094916064E+01  0.16042498460E+01  0.87820692519E+01  0.91732389597E+01  0.51100000000E-03 0.  1.
        -12    1    4    4    0    0  0.88237783736E-01  0.15917030561E+02 -0.36132804218E+01  0.16322237690E+02  0.00000000000E+00 0.  1.
</event>
<event>
 8    1  0.2501893E-006  0.9118800E+02  0.7816164E-02  0.1184000E+00
        -11   -1    0    0    0    0  0.00000000000E+00  0.00000000000E+00  0.45593999997E+02  0.45594000000E+02  0.51100000000E-03 0.  1.
         11   -1    0    0    0    0 -0.00000000000E+00 -0.00000000000E+00 -0.45593999997E+02  0.45594000000E+02  0.51100000000E-03 0. -1.
         23    2    1    2    0    0  0.00000000000E+00  0.00000000000E+00  0.71054273576E-14  0.91188000000E+02  0.91188000000E+02 0.  0.
    9900012    2    3    3    0    0 -0.59074999884E+01  0.10363718817E+02  0.34834959341E+02  0.54367087245E+02  0.40000006992E+02 0.  0.
         12    1    3    3    0    0  0.59074999884E+01 -0.10363718817E+02 -0.34834959341E+02  0.36820912755E+02  0.00000000000E+00 0. -1.
         11    1    4    4    0    0 -0.11375662208E+01 -0.24124719863E+01 -0.11966249970E+01  0.29233524652E+01  0.51100000000E-03 0. -1.
        -11    1    4    4    0    0 -0.78828987257E+01 -0.10555744744E+02  0.13319924035E+02  0.18734572746E+02  0.51100000000E-03 0.  1.
         12    1    4    4    0    0  0.31129649581E+01  0.23331935547E+02  0.22711660303E+02  0.32709162034E+02  0.00000000000E+00 0. -1.
</event>
<event>
 8    1  0.2501893E-006  0.9118800E+02  0.7816164E-02  0.1184000E+00
        -11   -1    0    0    0    0  0.00000000000E+00  0.00000000000E+00  0.45593999997E+02  0.45594000000E+02  0.51100000000E-03 0.  1.
         11   -1    0    0    0    0 -0.00000000000E+00 -0.00000000000E+00 -0.45593999997E+02  0.45594000000E+02  0.51100000000E-03 0. -1.
         23    2    1    2    0    0  0.00000000000E+00  0.00000000000E+00  0.00000000000E+00  0.91188000000E+02  0.91188000000E+02 0.  0.
    9900012    2    3    3    0    0 -0.23459755985E+02  0.17035103016E+02 -0.22698561581E+02  0.54367087688E+02  0.40000008002E+02 0.  0.
        -12    1    3    3    0    0  0.23459755985E+02 -0.17035103016E+02  0.22698561581E+02  0.36820912312E+02  0.00000000000E+00 0.  1.
         11    1    4    4    0    0 -0.95047198708E+01 -0.29850508521E+01 -0.49096822175E+00  0.99745314911E+01  0.51100000000E-03 0. -1.
        -11    1    4    4    0    0 -0.12880554001E+02  0.26436660822E+02 -0.10930268116E+02  0.31373180714E+02  0.51100000000E-03 0.  1.
        -12    1    4    4    0    0 -0.10744821135E+01 -0.64165069541E+01 -0.11277325244E+02  0.13019375482E+02  0.00000000000E+00 0.  1.
</event>
<event>
 8    1  0.2501893E-006  0.9118800E+02  0.7816164E-02  0.1184000E+00
        -11   -1    0    0    0    0  0.00000000000E+00  0.00000000000E+00  0.45593999997E+02  0.45594000000E+02  0.51100000000E-03 0.  1.
         11   -1    0    0    0    0 -0.00000000000E+00 -0.00000000000E+00 -0.45593999997E+02  0.45594000000E+02  0.51100000000E-03 0. -1.
         23    2    1    2    0    0  0.17763568394E-14  0.00000000000E+00  0.88817841970E-15  0.91188000000E+02  0.91188000000E+02 0.  0.
    9900012    2    3    3    0    0 -0.11350861382E+02  0.34755670997E+02 -0.43567446828E+01  0.54367082781E+02  0.39999996816E+02 0.  0.
        -12    1    3    3    0    0  0.11350861382E+02 -0.34755670997E+02  0.43567446828E+01  0.36820917219E+02  0.00000000000E+00 0.  1.
         11    1    4    4    0    0 -0.14332165570E+02  0.44006382363E+01  0.49223980563E+01  0.15779942639E+02  0.51100000000E-03 0. -1.
        -11    1    4    4    0    0  0.11573991279E+02  0.20518582912E+02 -0.98020261182E+01  0.25515666465E+02  0.51100000000E-03 0.  1.
        -12    1    4    4    0    0 -0.85926870913E+01  0.98364498490E+01  0.52288337913E+00  0.13071473678E+02  0.00000000000E+00 0.  1.
</event>
<event>
 8    1  0.2501893E-006  0.9118800E+02  0.7816164E-02  0.1184000E+00
        -11   -1    0    0    0    0  0.00000000000E+00  0.00000000000E+00  0.45593999997E+02  0.45594000000E+02  0.51100000000E-03 0.  1.
         11   -1    0    0    0    0 -0.00000000000E+00 -0.00000000000E+00 -0.45593999997E+02  0.45594000000E+02  0.51100000000E-03 0. -1.
         23    2    1    2    0    0  0.00000000000E+00  0.17763568394E-14  0.00000000000E+00  0.91188000000E+02  0.91188000000E+02 0.  0.
    9900012    2    3    3    0    0 -0.71009398582E+01  0.12295901509E+02 -0.33973017814E+02  0.54367102670E+02  0.40000042157E+02 0.  0.
        -12    1    3    3    0    0  0.71009398582E+01 -0.12295901509E+02  0.33973017814E+02  0.36820897330E+02  0.00000000000E+00 0.  1.
         11    1    4    4    0    0  0.82898133911E+01  0.10595944224E+02 -0.16687639504E+02  0.21435306215E+02  0.51100000000E-03 0. -1.
        -11    1    4    4    0    0 -0.37206861797E+01  0.11937577896E+02 -0.74905681696E+01  0.14575935079E+02  0.51100000000E-03 0.  1.
         12    1    4    4    0    0 -0.11670067070E+02 -0.10237620610E+02 -0.97948101401E+01  0.18355861376E+02  0.00000000000E+00 0. -1.
</event>
<event>
 8    1  0.2501893E-006  0.9118800E+02  0.7816164E-02  0.1184000E+00
        -11   -1    0    0    0    0  0.00000000000E+00  0.00000000000E+00  0.45593999997E+02  0.45594000000E+02  0.51100000000E-03 0.  1.
         11   -1    0    0    0    0 -0.00000000000E+00 -0.00000000000E+00 -0.45593999997E+02  0.45594000000E+02  0.51100000000E-03 0. -1.
         23    2    1    2    0    0  0.35527136788E-14  0.14210854715E-13  0.44408920985E-15  0.91188000000E+02  0.91188000000E+02 0.  0.
    9900012    2    3    3    0    0  0.17164436982E+02  0.32474136449E+02  0.25675556832E+01  0.54367085057E+02  0.40000002005E+02 0.  0.
        -12    1    3    3    0    0 -0.17164436982E+02 -0.32474136449E+02 -0.25675556832E+01  0.36820914943E+02  0.00000000000E+00 0.  1.
         11    1    4    4    0    0  0.13859631627E+01 -0.27020779290E+01  0.99112882230E+01  0.10366086702E+02  0.51100000000E-03 0. -1.
        -11    1    4    4    0    0 -0.36464541873E+01  0.77849483027E+00 -0.16942852392E+01  0.40955201225E+01  0.51100000000E-03 0.  1.
         12    1    4    4    0    0  0.19424928007E+02  0.34397719548E+02 -0.56494473006E+01  0.39905478232E+02  0.00000000000E+00 0. -1.
</event>
<event>
 8    1  0.2501893E-006  0.9118800E+02  0.7816164E-02  0.1184000E+00
        -11   -1    0    0    0    0  0.00000000000E+00  0.00000000000E+00  0.45593999997E+02  0.45594000000E+02  0.51100000000E-03 0.  1.
         11   -1    0    0    0    0 -0.00000000000E+00 -0.00000000000E+00 -0.45593999997E+02  0.45594000000E+02  0.51100000000E-03 0. -1.
         23    2    1    2    0    0  0.00000000000E+00  0.17763568394E-14  0.71054273576E-14  0.91188000000E+02  0.91188000000E+02 0.  0.
    9900012    2    3    3    0    0  0.19625669822E+02 -0.15558510282E+02  0.26991641057E+02  0.54367043398E+02  0.39999907034E+02 0.  0.
         12    1    3    3    0    0 -0.19625669822E+02  0.15558510282E+02 -0.26991641057E+02  0.36820956602E+02  0.00000000000E+00 0. -1.
         11    1    4    4    0    0  0.17059924771E+02 -0.12949841022E+02 -0.13446439575E+01  0.21460370065E+02  0.51100000000E-03 0. -1.
        -11    1    4    4    0    0  0.75679168093E+01  0.14127047028E+01  0.23887363430E+02  0.25097315221E+02  0.51100000000E-03 0.  1.
         12    1    4    4    0    0 -0.50021717587E+01 -0.40213739628E+01  0.44489215841E+01  0.78093581115E+01  0.00000000000E+00 0. -1.
</event>
<event>
 8    1  0.2501893E-006  0.9118800E+02  0.7816164E-02  0.1184000E+00
        -11   -1    0    0    0    0  0.00000000000E+00  0.00000000000E+00  0.45593999997E+02  0.45594000000E+02  0.51100000000E-03 0.  1.
         11   -1    0    0    0    0 -0.00000000000E+00 -0.00000000000E+00 -0.45593999997E+02  0.45594000000E+02  0.51100000000E-03 0. -1.
         23    2    1    2    0    0  0.00000000000E+00  0.00000000000E+00 -0.44408920985E-15  0.91188000000E+02  0.91188000000E+02 0.  0.
    9900012    2    3    3    0    0  0.72745348995E+01  0.35972805023E+02  0.29696300054E+01  0.54367078480E+02  0.39999987011E+02 0.  0.
        -12    1    3    3    0    0 -0.72745348995E+01 -0.35972805023E+02 -0.29696300054E+01  0.36820921520E+02  0.00000000000E+00 0.  1.
         11    1    4    4    0    0  0.12600582311E+02  0.19779675466E+01  0.32822664676E+01  0.13170432932E+02  0.51100000000E-03 0.  1.
        -11    1    4    4    0    0  0.83979964967E+01  0.18936608256E+02 -0.16357816333E+01  0.20779731933E+02  0.51100000000E-03 0. -1.
         12    1    4    4    0    0 -0.13724043908E+02  0.15058229220E+02  0.13231451711E+01  0.20416913615E+02  0.00000000000E+00 0. -1.
</event>
<event>
 8    1  0.2501893E-006  0.9118800E+02  0.7816164E-02  0.1184000E+00
        -11   -1    0    0    0    0  0.00000000000E+00  0.00000000000E+00  0.45593999997E+02  0.45594000000E+02  0.51100000000E-03 0. -1.
         11   -1    0    0    0    0 -0.00000000000E+00 -0.00000000000E+00 -0.45593999997E+02  0.45594000000E+02  0.51100000000E-03 0.  1.
         23    2    1    2    0    0  0.00000000000E+00  0.88817841970E-15  0.44408920985E-15  0.91188000000E+02  0.91188000000E+02 0.  0.
    9900012    2    3    3    0    0  0.36122109109E+02 -0.70276024648E+01  0.12601579050E+01  0.54367055406E+02  0.39999934408E+02 0.  0.
        -12    1    3    3    0    0 -0.36122109109E+02  0.70276024648E+01 -0.12601579050E+01  0.36820944594E+02  0.00000000000E+00 0.  1.
         11    1    4    4    0    0  0.94695132726E+01 -0.37167471655E+01  0.74086682787E+01  0.12584683430E+02  0.51100000000E-03 0. -1.
        -11    1    4    4    0    0  0.12813839898E+02 -0.15869626492E+02 -0.99770787305E+01  0.22706422839E+02  0.51100000000E-03 0.  1.
         12    1    4    4    0    0  0.13838755939E+02  0.12558771192E+02  0.38285683568E+01  0.19075949136E+02  0.00000000000E+00 0. -1.
</event>
<event>
 8    1  0.2501893E-006  0.9118800E+02  0.7816164E-02  0.1184000E+00
        -11   -1    0    0    0    0  0.00000000000E+00  0.00000000000E+00  0.45593999997E+02  0.45594000000E+02  0.51100000000E-03 0.  1.
         11   -1    0    0    0    0 -0.00000000000E+00 -0.00000000000E+00 -0.45593999997E+02  0.45594000000E+02  0.51100000000E-03 0. -1.
         23    2    1    2    0    0 -0.35527136788E-14 -0.44408920985E-15  0.35527136788E-14  0.91188000000E+02  0.91188000000E+02 0.  0.
    9900012    2    3    3    0    0  0.25658261346E+02  0.32655018781E+01 -0.26206309910E+02  0.54367074469E+02  0.39999977868E+02 0.  0.
        -12    1    3    3    0    0 -0.25658261346E+02 -0.32655018781E+01  0.26206309910E+02  0.36820925531E+02  0.00000000000E+00 0.  1.
         11    1    4    4    0    0  0.35174443501E+02  0.39768192263E+01 -0.22227685663E+02  0.41798643243E+02  0.51100000000E-03 0. -1.
        -11    1    4    4    0    0 -0.36340447612E+01 -0.53409431405E-01  0.20060116391E+01  0.41512909860E+01  0.51100000000E-03 0.  1.
         12    1    4    4    0    0 -0.58821373931E+01 -0.65790791672E+00 -0.59846358863E+01  0.84171402406E+01  0.00000000000E+00 0. -1.
</event>
<event>
 8    1  0.2501893E-006  0.9118800E+02  0.7816164E-02  0.1184000E+00
        -11   -1    0    0    0    0  0.00000000000E+00  0.00000000000E+00  0.45593999997E+02  0.45594000000E+02  0.51100000000E-03 0. -1.
         11   -1    0    0    0    0 -0.00000000000E+00 -0.00000000000E+00 -0.45593999997E+02  0.45594000000E+02  0.51100000000E-03 0.  1.
         23    2    1    2    0    0  0.00000000000E+00  0.00000000000E+00 -0.17763568394E-14  0.91188000000E+02  0.91188000000E+02 0.  0.
    9900012    2    3    3    0    0 -0.13981415090E+02 -0.32366951834E+02 -0.10614867666E+02  0.54367150546E+02  0.40000151299E+02 0.  0.
         12    1    3    3    0    0  0.13981415090E+02  0.32366951834E+02  0.10614867666E+02  0.36820849454E+02  0.00000000000E+00 0. -1.
         11    1    4    4    0    0 -0.18866102637E+02 -0.16787543240E+02 -0.15785889683E+02  0.29781634442E+02  0.51100000000E-03 0.  1.
        -11    1    4    4    0    0  0.53503570615E+01 -0.19409569278E+02  0.37878313152E+01  0.20486711951E+02  0.51100000000E-03 0. -1.
         12    1    4    4    0    0 -0.46566951533E+00  0.38301606838E+01  0.13831907012E+01  0.40988041521E+01  0.00000000000E+00 0. -1.
</event>
<event>
 8    1  0.2501893E-006  0.9118800E+02  0.7816164E-02  0.1184000E+00
        -11   -1    0    0    0    0  0.00000000000E+00  0.00000000000E+00  0.45593999997E+02  0.45594000000E+02  0.51100000000E-03 0. -1.
         11   -1    0    0    0    0 -0.00000000000E+00 -0.00000000000E+00 -0.45593999997E+02  0.45594000000E+02  0.51100000000E-03 0.  1.
         23    2    1    2    0    0  0.00000000000E+00  0.00000000000E+00  0.35527136788E-14  0.91188000000E+02  0.91188000000E+02 0.  0.
    9900012    2    3    3    0    0  0.19552587991E+02  0.18736445417E+02  0.24948340638E+02  0.54367112115E+02  0.40000063690E+02 0.  0.
        -12    1    3    3    0    0 -0.19552587991E+02 -0.18736445417E+02 -0.24948340638E+02  0.36820887885E+02  0.00000000000E+00 0.  1.
         11    1    4    4    0    0 -0.79073535197E+01 -0.17981390616E+00  0.44862376145E+01  0.90931238264E+01  0.51100000000E-03 0. -1.
        -11    1    4    4    0    0  0.28192754317E+02  0.10755953882E+02  0.21449364867E+02  0.37021577402E+02  0.51100000000E-03 0.  1.
         12    1    4    4    0    0 -0.73281280685E+00  0.81603054409E+01 -0.98726184278E+00  0.82524108868E+01  0.00000000000E+00 0. -1.
</event>
<event>
 8    1  0.2501893E-006  0.9118800E+02  0.7816164E-02  0.1184000E+00
        -11   -1    0    0    0    0  0.00000000000E+00  0.00000000000E+00  0.45593999997E+02  0.45594000000E+02  0.51100000000E-03 0.  1.
         11   -1    0    0    0    0 -0.00000000000E+00 -0.00000000000E+00 -0.45593999997E+02  0.45594000000E+02  0.51100000000E-03 0. -1.
         23    2    1    2    0    0  0.17763568394E-14  0.00000000000E+00  0.00000000000E+00  0.91188000000E+02  0.91188000000E+02 0.  0.
    9900012    2    3    3    0    0 -0.11850422099E+02 -0.34571523839E+01  0.34689989145E+02  0.54367085381E+02  0.40000002743E+02 0.  0.
         12    1    3    3    0    0  0.11850422099E+02  0.34571523839E+01 -0.34689989145E+02  0.36820914619E+02  0.00000000000E+00 0. -1.
         11    1    4    4    0    0  0.92787395066E+01  0.36733044189E+01  0.65018141565E+01  0.11910573444E+02  0.51100000000E-03 0. -1.
        -11    1    4    4    0    0 -0.49541828580E+01 -0.71615555945E+01  0.24310640178E+02  0.25823226608E+02  0.51100000000E-03 0.  1.
        -12    1    4    4    0    0 -0.16174978747E+02  0.31098791748E-01  0.38775348097E+01  0.16633285328E+02  0.00000000000E+00 0.  1.
</event>
<event>
 8    1  0.2501893E-006  0.9118800E+02  0.7816164E-02  0.1184000E+00
        -11   -1    0    0    0    0  0.00000000000E+00  0.00000000000E+00  0.45593999997E+02  0.45594000000E+02  0.51100000000E-03 0. -1.
         11   -1    0    0    0    0 -0.00000000000E+00 -0.00000000000E+00 -0.45593999997E+02  0.45594000000E+02  0.51100000000E-03 0.  1.
         23    2    1    2    0    0 -0.44408920985E-15  0.00000000000E+00  0.00000000000E+00  0.91188000000E+02  0.91188000000E+02 0.  0.
    9900012    2    3    3    0    0  0.32546875630E+01  0.86768591888E+01 -0.35635577515E+02  0.54367146379E+02  0.40000141801E+02 0.  0.
         12    1    3    3    0    0 -0.32546875630E+01 -0.86768591888E+01  0.35635577515E+02  0.36820853621E+02  0.00000000000E+00 0. -1.
         11    1    4    4    0    0 -0.54189637674E+01  0.38673165627E+01 -0.14664014820E+02  0.16104491193E+02  0.51100000000E-03 0. -1.
        -11    1    4    4    0    0 -0.84239309571E+01 -0.63013796432E+01 -0.26469949936E+01  0.10847883708E+02  0.51100000000E-03 0.  1.
         12    1    4    4    0    0  0.17097582287E+02  0.11110922269E+02 -0.18324567702E+02  0.27414771478E+02  0.00000000000E+00 0. -1.
</event>
<event>
 8    1  0.2501893E-006  0.9118800E+02  0.7816164E-02  0.1184000E+00
        -11   -1    0    0    0    0  0.00000000000E+00  0.00000000000E+00  0.45593999997E+02  0.45594000000E+02  0.51100000000E-03 0. -1.
         11   -1    0    0    0    0 -0.00000000000E+00 -0.00000000000E+00 -0.45593999997E+02  0.45594000000E+02  0.51100000000E-03 0.  1.
         23    2    1    2    0    0  0.35527136788E-14  0.35527136788E-14  0.00000000000E+00  0.91188000000E+02  0.91188000000E+02 0.  0.
    9900012    2    3    3    0    0 -0.21730504931E+02 -0.28555427193E+02  0.82554482312E+01  0.54367086212E+02  0.40000004637E+02 0.  0.
        -12    1    3    3    0    0  0.21730504931E+02  0.28555427193E+02 -0.82554482312E+01  0.36820913788E+02  0.00000000000E+00 0.  1.
         11    1    4    4    0    0  0.42850109903E+01 -0.17656342787E+02  0.15651973046E+02  0.23981076296E+02  0.51100000000E-03 0. -1.
        -11    1    4    4    0    0 -0.13142838412E+02 -0.21177378938E+01 -0.43608262931E+00  0.13319503881E+02  0.51100000000E-03 0.  1.
        -12    1    4    4    0    0 -0.12872677509E+02 -0.87813465116E+01 -0.69604421859E+01  0.17066506035E+02  0.00000000000E+00 0.  1.
</event>
<event>
 8    1  0.2501893E-006  0.9118800E+02  0.7816164E-02  0.1184000E+00
        -11   -1    0    0    0    0  0.00000000000E+00  0.00000000000E+00  0.45593999997E+02  0.45594000000E+02  0.51100000000E-03 0.  1.
         11   -1    0    0    0    0 -0.00000000000E+00 -0.00000000000E+00 -0.45593999997E+02  0.45594000000E+02  0.51100000000E-03 0. -1.
         23    2    1    2    0    0  0.35527136788E-14 -0.35527136788E-14  0.00000000000E+00  0.91188000000E+02  0.91188000000E+02 0.  0.
    9900012    2    3    3    0    0 -0.23949371257E+02  0.27398116126E+02  0.56175838933E+01  0.54366995130E+02  0.39999796996E+02 0.  0.
         12    1    3    3    0    0  0.23949371257E+02 -0.27398116126E+02 -0.56175838933E+01  0.36821004870E+02  0.00000000000E+00 0. -1.
         11    1    4    4    0    0 -0.12397396199E+02  0.62967935315E-02  0.57471778646E+01  0.13664754876E+02  0.51100000000E-03 0. -1.
        -11    1    4    4    0    0 -0.20565288823E+02  0.17858458983E+02 -0.25684006181E+01  0.27357857073E+02  0.51100000000E-03 0.  1.
         12    1    4    4    0    0  0.90133137656E+01  0.95333603498E+01  0.24388066468E+01  0.13344383180E+02  0.00000000000E+00 0. -1.
</event>
<event>
 8    1  0.2501893E-006  0.9118800E+02  0.7816164E-02  0.1184000E+00
        -11   -1    0    0    0    0  0.00000000000E+00  0.00000000000E+00  0.45593999997E+02  0.45594000000E+02  0.51100000000E-03 0. -1.
         11   -1    0    0    0    0 -0.00000000000E+00 -0.00000000000E+00 -0.45593999997E+02  0.45594000000E+02  0.51100000000E-03 0.  1.
         23    2    1    2    0    0  0.00000000000E+00  0.00000000000E+00 -0.35527136788E-14  0.91188000000E+02  0.91188000000E+02 0.  0.
    9900012    2    3    3    0    0 -0.58974232590E+01  0.29526486659E+02  0.21194040262E+02  0.54367077169E+02  0.39999984021E+02 0.  0.
        -12    1    3    3    0    0  0.58974232590E+01 -0.29526486659E+02 -0.21194040262E+02  0.36820922831E+02  0.00000000000E+00 0.  1.
         11    1    4    4    0    0  0.27653956607E+01 -0.66338281925E+00 -0.48270289347E+01  0.56024725365E+01  0.51100000000E-03 0. -1.
        -11    1    4    4    0    0  0.70255433886E+01  0.73307336512E+01  0.16644544608E+02  0.19497148029E+02  0.51100000000E-03 0.  1.
         12    1    4    4    0    0 -0.15688362308E+02  0.22859135827E+02  0.93765245887E+01  0.29267456604E+02  0.00000000000E+00 0. -1.
</event>
<event>
 8    1  0.2501893E-006  0.9118800E+02  0.7816164E-02  0.1184000E+00
        -11   -1    0    0    0    0  0.00000000000E+00  0.00000000000E+00  0.45593999997E+02  0.45594000000E+02  0.51100000000E-03 0. -1.
         11   -1    0    0    0    0 -0.00000000000E+00 -0.00000000000E+00 -0.45593999997E+02  0.45594000000E+02  0.51100000000E-03 0.  1.
         23    2    1    2    0    0  0.00000000000E+00  0.00000000000E+00  0.35527136788E-14  0.91188000000E+02  0.91188000000E+02 0.  0.
    9900012    2    3    3    0    0 -0.61385039681E+01  0.17466288708E+02 -0.31827846297E+02  0.54367295605E+02  0.40000481988E+02 0.  0.
         12    1    3    3    0    0  0.61385039681E+01 -0.17466288708E+02  0.31827846297E+02  0.36820704395E+02  0.00000000000E+00 0. -1.
         11    1    4    4    0    0 -0.78758343610E+01 -0.35079220664E+01 -0.36551861869E+01  0.93645432578E+01  0.51100000000E-03 0. -1.
        -11    1    4    4    0    0  0.13756663936E+02  0.17638482249E+02 -0.20607332115E+02  0.30414207139E+02  0.51100000000E-03 0.  1.
        -12    1    4    4    0    0 -0.12019333544E+02  0.33357285261E+01 -0.75653279951E+01  0.14588545209E+02  0.00000000000E+00 0.  1.
</event>
<event>
 8    1  0.2501893E-006  0.9118800E+02  0.7816164E-02  0.1184000E+00
        -11   -1    0    0    0    0  0.00000000000E+00  0.00000000000E+00  0.45593999997E+02  0.45594000000E+02  0.51100000000E-03 0. -1.
         11   -1    0    0    0    0 -0.00000000000E+00 -0.00000000000E+00 -0.45593999997E+02  0.45594000000E+02  0.51100000000E-03 0.  1.
         23    2    1    2    0    0  0.00000000000E+00  0.35527136788E-14  0.00000000000E+00  0.91188000000E+02  0.91188000000E+02 0.  0.
    9900012    2    3    3    0    0  0.55061851596E+00  0.25561487909E+02  0.26496986811E+02  0.54367039191E+02  0.39999897442E+02 0.  0.
        -12    1    3    3    0    0 -0.55061851596E+00 -0.25561487909E+02 -0.26496986811E+02  0.36820960809E+02  0.00000000000E+00 0.  1.
         11    1    4    4    0    0 -0.27812339236E+01  0.37973611543E+01 -0.35498871479E+01  0.58954993764E+01  0.51100000000E-03 0.  1.
        -11    1    4    4    0    0 -0.58109216475E+01  0.12377874640E+02  0.32392255079E+02  0.35160158993E+02  0.51100000000E-03 0. -1.
         12    1    4    4    0    0  0.91427740871E+01  0.93862521149E+01 -0.23453811206E+01  0.13311380821E+02  0.00000000000E+00 0. -1.
</event>
<event>
 8    1  0.2501893E-006  0.9118800E+02  0.7816164E-02  0.1184000E+00
        -11   -1    0    0    0    0  0.00000000000E+00  0.00000000000E+00  0.45593999997E+02  0.45594000000E+02  0.51100000000E-03 0. -1.
         11   -1    0    0    0    0 -0.00000000000E+00 -0.00000000000E+00 -0.45593999997E+02  0.45594000000E+02  0.51100000000E-03 0.  1.
         23    2    1    2    0    0 -0.35527136788E-14  0.00000000000E+00 -0.35527136788E-14  0.91188000000E+02  0.91188000000E+02 0.  0.
    9900012    2    3    3    0    0  0.27667045959E+02  0.70858803688E+01  0.23240147108E+02  0.54367087867E+02  0.40000008410E+02 0.  0.
        -12    1    3    3    0    0 -0.27667045959E+02 -0.70858803688E+01 -0.23240147108E+02  0.36820912133E+02  0.00000000000E+00 0.  1.
         11    1    4    4    0    0  0.40914806998E+01  0.40808380872E+01 -0.55928451418E+01  0.80419755566E+01  0.51100000000E-03 0. -1.
        -11    1    4    4    0    0  0.39097074294E+01 -0.10784211131E+02  0.13984896246E+02  0.18087629618E+02  0.51100000000E-03 0.  1.
        -12    1    4    4    0    0  0.19665857830E+02  0.13789253413E+02  0.14848096004E+02  0.28237482693E+02  0.00000000000E+00 0.  1.
</event>
<event>
 8    1  0.2501893E-006  0.9118800E+02  0.7816164E-02  0.1184000E+00
        -11   -1    0    0    0    0  0.00000000000E+00  0.00000000000E+00  0.45593999997E+02  0.45594000000E+02  0.51100000000E-03 0. -1.
         11   -1    0    0    0    0 -0.00000000000E+00 -0.00000000000E+00 -0.45593999997E+02  0.45594000000E+02  0.51100000000E-03 0.  1.
         23    2    1    2    0    0  0.00000000000E+00  0.35527136788E-14  0.17763568394E-14  0.91188000000E+02  0.91188000000E+02 0.  0.
    9900012    2    3    3    0    0  0.28978637409E+02 -0.18711331103E+02  0.12880479171E+02  0.54367053768E+02  0.39999930675E+02 0.  0.
         12    1    3    3    0    0 -0.28978637409E+02  0.18711331103E+02 -0.12880479171E+02  0.36820946232E+02  0.00000000000E+00 0. -1.
         11    1    4    4    0    0  0.78425272577E+01  0.21387659773E+01  0.13886832075E+02  0.16091104967E+02  0.51100000000E-03 0. -1.
        -11    1    4    4    0    0  0.15775558893E+02 -0.75291704026E+01  0.10041086251E+02  0.20158870968E+02  0.51100000000E-03 0.  1.
        -12    1    4    4    0    0  0.53605512591E+01 -0.13320926678E+02 -0.11047439156E+02  0.18117077834E+02  0.00000000000E+00 0.  1.
</event>
<event>
 8    1  0.2501893E-006  0.9118800E+02  0.7816164E-02  0.1184000E+00
        -11   -1    0    0    0    0  0.00000000000E+00  0.00000000000E+00  0.45593999997E+02  0.45594000000E+02  0.51100000000E-03 0.  1.
         11   -1    0    0    0    0 -0.00000000000E+00 -0.00000000000E+00 -0.45593999997E+02  0.45594000000E+02  0.51100000000E-03 0. -1.
         23    2    1    2    0    0  0.22204460493E-15  0.35527136788E-14  0.00000000000E+00  0.91188000000E+02  0.91188000000E+02 0.  0.
    9900012    2    3    3    0    0  0.93178807671E+00 -0.24691495150E+02  0.27299105181E+02  0.54367091464E+02  0.40000016611E+02 0.  0.
         12    1    3    3    0    0 -0.93178807671E+00  0.24691495150E+02 -0.27299105181E+02  0.36820908536E+02  0.00000000000E+00 0. -1.
         11    1    4    4    0    0  0.37939506743E+01  0.76738459428E+00 -0.75908399276E+00  0.39445087912E+01  0.51100000000E-03 0. -1.
        -11    1    4    4    0    0 -0.75574710457E+01  0.27642399783E+01  0.18637400347E+02  0.20300470025E+02  0.51100000000E-03 0.  1.
         12    1    4    4    0    0  0.46953084481E+01 -0.28223119722E+02  0.94207888262E+01  0.30122112648E+02  0.00000000000E+00 0. -1.
</event>
<event>
 8    1  0.2501893E-006  0.9118800E+02  0.7816164E-02  0.1184000E+00
        -11   -1    0    0    0    0  0.00000000000E+00  0.00000000000E+00  0.45593999997E+02  0.45594000000E+02  0.51100000000E-03 0.  1.
         11   -1    0    0    0    0 -0.00000000000E+00 -0.00000000000E+00 -0.45593999997E+02  0.45594000000E+02  0.51100000000E-03 0. -1.
         23    2    1    2    0    0  0.17763568394E-14  0.00000000000E+00 -0.88817841970E-15  0.91188000000E+02  0.91188000000E+02 0.  0.
    9900012    2    3    3    0    0  0.89180133026E+01  0.35459597882E+02 -0.43447855026E+01  0.54366929887E+02  0.39999648262E+02 0.  0.
        -12    1    3    3    0    0 -0.89180133026E+01 -0.35459597882E+02  0.43447855026E+01  0.36821070113E+02  0.00000000000E+00 0.  1.
         11    1    4    4    0    0 -0.74322214970E+01  0.12803116914E+02 -0.54969946678E+01  0.15791601240E+02  0.51100000000E-03 0. -1.
        -11    1    4    4    0    0  0.17853822383E+02  0.19950858631E+02 -0.87768543587E+01  0.28174969503E+02  0.51100000000E-03 0.  1.
        -12    1    4    4    0    0 -0.15035875838E+01  0.27056223371E+01  0.99290635239E+01  0.10400359144E+02  0.00000000000E+00 0.  1.
</event>
<event>
 8    1  0.2501893E-006  0.9118800E+02  0.7816164E-02  0.1184000E+00
        -11   -1    0    0    0    0  0.00000000000E+00  0.00000000000E+00  0.45593999997E+02  0.45594000000E+02  0.51100000000E-03 0.  1.
         11   -1    0    0    0    0 -0.00000000000E+00 -0.00000000000E+00 -0.45593999997E+02  0.45594000000E+02  0.51100000000E-03 0. -1.
         23    2    1    2    0    0  0.22204460493E-15  0.35527136788E-14  0.00000000000E+00  0.91188000000E+02  0.91188000000E+02 0.  0.
    9900012    2    3    3    0    0  0.85781240484E+00  0.31482707321E+02 -0.19075731157E+02  0.54367079023E+02  0.39999988249E+02 0.  0.
        -12    1    3    3    0    0 -0.85781240484E+00 -0.31482707321E+02  0.19075731157E+02  0.36820920977E+02  0.00000000000E+00 0.  1.
         11    1    4    4    0    0  0.10714288699E+02  0.20467332054E+02 -0.21687423455E+02  0.31686779579E+02  0.51100000000E-03 0. -1.
        -11    1    4    4    0    0 -0.47193499142E+01 -0.36869647717E+01 -0.21997359084E+01  0.63800322231E+01  0.51100000000E-03 0.  1.
         12    1    4    4    0    0 -0.51371263799E+01  0.14702340040E+02  0.48114282062E+01  0.16300267221E+02  0.00000000000E+00 0. -1.
</event>
<event>
 8    1  0.2501893E-006  0.9118800E+02  0.7816164E-02  0.1184000E+00
        -11   -1    0    0    0    0  0.00000000000E+00  0.00000000000E+00  0.45593999997E+02  0.45594000000E+02  0.51100000000E-03 0.  1.
         11   -1    0    0    0    0 -0.00000000000E+00 -0.00000000000E+00 -0.45593999997E+02  0.45594000000E+02  0.51100000000E-03 0. -1.
         23    2    1    2    0    0 -0.17763568394E-14 -0.88817841970E-15  0.00000000000E+00  0.91188000000E+02  0.91188000000E+02 0.  0.
    9900012    2    3    3    0    0  0.13288187976E+02 -0.51680000747E+01  0.33948422965E+02  0.54367087651E+02  0.40000007917E+02 0.  0.
         12    1    3    3    0    0 -0.13288187976E+02  0.51680000747E+01 -0.33948422965E+02  0.36820912349E+02  0.00000000000E+00 0. -1.
         11    1    4    4    0    0  0.37468777576E+01 -0.11017272890E+02  0.14635970897E+02  0.18698423442E+02  0.51100000000E-03 0. -1.
        -11    1    4    4    0    0 -0.38694774037E+01 -0.21643371139E+01  0.19547748540E+02  0.20044243157E+02  0.51100000000E-03 0.  1.
         12    1    4    4    0    0  0.13410787622E+02  0.80136099292E+01 -0.23529647237E+00  0.15624421051E+02  0.00000000000E+00 0. -1.
</event>
<event>
 8    1  0.2501893E-006  0.9118800E+02  0.7816164E-02  0.1184000E+00
        -11   -1    0    0    0    0  0.00000000000E+00  0.00000000000E+00  0.45593999997E+02  0.45594000000E+02  0.51100000000E-03 0.  1.
         11   -1    0    0    0    0 -0.00000000000E+00 -0.00000000000E+00 -0.45593999997E+02  0.45594000000E+02  0.51100000000E-03 0. -1.
         23    2    1    2    0    0  0.00000000000E+00  0.00000000000E+00  0.35527136788E-14  0.91188000000E+02  0.91188000000E+02 0.  0.
    9900012    2    3    3    0    0 -0.15220575682E+02  0.19869011248E+02 -0.27006218569E+02  0.54367090540E+02  0.40000014503E+02 0.  0.
        -12    1    3    3    0    0  0.15220575682E+02 -0.19869011248E+02  0.27006218569E+02  0.36820909460E+02  0.00000000000E+00 0.  1.
         11    1    4    4    0    0 -0.21888354294E+01  0.34199973635E+01 -0.48333691894E+00  0.40891316121E+01  0.51100000000E-03 0. -1.
        -11    1    4    4    0    0 -0.22517443861E+02  0.10819987682E+02 -0.41372880983E+01  0.25322412298E+02  0.51100000000E-03 0.  1.
        -12    1    4    4    0    0  0.94857036085E+01  0.56290262026E+01 -0.22385593552E+02  0.24955546630E+02  0.00000000000E+00 0.  1.
</event>
<event>
 8    1  0.2501893E-006  0.9118800E+02  0.7816164E-02  0.1184000E+00
        -11   -1    0    0    0    0  0.00000000000E+00  0.00000000000E+00  0.45593999997E+02  0.45594000000E+02  0.51100000000E-03 0.  1.
         11   -1    0    0    0    0 -0.00000000000E+00 -0.00000000000E+00 -0.45593999997E+02  0.45594000000E+02  0.51100000000E-03 0. -1.
         23    2    1    2    0    0  0.35527136788E-14 -0.17763568394E-14 -0.71054273576E-14  0.91188000000E+02  0.91188000000E+02 0.  0.
    9900012    2    3    3    0    0  0.14344579679E+02 -0.87761885486E+01 -0.32756549411E+02  0.54367082291E+02  0.39999995698E+02 0.  0.
        -12    1    3    3    0    0 -0.14344579679E+02  0.87761885486E+01  0.32756549411E+02  0.36820917709E+02  0.00000000000E+00 0.  1.
         11    1    4    4    0    0 -0.11445756578E+02 -0.22162202752E+01 -0.13137481514E+02  0.17564464032E+02  0.51100000000E-03 0. -1.
        -11    1    4    4    0    0 -0.17033439063E+01 -0.27032977691E+01 -0.33252039972E+01  0.46115269896E+01  0.51100000000E-03 0.  1.
         12    1    4    4    0    0  0.27493680163E+02 -0.38566705043E+01 -0.16293863900E+02  0.32191091269E+02  0.00000000000E+00 0. -1.
</event>
<event>
 8    1  0.2501893E-006  0.9118800E+02  0.7816164E-02  0.1184000E+00
        -11   -1    0    0    0    0  0.00000000000E+00  0.00000000000E+00  0.45593999997E+02  0.45594000000E+02  0.51100000000E-03 0.  1.
         11   -1    0    0    0    0 -0.00000000000E+00 -0.00000000000E+00 -0.45593999997E+02  0.45594000000E+02  0.51100000000E-03 0. -1.
         23    2    1    2    0    0  0.35527136788E-14  0.35527136788E-14  0.00000000000E+00  0.91188000000E+02  0.91188000000E+02 0.  0.
    9900012    2    3    3    0    0  0.28405447127E+02  0.19481382110E+02 -0.13014825175E+02  0.54367090862E+02  0.40000015238E+02 0.  0.
        -12    1    3    3    0    0 -0.28405447127E+02 -0.19481382110E+02  0.13014825175E+02  0.36820909138E+02  0.00000000000E+00 0.  1.
         11    1    4    4    0    0  0.17678283051E+02 -0.88583546632E+01 -0.22733635411E+01  0.19903776551E+02  0.51100000000E-03 0. -1.
        -11    1    4    4    0    0  0.11916782986E+02  0.24206728374E+02 -0.12600011588E+02  0.29778107858E+02  0.51100000000E-03 0.  1.
         12    1    4    4    0    0 -0.11896189096E+01  0.41330083991E+01  0.18585499539E+01  0.46852064531E+01  0.00000000000E+00 0. -1.
</event>
<event>
 8    1  0.2501893E-006  0.9118800E+02  0.7816164E-02  0.1184000E+00
        -11   -1    0    0    0    0  0.00000000000E+00  0.00000000000E+00  0.45593999997E+02  0.45594000000E+02  0.51100000000E-03 0.  1.
         11   -1    0    0    0    0 -0.00000000000E+00 -0.00000000000E+00 -0.45593999997E+02  0.45594000000E+02  0.51100000000E-03 0. -1.
         23    2    1    2    0    0  0.00000000000E+00  0.17763568394E-14 -0.35527136788E-14  0.91188000000E+02  0.91188000000E+02 0.  0.
    9900012    2    3    3    0    0  0.29989076147E+02  0.12809665631E+02 -0.17098191831E+02  0.54367076796E+02  0.39999983171E+02 0.  0.
        -12    1    3    3    0    0 -0.29989076147E+02 -0.12809665631E+02  0.17098191831E+02  0.36820923204E+02  0.00000000000E+00 0.  1.
         11    1    4    4    0    0  0.10717731310E+02  0.95372889681E+01 -0.45895612825E+01  0.15062991679E+02  0.51100000000E-03 0. -1.
        -11    1    4    4    0    0  0.87881754885E+01 -0.69375854166E+01 -0.19957570789E+02  0.22883766121E+02  0.51100000000E-03 0.  1.
        -12    1    4    4    0    0  0.10483169348E+02  0.10209962079E+02  0.74489402396E+01  0.16420318996E+02  0.00000000000E+00 0.  1.
</event>
<event>
 8    1  0.2501893E-006  0.9118800E+02  0.7816164E-02  0.1184000E+00
        -11   -1    0    0    0    0  0.00000000000E+00  0.00000000000E+00  0.45593999997E+02  0.45594000000E+02  0.51100000000E-03 0.  1.
         11   -1    0    0    0    0 -0.00000000000E+00 -0.00000000000E+00 -0.45593999997E+02  0.45594000000E+02  0.51100000000E-03 0. -1.
         23    2    1    2    0    0  0.00000000000E+00  0.00000000000E+00  0.00000000000E+00  0.91188000000E+02  0.91188000000E+02 0.  0.
    9900012    2    3    3    0    0 -0.21335319398E+02 -0.18231770089E+02  0.23836680612E+02  0.54367073383E+02  0.39999975390E+02 0.  0.
         12    1    3    3    0    0  0.21335319398E+02  0.18231770089E+02 -0.23836680612E+02  0.36820926617E+02  0.00000000000E+00 0. -1.
         11    1    4    4    0    0 -0.47632152225E+01  0.64547876052E+01  0.92490302131E+01  0.12243245584E+02  0.51100000000E-03 0. -1.
        -11    1    4    4    0    0 -0.48020631636E-01 -0.71728061101E+01  0.16477649942E+02  0.17971210347E+02  0.51100000000E-03 0.  1.
         12    1    4    4    0    0 -0.16524083543E+02 -0.17513751584E+02 -0.18899995429E+01  0.24152617452E+02  0.00000000000E+00 0. -1.
</event>
<event>
 8    1  0.2501893E-006  0.9118800E+02  0.7816164E-02  0.1184000E+00
        -11   -1    0    0    0    0  0.00000000000E+00  0.00000000000E+00  0.45593999997E+02  0.45594000000E+02  0.51100000000E-03 0.  1.
         11   -1    0    0    0    0 -0.00000000000E+00 -0.00000000000E+00 -0.45593999997E+02  0.45594000000E+02  0.51100000000E-03 0. -1.
         23    2    1    2    0    0 -0.35527136788E-14  0.00000000000E+00 -0.17763568394E-14  0.91188000000E+02  0.91188000000E+02 0.  0.
    9900012    2    3    3    0    0 -0.21858293911E+02  0.27311628165E+02 -0.11492164412E+02  0.54367083545E+02  0.39999998558E+02 0.  0.
        -12    1    3    3    0    0  0.21858293911E+02 -0.27311628165E+02  0.11492164412E+02  0.36820916455E+02  0.00000000000E+00 0.  1.
         11    1    4    4    0    0 -0.13666424527E+02  0.20197778803E+02  0.26168370873E+00  0.24388314959E+02  0.51100000000E-03 0. -1.
        -11    1    4    4    0    0  0.22691152168E+01 -0.39191853244E+01  0.54060925196E+01  0.70522857334E+01  0.51100000000E-03 0.  1.
         12    1    4    4    0    0 -0.10460984600E+02  0.11033034687E+02 -0.17159940640E+02  0.22926482852E+02  0.00000000000E+00 0. -1.
</event>
<event>
 8    1  0.2501893E-006  0.9118800E+02  0.7816164E-02  0.1184000E+00
        -11   -1    0    0    0    0  0.00000000000E+00  0.00000000000E+00  0.45593999997E+02  0.45594000000E+02  0.51100000000E-03 0. -1.
         11   -1    0    0    0    0 -0.00000000000E+00 -0.00000000000E+00 -0.45593999997E+02  0.45594000000E+02  0.51100000000E-03 0.  1.
         23    2    1    2    0    0  0.00000000000E+00  0.00000000000E+00  0.00000000000E+00  0.91188000000E+02  0.91188000000E+02 0.  0.
    9900012    2    3    3    0    0  0.23218484666E+02 -0.16704351064E+02 -0.23187206492E+02  0.54367083124E+02  0.39999997598E+02 0.  0.
         12    1    3    3    0    0 -0.23218484666E+02  0.16704351064E+02  0.23187206492E+02  0.36820916876E+02  0.00000000000E+00 0. -1.
         11    1    4    4    0    0  0.21179836002E+01 -0.39306667177E+00  0.62164722964E+01  0.65791248667E+01  0.51100000000E-03 0. -1.
        -11    1    4    4    0    0  0.84605863735E+01  0.55712255475E+01 -0.16629495249E+02  0.19472036061E+02  0.51100000000E-03 0.  1.
         12    1    4    4    0    0  0.12639914693E+02 -0.21882509940E+02 -0.12774183540E+02  0.28315922196E+02  0.00000000000E+00 0. -1.
</event>
<event>
 8    1  0.2501893E-006  0.9118800E+02  0.7816164E-02  0.1184000E+00
        -11   -1    0    0    0    0  0.00000000000E+00  0.00000000000E+00  0.45593999997E+02  0.45594000000E+02  0.51100000000E-03 0. -1.
         11   -1    0    0    0    0 -0.00000000000E+00 -0.00000000000E+00 -0.45593999997E+02  0.45594000000E+02  0.51100000000E-03 0.  1.
         23    2    1    2    0    0  0.17763568394E-14  0.00000000000E+00  0.00000000000E+00  0.91188000000E+02  0.91188000000E+02 0.  0.
    9900012    2    3    3    0    0  0.10186390394E+02 -0.25383312709E+02 -0.24651677017E+02  0.54367078053E+02  0.39999986037E+02 0.  0.
         12    1    3    3    0    0 -0.10186390394E+02  0.25383312709E+02  0.24651677017E+02  0.36820921947E+02  0.00000000000E+00 0. -1.
         11    1    4    4    0    0  0.85445057766E+01 -0.16728042209E+02  0.28338461452E+01  0.18996490712E+02  0.51100000000E-03 0. -1.
        -11    1    4    4    0    0  0.11696490695E+01 -0.13647292003E+02 -0.27071199694E+02  0.30339191010E+02  0.51100000000E-03 0.  1.
        -12    1    4    4    0    0  0.47223554771E+00  0.49920215039E+01 -0.41432346763E+00  0.50313963314E+01  0.00000000000E+00 0.  1.
</event>
<event>
 8    1  0.2501893E-006  0.9118800E+02  0.7816164E-02  0.1184000E+00
        -11   -1    0    0    0    0  0.00000000000E+00  0.00000000000E+00  0.45593999997E+02  0.45594000000E+02  0.51100000000E-03 0. -1.
         11   -1    0    0    0    0 -0.00000000000E+00 -0.00000000000E+00 -0.45593999997E+02  0.45594000000E+02  0.51100000000E-03 0.  1.
         23    2    1    2    0    0  0.71054273576E-14 -0.44408920985E-15  0.00000000000E+00  0.91188000000E+02  0.91188000000E+02 0.  0.
    9900012    2    3    3    0    0 -0.35658370307E+02  0.24056183367E+01 -0.88585075879E+01  0.54367088425E+02  0.40000009683E+02 0.  0.
         12    1    3    3    0    0  0.35658370307E+02 -0.24056183367E+01  0.88585075879E+01  0.36820911575E+02  0.00000000000E+00 0. -1.
         11    1    4    4    0    0 -0.26109501315E+02 -0.31580651738E+01 -0.16143604383E+02  0.30859283810E+02  0.51100000000E-03 0. -1.
        -11    1    4    4    0    0  0.69003619998E+00  0.56758158730E+01 -0.49434461476E+01  0.75583527211E+01  0.51100000000E-03 0.  1.
         12    1    4    4    0    0 -0.10238905192E+02 -0.11213236254E+00  0.12228542943E+02  0.15949451894E+02  0.00000000000E+00 0. -1.
</event>
<event>
 8    1  0.2501893E-006  0.9118800E+02  0.7816164E-02  0.1184000E+00
        -11   -1    0    0    0    0  0.00000000000E+00  0.00000000000E+00  0.45593999997E+02  0.45594000000E+02  0.51100000000E-03 0.  1.
         11   -1    0    0    0    0 -0.00000000000E+00 -0.00000000000E+00 -0.45593999997E+02  0.45594000000E+02  0.51100000000E-03 0. -1.
         23    2    1    2    0    0 -0.88817841970E-15  0.00000000000E+00  0.88817841970E-15  0.91188000000E+02  0.91188000000E+02 0.  0.
    9900012    2    3    3    0    0  0.41549677762E+01 -0.35930290738E+02  0.68938927717E+01  0.54367145756E+02  0.40000140380E+02 0.  0.
        -12    1    3    3    0    0 -0.41549677762E+01  0.35930290738E+02 -0.68938927717E+01  0.36820854244E+02  0.00000000000E+00 0.  1.
         11    1    4    4    0    0  0.11716697494E+02 -0.20786686360E+02 -0.26583974916E+01  0.24009048450E+02  0.51100000000E-03 0. -1.
        -11    1    4    4    0    0 -0.14227928914E+02 -0.49614163004E+01  0.10158687851E+02  0.18172742006E+02  0.51100000000E-03 0.  1.
        -12    1    4    4    0    0  0.66661991967E+01 -0.10182188077E+02 -0.60639758766E+00  0.12185355300E+02  0.00000000000E+00 0.  1.
</event>
<event>
 8    1  0.2501893E-006  0.9118800E+02  0.7816164E-02  0.1184000E+00
        -11   -1    0    0    0    0  0.00000000000E+00  0.00000000000E+00  0.45593999997E+02  0.45594000000E+02  0.51100000000E-03 0.  1.
         11   -1    0    0    0    0 -0.00000000000E+00 -0.00000000000E+00 -0.45593999997E+02  0.45594000000E+02  0.51100000000E-03 0. -1.
         23    2    1    2    0    0 -0.44408920985E-15 -0.35527136788E-14 -0.35527136788E-14  0.91188000000E+02  0.91188000000E+02 0.  0.
    9900012    2    3    3    0    0  0.31577022517E+01  0.25241531843E+02 -0.26620903658E+02  0.54367102063E+02  0.40000040773E+02 0.  0.
        -12    1    3    3    0    0 -0.31577022517E+01 -0.25241531843E+02  0.26620903658E+02  0.36820897937E+02  0.00000000000E+00 0.  1.
         11    1    4    4    0    0  0.26919032293E+01  0.29935340438E+01  0.96488109134E+01  0.10455005565E+02  0.51100000000E-03 0. -1.
        -11    1    4    4    0    0 -0.10947906027E+01  0.77701612216E+01 -0.47023468824E+01  0.91480073424E+01  0.51100000000E-03 0.  1.
         12    1    4    4    0    0  0.15605896251E+01  0.14477836578E+02 -0.31567367689E+02  0.34764089155E+02  0.00000000000E+00 0. -1.
</event>
<event>
 8    1  0.2501893E-006  0.9118800E+02  0.7816164E-02  0.1184000E+00
        -11   -1    0    0    0    0  0.00000000000E+00  0.00000000000E+00  0.45593999997E+02  0.45594000000E+02  0.51100000000E-03 0. -1.
         11   -1    0    0    0    0 -0.00000000000E+00 -0.00000000000E+00 -0.45593999997E+02  0.45594000000E+02  0.51100000000E-03 0.  1.
         23    2    1    2    0    0 -0.88817841970E-15 -0.71054273576E-14  0.35527136788E-14  0.91188000000E+02  0.91188000000E+02 0.  0.
    9900012    2    3    3    0    0 -0.66043992738E+01 -0.34306887785E+02  0.11627510036E+02  0.54367087072E+02  0.40000006597E+02 0.  0.
         12    1    3    3    0    0  0.66043992738E+01  0.34306887785E+02 -0.11627510036E+02  0.36820912928E+02  0.00000000000E+00 0. -1.
         11    1    4    4    0    0  0.69740985696E+01 -0.22680488228E+02  0.17335890004E+02  0.29386658191E+02  0.51100000000E-03 0. -1.
        -11    1    4    4    0    0 -0.15437194464E+02 -0.83348252307E+01  0.68080334889E+00  0.17556758756E+02  0.51100000000E-03 0.  1.
         12    1    4    4    0    0  0.18586966206E+01 -0.32915743261E+01 -0.63891833168E+01  0.74236701252E+01  0.00000000000E+00 0. -1.
</event>
<event>
 8    1  0.2501893E-006  0.9118800E+02  0.7816164E-02  0.1184000E+00
        -11   -1    0    0    0    0  0.00000000000E+00  0.00000000000E+00  0.45593999997E+02  0.45594000000E+02  0.51100000000E-03 0.  1.
         11   -1    0    0    0    0 -0.00000000000E+00 -0.00000000000E+00 -0.45593999997E+02  0.45594000000E+02  0.51100000000E-03 0. -1.
         23    2    1    2    0    0 -0.17763568394E-14  0.00000000000E+00  0.35527136788E-14  0.91188000000E+02  0.91188000000E+02 0.  0.
    9900012    2    3    3    0    0 -0.15579079038E+02  0.12383285127E+02  0.30979472069E+02  0.54367066499E+02  0.39999959697E+02 0.  0.
         12    1    3    3    0    0  0.15579079038E+02 -0.12383285127E+02 -0.30979472069E+02  0.36820933501E+02  0.00000000000E+00 0. -1.
         11    1    4    4    0    0 -0.20746959386E+02 -0.68075733477E+00  0.21766932936E+02  0.30078216769E+02  0.51100000000E-03 0. -1.
        -11    1    4    4    0    0  0.60663727320E+01  0.67710563442E+01  0.13746546394E+02  0.16480765157E+02  0.51100000000E-03 0.  1.
         12    1    4    4    0    0 -0.89849238327E+00  0.62929861180E+01 -0.45340072606E+01  0.78080845720E+01  0.00000000000E+00 0. -1.
</event>
<event>
 8    1  0.2501893E-006  0.9118800E+02  0.7816164E-02  0.1184000E+00
        -11   -1    0    0    0    0  0.00000000000E+00  0.00000000000E+00  0.45593999997E+02  0.45594000000E+02  0.51100000000E-03 0.  1.
         11   -1    0    0    0    0 -0.00000000000E+00 -0.00000000000E+00 -0.45593999997E+02  0.45594000000E+02  0.51100000000E-03 0. -1.
         23    2    1    2    0    0  0.35527136788E-14  0.00000000000E+00  0.00000000000E+00  0.91188000000E+02  0.91188000000E+02 0.  0.
    9900012    2    3    3    0    0  0.28112667735E+02 -0.92809454905E+01 -0.21893438028E+02  0.54367073001E+02  0.39999974521E+02 0.  0.
        -12    1    3    3    0    0 -0.28112667735E+02  0.92809454905E+01  0.21893438028E+02  0.36820926999E+02  0.00000000000E+00 0.  1.
         11    1    4    4    0    0  0.11263221273E+02  0.10394522528E+01 -0.24782347162E+02  0.27241610553E+02  0.51100000000E-03 0. -1.
        -11    1    4    4    0    0  0.19562003963E+02 -0.12525395806E+02  0.37402478567E+01  0.23527579422E+02  0.51100000000E-03 0.  1.
         12    1    4    4    0    0 -0.27125575011E+01  0.22049980628E+01 -0.85133872290E+00  0.35978830268E+01  0.00000000000E+00 0. -1.
</event>
<event>
 8    1  0.2501893E-006  0.9118800E+02  0.7816164E-02  0.1184000E+00
        -11   -1    0    0    0    0  0.00000000000E+00  0.00000000000E+00  0.45593999997E+02  0.45594000000E+02  0.51100000000E-03 0. -1.
         11   -1    0    0    0    0 -0.00000000000E+00 -0.00000000000E+00 -0.45593999997E+02  0.45594000000E+02  0.51100000000E-03 0.  1.
         23    2    1    2    0    0 -0.17763568394E-14  0.35527136788E-14  0.00000000000E+00  0.91188000000E+02  0.91188000000E+02 0.  0.
    9900012    2    3    3    0    0 -0.13807370021E+02 -0.23707797866E+02 -0.24557628400E+02  0.54367078513E+02  0.39999987085E+02 0.  0.
         12    1    3    3    0    0  0.13807370021E+02  0.23707797866E+02  0.24557628400E+02  0.36820921487E+02  0.00000000000E+00 0. -1.
         11    1    4    4    0    0  0.79692117463E+01 -0.13426573681E+02 -0.17135631048E+01  0.15707244043E+02  0.51100000000E-03 0. -1.
        -11    1    4    4    0    0 -0.23510065022E+02 -0.81740626816E+01 -0.12291155589E+02  0.27759880476E+02  0.51100000000E-03 0.  1.
        -12    1    4    4    0    0  0.17334832545E+01 -0.21071615036E+01 -0.10552909706E+02  0.10899953994E+02  0.00000000000E+00 0.  1.
</event>
<event>
 8    1  0.2501893E-006  0.9118800E+02  0.7816164E-02  0.1184000E+00
        -11   -1    0    0    0    0  0.00000000000E+00  0.00000000000E+00  0.45593999997E+02  0.45594000000E+02  0.51100000000E-03 0.  1.
         11   -1    0    0    0    0 -0.00000000000E+00 -0.00000000000E+00 -0.45593999997E+02  0.45594000000E+02  0.51100000000E-03 0. -1.
         23    2    1    2    0    0  0.71054273576E-14  0.00000000000E+00  0.00000000000E+00  0.91188000000E+02  0.91188000000E+02 0.  0.
    9900012    2    3    3    0    0 -0.23744396793E+02 -0.13869512398E+02 -0.24487178001E+02  0.54367059766E+02  0.39999944349E+02 0.  0.
        -12    1    3    3    0    0  0.23744396793E+02  0.13869512398E+02  0.24487178001E+02  0.36820940234E+02  0.00000000000E+00 0.  1.
         11    1    4    4    0    0 -0.20144110281E+02  0.87313953772E+01 -0.85718527497E+01  0.23569028492E+02  0.51100000000E-03 0. -1.
        -11    1    4    4    0    0 -0.84449962818E+01 -0.12192395084E+02 -0.79825896068E+01  0.16843224073E+02  0.51100000000E-03 0.  1.
        -12    1    4    4    0    0  0.48447097698E+01 -0.10408512691E+02 -0.79327356450E+01  0.13954807201E+02  0.00000000000E+00 0.  1.
</event>
<event>
 8    1  0.2501893E-006  0.9118800E+02  0.7816164E-02  0.1184000E+00
        -11   -1    0    0    0    0  0.00000000000E+00  0.00000000000E+00  0.45593999997E+02  0.45594000000E+02  0.51100000000E-03 0.  1.
         11   -1    0    0    0    0 -0.00000000000E+00 -0.00000000000E+00 -0.45593999997E+02  0.45594000000E+02  0.51100000000E-03 0. -1.
         23    2    1    2    0    0  0.88817841970E-15  0.00000000000E+00 -0.44408920985E-15  0.91188000000E+02  0.91188000000E+02 0.  0.
    9900012    2    3    3    0    0 -0.66357289522E+01  0.36047221475E+02  0.35135409781E+01  0.54367081421E+02  0.39999993716E+02 0.  0.
         12    1    3    3    0    0  0.66357289522E+01 -0.36047221475E+02 -0.35135409781E+01  0.36820918579E+02  0.00000000000E+00 0. -1.
         11    1    4    4    0    0  0.11835351917E+01 -0.70451636461E+01 -0.33463583156E+01  0.78888022277E+01  0.51100000000E-03 0. -1.
        -11    1    4    4    0    0 -0.36515317813E+01  0.22566913764E+02 -0.34747168573E+01  0.23122995884E+02  0.51100000000E-03 0.  1.
        -12    1    4    4    0    0 -0.41677323625E+01  0.20525471357E+02  0.10334616151E+02  0.23355283309E+02  0.00000000000E+00 0.  1.
</event>
<event>
 8    1  0.2501893E-006  0.9118800E+02  0.7816164E-02  0.1184000E+00
        -11   -1    0    0    0    0  0.00000000000E+00  0.00000000000E+00  0.45593999997E+02  0.45594000000E+02  0.51100000000E-03 0. -1.
         11   -1    0    0    0    0 -0.00000000000E+00 -0.00000000000E+00 -0.45593999997E+02  0.45594000000E+02  0.51100000000E-03 0.  1.
         23    2    1    2    0    0 -0.17763568394E-14  0.00000000000E+00  0.88817841970E-15  0.91188000000E+02  0.91188000000E+02 0.  0.
    9900012    2    3    3    0    0 -0.15474833639E+02  0.32669474825E+02 -0.70010844088E+01  0.54367078714E+02  0.39999987544E+02 0.  0.
         12    1    3    3    0    0  0.15474833639E+02 -0.32669474825E+02  0.70010844088E+01  0.36820921286E+02  0.00000000000E+00 0. -1.
         11    1    4    4    0    0 -0.36996883766E+01  0.65997493463E+01 -0.70910758075E+01  0.10369558423E+02  0.51100000000E-03 0. -1.
        -11    1    4    4    0    0  0.60606175994E+01  0.17460956106E+02 -0.10789185275E+02  0.21401462403E+02  0.51100000000E-03 0.  1.
         12    1    4    4    0    0 -0.17835762861E+02  0.86087693723E+01  0.10879176674E+02  0.22596057888E+02  0.00000000000E+00 0. -1.
</event>
<event>
 8    1  0.2501893E-006  0.9118800E+02  0.7816164E-02  0.1184000E+00
        -11   -1    0    0    0    0  0.00000000000E+00  0.00000000000E+00  0.45593999997E+02  0.45594000000E+02  0.51100000000E-03 0. -1.
         11   -1    0    0    0    0 -0.00000000000E+00 -0.00000000000E+00 -0.45593999997E+02  0.45594000000E+02  0.51100000000E-03 0.  1.
         23    2    1    2    0    0 -0.35527136788E-14  0.17763568394E-14  0.35527136788E-14  0.91188000000E+02  0.91188000000E+02 0.  0.
    9900012    2    3    3    0    0  0.14088646938E+02 -0.14383219680E+02 -0.30828772524E+02  0.54367079367E+02  0.39999989034E+02 0.  0.
         12    1    3    3    0    0 -0.14088646938E+02  0.14383219680E+02  0.30828772524E+02  0.36820920633E+02  0.00000000000E+00 0. -1.
         11    1    4    4    0    0 -0.17728443742E+01 -0.46047437486E+01  0.34449113054E+01  0.60178115897E+01  0.51100000000E-03 0.  1.
        -11    1    4    4    0    0  0.13178932211E+01  0.50533922537E+01  0.27455865737E+01  0.59001577697E+01  0.51100000000E-03 0. -1.
        -12    1    4    4    0    0  0.14543598091E+02 -0.14831868185E+02 -0.37019270403E+02  0.42449110008E+02  0.00000000000E+00 0.  1.
</event>
<event>
 8    1  0.2501893E-006  0.9118800E+02  0.7816164E-02  0.1184000E+00
        -11   -1    0    0    0    0  0.00000000000E+00  0.00000000000E+00  0.45593999997E+02  0.45594000000E+02  0.51100000000E-03 0.  1.
         11   -1    0    0    0    0 -0.00000000000E+00 -0.00000000000E+00 -0.45593999997E+02  0.45594000000E+02  0.51100000000E-03 0. -1.
         23    2    1    2    0    0  0.00000000000E+00  0.00000000000E+00  0.00000000000E+00  0.91188000000E+02  0.91188000000E+02 0.  0.
    9900012    2    3    3    0    0 -0.89971979654E+01  0.10006508498E+02 -0.34273910101E+02  0.54367072565E+02  0.39999973527E+02 0.  0.
        -12    1    3    3    0    0  0.89971979654E+01 -0.10006508498E+02  0.34273910101E+02  0.36820927435E+02  0.00000000000E+00 0.  1.
         11    1    4    4    0    0 -0.33240392180E+01  0.15359588573E+01 -0.13543714087E+02  0.14029989233E+02  0.51100000000E-03 0. -1.
        -11    1    4    4    0    0  0.97346908522E+01 -0.74615560808E+01 -0.54824034637E+01  0.13434871534E+02  0.51100000000E-03 0.  1.
        -12    1    4    4    0    0 -0.15407849600E+02  0.15932105722E+02 -0.15247792550E+02  0.26902211799E+02  0.00000000000E+00 0.  1.
</event>
<event>
 8    1  0.2501893E-006  0.9118800E+02  0.7816164E-02  0.1184000E+00
        -11   -1    0    0    0    0  0.00000000000E+00  0.00000000000E+00  0.45593999997E+02  0.45594000000E+02  0.51100000000E-03 0.  1.
         11   -1    0    0    0    0 -0.00000000000E+00 -0.00000000000E+00 -0.45593999997E+02  0.45594000000E+02  0.51100000000E-03 0. -1.
         23    2    1    2    0    0  0.17763568394E-14  0.00000000000E+00 -0.35527136788E-14  0.91188000000E+02  0.91188000000E+02 0.  0.
    9900012    2    3    3    0    0 -0.12054805692E+02 -0.22509366704E+02  0.26529039321E+02  0.54367083974E+02  0.39999999535E+02 0.  0.
        -12    1    3    3    0    0  0.12054805692E+02  0.22509366704E+02 -0.26529039321E+02  0.36820916026E+02  0.00000000000E+00 0.  1.
         11    1    4    4    0    0 -0.34494320448E+00 -0.18405613719E+02  0.64284232724E+01  0.19498980184E+02  0.51100000000E-03 0. -1.
        -11    1    4    4    0    0 -0.95382768019E+01  0.67596097686E+01  0.20700538786E+02  0.23773585234E+02  0.51100000000E-03 0.  1.
        -12    1    4    4    0    0 -0.21715856855E+01 -0.10863362754E+02 -0.59992273687E+00  0.11094518556E+02  0.00000000000E+00 0.  1.
</event>
<event>
 8    1  0.2501893E-006  0.9118800E+02  0.7816164E-02  0.1184000E+00
        -11   -1    0    0    0    0  0.00000000000E+00  0.00000000000E+00  0.45593999997E+02  0.45594000000E+02  0.51100000000E-03 0.  1.
         11   -1    0    0    0    0 -0.00000000000E+00 -0.00000000000E+00 -0.45593999997E+02  0.45594000000E+02  0.51100000000E-03 0. -1.
         23    2    1    2    0    0  0.00000000000E+00  0.88817841970E-15  0.71054273576E-14  0.91188000000E+02  0.91188000000E+02 0.  0.
    9900012    2    3    3    0    0 -0.12326108180E+02 -0.50137381385E+01  0.34332569466E+02  0.54366866950E+02  0.39999504782E+02 0.  0.
         12    1    3    3    0    0  0.12326108180E+02  0.50137381385E+01 -0.34332569466E+02  0.36821133050E+02  0.00000000000E+00 0. -1.
         11    1    4    4    0    0 -0.12705952232E+02  0.90040080736E+01  0.19045241132E+02  0.24601516083E+02  0.51100000000E-03 0. -1.
        -11    1    4    4    0    0 -0.73201906113E+01  0.14924133409E+01  0.80928187378E+01  0.11013909549E+02  0.51100000000E-03 0.  1.
        -12    1    4    4    0    0  0.77000346635E+01 -0.15510159553E+02  0.71945095958E+01  0.18751441318E+02  0.00000000000E+00 0.  1.
</event>
<event>
 8    1  0.2501893E-006  0.9118800E+02  0.7816164E-02  0.1184000E+00
        -11   -1    0    0    0    0  0.00000000000E+00  0.00000000000E+00  0.45593999997E+02  0.45594000000E+02  0.51100000000E-03 0.  1.
         11   -1    0    0    0    0 -0.00000000000E+00 -0.00000000000E+00 -0.45593999997E+02  0.45594000000E+02  0.51100000000E-03 0. -1.
         23    2    1    2    0    0  0.00000000000E+00  0.13322676296E-14  0.00000000000E+00  0.91188000000E+02  0.91188000000E+02 0.  0.
    9900012    2    3    3    0    0  0.32066384160E+02  0.23921956956E+01 -0.17938853319E+02  0.54367108488E+02  0.40000055420E+02 0.  0.
        -12    1    3    3    0    0 -0.32066384160E+02 -0.23921956956E+01  0.17938853319E+02  0.36820891512E+02  0.00000000000E+00 0.  1.
         11    1    4    4    0    0  0.63475610147E+01  0.86055579229E+01 -0.17228943528E+02  0.20277663903E+02  0.51100000000E-03 0. -1.
        -11    1    4    4    0    0  0.68207853169E+01 -0.57025491843E+01  0.91583271476E+01  0.12763899715E+02  0.51100000000E-03 0.  1.
        -12    1    4    4    0    0  0.18898037828E+02 -0.51081304301E+00 -0.98682369387E+01  0.21325544870E+02  0.00000000000E+00 0.  1.
</event>
<event>
 8    1  0.2501893E-006  0.9118800E+02  0.7816164E-02  0.1184000E+00
        -11   -1    0    0    0    0  0.00000000000E+00  0.00000000000E+00  0.45593999997E+02  0.45594000000E+02  0.51100000000E-03 0. -1.
         11   -1    0    0    0    0 -0.00000000000E+00 -0.00000000000E+00 -0.45593999997E+02  0.45594000000E+02  0.51100000000E-03 0.  1.
         23    2    1    2    0    0  0.00000000000E+00  0.00000000000E+00  0.00000000000E+00  0.91188000000E+02  0.91188000000E+02 0.  0.
    9900012    2    3    3    0    0  0.27589610206E+02 -0.21972931647E+02 -0.10572788562E+02  0.54367079663E+02  0.39999989708E+02 0.  0.
        -12    1    3    3    0    0 -0.27589610206E+02  0.21972931647E+02  0.10572788562E+02  0.36820920337E+02  0.00000000000E+00 0.  1.
         11    1    4    4    0    0  0.57789873829E+01 -0.24238254405E+01  0.31737797688E+01  0.70245642726E+01  0.51100000000E-03 0. -1.
        -11    1    4    4    0    0  0.75440299016E+01  0.99776679426E+01 -0.39622944191E+01  0.13121205053E+02  0.51100000000E-03 0.  1.
        -12    1    4    4    0    0  0.14266592921E+02 -0.29526774149E+02 -0.97842739116E+01  0.34221310337E+02  0.00000000000E+00 0.  1.
</event>
<event>
 8    1  0.2501893E-006  0.9118800E+02  0.7816164E-02  0.1184000E+00
        -11   -1    0    0    0    0  0.00000000000E+00  0.00000000000E+00  0.45593999997E+02  0.45594000000E+02  0.51100000000E-03 0. -1.
         11   -1    0    0    0    0 -0.00000000000E+00 -0.00000000000E+00 -0.45593999997E+02  0.45594000000E+02  0.51100000000E-03 0.  1.
         23    2    1    2    0    0  0.35527136788E-14  0.35527136788E-14  0.35527136788E-14  0.91188000000E+02  0.91188000000E+02 0.  0.
    9900012    2    3    3    0    0 -0.14239053324E+02 -0.28806171627E+02  0.17978720377E+02  0.54367074567E+02  0.39999978091E+02 0.  0.
        -12    1    3    3    0    0  0.14239053324E+02  0.28806171627E+02 -0.17978720377E+02  0.36820925433E+02  0.00000000000E+00 0.  1.
         11    1    4    4    0    0  0.32810867624E+01  0.15211597632E+01  0.17840747283E+01  0.40326641646E+01  0.51100000000E-03 0. -1.
        -11    1    4    4    0    0  0.42660558268E+01  0.65031316091E+00 -0.52633742296E+01  0.68062653538E+01  0.51100000000E-03 0.  1.
         12    1    4    4    0    0 -0.21786195913E+02 -0.30977644551E+02  0.21458019878E+02  0.43528145049E+02  0.00000000000E+00 0. -1.
</event>
<event>
 8    1  0.2501893E-006  0.9118800E+02  0.7816164E-02  0.1184000E+00
        -11   -1    0    0    0    0  0.00000000000E+00  0.00000000000E+00  0.45593999997E+02  0.45594000000E+02  0.51100000000E-03 0.  1.
         11   -1    0    0    0    0 -0.00000000000E+00 -0.00000000000E+00 -0.45593999997E+02  0.45594000000E+02  0.51100000000E-03 0. -1.
         23    2    1    2    0    0  0.00000000000E+00  0.00000000000E+00  0.00000000000E+00  0.91188000000E+02  0.91188000000E+02 0.  0.
    9900012    2    3    3    0    0  0.18215747395E+02  0.18957458660E+02  0.25779540183E+02  0.54367036080E+02  0.39999890350E+02 0.  0.
         12    1    3    3    0    0 -0.18215747395E+02 -0.18957458660E+02 -0.25779540183E+02  0.36820963920E+02  0.00000000000E+00 0. -1.
         11    1    4    4    0    0  0.47598232961E+01  0.28961062266E+01 -0.54517837282E+01  0.77952097577E+01  0.51100000000E-03 0. -1.
        -11    1    4    4    0    0 -0.10798580026E+01  0.19055345492E+02  0.13138682365E+02  0.23171043560E+02  0.51100000000E-03 0.  1.
        -12    1    4    4    0    0  0.14535782102E+02 -0.29939930590E+01  0.18092641546E+02  0.23400782762E+02  0.00000000000E+00 0.  1.
</event>
<event>
 8    1  0.2501893E-006  0.9118800E+02  0.7816164E-02  0.1184000E+00
        -11   -1    0    0    0    0  0.00000000000E+00  0.00000000000E+00  0.45593999997E+02  0.45594000000E+02  0.51100000000E-03 0.  1.
         11   -1    0    0    0    0 -0.00000000000E+00 -0.00000000000E+00 -0.45593999997E+02  0.45594000000E+02  0.51100000000E-03 0. -1.
         23    2    1    2    0    0 -0.13322676296E-14  0.00000000000E+00 -0.35527136788E-14  0.91188000000E+02  0.91188000000E+02 0.  0.
    9900012    2    3    3    0    0  0.37863783983E+01  0.22759083870E+02 -0.28696091289E+02  0.54367106268E+02  0.40000050359E+02 0.  0.
        -12    1    3    3    0    0 -0.37863783983E+01 -0.22759083870E+02  0.28696091289E+02  0.36820893732E+02  0.00000000000E+00 0.  1.
         11    1    4    4    0    0  0.11714833661E+02  0.16879580923E+02 -0.25559927306E+02  0.32794320606E+02  0.51100000000E-03 0. -1.
        -11    1    4    4    0    0 -0.13574599615E+02  0.50673242517E+01  0.10041607813E+01  0.14524319912E+02  0.51100000000E-03 0.  1.
        -12    1    4    4    0    0  0.56461443517E+01  0.81217869565E+00 -0.41403247645E+01  0.70484657500E+01  0.00000000000E+00 0.  1.
</event>
<event>
 8    1  0.2501893E-006  0.9118800E+02  0.7816164E-02  0.1184000E+00
        -11   -1    0    0    0    0  0.00000000000E+00  0.00000000000E+00  0.45593999997E+02  0.45594000000E+02  0.51100000000E-03 0. -1.
         11   -1    0    0    0    0 -0.00000000000E+00 -0.00000000000E+00 -0.45593999997E+02  0.45594000000E+02  0.51100000000E-03 0.  1.
         23    2    1    2    0    0  0.00000000000E+00  0.00000000000E+00  0.00000000000E+00  0.91188000000E+02  0.91188000000E+02 0.  0.
    9900012    2    3    3    0    0 -0.88613028179E+01 -0.19356963047E+02 -0.30042736404E+02  0.54367072300E+02  0.39999972923E+02 0.  0.
         12    1    3    3    0    0  0.88613028179E+01  0.19356963047E+02  0.30042736404E+02  0.36820927700E+02  0.00000000000E+00 0. -1.
         11    1    4    4    0    0  0.30008669232E+01 -0.36769113002E+01  0.20796149482E+01  0.51816674531E+01  0.51100000000E-03 0. -1.
        -11    1    4    4    0    0  0.20548294097E+01 -0.17975780163E+02 -0.29840301077E+02  0.34896913402E+02  0.51100000000E-03 0.  1.
         12    1    4    4    0    0 -0.13916999151E+02  0.22957284161E+01 -0.22820502758E+01  0.14288491445E+02  0.00000000000E+00 0. -1.
</event>
<event>
 8    1  0.2501893E-006  0.9118800E+02  0.7816164E-02  0.1184000E+00
        -11   -1    0    0    0    0  0.00000000000E+00  0.00000000000E+00  0.45593999997E+02  0.45594000000E+02  0.51100000000E-03 0. -1.
         11   -1    0    0    0    0 -0.00000000000E+00 -0.00000000000E+00 -0.45593999997E+02  0.45594000000E+02  0.51100000000E-03 0.  1.
         23    2    1    2    0    0 -0.71054273576E-14  0.00000000000E+00  0.00000000000E+00  0.91188000000E+02  0.91188000000E+02 0.  0.
    9900012    2    3    3    0    0  0.25571746372E+02  0.22135256225E+02  0.14556595460E+02  0.54367105768E+02  0.40000049220E+02 0.  0.
        -12    1    3    3    0    0 -0.25571746372E+02 -0.22135256225E+02 -0.14556595460E+02  0.36820894232E+02  0.00000000000E+00 0.  1.
         11    1    4    4    0    0  0.14211834215E+02 -0.14995392870E+01  0.80173537791E+01  0.16386055404E+02  0.51100000000E-03 0. -1.
        -11    1    4    4    0    0  0.19201634543E+01 -0.42939589474E+01 -0.44917957661E+01  0.65039480777E+01  0.51100000000E-03 0.  1.
         12    1    4    4    0    0  0.94397487022E+01  0.27928754459E+02  0.11031037447E+02  0.31477102286E+02  0.00000000000E+00 0. -1.
</event>
<event>
 8    1  0.2501893E-006  0.9118800E+02  0.7816164E-02  0.1184000E+00
        -11   -1    0    0    0    0  0.00000000000E+00  0.00000000000E+00  0.45593999997E+02  0.45594000000E+02  0.51100000000E-03 0.  1.
         11   -1    0    0    0    0 -0.00000000000E+00 -0.00000000000E+00 -0.45593999997E+02  0.45594000000E+02  0.51100000000E-03 0. -1.
         23    2    1    2    0    0  0.88817841970E-15  0.00000000000E+00  0.00000000000E+00  0.91188000000E+02  0.91188000000E+02 0.  0.
    9900012    2    3    3    0    0 -0.70741510619E+01  0.11507231493E+02 -0.34253763467E+02  0.54367077937E+02  0.39999985773E+02 0.  0.
        -12    1    3    3    0    0  0.70741510619E+01 -0.11507231493E+02  0.34253763467E+02  0.36820922063E+02  0.00000000000E+00 0.  1.
         11    1    4    4    0    0  0.34718172583E+01  0.11635945797E+02 -0.80118471870E+01  0.14547798640E+02  0.51100000000E-03 0. -1.
        -11    1    4    4    0    0  0.52037698830E+01  0.35034756760E+01  0.25732509680E+01  0.67805002480E+01  0.51100000000E-03 0.  1.
         12    1    4    4    0    0 -0.15749738203E+02 -0.36321899795E+01 -0.28815167248E+02  0.33038779049E+02  0.00000000000E+00 0. -1.
</event>
<event>
 8    1  0.2501893E-006  0.9118800E+02  0.7816164E-02  0.1184000E+00
        -11   -1    0    0    0    0  0.00000000000E+00  0.00000000000E+00  0.45593999997E+02  0.45594000000E+02  0.51100000000E-03 0. -1.
         11   -1    0    0    0    0 -0.00000000000E+00 -0.00000000000E+00 -0.45593999997E+02  0.45594000000E+02  0.51100000000E-03 0.  1.
         23    2    1    2    0    0  0.71054273576E-14  0.35527136788E-14 -0.16653345369E-15  0.91188000000E+02  0.91188000000E+02 0.  0.
    9900012    2    3    3    0    0  0.30750501398E+02  0.20251227483E+02 -0.27224665552E+00  0.54367086526E+02  0.40000005354E+02 0.  0.
        -12    1    3    3    0    0 -0.30750501398E+02 -0.20251227483E+02  0.27224665552E+00  0.36820913474E+02  0.00000000000E+00 0.  1.
         11    1    4    4    0    0 -0.52732671267E+01 -0.10596984831E+01  0.27548722973E+01  0.60431472512E+01  0.51100000000E-03 0.  1.
        -11    1    4    4    0    0  0.27371720718E+02  0.25924239715E+01 -0.33682556250E+01  0.27699763597E+02  0.51100000000E-03 0. -1.
         12    1    4    4    0    0  0.86520478073E+01  0.18718501994E+02  0.34113667214E+00  0.20624175678E+02  0.00000000000E+00 0. -1.
</event>
<event>
 8    1  0.2501893E-006  0.9118800E+02  0.7816164E-02  0.1184000E+00
        -11   -1    0    0    0    0  0.00000000000E+00  0.00000000000E+00  0.45593999997E+02  0.45594000000E+02  0.51100000000E-03 0.  1.
         11   -1    0    0    0    0 -0.00000000000E+00 -0.00000000000E+00 -0.45593999997E+02  0.45594000000E+02  0.51100000000E-03 0. -1.
         23    2    1    2    0    0  0.00000000000E+00  0.00000000000E+00  0.00000000000E+00  0.91188000000E+02  0.91188000000E+02 0.  0.
    9900012    2    3    3    0    0 -0.17411047513E+02 -0.26554679789E+02  0.18640970378E+02  0.54367063417E+02  0.39999952672E+02 0.  0.
         12    1    3    3    0    0  0.17411047513E+02  0.26554679789E+02 -0.18640970378E+02  0.36820936583E+02  0.00000000000E+00 0. -1.
         11    1    4    4    0    0  0.77702033937E+01  0.26605324297E+01 -0.65785417274E+00  0.82393729108E+01  0.51100000000E-03 0. -1.
        -11    1    4    4    0    0 -0.25417030476E+02 -0.27495565238E+02  0.13066385097E+02  0.39658063060E+02  0.51100000000E-03 0.  1.
        -12    1    4    4    0    0  0.23577956874E+00 -0.17196469814E+01  0.62324394535E+01  0.64696274458E+01  0.00000000000E+00 0.  1.
</event>
<event>
 8    1  0.2501893E-006  0.9118800E+02  0.7816164E-02  0.1184000E+00
        -11   -1    0    0    0    0  0.00000000000E+00  0.00000000000E+00  0.45593999997E+02  0.45594000000E+02  0.51100000000E-03 0. -1.
         11   -1    0    0    0    0 -0.00000000000E+00 -0.00000000000E+00 -0.45593999997E+02  0.45594000000E+02  0.51100000000E-03 0.  1.
         23    2    1    2    0    0  0.35527136788E-14  0.00000000000E+00  0.00000000000E+00  0.91188000000E+02  0.91188000000E+02 0.  0.
    9900012    2    3    3    0    0  0.24272269400E+02 -0.24886183051E+02 -0.12137343749E+02  0.54367078203E+02  0.39999986380E+02 0.  0.
         12    1    3    3    0    0 -0.24272269400E+02  0.24886183051E+02  0.12137343749E+02  0.36820921797E+02  0.00000000000E+00 0. -1.
         11    1    4    4    0    0  0.21294537290E+02 -0.11007347590E+02 -0.10815160876E+02  0.26298036512E+02  0.51100000000E-03 0. -1.
        -11    1    4    4    0    0  0.85868083286E+01 -0.14319538619E+02 -0.86707283851E+01  0.18813930863E+02  0.51100000000E-03 0.  1.
         12    1    4    4    0    0 -0.56090762194E+01  0.44070315724E+00  0.73485455113E+01  0.92551108281E+01  0.00000000000E+00 0. -1.
</event>
<event>
 8    1  0.2501893E-006  0.9118800E+02  0.7816164E-02  0.1184000E+00
        -11   -1    0    0    0    0  0.00000000000E+00  0.00000000000E+00  0.45593999997E+02  0.45594000000E+02  0.51100000000E-03 0.  1.
         11   -1    0    0    0    0 -0.00000000000E+00 -0.00000000000E+00 -0.45593999997E+02  0.45594000000E+02  0.51100000000E-03 0. -1.
         23    2    1    2    0    0  0.26645352591E-14  0.00000000000E+00  0.00000000000E+00  0.91188000000E+02  0.91188000000E+02 0.  0.
    9900012    2    3    3    0    0 -0.39411323642E+01 -0.36076972861E+02 -0.62209682632E+01  0.54367069251E+02  0.39999965971E+02 0.  0.
        -12    1    3    3    0    0  0.39411323642E+01  0.36076972861E+02  0.62209682632E+01  0.36820930749E+02  0.00000000000E+00 0.  1.
         11    1    4    4    0    0  0.65259691215E+01  0.10830202346E+01  0.82388572518E+01  0.10565981965E+02  0.51100000000E-03 0.  1.
        -11    1    4    4    0    0 -0.11275517198E+02 -0.16828654627E+02 -0.30860959191E+01  0.20490604992E+02  0.51100000000E-03 0. -1.
         12    1    4    4    0    0  0.80841571189E+00 -0.20331338468E+02 -0.11373729596E+02  0.23310482294E+02  0.00000000000E+00 0. -1.
</event>
<event>
 8    1  0.2501893E-006  0.9118800E+02  0.7816164E-02  0.1184000E+00
        -11   -1    0    0    0    0  0.00000000000E+00  0.00000000000E+00  0.45593999997E+02  0.45594000000E+02  0.51100000000E-03 0. -1.
         11   -1    0    0    0    0 -0.00000000000E+00 -0.00000000000E+00 -0.45593999997E+02  0.45594000000E+02  0.51100000000E-03 0.  1.
         23    2    1    2    0    0  0.00000000000E+00 -0.88817841970E-15  0.35527136788E-14  0.91188000000E+02  0.91188000000E+02 0.  0.
    9900012    2    3    3    0    0 -0.24930354701E+02 -0.79147514838E+01 -0.25915521185E+02  0.54367080473E+02  0.39999991554E+02 0.  0.
         12    1    3    3    0    0  0.24930354701E+02  0.79147514838E+01  0.25915521185E+02  0.36820919527E+02  0.00000000000E+00 0. -1.
         11    1    4    4    0    0 -0.32292537007E+01 -0.35503324274E+01 -0.86806686282E+01  0.99190195030E+01  0.51100000000E-03 0. -1.
        -11    1    4    4    0    0  0.71649159124E+01 -0.61779961359E+01 -0.11621537218E+02  0.14985452407E+02  0.51100000000E-03 0.  1.
         12    1    4    4    0    0 -0.28866016913E+02  0.18135770795E+01 -0.56133153387E+01  0.29462608563E+02  0.00000000000E+00 0. -1.
</event>
<event>
 8    1  0.2501893E-006  0.9118800E+02  0.7816164E-02  0.1184000E+00
        -11   -1    0    0    0    0  0.00000000000E+00  0.00000000000E+00  0.45593999997E+02  0.45594000000E+02  0.51100000000E-03 0.  1.
         11   -1    0    0    0    0 -0.00000000000E+00 -0.00000000000E+00 -0.45593999997E+02  0.45594000000E+02  0.51100000000E-03 0. -1.
         23    2    1    2    0    0 -0.71054273576E-14 -0.17763568394E-14 -0.53290705182E-14  0.91188000000E+02  0.91188000000E+02 0.  0.
    9900012    2    3    3    0    0 -0.32378785741E+02 -0.10644578882E+02 -0.13931515288E+02  0.54367082795E+02  0.39999996847E+02 0.  0.
        -12    1    3    3    0    0  0.32378785741E+02  0.10644578882E+02  0.13931515288E+02  0.36820917205E+02  0.00000000000E+00 0.  1.
         11    1    4    4    0    0 -0.13892700970E+01 -0.33844556108E+01 -0.19671029595E+02  0.20008348677E+02  0.51100000000E-03 0. -1.
        -11    1    4    4    0    0 -0.34773827628E+00 -0.15510255686E+01 -0.16862006276E+01  0.23172990831E+01  0.51100000000E-03 0.  1.
        -12    1    4    4    0    0 -0.30641777367E+02 -0.57090977029E+01  0.74257149347E+01  0.32041435035E+02  0.00000000000E+00 0.  1.
</event>
<event>
 8    1  0.2501893E-006  0.9118800E+02  0.7816164E-02  0.1184000E+00
        -11   -1    0    0    0    0  0.00000000000E+00  0.00000000000E+00  0.45593999997E+02  0.45594000000E+02  0.51100000000E-03 0.  1.
         11   -1    0    0    0    0 -0.00000000000E+00 -0.00000000000E+00 -0.45593999997E+02  0.45594000000E+02  0.51100000000E-03 0. -1.
         23    2    1    2    0    0 -0.17763568394E-14  0.00000000000E+00  0.35527136788E-14  0.91188000000E+02  0.91188000000E+02 0.  0.
    9900012    2    3    3    0    0 -0.12658185277E+02 -0.17448769424E+02  0.29851139893E+02  0.54367085266E+02  0.40000002480E+02 0.  0.
         12    1    3    3    0    0  0.12658185277E+02  0.17448769424E+02 -0.29851139893E+02  0.36820914734E+02  0.00000000000E+00 0. -1.
         11    1    4    4    0    0 -0.95085664015E+01  0.51253136941E+00 -0.34916982653E+01  0.10142360694E+02  0.51100000000E-03 0. -1.
        -11    1    4    4    0    0  0.74301342885E+01 -0.29596302459E+01  0.19973412650E+02  0.21515192769E+02  0.51100000000E-03 0.  1.
        -12    1    4    4    0    0 -0.10579753164E+02 -0.15001670548E+02  0.13369425509E+02  0.22709531802E+02  0.00000000000E+00 0.  1.
</event>
<event>
 8    1  0.2501893E-006  0.9118800E+02  0.7816164E-02  0.1184000E+00
        -11   -1    0    0    0    0  0.00000000000E+00  0.00000000000E+00  0.45593999997E+02  0.45594000000E+02  0.51100000000E-03 0. -1.
         11   -1    0    0    0    0 -0.00000000000E+00 -0.00000000000E+00 -0.45593999997E+02  0.45594000000E+02  0.51100000000E-03 0.  1.
         23    2    1    2    0    0  0.00000000000E+00 -0.17763568394E-14 -0.31086244690E-14  0.91188000000E+02  0.91188000000E+02 0.  0.
    9900012    2    3    3    0    0 -0.35189888118E+02 -0.10614365967E+02  0.21879071133E+01  0.54367083007E+02  0.39999997332E+02 0.  0.
        -12    1    3    3    0    0  0.35189888118E+02  0.10614365967E+02 -0.21879071133E+01  0.36820916993E+02  0.00000000000E+00 0.  1.
         11    1    4    4    0    0 -0.12775686686E+02 -0.91584059035E+01  0.18348093294E+02  0.24160858775E+02  0.51100000000E-03 0. -1.
        -11    1    4    4    0    0 -0.83369036405E+01 -0.20070014027E+01 -0.13309361779E+02  0.15832597013E+02  0.51100000000E-03 0.  1.
         12    1    4    4    0    0 -0.14077297792E+02  0.55104133917E+00 -0.28508244015E+01  0.14373627219E+02  0.00000000000E+00 0. -1.
</event>
<event>
 8    1  0.2501893E-006  0.9118800E+02  0.7816164E-02  0.1184000E+00
        -11   -1    0    0    0    0  0.00000000000E+00  0.00000000000E+00  0.45593999997E+02  0.45594000000E+02  0.51100000000E-03 0.  1.
         11   -1    0    0    0    0 -0.00000000000E+00 -0.00000000000E+00 -0.45593999997E+02  0.45594000000E+02  0.51100000000E-03 0. -1.
         23    2    1    2    0    0  0.00000000000E+00  0.00000000000E+00  0.71054273576E-14  0.91188000000E+02  0.91188000000E+02 0.  0.
    9900012    2    3    3    0    0  0.17517689219E+01  0.11871117629E+02  0.34810601231E+02  0.54367216654E+02  0.40000302005E+02 0.  0.
         12    1    3    3    0    0 -0.17517689219E+01 -0.11871117629E+02 -0.34810601231E+02  0.36820783346E+02  0.00000000000E+00 0. -1.
         11    1    4    4    0    0 -0.42344337408E+00  0.23941612944E+02  0.32740207886E+02  0.40562314373E+02  0.51100000000E-03 0.  1.
        -11    1    4    4    0    0 -0.85760148220E+00 -0.29439556817E+01 -0.16631904282E+01  0.34883460292E+01  0.51100000000E-03 0. -1.
         12    1    4    4    0    0  0.30328137781E+01 -0.91265396335E+01  0.37335837736E+01  0.10316556251E+02  0.00000000000E+00 0. -1.
</event>
<event>
 8    1  0.2501893E-006  0.9118800E+02  0.7816164E-02  0.1184000E+00
        -11   -1    0    0    0    0  0.00000000000E+00  0.00000000000E+00  0.45593999997E+02  0.45594000000E+02  0.51100000000E-03 0. -1.
         11   -1    0    0    0    0 -0.00000000000E+00 -0.00000000000E+00 -0.45593999997E+02  0.45594000000E+02  0.51100000000E-03 0.  1.
         23    2    1    2    0    0 -0.71054273576E-14  0.00000000000E+00  0.13322676296E-14  0.91188000000E+02  0.91188000000E+02 0.  0.
    9900012    2    3    3    0    0 -0.32433768390E+02  0.17191633987E+02  0.28770793620E+01  0.54367092940E+02  0.40000019974E+02 0.  0.
         12    1    3    3    0    0  0.32433768390E+02 -0.17191633987E+02 -0.28770793620E+01  0.36820907060E+02  0.00000000000E+00 0. -1.
         11    1    4    4    0    0 -0.18527475019E+02  0.32173906882E+00  0.10261180430E+02  0.21181658828E+02  0.51100000000E-03 0. -1.
        -11    1    4    4    0    0 -0.98646399882E+01  0.32877826365E+01 -0.14087356697E+02  0.17509261999E+02  0.51100000000E-03 0.  1.
         12    1    4    4    0    0 -0.40416533823E+01  0.13582112282E+02  0.67032556290E+01  0.15676172113E+02  0.00000000000E+00 0. -1.
</event>
<event>
 8    1  0.2501893E-006  0.9118800E+02  0.7816164E-02  0.1184000E+00
        -11   -1    0    0    0    0  0.00000000000E+00  0.00000000000E+00  0.45593999997E+02  0.45594000000E+02  0.51100000000E-03 0. -1.
         11   -1    0    0    0    0 -0.00000000000E+00 -0.00000000000E+00 -0.45593999997E+02  0.45594000000E+02  0.51100000000E-03 0.  1.
         23    2    1    2    0    0  0.35527136788E-14  0.00000000000E+00  0.35527136788E-14  0.91188000000E+02  0.91188000000E+02 0.  0.
    9900012    2    3    3    0    0 -0.24652216426E+02  0.17937659466E+02 -0.20646566524E+02  0.54367189159E+02  0.40000239324E+02 0.  0.
         12    1    3    3    0    0  0.24652216426E+02 -0.17937659466E+02  0.20646566524E+02  0.36820810841E+02  0.00000000000E+00 0. -1.
         11    1    4    4    0    0 -0.60165003919E+01  0.41913900558E+01  0.92586013058E+01  0.11810492198E+02  0.51100000000E-03 0. -1.
        -11    1    4    4    0    0 -0.31139450017E+01  0.70848100169E+01  0.52106995498E+00  0.77564618614E+01  0.51100000000E-03 0.  1.
        -12    1    4    4    0    0 -0.15521771032E+02  0.66614593930E+01 -0.30426237784E+02  0.34800235099E+02  0.00000000000E+00 0.  1.
</event>
<event>
 8    1  0.2501893E-006  0.9118800E+02  0.7816164E-02  0.1184000E+00
        -11   -1    0    0    0    0  0.00000000000E+00  0.00000000000E+00  0.45593999997E+02  0.45594000000E+02  0.51100000000E-03 0.  1.
         11   -1    0    0    0    0 -0.00000000000E+00 -0.00000000000E+00 -0.45593999997E+02  0.45594000000E+02  0.51100000000E-03 0. -1.
         23    2    1    2    0    0  0.17763568394E-14  0.00000000000E+00 -0.88817841970E-15  0.91188000000E+02  0.91188000000E+02 0.  0.
    9900012    2    3    3    0    0  0.44854982290E+01  0.35714190878E+02 -0.77561053640E+01  0.54367078028E+02  0.39999985980E+02 0.  0.
         12    1    3    3    0    0 -0.44854982290E+01 -0.35714190878E+02  0.77561053640E+01  0.36820921972E+02  0.00000000000E+00 0. -1.
         11    1    4    4    0    0 -0.76487595275E+01  0.24317306147E+02  0.82602388447E+00  0.25505238997E+02  0.51100000000E-03 0. -1.
        -11    1    4    4    0    0 -0.46043046856E+01  0.53662140698E+01  0.29478793501E+01  0.76606702060E+01  0.51100000000E-03 0.  1.
         12    1    4    4    0    0  0.16738562442E+02  0.60306706611E+01 -0.11530008599E+02  0.21201168825E+02  0.00000000000E+00 0. -1.
</event>
<event>
 8    1  0.2501893E-006  0.9118800E+02  0.7816164E-02  0.1184000E+00
        -11   -1    0    0    0    0  0.00000000000E+00  0.00000000000E+00  0.45593999997E+02  0.45594000000E+02  0.51100000000E-03 0.  1.
         11   -1    0    0    0    0 -0.00000000000E+00 -0.00000000000E+00 -0.45593999997E+02  0.45594000000E+02  0.51100000000E-03 0. -1.
         23    2    1    2    0    0  0.00000000000E+00  0.00000000000E+00  0.00000000000E+00  0.91188000000E+02  0.91188000000E+02 0.  0.
    9900012    2    3    3    0    0  0.19370146879E+02  0.29863253786E+02 -0.94214306880E+01  0.54367083757E+02  0.39999999041E+02 0.  0.
        -12    1    3    3    0    0 -0.19370146879E+02 -0.29863253786E+02  0.94214306880E+01  0.36820916243E+02  0.00000000000E+00 0.  1.
         11    1    4    4    0    0  0.86723165620E+01  0.89518119106E+01 -0.61631274265E+01  0.13904249385E+02  0.51100000000E-03 0. -1.
        -11    1    4    4    0    0  0.19638605783E+02  0.32291370519E+01 -0.51521099048E+01  0.20558365692E+02  0.51100000000E-03 0.  1.
        -12    1    4    4    0    0 -0.89407754664E+01  0.17682304823E+02  0.18938066433E+01  0.19904468679E+02  0.00000000000E+00 0.  1.
</event>
<event>
 8    1  0.2501893E-006  0.9118800E+02  0.7816164E-02  0.1184000E+00
        -11   -1    0    0    0    0  0.00000000000E+00  0.00000000000E+00  0.45593999997E+02  0.45594000000E+02  0.51100000000E-03 0.  1.
         11   -1    0    0    0    0 -0.00000000000E+00 -0.00000000000E+00 -0.45593999997E+02  0.45594000000E+02  0.51100000000E-03 0. -1.
         23    2    1    2    0    0  0.35527136788E-14 -0.35527136788E-14  0.44408920985E-15  0.91188000000E+02  0.91188000000E+02 0.  0.
    9900012    2    3    3    0    0 -0.29383972192E+02 -0.21871507153E+02  0.37414667837E+01  0.54367092616E+02  0.40000019236E+02 0.  0.
        -12    1    3    3    0    0  0.29383972192E+02  0.21871507153E+02 -0.37414667837E+01  0.36820907384E+02  0.00000000000E+00 0.  1.
         11    1    4    4    0    0 -0.16928300022E+02 -0.42496323532E+01  0.66887223616E+01  0.18691327504E+02  0.51100000000E-03 0. -1.
        -11    1    4    4    0    0  0.43007783603E+01 -0.16555736735E+02 -0.68699949399E+01  0.18433283595E+02  0.51100000000E-03 0.  1.
        -12    1    4    4    0    0 -0.16756450530E+02 -0.10661380643E+01  0.39227393620E+01  0.17242481517E+02  0.00000000000E+00 0.  1.
</event>
<event>
 8    1  0.2501893E-006  0.9118800E+02  0.7816164E-02  0.1184000E+00
        -11   -1    0    0    0    0  0.00000000000E+00  0.00000000000E+00  0.45593999997E+02  0.45594000000E+02  0.51100000000E-03 0.  1.
         11   -1    0    0    0    0 -0.00000000000E+00 -0.00000000000E+00 -0.45593999997E+02  0.45594000000E+02  0.51100000000E-03 0. -1.
         23    2    1    2    0    0  0.00000000000E+00  0.00000000000E+00  0.00000000000E+00  0.91188000000E+02  0.91188000000E+02 0.  0.
    9900012    2    3    3    0    0 -0.20897692239E+02  0.12130502516E+02  0.27783369653E+02  0.54367105640E+02  0.40000048927E+02 0.  0.
         12    1    3    3    0    0  0.20897692239E+02 -0.12130502516E+02 -0.27783369653E+02  0.36820894360E+02  0.00000000000E+00 0. -1.
         11    1    4    4    0    0  0.25928759744E+01  0.13098849667E+02  0.10133921494E+02  0.16763031752E+02  0.51100000000E-03 0. -1.
        -11    1    4    4    0    0  0.11820714900E+01  0.50367549230E+01  0.97042033192E+01  0.10997170340E+02  0.51100000000E-03 0.  1.
         12    1    4    4    0    0 -0.24672639703E+02 -0.60051020738E+01  0.79452448402E+01  0.26606903548E+02  0.00000000000E+00 0. -1.
</event>
<event>
 8    1  0.2501893E-006  0.9118800E+02  0.7816164E-02  0.1184000E+00
        -11   -1    0    0    0    0  0.00000000000E+00  0.00000000000E+00  0.45593999997E+02  0.45594000000E+02  0.51100000000E-03 0. -1.
         11   -1    0    0    0    0 -0.00000000000E+00 -0.00000000000E+00 -0.45593999997E+02  0.45594000000E+02  0.51100000000E-03 0.  1.
         23    2    1    2    0    0  0.00000000000E+00  0.00000000000E+00  0.00000000000E+00  0.91188000000E+02  0.91188000000E+02 0.  0.
    9900012    2    3    3    0    0 -0.59998379267E+01  0.21109370938E+02  0.29566427546E+02  0.54367119587E+02  0.40000080723E+02 0.  0.
        -12    1    3    3    0    0  0.59998379267E+01 -0.21109370938E+02 -0.29566427546E+02  0.36820880413E+02  0.00000000000E+00 0.  1.
         11    1    4    4    0    0 -0.58309198309E+01  0.12881568025E+02  0.27066081178E+02  0.30536980391E+02  0.51100000000E-03 0. -1.
        -11    1    4    4    0    0 -0.49431562787E+01 -0.63838731423E+01 -0.78201877018E+00  0.81117312524E+01  0.51100000000E-03 0.  1.
         12    1    4    4    0    0  0.47742381829E+01  0.14611676055E+02  0.32823651389E+01  0.15718407943E+02  0.00000000000E+00 0. -1.
</event>
<event>
 8    1  0.2501893E-006  0.9118800E+02  0.7816164E-02  0.1184000E+00
        -11   -1    0    0    0    0  0.00000000000E+00  0.00000000000E+00  0.45593999997E+02  0.45594000000E+02  0.51100000000E-03 0. -1.
         11   -1    0    0    0    0 -0.00000000000E+00 -0.00000000000E+00 -0.45593999997E+02  0.45594000000E+02  0.51100000000E-03 0.  1.
         23    2    1    2    0    0  0.44408920985E-15 -0.71054273576E-14  0.00000000000E+00  0.91188000000E+02  0.91188000000E+02 0.  0.
    9900012    2    3    3    0    0 -0.31613072966E+01  0.26720283782E+02  0.25135889005E+02  0.54367077343E+02  0.39999984420E+02 0.  0.
        -12    1    3    3    0    0  0.31613072966E+01 -0.26720283782E+02 -0.25135889005E+02  0.36820922657E+02  0.00000000000E+00 0.  1.
         11    1    4    4    0    0 -0.23116146938E+01 -0.10339267183E+02  0.57467007441E+01  0.12052741517E+02  0.51100000000E-03 0. -1.
        -11    1    4    4    0    0  0.21545137865E+01  0.10991718579E+02  0.76739578338E+01  0.13577534241E+02  0.51100000000E-03 0.  1.
         12    1    4    4    0    0 -0.30042063892E+01  0.26067832387E+02  0.11715230427E+02  0.28736801585E+02  0.00000000000E+00 0. -1.
</event>
<event>
 8    1  0.2501893E-006  0.9118800E+02  0.7816164E-02  0.1184000E+00
        -11   -1    0    0    0    0  0.00000000000E+00  0.00000000000E+00  0.45593999997E+02  0.45594000000E+02  0.51100000000E-03 0. -1.
         11   -1    0    0    0    0 -0.00000000000E+00 -0.00000000000E+00 -0.45593999997E+02  0.45594000000E+02  0.51100000000E-03 0.  1.
         23    2    1    2    0    0  0.00000000000E+00 -0.35527136788E-14  0.88817841970E-15  0.91188000000E+02  0.91188000000E+02 0.  0.
    9900012    2    3    3    0    0  0.24860581431E+02 -0.27086770844E+02  0.20097065812E+01  0.54367074096E+02  0.39999977017E+02 0.  0.
        -12    1    3    3    0    0 -0.24860581431E+02  0.27086770844E+02 -0.20097065812E+01  0.36820925904E+02  0.00000000000E+00 0.  1.
         11    1    4    4    0    0  0.36121079186E+01  0.24756343189E+00  0.13591578900E+02  0.14065547573E+02  0.51100000000E-03 0. -1.
        -11    1    4    4    0    0  0.59511294237E+01 -0.39114240870E+00 -0.66429820532E+01  0.89273817339E+01  0.51100000000E-03 0.  1.
         12    1    4    4    0    0  0.15297344089E+02 -0.26943191867E+02 -0.49388902661E+01  0.31374144789E+02  0.00000000000E+00 0. -1.
</event>
<event>
 8    1  0.2501893E-006  0.9118800E+02  0.7816164E-02  0.1184000E+00
        -11   -1    0    0    0    0  0.00000000000E+00  0.00000000000E+00  0.45593999997E+02  0.45594000000E+02  0.51100000000E-03 0. -1.
         11   -1    0    0    0    0 -0.00000000000E+00 -0.00000000000E+00 -0.45593999997E+02  0.45594000000E+02  0.51100000000E-03 0.  1.
         23    2    1    2    0    0  0.00000000000E+00  0.35527136788E-14 -0.17763568394E-14  0.91188000000E+02  0.91188000000E+02 0.  0.
    9900012    2    3    3    0    0  0.32818041590E+02  0.13092487367E+02 -0.10360630629E+02  0.54367085477E+02  0.40000002963E+02 0.  0.
         12    1    3    3    0    0 -0.32818041590E+02 -0.13092487367E+02  0.10360630629E+02  0.36820914523E+02  0.00000000000E+00 0. -1.
         11    1    4    4    0    0 -0.31962837982E+01 -0.61385710766E+01  0.23102198372E+01  0.72962593799E+01  0.51100000000E-03 0. -1.
        -11    1    4    4    0    0  0.14131515787E+02  0.99767624994E+01  0.43584594574E+01  0.17839049793E+02  0.51100000000E-03 0.  1.
         12    1    4    4    0    0  0.21882809602E+02  0.92542959437E+01 -0.17029309924E+02  0.29231776305E+02  0.00000000000E+00 0. -1.
</event>
<event>
 8    1  0.2501893E-006  0.9118800E+02  0.7816164E-02  0.1184000E+00
        -11   -1    0    0    0    0  0.00000000000E+00  0.00000000000E+00  0.45593999997E+02  0.45594000000E+02  0.51100000000E-03 0.  1.
         11   -1    0    0    0    0 -0.00000000000E+00 -0.00000000000E+00 -0.45593999997E+02  0.45594000000E+02  0.51100000000E-03 0. -1.
         23    2    1    2    0    0  0.00000000000E+00  0.00000000000E+00  0.00000000000E+00  0.91188000000E+02  0.91188000000E+02 0.  0.
    9900012    2    3    3    0    0  0.22657682612E+02 -0.24493179736E+01  0.28920841125E+02  0.54367016970E+02  0.39999846787E+02 0.  0.
         12    1    3    3    0    0 -0.22657682612E+02  0.24493179736E+01 -0.28920841125E+02  0.36820983030E+02  0.00000000000E+00 0. -1.
         11    1    4    4    0    0  0.26368003486E+02 -0.58867148922E+01  0.14499027013E+02  0.30661813460E+02  0.51100000000E-03 0. -1.
        -11    1    4    4    0    0  0.48641938813E+01 -0.18402503006E+01  0.12385108457E+02  0.13432714358E+02  0.51100000000E-03 0.  1.
         12    1    4    4    0    0 -0.85745147552E+01  0.52776472192E+01  0.20367056551E+01  0.10272489152E+02  0.00000000000E+00 0. -1.
</event>
<event>
 8    1  0.2501893E-006  0.9118800E+02  0.7816164E-02  0.1184000E+00
        -11   -1    0    0    0    0  0.00000000000E+00  0.00000000000E+00  0.45593999997E+02  0.45594000000E+02  0.51100000000E-03 0. -1.
         11   -1    0    0    0    0 -0.00000000000E+00 -0.00000000000E+00 -0.45593999997E+02  0.45594000000E+02  0.51100000000E-03 0.  1.
         23    2    1    2    0    0 -0.35527136788E-14  0.00000000000E+00  0.35527136788E-14  0.91188000000E+02  0.91188000000E+02 0.  0.
    9900012    2    3    3    0    0  0.30622093417E+02 -0.12418454591E+02 -0.16243451258E+02  0.54367077572E+02  0.39999984942E+02 0.  0.
         12    1    3    3    0    0 -0.30622093417E+02  0.12418454591E+02  0.16243451258E+02  0.36820922428E+02  0.00000000000E+00 0. -1.
         11    1    4    4    0    0  0.13884455112E+02  0.11352191706E+02 -0.20379782927E+00  0.17935771076E+02  0.51100000000E-03 0. -1.
        -11    1    4    4    0    0  0.24114097755E+01 -0.10086103328E+02 -0.12607142807E+02  0.16324350752E+02  0.51100000000E-03 0.  1.
        -12    1    4    4    0    0  0.14326228529E+02 -0.13684542969E+02 -0.34325106222E+01  0.20106955744E+02  0.00000000000E+00 0.  1.
</event>
<event>
 8    1  0.2501893E-006  0.9118800E+02  0.7816164E-02  0.1184000E+00
        -11   -1    0    0    0    0  0.00000000000E+00  0.00000000000E+00  0.45593999997E+02  0.45594000000E+02  0.51100000000E-03 0. -1.
         11   -1    0    0    0    0 -0.00000000000E+00 -0.00000000000E+00 -0.45593999997E+02  0.45594000000E+02  0.51100000000E-03 0.  1.
         23    2    1    2    0    0 -0.35527136788E-14  0.00000000000E+00  0.00000000000E+00  0.91188000000E+02  0.91188000000E+02 0.  0.
    9900012    2    3    3    0    0 -0.24477243286E+02 -0.14300091232E+02  0.23497851844E+02  0.54367121555E+02  0.40000085210E+02 0.  0.
        -12    1    3    3    0    0  0.24477243286E+02  0.14300091232E+02 -0.23497851844E+02  0.36820878445E+02  0.00000000000E+00 0.  1.
         11    1    4    4    0    0 -0.92326488972E+01 -0.13940514593E+02  0.86361827394E+01  0.18819229670E+02  0.51100000000E-03 0. -1.
        -11    1    4    4    0    0  0.54313064268E+01  0.76790672499E+01  0.11673782259E+01  0.94778655569E+01  0.51100000000E-03 0.  1.
         12    1    4    4    0    0 -0.20675900816E+02 -0.80386438882E+01  0.13694290879E+02  0.26070026329E+02  0.00000000000E+00 0. -1.
</event>
<event>
 8    1  0.2501893E-006  0.9118800E+02  0.7816164E-02  0.1184000E+00
        -11   -1    0    0    0    0  0.00000000000E+00  0.00000000000E+00  0.45593999997E+02  0.45594000000E+02  0.51100000000E-03 0.  1.
         11   -1    0    0    0    0 -0.00000000000E+00 -0.00000000000E+00 -0.45593999997E+02  0.45594000000E+02  0.51100000000E-03 0. -1.
         23    2    1    2    0    0  0.88817841970E-15  0.00000000000E+00  0.71054273576E-14  0.91188000000E+02  0.91188000000E+02 0.  0.
    9900012    2    3    3    0    0 -0.40682470914E+01 -0.95123448150E+01 -0.35337584753E+02  0.54367078848E+02  0.39999987851E+02 0.  0.
        -12    1    3    3    0    0  0.40682470914E+01  0.95123448150E+01  0.35337584753E+02  0.36820921152E+02  0.00000000000E+00 0.  1.
         11    1    4    4    0    0  0.57372123487E+01  0.43765505733E+01 -0.97442370681E+01  0.12125178628E+02  0.51100000000E-03 0. -1.
        -11    1    4    4    0    0 -0.16804029776E+02 -0.41297580698E+01 -0.43554654807E+01  0.17843777578E+02  0.51100000000E-03 0.  1.
        -12    1    4    4    0    0  0.69985703364E+01 -0.97591373185E+01 -0.21237882204E+02  0.24398122642E+02  0.00000000000E+00 0.  1.
</event>
<event>
 8    1  0.2501893E-006  0.9118800E+02  0.7816164E-02  0.1184000E+00
        -11   -1    0    0    0    0  0.00000000000E+00  0.00000000000E+00  0.45593999997E+02  0.45594000000E+02  0.51100000000E-03 0.  1.
         11   -1    0    0    0    0 -0.00000000000E+00 -0.00000000000E+00 -0.45593999997E+02  0.45594000000E+02  0.51100000000E-03 0. -1.
         23    2    1    2    0    0  0.00000000000E+00  0.17763568394E-14 -0.22204460493E-15  0.91188000000E+02  0.91188000000E+02 0.  0.
    9900012    2    3    3    0    0  0.35760057664E+02 -0.86133662488E+01  0.16757971273E+01  0.54367080697E+02  0.39999992065E+02 0.  0.
         12    1    3    3    0    0 -0.35760057664E+02  0.86133662488E+01 -0.16757971273E+01  0.36820919303E+02  0.00000000000E+00 0. -1.
         11    1    4    4    0    0 -0.59613786507E+00  0.29377443644E+01  0.35464513069E+01  0.46436019896E+01  0.51100000000E-03 0. -1.
        -11    1    4    4    0    0 -0.36845106656E+01  0.13184031208E+01  0.57751075997E+01  0.69760786752E+01  0.51100000000E-03 0.  1.
         12    1    4    4    0    0  0.40040706195E+02 -0.12869513734E+02 -0.76457617793E+01  0.42747400032E+02  0.00000000000E+00 0. -1.
</event>
<event>
 8    1  0.2501893E-006  0.9118800E+02  0.7816164E-02  0.1184000E+00
        -11   -1    0    0    0    0  0.00000000000E+00  0.00000000000E+00  0.45593999997E+02  0.45594000000E+02  0.51100000000E-03 0.  1.
         11   -1    0    0    0    0 -0.00000000000E+00 -0.00000000000E+00 -0.45593999997E+02  0.45594000000E+02  0.51100000000E-03 0. -1.
         23    2    1    2    0    0  0.71054273576E-14  0.00000000000E+00 -0.17763568394E-14  0.91188000000E+02  0.91188000000E+02 0.  0.
    9900012    2    3    3    0    0  0.34632562987E+02 -0.10705432128E+02 -0.64626177384E+01  0.54366998871E+02  0.39999805526E+02 0.  0.
        -12    1    3    3    0    0 -0.34632562987E+02  0.10705432128E+02  0.64626177384E+01  0.36821001129E+02  0.00000000000E+00 0.  1.
         11    1    4    4    0    0  0.32472888407E+02  0.16058497696E+00 -0.11620649653E+02  0.34489908200E+02  0.51100000000E-03 0. -1.
        -11    1    4    4    0    0  0.47801787881E+01  0.24086691341E+01  0.31141841346E+01  0.61927327836E+01  0.51100000000E-03 0.  1.
        -12    1    4    4    0    0 -0.26205042078E+01 -0.13274686239E+02  0.20438477801E+01  0.13684357887E+02  0.00000000000E+00 0.  1.
</event>
<event>
 8    1  0.2501893E-006  0.9118800E+02  0.7816164E-02  0.1184000E+00
        -11   -1    0    0    0    0  0.00000000000E+00  0.00000000000E+00  0.45593999997E+02  0.45594000000E+02  0.51100000000E-03 0. -1.
         11   -1    0    0    0    0 -0.00000000000E+00 -0.00000000000E+00 -0.45593999997E+02  0.45594000000E+02  0.51100000000E-03 0.  1.
         23    2    1    2    0    0  0.00000000000E+00  0.00000000000E+00  0.35527136788E-14  0.91188000000E+02  0.91188000000E+02 0.  0.
    9900012    2    3    3    0    0  0.24370072828E+02 -0.12659522739E+02 -0.24527890216E+02  0.54367063509E+02  0.39999952881E+02 0.  0.
         12    1    3    3    0    0 -0.24370072828E+02  0.12659522739E+02  0.24527890216E+02  0.36820936491E+02  0.00000000000E+00 0. -1.
         11    1    4    4    0    0 -0.41404186454E+00 -0.11816715266E+02  0.29609102475E+01  0.12189059853E+02  0.51100000000E-03 0. -1.
        -11    1    4    4    0    0  0.19123171498E+02  0.48777529948E+01 -0.27836201944E+02  0.34122460365E+02  0.51100000000E-03 0.  1.
         12    1    4    4    0    0  0.56609431944E+01 -0.57205604678E+01  0.34740148044E+00  0.80555432904E+01  0.00000000000E+00 0. -1.
</event>
<event>
 8    1  0.2501893E-006  0.9118800E+02  0.7816164E-02  0.1184000E+00
        -11   -1    0    0    0    0  0.00000000000E+00  0.00000000000E+00  0.45593999997E+02  0.45594000000E+02  0.51100000000E-03 0.  1.
         11   -1    0    0    0    0 -0.00000000000E+00 -0.00000000000E+00 -0.45593999997E+02  0.45594000000E+02  0.51100000000E-03 0. -1.
         23    2    1    2    0    0  0.00000000000E+00  0.66613381478E-15  0.44408920985E-15  0.91188000000E+02  0.91188000000E+02 0.  0.
    9900012    2    3    3    0    0 -0.36618082550E+02 -0.13837744961E+01  0.36030914258E+01  0.54367067511E+02  0.39999962005E+02 0.  0.
        -12    1    3    3    0    0  0.36618082550E+02  0.13837744961E+01 -0.36030914258E+01  0.36820932489E+02  0.00000000000E+00 0.  1.
         11    1    4    4    0    0 -0.20175174940E+02  0.95133497462E+01 -0.13429848404E+01  0.22346031321E+02  0.51100000000E-03 0. -1.
        -11    1    4    4    0    0 -0.71335032980E+01  0.76723567594E+01  0.40421648014E+01  0.11229025964E+02  0.51100000000E-03 0.  1.
        -12    1    4    4    0    0 -0.93094043123E+01 -0.18569481002E+02  0.90391146472E+00  0.20792010226E+02  0.00000000000E+00 0.  1.
</event>
<event>
 8    1  0.2501893E-006  0.9118800E+02  0.7816164E-02  0.1184000E+00
        -11   -1    0    0    0    0  0.00000000000E+00  0.00000000000E+00  0.45593999997E+02  0.45594000000E+02  0.51100000000E-03 0. -1.
         11   -1    0    0    0    0 -0.00000000000E+00 -0.00000000000E+00 -0.45593999997E+02  0.45594000000E+02  0.51100000000E-03 0.  1.
         23    2    1    2    0    0  0.00000000000E+00  0.00000000000E+00  0.00000000000E+00  0.91188000000E+02  0.91188000000E+02 0.  0.
    9900012    2    3    3    0    0 -0.16890719617E+02  0.27574981077E+02 -0.17609776819E+02  0.54367078907E+02  0.39999987983E+02 0.  0.
         12    1    3    3    0    0  0.16890719617E+02 -0.27574981077E+02  0.17609776819E+02  0.36820921093E+02  0.00000000000E+00 0. -1.
         11    1    4    4    0    0 -0.12850407879E+02  0.35857132453E+00 -0.42878406819E+01  0.13551646912E+02  0.51100000000E-03 0. -1.
        -11    1    4    4    0    0 -0.14311313513E+02  0.16638487582E+02 -0.14041091826E+02  0.26053890754E+02  0.51100000000E-03 0.  1.
        -12    1    4    4    0    0  0.10271001775E+02  0.10577922170E+02  0.71915568961E+00  0.14761541240E+02  0.00000000000E+00 0.  1.
</event>
<event>
 8    1  0.2501893E-006  0.9118800E+02  0.7816164E-02  0.1184000E+00
        -11   -1    0    0    0    0  0.00000000000E+00  0.00000000000E+00  0.45593999997E+02  0.45594000000E+02  0.51100000000E-03 0. -1.
         11   -1    0    0    0    0 -0.00000000000E+00 -0.00000000000E+00 -0.45593999997E+02  0.45594000000E+02  0.51100000000E-03 0.  1.
         23    2    1    2    0    0  0.35527136788E-14  0.00000000000E+00 -0.35527136788E-14  0.91188000000E+02  0.91188000000E+02 0.  0.
    9900012    2    3    3    0    0  0.28866651069E+02 -0.52581018847E+01 -0.22245208835E+02  0.54367075304E+02  0.39999979770E+02 0.  0.
         12    1    3    3    0    0 -0.28866651069E+02  0.52581018847E+01  0.22245208835E+02  0.36820924696E+02  0.00000000000E+00 0. -1.
         11    1    4    4    0    0  0.63316187644E+01  0.10636387186E+02  0.20858234742E+01  0.12552800021E+02  0.51100000000E-03 0. -1.
        -11    1    4    4    0    0  0.90526855509E+01 -0.81832935243E+01  0.84534821788E+00  0.12232416869E+02  0.51100000000E-03 0.  1.
         12    1    4    4    0    0  0.13482346754E+02 -0.77111955463E+01 -0.25176380527E+02  0.29581858413E+02  0.00000000000E+00 0. -1.
</event>
<event>
 8    1  0.2501893E-006  0.9118800E+02  0.7816164E-02  0.1184000E+00
        -11   -1    0    0    0    0  0.00000000000E+00  0.00000000000E+00  0.45593999997E+02  0.45594000000E+02  0.51100000000E-03 0.  1.
         11   -1    0    0    0    0 -0.00000000000E+00 -0.00000000000E+00 -0.45593999997E+02  0.45594000000E+02  0.51100000000E-03 0. -1.
         23    2    1    2    0    0  0.71054273576E-14  0.00000000000E+00  0.00000000000E+00  0.91188000000E+02  0.91188000000E+02 0.  0.
    9900012    2    3    3    0    0  0.30904571360E+02  0.19772529481E+02  0.31201252683E+01  0.54367073413E+02  0.39999975459E+02 0.  0.
         12    1    3    3    0    0 -0.30904571360E+02 -0.19772529481E+02 -0.31201252683E+01  0.36820926587E+02  0.00000000000E+00 0. -1.
         11    1    4    4    0    0 -0.33956174262E+01  0.85032515200E+01 -0.33574944083E+00  0.91623267823E+01  0.51100000000E-03 0. -1.
        -11    1    4    4    0    0  0.24136342821E+02  0.19917914560E+02  0.52776390220E+01  0.31735466581E+02  0.51100000000E-03 0.  1.
         12    1    4    4    0    0  0.10163845966E+02 -0.86486365993E+01 -0.18217643128E+01  0.13469280050E+02  0.00000000000E+00 0. -1.
</event>
<event>
 8    1  0.2501893E-006  0.9118800E+02  0.7816164E-02  0.1184000E+00
        -11   -1    0    0    0    0  0.00000000000E+00  0.00000000000E+00  0.45593999997E+02  0.45594000000E+02  0.51100000000E-03 0. -1.
         11   -1    0    0    0    0 -0.00000000000E+00 -0.00000000000E+00 -0.45593999997E+02  0.45594000000E+02  0.51100000000E-03 0.  1.
         23    2    1    2    0    0  0.00000000000E+00  0.00000000000E+00  0.00000000000E+00  0.91188000000E+02  0.91188000000E+02 0.  0.
    9900012    2    3    3    0    0  0.18482203621E+02  0.17692058403E+02  0.26479935305E+02  0.54366976725E+02  0.39999755040E+02 0.  0.
        -12    1    3    3    0    0 -0.18482203621E+02 -0.17692058403E+02 -0.26479935305E+02  0.36821023275E+02  0.00000000000E+00 0.  1.
         11    1    4    4    0    0  0.16123858565E+01  0.82642788115E+00  0.65788175084E+01  0.68237534585E+01  0.51100000000E-03 0. -1.
        -11    1    4    4    0    0  0.26474781616E+02  0.18578206904E+02  0.19525094133E+02  0.37779533276E+02  0.51100000000E-03 0.  1.
         12    1    4    4    0    0 -0.96049638508E+01 -0.17125763829E+01  0.37602366361E+00  0.97636899908E+01  0.00000000000E+00 0. -1.
</event>
<event>
 8    1  0.2501893E-006  0.9118800E+02  0.7816164E-02  0.1184000E+00
        -11   -1    0    0    0    0  0.00000000000E+00  0.00000000000E+00  0.45593999997E+02  0.45594000000E+02  0.51100000000E-03 0.  1.
         11   -1    0    0    0    0 -0.00000000000E+00 -0.00000000000E+00 -0.45593999997E+02  0.45594000000E+02  0.51100000000E-03 0. -1.
         23    2    1    2    0    0  0.00000000000E+00  0.00000000000E+00 -0.17763568394E-14  0.91188000000E+02  0.91188000000E+02 0.  0.
    9900012    2    3    3    0    0 -0.34265904663E+02  0.56434153846E+01 -0.12238389106E+02  0.54367102028E+02  0.40000040692E+02 0.  0.
        -12    1    3    3    0    0  0.34265904663E+02 -0.56434153846E+01  0.12238389106E+02  0.36820897972E+02  0.00000000000E+00 0.  1.
         11    1    4    4    0    0 -0.33754353317E+02  0.50868929878E+01 -0.17179934454E+02  0.38214957755E+02  0.51100000000E-03 0. -1.
        -11    1    4    4    0    0  0.24333286682E+01  0.68883122508E+01 -0.46563862946E+00  0.73202973755E+01  0.51100000000E-03 0.  1.
         12    1    4    4    0    0 -0.29448800138E+01 -0.63317898540E+01  0.54071839770E+01  0.88318468970E+01  0.00000000000E+00 0. -1.
</event>
<event>
 8    1  0.2501893E-006  0.9118800E+02  0.7816164E-02  0.1184000E+00
        -11   -1    0    0    0    0  0.00000000000E+00  0.00000000000E+00  0.45593999997E+02  0.45594000000E+02  0.51100000000E-03 0. -1.
         11   -1    0    0    0    0 -0.00000000000E+00 -0.00000000000E+00 -0.45593999997E+02  0.45594000000E+02  0.51100000000E-03 0.  1.
         23    2    1    2    0    0  0.00000000000E+00 -0.44408920985E-15  0.00000000000E+00  0.91188000000E+02  0.91188000000E+02 0.  0.
    9900012    2    3    3    0    0  0.13320814715E+02  0.27744828746E+01 -0.34214599737E+02  0.54367072594E+02  0.39999973592E+02 0.  0.
         12    1    3    3    0    0 -0.13320814715E+02 -0.27744828746E+01  0.34214599737E+02  0.36820927406E+02  0.00000000000E+00 0. -1.
         11    1    4    4    0    0  0.72400417332E+00 -0.49281053968E+01  0.22495440889E+01  0.54654234707E+01  0.51100000000E-03 0. -1.
        -11    1    4    4    0    0  0.22062606517E+02  0.49966300829E+01 -0.23442482912E+02  0.32577214795E+02  0.51100000000E-03 0.  1.
        -12    1    4    4    0    0 -0.94657959753E+01  0.27059581884E+01 -0.13021660914E+02  0.16324434328E+02  0.00000000000E+00 0.  1.
</event>
<event>
 8    1  0.2501893E-006  0.9118800E+02  0.7816164E-02  0.1184000E+00
        -11   -1    0    0    0    0  0.00000000000E+00  0.00000000000E+00  0.45593999997E+02  0.45594000000E+02  0.51100000000E-03 0. -1.
         11   -1    0    0    0    0 -0.00000000000E+00 -0.00000000000E+00 -0.45593999997E+02  0.45594000000E+02  0.51100000000E-03 0.  1.
         23    2    1    2    0    0  0.00000000000E+00  0.00000000000E+00  0.00000000000E+00  0.91188000000E+02  0.91188000000E+02 0.  0.
    9900012    2    3    3    0    0  0.31383716600E+02  0.14718908767E+02  0.12417422011E+02  0.54367132108E+02  0.40000109266E+02 0.  0.
        -12    1    3    3    0    0 -0.31383716600E+02 -0.14718908767E+02 -0.12417422011E+02  0.36820867892E+02  0.00000000000E+00 0.  1.
         11    1    4    4    0    0  0.11378084833E+02  0.19245791627E+02  0.76483773065E+01  0.23629620935E+02  0.51100000000E-03 0. -1.
        -11    1    4    4    0    0  0.23151502038E+02  0.30990660020E+00  0.75216984715E+01  0.24344692170E+02  0.51100000000E-03 0.  1.
        -12    1    4    4    0    0 -0.31458702702E+01 -0.48367894605E+01 -0.27526537675E+01  0.63928190030E+01  0.00000000000E+00 0.  1.
</event>
<event>
 8    1  0.2501893E-006  0.9118800E+02  0.7816164E-02  0.1184000E+00
        -11   -1    0    0    0    0  0.00000000000E+00  0.00000000000E+00  0.45593999997E+02  0.45594000000E+02  0.51100000000E-03 0.  1.
         11   -1    0    0    0    0 -0.00000000000E+00 -0.00000000000E+00 -0.45593999997E+02  0.45594000000E+02  0.51100000000E-03 0. -1.
         23    2    1    2    0    0  0.00000000000E+00  0.00000000000E+00  0.00000000000E+00  0.91188000000E+02  0.91188000000E+02 0.  0.
    9900012    2    3    3    0    0  0.26582668824E+02 -0.12444411647E+02 -0.22232328628E+02  0.54367107842E+02  0.40000053947E+02 0.  0.
        -12    1    3    3    0    0 -0.26582668824E+02  0.12444411647E+02  0.22232328628E+02  0.36820892158E+02  0.00000000000E+00 0.  1.
         11    1    4    4    0    0  0.33172548527E+01  0.19009036606E+01 -0.34221861008E+00  0.38385841560E+01  0.51100000000E-03 0. -1.
        -11    1    4    4    0    0 -0.22478341166E+01 -0.19122167465E+02 -0.63417004086E+01  0.20271339647E+02  0.51100000000E-03 0.  1.
        -12    1    4    4    0    0  0.25513248088E+02  0.47768521567E+01 -0.15548409610E+02  0.30257184039E+02  0.00000000000E+00 0.  1.
</event>
<event>
 8    1  0.2501893E-006  0.9118800E+02  0.7816164E-02  0.1184000E+00
        -11   -1    0    0    0    0  0.00000000000E+00  0.00000000000E+00  0.45593999997E+02  0.45594000000E+02  0.51100000000E-03 0. -1.
         11   -1    0    0    0    0 -0.00000000000E+00 -0.00000000000E+00 -0.45593999997E+02  0.45594000000E+02  0.51100000000E-03 0.  1.
         23    2    1    2    0    0 -0.35527136788E-14 -0.44408920985E-15  0.00000000000E+00  0.91188000000E+02  0.91188000000E+02 0.  0.
    9900012    2    3    3    0    0 -0.28368637058E+02  0.32870832914E+01 -0.23242140969E+02  0.54367060279E+02  0.39999945519E+02 0.  0.
         12    1    3    3    0    0  0.28368637058E+02 -0.32870832914E+01  0.23242140969E+02  0.36820939721E+02  0.00000000000E+00 0. -1.
         11    1    4    4    0    0 -0.19025720803E+01 -0.47618632028E+01  0.23631097979E+01  0.56461854256E+01  0.51100000000E-03 0. -1.
        -11    1    4    4    0    0 -0.23938932902E+02  0.15172400342E+02 -0.78276230741E+01  0.29403161800E+02  0.51100000000E-03 0.  1.
        -12    1    4    4    0    0 -0.25271320762E+01 -0.71234538473E+01 -0.17777627693E+02  0.19317713054E+02  0.00000000000E+00 0.  1.
</event>
<event>
 8    1  0.2501893E-006  0.9118800E+02  0.7816164E-02  0.1184000E+00
        -11   -1    0    0    0    0  0.00000000000E+00  0.00000000000E+00  0.45593999997E+02  0.45594000000E+02  0.51100000000E-03 0. -1.
         11   -1    0    0    0    0 -0.00000000000E+00 -0.00000000000E+00 -0.45593999997E+02  0.45594000000E+02  0.51100000000E-03 0.  1.
         23    2    1    2    0    0 -0.99920072216E-15  0.00000000000E+00 -0.71054273576E-14  0.91188000000E+02  0.91188000000E+02 0.  0.
    9900012    2    3    3    0    0  0.62175992709E+00  0.16751206790E+02 -0.32783981600E+02  0.54367096101E+02  0.40000027182E+02 0.  0.
         12    1    3    3    0    0 -0.62175992709E+00 -0.16751206790E+02  0.32783981600E+02  0.36820903899E+02  0.00000000000E+00 0. -1.
         11    1    4    4    0    0 -0.68126170329E+01  0.94309587615E+00 -0.28372951075E+01  0.74398537926E+01  0.51100000000E-03 0. -1.
        -11    1    4    4    0    0  0.92672170009E+01  0.72432558922E+01  0.35645160061E+01  0.12290314946E+02  0.51100000000E-03 0.  1.
        -12    1    4    4    0    0 -0.18328400409E+01  0.85648550221E+01 -0.33511202499E+02  0.34636927362E+02  0.00000000000E+00 0.  1.
</event>
<event>
 8    1  0.2501893E-006  0.9118800E+02  0.7816164E-02  0.1184000E+00
        -11   -1    0    0    0    0  0.00000000000E+00  0.00000000000E+00  0.45593999997E+02  0.45594000000E+02  0.51100000000E-03 0.  1.
         11   -1    0    0    0    0 -0.00000000000E+00 -0.00000000000E+00 -0.45593999997E+02  0.45594000000E+02  0.51100000000E-03 0. -1.
         23    2    1    2    0    0  0.00000000000E+00  0.00000000000E+00  0.35527136788E-14  0.91188000000E+02  0.91188000000E+02 0.  0.
    9900012    2    3    3    0    0 -0.18143533034E+02 -0.21699932554E+02  0.23573399234E+02  0.54367081825E+02  0.39999994637E+02 0.  0.
         12    1    3    3    0    0  0.18143533034E+02  0.21699932554E+02 -0.23573399234E+02  0.36820918175E+02  0.00000000000E+00 0. -1.
         11    1    4    4    0    0 -0.11635166901E+01  0.44090914379E+01 -0.38911410348E+01  0.59945673080E+01  0.51100000000E-03 0. -1.
        -11    1    4    4    0    0  0.46530952023E+01 -0.33076139100E+00  0.86237487308E+01  0.98045775275E+01  0.51100000000E-03 0.  1.
         12    1    4    4    0    0 -0.21633111546E+02 -0.25778262601E+02  0.18840791538E+02  0.38567936990E+02  0.00000000000E+00 0. -1.
</event>
<event>
 8    1  0.2501893E-006  0.9118800E+02  0.7816164E-02  0.1184000E+00
        -11   -1    0    0    0    0  0.00000000000E+00  0.00000000000E+00  0.45593999997E+02  0.45594000000E+02  0.51100000000E-03 0.  1.
         11   -1    0    0    0    0 -0.00000000000E+00 -0.00000000000E+00 -0.45593999997E+02  0.45594000000E+02  0.51100000000E-03 0. -1.
         23    2    1    2    0    0  0.19984014443E-14 -0.71054273576E-14  0.00000000000E+00  0.91188000000E+02  0.91188000000E+02 0.  0.
    9900012    2    3    3    0    0  0.14851185711E+01 -0.33776669578E+02 -0.14584608092E+02  0.54367085045E+02  0.40000001977E+02 0.  0.
        -12    1    3    3    0    0 -0.14851185711E+01  0.33776669578E+02  0.14584608092E+02  0.36820914955E+02  0.00000000000E+00 0.  1.
         11    1    4    4    0    0 -0.72190772261E+01 -0.10419508032E+01 -0.30928063573E+01  0.79225115271E+01  0.51100000000E-03 0. -1.
        -11    1    4    4    0    0  0.17264444596E+02 -0.28514830630E+02 -0.26578564511E+01  0.33439808825E+02  0.51100000000E-03 0.  1.
        -12    1    4    4    0    0 -0.85602487983E+01 -0.42198881441E+01 -0.88339452839E+01  0.13004764693E+02  0.00000000000E+00 0.  1.
</event>
<event>
 8    1  0.2501893E-006  0.9118800E+02  0.7816164E-02  0.1184000E+00
        -11   -1    0    0    0    0  0.00000000000E+00  0.00000000000E+00  0.45593999997E+02  0.45594000000E+02  0.51100000000E-03 0. -1.
         11   -1    0    0    0    0 -0.00000000000E+00 -0.00000000000E+00 -0.45593999997E+02  0.45594000000E+02  0.51100000000E-03 0.  1.
         23    2    1    2    0    0  0.44408920985E-15  0.00000000000E+00  0.00000000000E+00  0.91188000000E+02  0.91188000000E+02 0.  0.
    9900012    2    3    3    0    0  0.28148284121E+01  0.30987733277E+02  0.19687988798E+02  0.54367085080E+02  0.40000002058E+02 0.  0.
        -12    1    3    3    0    0 -0.28148284121E+01 -0.30987733277E+02 -0.19687988798E+02  0.36820914920E+02  0.00000000000E+00 0.  1.
         11    1    4    4    0    0 -0.65035357706E+01  0.23646075391E+02  0.14265977023E+02  0.28371657681E+02  0.51100000000E-03 0. -1.
        -11    1    4    4    0    0 -0.15670999501E+01 -0.26792317106E+01 -0.63631299083E+01  0.70797957105E+01  0.51100000000E-03 0.  1.
         12    1    4    4    0    0  0.10885464133E+02  0.10020889596E+02  0.11785141683E+02  0.18915631689E+02  0.00000000000E+00 0. -1.
</event>
<event>
 8    1  0.2501893E-006  0.9118800E+02  0.7816164E-02  0.1184000E+00
        -11   -1    0    0    0    0  0.00000000000E+00  0.00000000000E+00  0.45593999997E+02  0.45594000000E+02  0.51100000000E-03 0.  1.
         11   -1    0    0    0    0 -0.00000000000E+00 -0.00000000000E+00 -0.45593999997E+02  0.45594000000E+02  0.51100000000E-03 0. -1.
         23    2    1    2    0    0 -0.35527136788E-14  0.17763568394E-14  0.00000000000E+00  0.91188000000E+02  0.91188000000E+02 0.  0.
    9900012    2    3    3    0    0  0.16404830147E+02  0.11356364094E+02  0.30946625101E+02  0.54367094760E+02  0.40000024124E+02 0.  0.
         12    1    3    3    0    0 -0.16404830147E+02 -0.11356364094E+02 -0.30946625101E+02  0.36820905240E+02  0.00000000000E+00 0. -1.
         11    1    4    4    0    0 -0.15899090757E+01 -0.62618208350E+01  0.14318219008E+02  0.15708265558E+02  0.51100000000E-03 0. -1.
        -11    1    4    4    0    0  0.10892225229E+02  0.19168039073E+02  0.20772375498E+02  0.30291019732E+02  0.51100000000E-03 0.  1.
        -12    1    4    4    0    0  0.71025139935E+01 -0.15498541440E+01 -0.41439694041E+01  0.83678094695E+01  0.00000000000E+00 0.  1.
</event>
<event>
 8    1  0.2501893E-006  0.9118800E+02  0.7816164E-02  0.1184000E+00
        -11   -1    0    0    0    0  0.00000000000E+00  0.00000000000E+00  0.45593999997E+02  0.45594000000E+02  0.51100000000E-03 0.  1.
         11   -1    0    0    0    0 -0.00000000000E+00 -0.00000000000E+00 -0.45593999997E+02  0.45594000000E+02  0.51100000000E-03 0. -1.
         23    2    1    2    0    0  0.00000000000E+00  0.00000000000E+00  0.00000000000E+00  0.91188000000E+02  0.91188000000E+02 0.  0.
    9900012    2    3    3    0    0 -0.30882905869E+02  0.16921584449E+01  0.19979050434E+02  0.54367085680E+02  0.40000003425E+02 0.  0.
         12    1    3    3    0    0  0.30882905869E+02 -0.16921584449E+01 -0.19979050434E+02  0.36820914320E+02  0.00000000000E+00 0. -1.
         11    1    4    4    0    0  0.33931455940E+01  0.77000345245E+00  0.67932061221E+01  0.76324302825E+01  0.51100000000E-03 0. -1.
        -11    1    4    4    0    0 -0.20627192938E+02  0.13158235656E+02  0.55378110835E+00  0.24472983632E+02  0.51100000000E-03 0.  1.
        -12    1    4    4    0    0 -0.13648858525E+02 -0.12236080663E+02  0.12632063204E+02  0.22261671766E+02  0.00000000000E+00 0.  1.
</event>
<event>
 8    1  0.2501893E-006  0.9118800E+02  0.7816164E-02  0.1184000E+00
        -11   -1    0    0    0    0  0.00000000000E+00  0.00000000000E+00  0.45593999997E+02  0.45594000000E+02  0.51100000000E-03 0.  1.
         11   -1    0    0    0    0 -0.00000000000E+00 -0.00000000000E+00 -0.45593999997E+02  0.45594000000E+02  0.51100000000E-03 0. -1.
         23    2    1    2    0    0 -0.88817841970E-15  0.00000000000E+00  0.00000000000E+00  0.91188000000E+02  0.91188000000E+02 0.  0.
    9900012    2    3    3    0    0  0.57391509255E+01  0.25771788795E+02 -0.25664308858E+02  0.54367086103E+02  0.40000004389E+02 0.  0.
        -12    1    3    3    0    0 -0.57391509255E+01 -0.25771788795E+02  0.25664308858E+02  0.36820913897E+02  0.00000000000E+00 0.  1.
         11    1    4    4    0    0  0.68459992112E+01  0.11129835041E+02  0.26669993469E+01  0.13336184575E+02  0.51100000000E-03 0. -1.
        -11    1    4    4    0    0 -0.62147684266E+01 -0.32289409131E+01 -0.18966855050E+02  0.20218580484E+02  0.51100000000E-03 0.  1.
        -12    1    4    4    0    0  0.51079201409E+01  0.17870894668E+02 -0.93644531548E+01  0.20812321045E+02  0.00000000000E+00 0.  1.
</event>
<event>
 8    1  0.2501893E-006  0.9118800E+02  0.7816164E-02  0.1184000E+00
        -11   -1    0    0    0    0  0.00000000000E+00  0.00000000000E+00  0.45593999997E+02  0.45594000000E+02  0.51100000000E-03 0.  1.
         11   -1    0    0    0    0 -0.00000000000E+00 -0.00000000000E+00 -0.45593999997E+02  0.45594000000E+02  0.51100000000E-03 0. -1.
         23    2    1    2    0    0  0.17763568394E-14  0.22204460493E-15 -0.71054273576E-14  0.91188000000E+02  0.91188000000E+02 0.  0.
    9900012    2    3    3    0    0  0.15467755589E+02 -0.80752295456E+00 -0.33404736002E+02  0.54367082797E+02  0.39999996852E+02 0.  0.
        -12    1    3    3    0    0 -0.15467755589E+02  0.80752295456E+00  0.33404736002E+02  0.36820917203E+02  0.00000000000E+00 0.  1.
         11    1    4    4    0    0  0.36299768026E+01 -0.10747695857E+01 -0.20720634456E+02  0.21063631068E+02  0.51100000000E-03 0. -1.
        -11    1    4    4    0    0  0.14883630604E+02  0.84171634509E+01  0.95507973629E+00  0.17125515410E+02  0.51100000000E-03 0.  1.
         12    1    4    4    0    0 -0.30458518169E+01 -0.81499168198E+01 -0.13639181282E+02  0.16177936318E+02  0.00000000000E+00 0. -1.
</event>
<event>
 8    1  0.2501893E-006  0.9118800E+02  0.7816164E-02  0.1184000E+00
        -11   -1    0    0    0    0  0.00000000000E+00  0.00000000000E+00  0.45593999997E+02  0.45594000000E+02  0.51100000000E-03 0. -1.
         11   -1    0    0    0    0 -0.00000000000E+00 -0.00000000000E+00 -0.45593999997E+02  0.45594000000E+02  0.51100000000E-03 0.  1.
         23    2    1    2    0    0  0.00000000000E+00  0.35527136788E-14  0.35527136788E-14  0.91188000000E+02  0.91188000000E+02 0.  0.
    9900012    2    3    3    0    0  0.14846447262E+02  0.27909043647E+02  0.18879832842E+02  0.54367084724E+02  0.40000001246E+02 0.  0.
        -12    1    3    3    0    0 -0.14846447262E+02 -0.27909043647E+02 -0.18879832842E+02  0.36820915276E+02  0.00000000000E+00 0.  1.
         11    1    4    4    0    0 -0.80932545814E+01  0.87325249861E+01 -0.45111838815E+01  0.12732185304E+02  0.51100000000E-03 0. -1.
        -11    1    4    4    0    0  0.11274648211E+02  0.15043131218E+02  0.49742310362E+01  0.19446245494E+02  0.51100000000E-03 0.  1.
         12    1    4    4    0    0  0.11665053632E+02  0.41333874424E+01  0.18416785688E+02  0.22188653926E+02  0.00000000000E+00 0. -1.
</event>
<event>
 8    1  0.2501893E-006  0.9118800E+02  0.7816164E-02  0.1184000E+00
        -11   -1    0    0    0    0  0.00000000000E+00  0.00000000000E+00  0.45593999997E+02  0.45594000000E+02  0.51100000000E-03 0. -1.
         11   -1    0    0    0    0 -0.00000000000E+00 -0.00000000000E+00 -0.45593999997E+02  0.45594000000E+02  0.51100000000E-03 0.  1.
         23    2    1    2    0    0  0.35527136788E-14  0.00000000000E+00  0.00000000000E+00  0.91188000000E+02  0.91188000000E+02 0.  0.
    9900012    2    3    3    0    0  0.17478555529E+02 -0.29839666601E+02 -0.12644174201E+02  0.54367071882E+02  0.39999971969E+02 0.  0.
         12    1    3    3    0    0 -0.17478555529E+02  0.29839666601E+02  0.12644174201E+02  0.36820928118E+02  0.00000000000E+00 0. -1.
         11    1    4    4    0    0 -0.77757948747E+01 -0.83670746572E+01 -0.20736745071E+01  0.11609093439E+02  0.51100000000E-03 0. -1.
        -11    1    4    4    0    0  0.27816112611E+02 -0.13414348909E+02 -0.23596909210E+01  0.30971745494E+02  0.51100000000E-03 0.  1.
        -12    1    4    4    0    0 -0.25617622070E+01 -0.80582430347E+01 -0.82108087728E+01  0.11786232948E+02  0.00000000000E+00 0.  1.
</event>
<event>
 8    1  0.2501893E-006  0.9118800E+02  0.7816164E-02  0.1184000E+00
        -11   -1    0    0    0    0  0.00000000000E+00  0.00000000000E+00  0.45593999997E+02  0.45594000000E+02  0.51100000000E-03 0. -1.
         11   -1    0    0    0    0 -0.00000000000E+00 -0.00000000000E+00 -0.45593999997E+02  0.45594000000E+02  0.51100000000E-03 0.  1.
         23    2    1    2    0    0  0.00000000000E+00  0.00000000000E+00  0.00000000000E+00  0.91188000000E+02  0.91188000000E+02 0.  0.
    9900012    2    3    3    0    0  0.33198391006E+02  0.15025413807E+02 -0.52805013420E+01  0.54367083120E+02  0.39999997589E+02 0.  0.
         12    1    3    3    0    0 -0.33198391006E+02 -0.15025413807E+02  0.52805013420E+01  0.36820916880E+02  0.00000000000E+00 0. -1.
         11    1    4    4    0    0  0.22479668196E+00  0.17090315255E+02 -0.10586079002E+02  0.20104588480E+02  0.51100000000E-03 0. -1.
        -11    1    4    4    0    0  0.55725762581E+01  0.23069010114E+01  0.18016557553E+01  0.62945501944E+01  0.51100000000E-03 0.  1.
        -12    1    4    4    0    0  0.27401018066E+02 -0.43718024593E+01  0.35039219048E+01  0.27967944445E+02  0.00000000000E+00 0.  1.
</event>
<event>
 8    1  0.2501893E-006  0.9118800E+02  0.7816164E-02  0.1184000E+00
        -11   -1    0    0    0    0  0.00000000000E+00  0.00000000000E+00  0.45593999997E+02  0.45594000000E+02  0.51100000000E-03 0. -1.
         11   -1    0    0    0    0 -0.00000000000E+00 -0.00000000000E+00 -0.45593999997E+02  0.45594000000E+02  0.51100000000E-03 0.  1.
         23    2    1    2    0    0 -0.17763568394E-14  0.00000000000E+00  0.00000000000E+00  0.91188000000E+02  0.91188000000E+02 0.  0.
    9900012    2    3    3    0    0  0.11183376663E+02  0.12321428109E+02 -0.32846487007E+02  0.54367119879E+02  0.40000081387E+02 0.  0.
         12    1    3    3    0    0 -0.11183376663E+02 -0.12321428109E+02  0.32846487007E+02  0.36820880121E+02  0.00000000000E+00 0. -1.
         11    1    4    4    0    0  0.39252206494E+01  0.98142067232E+01 -0.28531500854E+02  0.30426510677E+02  0.51100000000E-03 0. -1.
        -11    1    4    4    0    0  0.30545262226E+01  0.25845764067E+01 -0.13370663547E+02  0.13956532865E+02  0.51100000000E-03 0.  1.
         12    1    4    4    0    0  0.42036297912E+01 -0.77355021120E-01  0.90556773947E+01  0.99840763367E+01  0.00000000000E+00 0. -1.
</event>
<event>
 8    1  0.2501893E-006  0.9118800E+02  0.7816164E-02  0.1184000E+00
        -11   -1    0    0    0    0  0.00000000000E+00  0.00000000000E+00  0.45593999997E+02  0.45594000000E+02  0.51100000000E-03 0.  1.
         11   -1    0    0    0    0 -0.00000000000E+00 -0.00000000000E+00 -0.45593999997E+02  0.45594000000E+02  0.51100000000E-03 0. -1.
         23    2    1    2    0    0  0.00000000000E+00  0.14432899320E-14  0.00000000000E+00  0.91188000000E+02  0.91188000000E+02 0.  0.
    9900012    2    3    3    0    0 -0.30374009316E+02 -0.99271486698E+00  0.20789761246E+02  0.54367080709E+02  0.39999992093E+02 0.  0.
         12    1    3    3    0    0  0.30374009316E+02  0.99271486698E+00 -0.20789761246E+02  0.36820919291E+02  0.00000000000E+00 0. -1.
         11    1    4    4    0    0 -0.27044200590E+01  0.62182586701E+01 -0.66490449244E+01  0.94968640830E+01  0.51100000000E-03 0. -1.
        -11    1    4    4    0    0 -0.26390290875E+02 -0.22083481343E+01  0.12931058757E+02  0.29470943908E+02  0.51100000000E-03 0.  1.
         12    1    4    4    0    0 -0.12792983819E+01 -0.50026254027E+01  0.14507747413E+02  0.15399272718E+02  0.00000000000E+00 0. -1.
</event>
<event>
 8    1  0.2501893E-006  0.9118800E+02  0.7816164E-02  0.1184000E+00
        -11   -1    0    0    0    0  0.00000000000E+00  0.00000000000E+00  0.45593999997E+02  0.45594000000E+02  0.51100000000E-03 0.  1.
         11   -1    0    0    0    0 -0.00000000000E+00 -0.00000000000E+00 -0.45593999997E+02  0.45594000000E+02  0.51100000000E-03 0. -1.
         23    2    1    2    0    0  0.00000000000E+00  0.35527136788E-14  0.00000000000E+00  0.91188000000E+02  0.91188000000E+02 0.  0.
    9900012    2    3    3    0    0 -0.25801859945E+02  0.26062816633E+02  0.32822254986E+01  0.54367090293E+02  0.40000013940E+02 0.  0.
        -12    1    3    3    0    0  0.25801859945E+02 -0.26062816633E+02 -0.32822254986E+01  0.36820909707E+02  0.00000000000E+00 0.  1.
         11    1    4    4    0    0 -0.11321337334E+02 -0.35828728614E+01  0.48243595574E+01  0.12817336009E+02  0.51100000000E-03 0. -1.
        -11    1    4    4    0    0 -0.10157654058E+00 -0.42961708228E+01  0.15261425826E+01  0.45603193941E+01  0.51100000000E-03 0.  1.
         12    1    4    4    0    0 -0.14378946070E+02  0.33941860317E+02 -0.30682766413E+01  0.36989434889E+02  0.00000000000E+00 0. -1.
</event>
<event>
 8    1  0.2501893E-006  0.9118800E+02  0.7816164E-02  0.1184000E+00
        -11   -1    0    0    0    0  0.00000000000E+00  0.00000000000E+00  0.45593999997E+02  0.45594000000E+02  0.51100000000E-03 0.  1.
         11   -1    0    0    0    0 -0.00000000000E+00 -0.00000000000E+00 -0.45593999997E+02  0.45594000000E+02  0.51100000000E-03 0. -1.
         23    2    1    2    0    0 -0.35527136788E-14  0.71054273576E-14 -0.35527136788E-14  0.91188000000E+02  0.91188000000E+02 0.  0.
    9900012    2    3    3    0    0  0.18183532595E+02 -0.28083301329E+02  0.15377430424E+02  0.54367108680E+02  0.40000055858E+02 0.  0.
         12    1    3    3    0    0 -0.18183532595E+02  0.28083301329E+02 -0.15377430424E+02  0.36820891320E+02  0.00000000000E+00 0. -1.
         11    1    4    4    0    0 -0.39893084049E+01  0.46018042926E+01 -0.14322526539E+01  0.62563993017E+01  0.51100000000E-03 0. -1.
        -11    1    4    4    0    0  0.31011989708E+01 -0.31067398176E+01 -0.50417635909E+01  0.66849568224E+01  0.51100000000E-03 0.  1.
        -12    1    4    4    0    0  0.19071642029E+02 -0.29578365804E+02  0.21851446668E+02  0.41425752556E+02  0.00000000000E+00 0.  1.
</event>
<event>
 8    1  0.2501893E-006  0.9118800E+02  0.7816164E-02  0.1184000E+00
        -11   -1    0    0    0    0  0.00000000000E+00  0.00000000000E+00  0.45593999997E+02  0.45594000000E+02  0.51100000000E-03 0.  1.
         11   -1    0    0    0    0 -0.00000000000E+00 -0.00000000000E+00 -0.45593999997E+02  0.45594000000E+02  0.51100000000E-03 0. -1.
         23    2    1    2    0    0  0.11102230246E-14  0.00000000000E+00  0.00000000000E+00  0.91188000000E+02  0.91188000000E+02 0.  0.
    9900012    2    3    3    0    0 -0.11738231489E+01  0.42572298651E+01  0.36555155926E+02  0.54367064492E+02  0.39999955123E+02 0.  0.
         12    1    3    3    0    0  0.11738231489E+01 -0.42572298651E+01 -0.36555155926E+02  0.36820935508E+02  0.00000000000E+00 0. -1.
         11    1    4    4    0    0  0.88538116671E+01 -0.40238838387E+01  0.17524255759E+02  0.20041984990E+02  0.51100000000E-03 0. -1.
        -11    1    4    4    0    0 -0.96570929639E+01 -0.42221245815E+01 -0.11287489640E+01  0.10599993159E+02  0.51100000000E-03 0.  1.
         12    1    4    4    0    0 -0.37054185212E+00  0.12503238285E+02  0.20159649131E+02  0.23725086342E+02  0.00000000000E+00 0. -1.
</event>
<event>
 8    1  0.2501893E-006  0.9118800E+02  0.7816164E-02  0.1184000E+00
        -11   -1    0    0    0    0  0.00000000000E+00  0.00000000000E+00  0.45593999997E+02  0.45594000000E+02  0.51100000000E-03 0. -1.
         11   -1    0    0    0    0 -0.00000000000E+00 -0.00000000000E+00 -0.45593999997E+02  0.45594000000E+02  0.51100000000E-03 0.  1.
         23    2    1    2    0    0  0.00000000000E+00  0.00000000000E+00  0.00000000000E+00  0.91188000000E+02  0.91188000000E+02 0.  0.
    9900012    2    3    3    0    0  0.18859712976E+02 -0.15304264302E+02 -0.27674367547E+02  0.54367083410E+02  0.39999998251E+02 0.  0.
         12    1    3    3    0    0 -0.18859712976E+02  0.15304264302E+02  0.27674367547E+02  0.36820916590E+02  0.00000000000E+00 0. -1.
         11    1    4    4    0    0 -0.89718364803E+00 -0.53135555364E+01  0.83853796214E+01  0.99676176990E+01  0.51100000000E-03 0. -1.
        -11    1    4    4    0    0  0.15420797815E+02 -0.51382648408E+01 -0.33809606022E+02  0.37513893832E+02  0.51100000000E-03 0.  1.
        -12    1    4    4    0    0  0.43360988090E+01 -0.48524439250E+01 -0.22501411467E+01  0.68855718795E+01  0.00000000000E+00 0.  1.
</event>
<event>
 8    1  0.2501893E-006  0.9118800E+02  0.7816164E-02  0.1184000E+00
        -11   -1    0    0    0    0  0.00000000000E+00  0.00000000000E+00  0.45593999997E+02  0.45594000000E+02  0.51100000000E-03 0. -1.
         11   -1    0    0    0    0 -0.00000000000E+00 -0.00000000000E+00 -0.45593999997E+02  0.45594000000E+02  0.51100000000E-03 0.  1.
         23    2    1    2    0    0  0.00000000000E+00  0.00000000000E+00  0.00000000000E+00  0.91188000000E+02  0.91188000000E+02 0.  0.
    9900012    2    3    3    0    0  0.26762878423E+01 -0.19209730509E+02  0.31298622946E+02  0.54367081202E+02  0.39999993215E+02 0.  0.
        -12    1    3    3    0    0 -0.26762878423E+01  0.19209730509E+02 -0.31298622946E+02  0.36820918798E+02  0.00000000000E+00 0.  1.
         11    1    4    4    0    0  0.70908240654E+01 -0.16222827605E+02  0.16010516997E+02  0.23870412150E+02  0.51100000000E-03 0. -1.
        -11    1    4    4    0    0  0.16638944057E+01 -0.29020963728E+01  0.21527282371E+02  0.21785651115E+02  0.51100000000E-03 0.  1.
        -12    1    4    4    0    0 -0.60784306288E+01 -0.84806531100E-01 -0.62391764226E+01  0.87110179364E+01  0.00000000000E+00 0.  1.
</event>
<event>
 8    1  0.2501893E-006  0.9118800E+02  0.7816164E-02  0.1184000E+00
        -11   -1    0    0    0    0  0.00000000000E+00  0.00000000000E+00  0.45593999997E+02  0.45594000000E+02  0.51100000000E-03 0.  1.
         11   -1    0    0    0    0 -0.00000000000E+00 -0.00000000000E+00 -0.45593999997E+02  0.45594000000E+02  0.51100000000E-03 0. -1.
         23    2    1    2    0    0 -0.35527136788E-14  0.00000000000E+00  0.22204460493E-15  0.91188000000E+02  0.91188000000E+02 0.  0.
    9900012    2    3    3    0    0 -0.15154942597E+02  0.33504584487E+02 -0.18842842852E+01  0.54367082113E+02  0.39999995293E+02 0.  0.
        -12    1    3    3    0    0  0.15154942597E+02 -0.33504584487E+02  0.18842842852E+01  0.36820917887E+02  0.00000000000E+00 0.  1.
         11    1    4    4    0    0 -0.12003997516E+02  0.25427348933E+02  0.18510514237E+01  0.28179290654E+02  0.51100000000E-03 0. -1.
        -11    1    4    4    0    0  0.73975641616E+01 -0.40855770601E+01  0.26670140718E+01  0.88616510741E+01  0.51100000000E-03 0.  1.
        -12    1    4    4    0    0 -0.10548509242E+02  0.12162812615E+02 -0.64023497807E+01  0.17326140385E+02  0.00000000000E+00 0.  1.
</event>
<event>
 8    1  0.2501893E-006  0.9118800E+02  0.7816164E-02  0.1184000E+00
        -11   -1    0    0    0    0  0.00000000000E+00  0.00000000000E+00  0.45593999997E+02  0.45594000000E+02  0.51100000000E-03 0.  1.
         11   -1    0    0    0    0 -0.00000000000E+00 -0.00000000000E+00 -0.45593999997E+02  0.45594000000E+02  0.51100000000E-03 0. -1.
         23    2    1    2    0    0  0.35527136788E-14  0.00000000000E+00  0.35527136788E-14  0.91188000000E+02  0.91188000000E+02 0.  0.
    9900012    2    3    3    0    0  0.24761448969E+02  0.16695992277E+02  0.21538175754E+02  0.54367102021E+02  0.40000040678E+02 0.  0.
         12    1    3    3    0    0 -0.24761448969E+02 -0.16695992277E+02 -0.21538175754E+02  0.36820897979E+02  0.00000000000E+00 0. -1.
         11    1    4    4    0    0  0.39093365744E+01  0.49080075877E+01  0.40464619509E+01  0.74662778888E+01  0.51100000000E-03 0. -1.
        -11    1    4    4    0    0  0.53051038411E+01  0.18901187626E+02 -0.33801227795E+01  0.19920448055E+02  0.51100000000E-03 0.  1.
         12    1    4    4    0    0  0.15547008553E+02 -0.71132029367E+01  0.20871836582E+02  0.26980376078E+02  0.00000000000E+00 0. -1.
</event>
<event>
 8    1  0.2501893E-006  0.9118800E+02  0.7816164E-02  0.1184000E+00
        -11   -1    0    0    0    0  0.00000000000E+00  0.00000000000E+00  0.45593999997E+02  0.45594000000E+02  0.51100000000E-03 0.  1.
         11   -1    0    0    0    0 -0.00000000000E+00 -0.00000000000E+00 -0.45593999997E+02  0.45594000000E+02  0.51100000000E-03 0. -1.
         23    2    1    2    0    0  0.35527136788E-14  0.00000000000E+00  0.00000000000E+00  0.91188000000E+02  0.91188000000E+02 0.  0.
    9900012    2    3    3    0    0 -0.30140466138E+02  0.19696384904E+02 -0.77061020966E+01  0.54367091717E+02  0.40000017187E+02 0.  0.
         12    1    3    3    0    0  0.30140466138E+02 -0.19696384904E+02  0.77061020966E+01  0.36820908283E+02  0.00000000000E+00 0. -1.
         11    1    4    4    0    0  0.48456145126E+01  0.16746120327E+02 -0.24651451584E+01  0.17606517740E+02  0.51100000000E-03 0. -1.
        -11    1    4    4    0    0 -0.30239314780E+02  0.57419343114E+01 -0.54084397957E+01  0.31251195006E+02  0.51100000000E-03 0.  1.
         12    1    4    4    0    0 -0.47467658702E+01 -0.27916697348E+01  0.16748285758E+00  0.55093789706E+01  0.00000000000E+00 0. -1.
</event>
<event>
 8    1  0.2501893E-006  0.9118800E+02  0.7816164E-02  0.1184000E+00
        -11   -1    0    0    0    0  0.00000000000E+00  0.00000000000E+00  0.45593999997E+02  0.45594000000E+02  0.51100000000E-03 0. -1.
         11   -1    0    0    0    0 -0.00000000000E+00 -0.00000000000E+00 -0.45593999997E+02  0.45594000000E+02  0.51100000000E-03 0.  1.
         23    2    1    2    0    0 -0.35527136788E-14 -0.35527136788E-14  0.17763568394E-14  0.91188000000E+02  0.91188000000E+02 0.  0.
    9900012    2    3    3    0    0  0.22904331416E+02  0.28196233907E+02 -0.60119942862E+01  0.54367080953E+02  0.39999992649E+02 0.  0.
        -12    1    3    3    0    0 -0.22904331416E+02 -0.28196233907E+02  0.60119942862E+01  0.36820919047E+02  0.00000000000E+00 0.  1.
         11    1    4    4    0    0  0.84282252149E+00  0.59129333779E+01  0.98470714358E+01  0.11516854912E+02  0.51100000000E-03 0. -1.
        -11    1    4    4    0    0  0.18157205074E+02  0.19501492783E+01 -0.11826185114E+02  0.21756512426E+02  0.51100000000E-03 0.  1.
         12    1    4    4    0    0  0.39043038206E+01  0.20333151251E+02 -0.40328806078E+01  0.21093713616E+02  0.00000000000E+00 0. -1.
</event>
<event>
 8    1  0.2501893E-006  0.9118800E+02  0.7816164E-02  0.1184000E+00
        -11   -1    0    0    0    0  0.00000000000E+00  0.00000000000E+00  0.45593999997E+02  0.45594000000E+02  0.51100000000E-03 0.  1.
         11   -1    0    0    0    0 -0.00000000000E+00 -0.00000000000E+00 -0.45593999997E+02  0.45594000000E+02  0.51100000000E-03 0. -1.
         23    2    1    2    0    0  0.35527136788E-14  0.00000000000E+00 -0.44408920985E-15  0.91188000000E+02  0.91188000000E+02 0.  0.
    9900012    2    3    3    0    0 -0.25405055019E+02  0.26527788492E+02 -0.25769039426E+01  0.54367070941E+02  0.39999969825E+02 0.  0.
        -12    1    3    3    0    0  0.25405055019E+02 -0.26527788492E+02  0.25769039426E+01  0.36820929059E+02  0.00000000000E+00 0.  1.
         11    1    4    4    0    0  0.36230413498E+01  0.78699009735E+01  0.68273706688E+01  0.11030628290E+02  0.51100000000E-03 0. -1.
        -11    1    4    4    0    0  0.44296705978E+01  0.27025873924E+01 -0.18361623229E+01  0.55043121783E+01  0.51100000000E-03 0.  1.
         12    1    4    4    0    0 -0.33457766967E+02  0.15955300127E+02 -0.75681122884E+01  0.37832130473E+02  0.00000000000E+00 0. -1.
</event>
<event>
 8    1  0.2501893E-006  0.9118800E+02  0.7816164E-02  0.1184000E+00
        -11   -1    0    0    0    0  0.00000000000E+00  0.00000000000E+00  0.45593999997E+02  0.45594000000E+02  0.51100000000E-03 0.  1.
         11   -1    0    0    0    0 -0.00000000000E+00 -0.00000000000E+00 -0.45593999997E+02  0.45594000000E+02  0.51100000000E-03 0. -1.
         23    2    1    2    0    0 -0.44408920985E-15 -0.35527136788E-14  0.00000000000E+00  0.91188000000E+02  0.91188000000E+02 0.  0.
    9900012    2    3    3    0    0  0.20576333819E+01 -0.22721031745E+02 -0.28901547641E+02  0.54367101115E+02  0.40000038611E+02 0.  0.
        -12    1    3    3    0    0 -0.20576333819E+01  0.22721031745E+02  0.28901547641E+02  0.36820898885E+02  0.00000000000E+00 0.  1.
         11    1    4    4    0    0  0.13307025936E+02 -0.52462404062E+01 -0.18204996329E+02  0.23152146105E+02  0.51100000000E-03 0. -1.
        -11    1    4    4    0    0 -0.10463455023E+00  0.45497802953E+01 -0.25776379340E+01  0.52302644966E+01  0.51100000000E-03 0.  1.
        -12    1    4    4    0    0 -0.11144758004E+02 -0.22024571634E+02 -0.81189133779E+01  0.25984690513E+02  0.00000000000E+00 0.  1.
</event>
<event>
 8    1  0.2501893E-006  0.9118800E+02  0.7816164E-02  0.1184000E+00
        -11   -1    0    0    0    0  0.00000000000E+00  0.00000000000E+00  0.45593999997E+02  0.45594000000E+02  0.51100000000E-03 0. -1.
         11   -1    0    0    0    0 -0.00000000000E+00 -0.00000000000E+00 -0.45593999997E+02  0.45594000000E+02  0.51100000000E-03 0.  1.
         23    2    1    2    0    0  0.00000000000E+00  0.00000000000E+00  0.35527136788E-14  0.91188000000E+02  0.91188000000E+02 0.  0.
    9900012    2    3    3    0    0  0.27282754086E+02  0.85940319143E+01  0.23185663490E+02  0.54367067821E+02  0.39999962712E+02 0.  0.
        -12    1    3    3    0    0 -0.27282754086E+02 -0.85940319143E+01 -0.23185663490E+02  0.36820932179E+02  0.00000000000E+00 0.  1.
         11    1    4    4    0    0  0.13701032868E+02  0.32680344280E+01  0.14826632903E+02  0.20450608650E+02  0.51100000000E-03 0. -1.
        -11    1    4    4    0    0  0.58040410068E+01 -0.12277548930E+02  0.25889733249E+01  0.13824900827E+02  0.51100000000E-03 0.  1.
         12    1    4    4    0    0  0.77776802116E+01  0.17603546416E+02  0.57700572617E+01  0.20091558344E+02  0.00000000000E+00 0. -1.
</event>
<event>
 8    1  0.2501893E-006  0.9118800E+02  0.7816164E-02  0.1184000E+00
        -11   -1    0    0    0    0  0.00000000000E+00  0.00000000000E+00  0.45593999997E+02  0.45594000000E+02  0.51100000000E-03 0. -1.
         11   -1    0    0    0    0 -0.00000000000E+00 -0.00000000000E+00 -0.45593999997E+02  0.45594000000E+02  0.51100000000E-03 0.  1.
         23    2    1    2    0    0  0.88817841970E-15  0.00000000000E+00 -0.35527136788E-14  0.91188000000E+02  0.91188000000E+02 0.  0.
    9900012    2    3    3    0    0 -0.61067898029E+01  0.22345479482E+02  0.28621090001E+02  0.54367080296E+02  0.39999991151E+02 0.  0.
        -12    1    3    3    0    0  0.61067898029E+01 -0.22345479482E+02 -0.28621090001E+02  0.36820919704E+02  0.00000000000E+00 0.  1.
         11    1    4    4    0    0  0.83608713390E+00 -0.82069480665E+00  0.10878299196E+02  0.10941205387E+02  0.51100000000E-03 0. -1.
        -11    1    4    4    0    0  0.95240997945E+01  0.25145821578E+00  0.10730610468E+02  0.14349833080E+02  0.51100000000E-03 0.  1.
         12    1    4    4    0    0 -0.16466976731E+02  0.22914716073E+02  0.70121803372E+01  0.29076041829E+02  0.00000000000E+00 0. -1.
</event>
<event>
 8    1  0.2501893E-006  0.9118800E+02  0.7816164E-02  0.1184000E+00
        -11   -1    0    0    0    0  0.00000000000E+00  0.00000000000E+00  0.45593999997E+02  0.45594000000E+02  0.51100000000E-03 0.  1.
         11   -1    0    0    0    0 -0.00000000000E+00 -0.00000000000E+00 -0.45593999997E+02  0.45594000000E+02  0.51100000000E-03 0. -1.
         23    2    1    2    0    0  0.00000000000E+00  0.00000000000E+00 -0.35527136788E-14  0.91188000000E+02  0.91188000000E+02 0.  0.
    9900012    2    3    3    0    0 -0.18291708787E+02 -0.60851929787E+01 -0.31371385775E+02  0.54367081633E+02  0.39999994198E+02 0.  0.
        -12    1    3    3    0    0  0.18291708787E+02  0.60851929787E+01  0.31371385775E+02  0.36820918367E+02  0.00000000000E+00 0.  1.
         11    1    4    4    0    0 -0.29071309070E+02 -0.66469371658E+01 -0.22193470712E+02  0.37173551448E+02  0.51100000000E-03 0. -1.
        -11    1    4    4    0    0  0.10123422558E+02  0.33756353043E+01 -0.94985682503E+01  0.14286406024E+02  0.51100000000E-03 0.  1.
         12    1    4    4    0    0  0.65617772401E+00 -0.28138911171E+01  0.32065318734E+00  0.29071241616E+01  0.00000000000E+00 0. -1.
</event>
<event>
 8    1  0.2501893E-006  0.9118800E+02  0.7816164E-02  0.1184000E+00
        -11   -1    0    0    0    0  0.00000000000E+00  0.00000000000E+00  0.45593999997E+02  0.45594000000E+02  0.51100000000E-03 0. -1.
         11   -1    0    0    0    0 -0.00000000000E+00 -0.00000000000E+00 -0.45593999997E+02  0.45594000000E+02  0.51100000000E-03 0.  1.
         23    2    1    2    0    0  0.00000000000E+00  0.00000000000E+00 -0.35527136788E-14  0.91188000000E+02  0.91188000000E+02 0.  0.
    9900012    2    3    3    0    0  0.23936817084E+02  0.16770821843E+02 -0.22395259579E+02  0.54367091143E+02  0.40000015879E+02 0.  0.
         12    1    3    3    0    0 -0.23936817084E+02 -0.16770821843E+02  0.22395259579E+02  0.36820908857E+02  0.00000000000E+00 0. -1.
         11    1    4    4    0    0  0.42423217472E+01  0.21258023721E+02 -0.75041315153E+01  0.22939329903E+02  0.51100000000E-03 0. -1.
        -11    1    4    4    0    0  0.82580451294E+01  0.69637730845E+01 -0.26139226751E+01  0.11114046830E+02  0.51100000000E-03 0.  1.
         12    1    4    4    0    0  0.11436450208E+02 -0.11450974963E+02 -0.12277205389E+02  0.20313714410E+02  0.00000000000E+00 0. -1.
</event>
<event>
 8    1  0.2501893E-006  0.9118800E+02  0.7816164E-02  0.1184000E+00
        -11   -1    0    0    0    0  0.00000000000E+00  0.00000000000E+00  0.45593999997E+02  0.45594000000E+02  0.51100000000E-03 0.  1.
         11   -1    0    0    0    0 -0.00000000000E+00 -0.00000000000E+00 -0.45593999997E+02  0.45594000000E+02  0.51100000000E-03 0. -1.
         23    2    1    2    0    0  0.88817841970E-15  0.00000000000E+00  0.00000000000E+00  0.91188000000E+02  0.91188000000E+02 0.  0.
    9900012    2    3    3    0    0  0.79159529754E+01  0.23876988940E+02 -0.26888774298E+02  0.54367094313E+02  0.40000023106E+02 0.  0.
        -12    1    3    3    0    0 -0.79159529754E+01 -0.23876988940E+02  0.26888774298E+02  0.36820905687E+02  0.00000000000E+00 0.  1.
         11    1    4    4    0    0 -0.14064000073E+01  0.11723851783E+01 -0.17148704530E+01  0.25086308852E+01  0.51100000000E-03 0. -1.
        -11    1    4    4    0    0  0.47745140963E+01 -0.53959600075E+01 -0.22078579093E+02  0.23224470377E+02  0.51100000000E-03 0.  1.
         12    1    4    4    0    0  0.45478388865E+01  0.28100563770E+02 -0.30953247513E+01  0.28633993051E+02  0.00000000000E+00 0. -1.
</event>
<event>
 8    1  0.2501893E-006  0.9118800E+02  0.7816164E-02  0.1184000E+00
        -11   -1    0    0    0    0  0.00000000000E+00  0.00000000000E+00  0.45593999997E+02  0.45594000000E+02  0.51100000000E-03 0.  1.
         11   -1    0    0    0    0 -0.00000000000E+00 -0.00000000000E+00 -0.45593999997E+02  0.45594000000E+02  0.51100000000E-03 0. -1.
         23    2    1    2    0    0  0.00000000000E+00 -0.71054273576E-14 -0.35527136788E-14  0.91188000000E+02  0.91188000000E+02 0.  0.
    9900012    2    3    3    0    0  0.82566587721E+01 -0.19684753447E+02 -0.30001970979E+02  0.54367079384E+02  0.39999989073E+02 0.  0.
        -12    1    3    3    0    0 -0.82566587721E+01  0.19684753447E+02  0.30001970979E+02  0.36820920616E+02  0.00000000000E+00 0.  1.
         11    1    4    4    0    0 -0.84599614492E+01 -0.70111774515E+00 -0.14451343122E+02  0.16760185921E+02  0.51100000000E-03 0. -1.
        -11    1    4    4    0    0  0.95396341418E+01 -0.50789020807E+01  0.48919133716E+01  0.11862996359E+02  0.51100000000E-03 0.  1.
         12    1    4    4    0    0  0.71769860795E+01 -0.13904733621E+02 -0.20442541229E+02  0.25743897105E+02  0.00000000000E+00 0. -1.
</event>
<event>
 8    1  0.2501893E-006  0.9118800E+02  0.7816164E-02  0.1184000E+00
        -11   -1    0    0    0    0  0.00000000000E+00  0.00000000000E+00  0.45593999997E+02  0.45594000000E+02  0.51100000000E-03 0. -1.
         11   -1    0    0    0    0 -0.00000000000E+00 -0.00000000000E+00 -0.45593999997E+02  0.45594000000E+02  0.51100000000E-03 0.  1.
         23    2    1    2    0    0  0.00000000000E+00 -0.88817841970E-15  0.00000000000E+00  0.91188000000E+02  0.91188000000E+02 0.  0.
    9900012    2    3    3    0    0  0.15762335866E+02 -0.63959564826E+01  0.32656097783E+02  0.54367079130E+02  0.39999988493E+02 0.  0.
        -12    1    3    3    0    0 -0.15762335866E+02  0.63959564826E+01 -0.32656097783E+02  0.36820920870E+02  0.00000000000E+00 0.  1.
         11    1    4    4    0    0 -0.13875910859E+01  0.10522934002E+02  0.25321512912E+02  0.27456084307E+02  0.51100000000E-03 0. -1.
        -11    1    4    4    0    0  0.13056973505E+02 -0.15479445217E+02  0.91320765416E+01  0.22214693416E+02  0.51100000000E-03 0.  1.
         12    1    4    4    0    0  0.40929534471E+01 -0.14394452681E+01 -0.17974916710E+01  0.46963014072E+01  0.00000000000E+00 0. -1.
</event>
<event>
 8    1  0.2501893E-006  0.9118800E+02  0.7816164E-02  0.1184000E+00
        -11   -1    0    0    0    0  0.00000000000E+00  0.00000000000E+00  0.45593999997E+02  0.45594000000E+02  0.51100000000E-03 0. -1.
         11   -1    0    0    0    0 -0.00000000000E+00 -0.00000000000E+00 -0.45593999997E+02  0.45594000000E+02  0.51100000000E-03 0.  1.
         23    2    1    2    0    0  0.38857805862E-15 -0.35527136788E-14  0.35527136788E-14  0.91188000000E+02  0.91188000000E+02 0.  0.
    9900012    2    3    3    0    0 -0.12914258925E+00 -0.25493894484E+02  0.26567364367E+02  0.54367079544E+02  0.39999989437E+02 0.  0.
        -12    1    3    3    0    0  0.12914258925E+00  0.25493894484E+02 -0.26567364367E+02  0.36820920456E+02  0.00000000000E+00 0.  1.
         11    1    4    4    0    0  0.31487887722E+01 -0.19196722937E+02  0.19939715589E+02  0.27857158869E+02  0.51100000000E-03 0. -1.
        -11    1    4    4    0    0 -0.42965900946E+01 -0.15103829824E+02  0.45934046650E+00  0.15709785350E+02  0.51100000000E-03 0.  1.
        -12    1    4    4    0    0  0.10186587332E+01  0.88066582768E+01  0.61683083118E+01  0.10800135325E+02  0.00000000000E+00 0.  1.
</event>
<event>
 8    1  0.2501893E-006  0.9118800E+02  0.7816164E-02  0.1184000E+00
        -11   -1    0    0    0    0  0.00000000000E+00  0.00000000000E+00  0.45593999997E+02  0.45594000000E+02  0.51100000000E-03 0.  1.
         11   -1    0    0    0    0 -0.00000000000E+00 -0.00000000000E+00 -0.45593999997E+02  0.45594000000E+02  0.51100000000E-03 0. -1.
         23    2    1    2    0    0 -0.35527136788E-14 -0.71054273576E-14  0.17763568394E-14  0.91188000000E+02  0.91188000000E+02 0.  0.
    9900012    2    3    3    0    0 -0.24218798597E+02 -0.25388172361E+02  0.11165865511E+02  0.54366999824E+02  0.39999807699E+02 0.  0.
         12    1    3    3    0    0  0.24218798597E+02  0.25388172361E+02 -0.11165865511E+02  0.36821000176E+02  0.00000000000E+00 0. -1.
         11    1    4    4    0    0 -0.13256413966E+02 -0.10875964338E+02  0.11555054564E+02  0.20677001663E+02  0.51100000000E-03 0. -1.
        -11    1    4    4    0    0 -0.13418661890E+02 -0.19204297497E+02 -0.77014454724E+01  0.24661260955E+02  0.51100000000E-03 0.  1.
         12    1    4    4    0    0  0.24562772590E+01  0.46920894741E+01  0.73122564191E+01  0.90287372065E+01  0.00000000000E+00 0. -1.
</event>
<event>
 8    1  0.2501893E-006  0.9118800E+02  0.7816164E-02  0.1184000E+00
        -11   -1    0    0    0    0  0.00000000000E+00  0.00000000000E+00  0.45593999997E+02  0.45594000000E+02  0.51100000000E-03 0.  1.
         11   -1    0    0    0    0 -0.00000000000E+00 -0.00000000000E+00 -0.45593999997E+02  0.45594000000E+02  0.51100000000E-03 0. -1.
         23    2    1    2    0    0  0.00000000000E+00 -0.88817841970E-15  0.35527136788E-14  0.91188000000E+02  0.91188000000E+02 0.  0.
    9900012    2    3    3    0    0  0.24136149399E+02 -0.74536267372E+01  0.26789358778E+02  0.54367081990E+02  0.39999995014E+02 0.  0.
         12    1    3    3    0    0 -0.24136149399E+02  0.74536267372E+01 -0.26789358778E+02  0.36820918010E+02  0.00000000000E+00 0. -1.
         11    1    4    4    0    0  0.21102800977E+02  0.50859938458E+01  0.34629243666E+01  0.21981523785E+02  0.51100000000E-03 0. -1.
        -11    1    4    4    0    0  0.55645378092E+01  0.29261728736E+01  0.10009054012E+02  0.11819802503E+02  0.51100000000E-03 0.  1.
         12    1    4    4    0    0 -0.25311893873E+01 -0.15465793457E+02  0.13317380399E+02  0.20565755703E+02  0.00000000000E+00 0. -1.
</event>
<event>
 8    1  0.2501893E-006  0.9118800E+02  0.7816164E-02  0.1184000E+00
        -11   -1    0    0    0    0  0.00000000000E+00  0.00000000000E+00  0.45593999997E+02  0.45594000000E+02  0.51100000000E-03 0.  1.
         11   -1    0    0    0    0 -0.00000000000E+00 -0.00000000000E+00 -0.45593999997E+02  0.45594000000E+02  0.51100000000E-03 0. -1.
         23    2    1    2    0    0  0.44408920985E-15  0.00000000000E+00  0.00000000000E+00  0.91188000000E+02  0.91188000000E+02 0.  0.
    9900012    2    3    3    0    0  0.24230282057E+01  0.36113179773E+02 -0.67636674688E+01  0.54367081806E+02  0.39999994593E+02 0.  0.
        -12    1    3    3    0    0 -0.24230282057E+01 -0.36113179773E+02  0.67636674688E+01  0.36820918194E+02  0.00000000000E+00 0.  1.
         11    1    4    4    0    0 -0.49676218262E+01  0.21600503176E+02 -0.72886157455E+00  0.22176344232E+02  0.51100000000E-03 0. -1.
        -11    1    4    4    0    0  0.57995369868E+01  0.15816410951E+02  0.75431415434E+01  0.18457856572E+02  0.51100000000E-03 0.  1.
         12    1    4    4    0    0  0.15911130450E+01 -0.13037343535E+01 -0.13577947438E+02  0.13732881002E+02  0.00000000000E+00 0. -1.
</event>
<event>
 8    1  0.2501893E-006  0.9118800E+02  0.7816164E-02  0.1184000E+00
        -11   -1    0    0    0    0  0.00000000000E+00  0.00000000000E+00  0.45593999997E+02  0.45594000000E+02  0.51100000000E-03 0.  1.
         11   -1    0    0    0    0 -0.00000000000E+00 -0.00000000000E+00 -0.45593999997E+02  0.45594000000E+02  0.51100000000E-03 0. -1.
         23    2    1    2    0    0  0.44408920985E-15  0.17763568394E-14  0.00000000000E+00  0.91188000000E+02  0.91188000000E+02 0.  0.
    9900012    2    3    3    0    0 -0.27707269024E+01  0.12195053548E+02  0.34632100394E+02  0.54367100550E+02  0.40000037324E+02 0.  0.
         12    1    3    3    0    0  0.27707269024E+01 -0.12195053548E+02 -0.34632100394E+02  0.36820899450E+02  0.00000000000E+00 0. -1.
         11    1    4    4    0    0 -0.39797319162E+01 -0.13265599352E+02  0.10912423521E+02  0.17632225602E+02  0.51100000000E-03 0. -1.
        -11    1    4    4    0    0  0.63984487327E+01  0.16125452608E+02  0.15372124702E+02  0.23179141186E+02  0.51100000000E-03 0.  1.
         12    1    4    4    0    0 -0.51894437188E+01  0.93352002919E+01  0.83475521706E+01  0.13555733763E+02  0.00000000000E+00 0. -1.
</event>
<event>
 8    1  0.2501893E-006  0.9118800E+02  0.7816164E-02  0.1184000E+00
        -11   -1    0    0    0    0  0.00000000000E+00  0.00000000000E+00  0.45593999997E+02  0.45594000000E+02  0.51100000000E-03 0.  1.
         11   -1    0    0    0    0 -0.00000000000E+00 -0.00000000000E+00 -0.45593999997E+02  0.45594000000E+02  0.51100000000E-03 0. -1.
         23    2    1    2    0    0  0.00000000000E+00  0.00000000000E+00  0.35527136788E-14  0.91188000000E+02  0.91188000000E+02 0.  0.
    9900012    2    3    3    0    0  0.30510543207E+02  0.18128853078E+02  0.98097989331E+01  0.54367072312E+02  0.39999972949E+02 0.  0.
        -12    1    3    3    0    0 -0.30510543207E+02 -0.18128853078E+02 -0.98097989331E+01  0.36820927688E+02  0.00000000000E+00 0.  1.
         11    1    4    4    0    0 -0.76870821222E-01 -0.84168536990E+00  0.59804365982E+00  0.10353742634E+01  0.51100000000E-03 0. -1.
        -11    1    4    4    0    0  0.25986430276E+02 -0.62933305051E+01  0.64468912347E+01  0.27503871986E+02  0.51100000000E-03 0.  1.
         12    1    4    4    0    0  0.46009837518E+01  0.25263868953E+02  0.27648640386E+01  0.25827826063E+02  0.00000000000E+00 0. -1.
</event>
<event>
 8    1  0.2501893E-006  0.9118800E+02  0.7816164E-02  0.1184000E+00
        -11   -1    0    0    0    0  0.00000000000E+00  0.00000000000E+00  0.45593999997E+02  0.45594000000E+02  0.51100000000E-03 0.  1.
         11   -1    0    0    0    0 -0.00000000000E+00 -0.00000000000E+00 -0.45593999997E+02  0.45594000000E+02  0.51100000000E-03 0. -1.
         23    2    1    2    0    0  0.00000000000E+00  0.88817841970E-15  0.00000000000E+00  0.91188000000E+02  0.91188000000E+02 0.  0.
    9900012    2    3    3    0    0  0.26087508777E+02 -0.74402554758E+01 -0.24897060800E+02  0.54367093544E+02  0.40000021353E+02 0.  0.
        -12    1    3    3    0    0 -0.26087508777E+02  0.74402554758E+01  0.24897060800E+02  0.36820906456E+02  0.00000000000E+00 0.  1.
         11    1    4    4    0    0 -0.46876697493E+01 -0.18374478699E+01 -0.12485507023E+02  0.13462479275E+02  0.51100000000E-03 0. -1.
        -11    1    4    4    0    0  0.12010392055E+02 -0.11728777023E+02  0.13502626453E+01  0.16841524197E+02  0.51100000000E-03 0.  1.
        -12    1    4    4    0    0  0.18764786471E+02  0.61259694175E+01 -0.13761816422E+02  0.24063090073E+02  0.00000000000E+00 0.  1.
</event>
<event>
 8    1  0.2501893E-006  0.9118800E+02  0.7816164E-02  0.1184000E+00
        -11   -1    0    0    0    0  0.00000000000E+00  0.00000000000E+00  0.45593999997E+02  0.45594000000E+02  0.51100000000E-03 0. -1.
         11   -1    0    0    0    0 -0.00000000000E+00 -0.00000000000E+00 -0.45593999997E+02  0.45594000000E+02  0.51100000000E-03 0.  1.
         23    2    1    2    0    0  0.00000000000E+00  0.00000000000E+00 -0.17763568394E-14  0.91188000000E+02  0.91188000000E+02 0.  0.
    9900012    2    3    3    0    0  0.33355990576E+02  0.83832564048E+01  0.13148348526E+02  0.54367079802E+02  0.39999990024E+02 0.  0.
        -12    1    3    3    0    0 -0.33355990576E+02 -0.83832564048E+01 -0.13148348526E+02  0.36820920198E+02  0.00000000000E+00 0.  1.
         11    1    4    4    0    0  0.40941452273E+01 -0.18838498312E+01  0.50971107877E+01  0.68037823284E+01  0.51100000000E-03 0. -1.
        -11    1    4    4    0    0  0.20821039700E+02 -0.61930075276E+00  0.20332220171E+02  0.29108390629E+02  0.51100000000E-03 0.  1.
        -12    1    4    4    0    0  0.84408056487E+01  0.10886406989E+02 -0.12280982433E+02  0.18454906844E+02  0.00000000000E+00 0.  1.
</event>
<event>
 8    1  0.2501893E-006  0.9118800E+02  0.7816164E-02  0.1184000E+00
        -11   -1    0    0    0    0  0.00000000000E+00  0.00000000000E+00  0.45593999997E+02  0.45594000000E+02  0.51100000000E-03 0. -1.
         11   -1    0    0    0    0 -0.00000000000E+00 -0.00000000000E+00 -0.45593999997E+02  0.45594000000E+02  0.51100000000E-03 0.  1.
         23    2    1    2    0    0  0.44408920985E-15 -0.17763568394E-14  0.00000000000E+00  0.91188000000E+02  0.91188000000E+02 0.  0.
    9900012    2    3    3    0    0 -0.20777682810E+01 -0.14823648377E+02  0.33641051742E+02  0.54367108722E+02  0.40000055953E+02 0.  0.
        -12    1    3    3    0    0  0.20777682810E+01  0.14823648377E+02 -0.33641051742E+02  0.36820891278E+02  0.00000000000E+00 0.  1.
         11    1    4    4    0    0 -0.12698255724E+00 -0.14436093439E+02 -0.20384593051E+01  0.14579857165E+02  0.51100000000E-03 0.  1.
        -11    1    4    4    0    0 -0.30777289560E+01  0.74588879983E+01  0.96577954543E+01  0.12584929042E+02  0.51100000000E-03 0. -1.
         12    1    4    4    0    0  0.11269432322E+01 -0.78464429365E+01  0.26021715592E+02  0.27202322514E+02  0.00000000000E+00 0. -1.
</event>
<event>
 8    1  0.2501893E-006  0.9118800E+02  0.7816164E-02  0.1184000E+00
        -11   -1    0    0    0    0  0.00000000000E+00  0.00000000000E+00  0.45593999997E+02  0.45594000000E+02  0.51100000000E-03 0. -1.
         11   -1    0    0    0    0 -0.00000000000E+00 -0.00000000000E+00 -0.45593999997E+02  0.45594000000E+02  0.51100000000E-03 0.  1.
         23    2    1    2    0    0 -0.55511151231E-15 -0.53290705182E-14 -0.71054273576E-14  0.91188000000E+02  0.91188000000E+02 0.  0.
    9900012    2    3    3    0    0  0.24353528293E+00 -0.13005600328E+02 -0.34446704831E+02  0.54367076288E+02  0.39999982014E+02 0.  0.
         12    1    3    3    0    0 -0.24353528293E+00  0.13005600328E+02  0.34446704831E+02  0.36820923712E+02  0.00000000000E+00 0. -1.
         11    1    4    4    0    0  0.65214806688E+01 -0.20877915933E+02 -0.19248112010E+02  0.29136006934E+02  0.51100000000E-03 0. -1.
        -11    1    4    4    0    0  0.88276077216E+00 -0.35319431263E+01 -0.10262141756E+02  0.10888775987E+02  0.51100000000E-03 0.  1.
        -12    1    4    4    0    0 -0.71607061580E+01  0.11404258732E+02 -0.49364510649E+01  0.14342293367E+02  0.00000000000E+00 0.  1.
</event>
<event>
 8    1  0.2501893E-006  0.9118800E+02  0.7816164E-02  0.1184000E+00
        -11   -1    0    0    0    0  0.00000000000E+00  0.00000000000E+00  0.45593999997E+02  0.45594000000E+02  0.51100000000E-03 0.  1.
         11   -1    0    0    0    0 -0.00000000000E+00 -0.00000000000E+00 -0.45593999997E+02  0.45594000000E+02  0.51100000000E-03 0. -1.
         23    2    1    2    0    0  0.00000000000E+00  0.00000000000E+00  0.00000000000E+00  0.91188000000E+02  0.91188000000E+02 0.  0.
    9900012    2    3    3    0    0 -0.22657817361E+02  0.20209129197E+02  0.20832521861E+02  0.54367088040E+02  0.40000008805E+02 0.  0.
         12    1    3    3    0    0  0.22657817361E+02 -0.20209129197E+02 -0.20832521861E+02  0.36820911960E+02  0.00000000000E+00 0. -1.
         11    1    4    4    0    0  0.17590587118E+00  0.48011891357E+01  0.16428892264E+02  0.17116975821E+02  0.51100000000E-03 0. -1.
        -11    1    4    4    0    0 -0.62911974128E+00 -0.37701961428E+01 -0.51322285692E+01  0.63992140886E+01  0.51100000000E-03 0.  1.
         12    1    4    4    0    0 -0.22204603491E+02  0.19178136204E+02  0.95358581663E+01  0.30850898130E+02  0.00000000000E+00 0. -1.
</event>
<event>
 8    1  0.2501893E-006  0.9118800E+02  0.7816164E-02  0.1184000E+00
        -11   -1    0    0    0    0  0.00000000000E+00  0.00000000000E+00  0.45593999997E+02  0.45594000000E+02  0.51100000000E-03 0.  1.
         11   -1    0    0    0    0 -0.00000000000E+00 -0.00000000000E+00 -0.45593999997E+02  0.45594000000E+02  0.51100000000E-03 0. -1.
         23    2    1    2    0    0  0.00000000000E+00  0.00000000000E+00 -0.26645352591E-14  0.91188000000E+02  0.91188000000E+02 0.  0.
    9900012    2    3    3    0    0  0.34124497294E+02  0.12302017527E+02 -0.63212771203E+01  0.54367088887E+02  0.40000010735E+02 0.  0.
        -12    1    3    3    0    0 -0.34124497294E+02 -0.12302017527E+02  0.63212771203E+01  0.36820911113E+02  0.00000000000E+00 0.  1.
         11    1    4    4    0    0  0.11832342661E+02  0.11199528779E+01 -0.19663675082E+02  0.22976482440E+02  0.51100000000E-03 0. -1.
        -11    1    4    4    0    0  0.99957700003E+00  0.53153210250E+00 -0.25335525010E+01  0.27749899264E+01  0.51100000000E-03 0.  1.
         12    1    4    4    0    0  0.21292577632E+02  0.10650532547E+02  0.15875950463E+02  0.28615616521E+02  0.00000000000E+00 0. -1.
</event>
<event>
 8    1  0.2501893E-006  0.9118800E+02  0.7816164E-02  0.1184000E+00
        -11   -1    0    0    0    0  0.00000000000E+00  0.00000000000E+00  0.45593999997E+02  0.45594000000E+02  0.51100000000E-03 0.  1.
         11   -1    0    0    0    0 -0.00000000000E+00 -0.00000000000E+00 -0.45593999997E+02  0.45594000000E+02  0.51100000000E-03 0. -1.
         23    2    1    2    0    0 -0.35527136788E-14  0.00000000000E+00 -0.44408920985E-15  0.91188000000E+02  0.91188000000E+02 0.  0.
    9900012    2    3    3    0    0  0.17140176194E+02 -0.32587138189E+02  0.26951333184E+00  0.54367084032E+02  0.39999999667E+02 0.  0.
        -12    1    3    3    0    0 -0.17140176194E+02  0.32587138189E+02 -0.26951333184E+00  0.36820915968E+02  0.00000000000E+00 0.  1.
         11    1    4    4    0    0  0.45272210672E+01 -0.19257190588E+02  0.45944080383E+01  0.20308710087E+02  0.51100000000E-03 0. -1.
        -11    1    4    4    0    0  0.11110306433E+02 -0.21601795712E+02  0.63001226036E+00  0.24299658490E+02  0.51100000000E-03 0.  1.
         12    1    4    4    0    0  0.15026486938E+01  0.82718481112E+01 -0.49549069668E+01  0.97587154544E+01  0.00000000000E+00 0. -1.
</event>
<event>
 8    1  0.2501893E-006  0.9118800E+02  0.7816164E-02  0.1184000E+00
        -11   -1    0    0    0    0  0.00000000000E+00  0.00000000000E+00  0.45593999997E+02  0.45594000000E+02  0.51100000000E-03 0.  1.
         11   -1    0    0    0    0 -0.00000000000E+00 -0.00000000000E+00 -0.45593999997E+02  0.45594000000E+02  0.51100000000E-03 0. -1.
         23    2    1    2    0    0  0.00000000000E+00  0.00000000000E+00 -0.88817841970E-15  0.91188000000E+02  0.91188000000E+02 0.  0.
    9900012    2    3    3    0    0  0.20884765842E+02  0.29884564773E+02 -0.51497918574E+01  0.54367068289E+02  0.39999963778E+02 0.  0.
        -12    1    3    3    0    0 -0.20884765842E+02 -0.29884564773E+02  0.51497918574E+01  0.36820931711E+02  0.00000000000E+00 0.  1.
         11    1    4    4    0    0 -0.40455983804E+01  0.84284159667E+01  0.41313150890E+01  0.10221194969E+02  0.51100000000E-03 0.  1.
        -11    1    4    4    0    0  0.21230020745E+02  0.10259002044E+02 -0.17846074534E+02  0.29570987138E+02  0.51100000000E-03 0. -1.
         12    1    4    4    0    0  0.37003434773E+01  0.11197146762E+02  0.85649675875E+01  0.14574886183E+02  0.00000000000E+00 0. -1.
</event>
<event>
 8    1  0.2501893E-006  0.9118800E+02  0.7816164E-02  0.1184000E+00
        -11   -1    0    0    0    0  0.00000000000E+00  0.00000000000E+00  0.45593999997E+02  0.45594000000E+02  0.51100000000E-03 0.  1.
         11   -1    0    0    0    0 -0.00000000000E+00 -0.00000000000E+00 -0.45593999997E+02  0.45594000000E+02  0.51100000000E-03 0. -1.
         23    2    1    2    0    0 -0.17763568394E-14  0.35527136788E-14  0.35527136788E-14  0.91188000000E+02  0.91188000000E+02 0.  0.
    9900012    2    3    3    0    0 -0.11070156283E+02  0.24947817700E+02  0.24715120613E+02  0.54367093506E+02  0.40000021266E+02 0.  0.
         12    1    3    3    0    0  0.11070156283E+02 -0.24947817700E+02 -0.24715120613E+02  0.36820906494E+02  0.00000000000E+00 0. -1.
         11    1    4    4    0    0  0.74031620589E+01 -0.47175255733E+00  0.45628456952E+01  0.87091285469E+01  0.51100000000E-03 0. -1.
        -11    1    4    4    0    0 -0.19314784943E+02  0.25342861514E+02  0.25147303203E+02  0.40591974647E+02  0.51100000000E-03 0.  1.
         12    1    4    4    0    0  0.84146660181E+00  0.76708742989E-01 -0.49950282849E+01  0.50659903119E+01  0.00000000000E+00 0. -1.
</event>
<event>
 8    1  0.2501893E-006  0.9118800E+02  0.7816164E-02  0.1184000E+00
        -11   -1    0    0    0    0  0.00000000000E+00  0.00000000000E+00  0.45593999997E+02  0.45594000000E+02  0.51100000000E-03 0. -1.
         11   -1    0    0    0    0 -0.00000000000E+00 -0.00000000000E+00 -0.45593999997E+02  0.45594000000E+02  0.51100000000E-03 0.  1.
         23    2    1    2    0    0  0.00000000000E+00 -0.15820678101E-14  0.00000000000E+00  0.91188000000E+02  0.91188000000E+02 0.  0.
    9900012    2    3    3    0    0  0.36364058439E+02  0.18024355215E+00  0.57794868063E+01  0.54367086084E+02  0.40000004345E+02 0.  0.
        -12    1    3    3    0    0 -0.36364058439E+02 -0.18024355215E+00 -0.57794868063E+01  0.36820913916E+02  0.00000000000E+00 0.  1.
         11    1    4    4    0    0  0.52111402887E+01  0.29956656180E+01  0.11226402072E+02  0.12734288333E+02  0.51100000000E-03 0. -1.
        -11    1    4    4    0    0  0.26303683075E+01  0.93201948088E+01 -0.43502736030E+01  0.10616484794E+02  0.51100000000E-03 0.  1.
        -12    1    4    4    0    0  0.28522549843E+02 -0.12135616875E+02 -0.10966416630E+01  0.31016312956E+02  0.00000000000E+00 0.  1.
</event>
<event>
 8    1  0.2501893E-006  0.9118800E+02  0.7816164E-02  0.1184000E+00
        -11   -1    0    0    0    0  0.00000000000E+00  0.00000000000E+00  0.45593999997E+02  0.45594000000E+02  0.51100000000E-03 0. -1.
         11   -1    0    0    0    0 -0.00000000000E+00 -0.00000000000E+00 -0.45593999997E+02  0.45594000000E+02  0.51100000000E-03 0.  1.
         23    2    1    2    0    0  0.71054273576E-14  0.17763568394E-14  0.00000000000E+00  0.91188000000E+02  0.91188000000E+02 0.  0.
    9900012    2    3    3    0    0  0.33899918914E+02  0.10329946669E+02 -0.99933178535E+01  0.54367099654E+02  0.40000035281E+02 0.  0.
         12    1    3    3    0    0 -0.33899918914E+02 -0.10329946669E+02  0.99933178535E+01  0.36820900346E+02  0.00000000000E+00 0. -1.
         11    1    4    4    0    0  0.47004196460E+01  0.56851699914E+01  0.34518448439E+01  0.81443437898E+01  0.51100000000E-03 0. -1.
        -11    1    4    4    0    0  0.33460613099E+01 -0.99182852320E+01  0.46648574795E+01  0.11459904179E+02  0.51100000000E-03 0.  1.
        -12    1    4    4    0    0  0.25853437958E+02  0.14563061910E+02 -0.18110020177E+02  0.34762851685E+02  0.00000000000E+00 0.  1.
</event>
<event>
 8    1  0.2501893E-006  0.9118800E+02  0.7816164E-02  0.1184000E+00
        -11   -1    0    0    0    0  0.00000000000E+00  0.00000000000E+00  0.45593999997E+02  0.45594000000E+02  0.51100000000E-03 0. -1.
         11   -1    0    0    0    0 -0.00000000000E+00 -0.00000000000E+00 -0.45593999997E+02  0.45594000000E+02  0.51100000000E-03 0.  1.
         23    2    1    2    0    0 -0.35527136788E-14 -0.17763568394E-14  0.00000000000E+00  0.91188000000E+02  0.91188000000E+02 0.  0.
    9900012    2    3    3    0    0 -0.21433169039E+02 -0.13611751483E+02  0.26666812092E+02  0.54367090442E+02  0.40000014282E+02 0.  0.
        -12    1    3    3    0    0  0.21433169039E+02  0.13611751483E+02 -0.26666812092E+02  0.36820909558E+02  0.00000000000E+00 0.  1.
         11    1    4    4    0    0 -0.11982849254E+02  0.93281406687E+01  0.92922525290E+01  0.17803057094E+02  0.51100000000E-03 0. -1.
        -11    1    4    4    0    0 -0.27322108462E+01  0.30193422497E+01  0.64108851235E+01  0.75947911135E+01  0.51100000000E-03 0.  1.
        -12    1    4    4    0    0 -0.67181089392E+01 -0.25959234402E+02  0.10963674439E+02  0.28969242235E+02  0.00000000000E+00 0.  1.
</event>
<event>
 8    1  0.2501893E-006  0.9118800E+02  0.7816164E-02  0.1184000E+00
        -11   -1    0    0    0    0  0.00000000000E+00  0.00000000000E+00  0.45593999997E+02  0.45594000000E+02  0.51100000000E-03 0.  1.
         11   -1    0    0    0    0 -0.00000000000E+00 -0.00000000000E+00 -0.45593999997E+02  0.45594000000E+02  0.51100000000E-03 0. -1.
         23    2    1    2    0    0  0.35527136788E-14  0.17763568394E-14  0.00000000000E+00  0.91188000000E+02  0.91188000000E+02 0.  0.
    9900012    2    3    3    0    0 -0.23933388423E+02  0.14596115594E+02 -0.23873120493E+02  0.54367088089E+02  0.40000008916E+02 0.  0.
        -12    1    3    3    0    0  0.23933388423E+02 -0.14596115594E+02  0.23873120493E+02  0.36820911911E+02  0.00000000000E+00 0.  1.
         11    1    4    4    0    0 -0.96213118751E+01 -0.23542109979E+01 -0.17812118143E+02  0.20380959365E+02  0.51100000000E-03 0. -1.
        -11    1    4    4    0    0 -0.18783905723E+01  0.10073895261E+02 -0.14276407369E+02  0.17573489253E+02  0.51100000000E-03 0.  1.
        -12    1    4    4    0    0 -0.12433685976E+02  0.68764313308E+01  0.82154050191E+01  0.16412639472E+02  0.00000000000E+00 0.  1.
</event>
<event>
 8    1  0.2501893E-006  0.9118800E+02  0.7816164E-02  0.1184000E+00
        -11   -1    0    0    0    0  0.00000000000E+00  0.00000000000E+00  0.45593999997E+02  0.45594000000E+02  0.51100000000E-03 0. -1.
         11   -1    0    0    0    0 -0.00000000000E+00 -0.00000000000E+00 -0.45593999997E+02  0.45594000000E+02  0.51100000000E-03 0.  1.
         23    2    1    2    0    0  0.35527136788E-14  0.71054273576E-14  0.00000000000E+00  0.91188000000E+02  0.91188000000E+02 0.  0.
    9900012    2    3    3    0    0 -0.97362674884E+01 -0.30415061625E+02 -0.18327846564E+02  0.54367070654E+02  0.39999969169E+02 0.  0.
         12    1    3    3    0    0  0.97362674884E+01  0.30415061625E+02  0.18327846564E+02  0.36820929346E+02  0.00000000000E+00 0. -1.
         11    1    4    4    0    0 -0.55932588198E+01 -0.27899652253E+02  0.53402415313E+01  0.28951568523E+02  0.51100000000E-03 0. -1.
        -11    1    4    4    0    0  0.12648973115E+01 -0.67915215748E+00 -0.44887854540E+00  0.15042290621E+01  0.51100000000E-03 0.  1.
        -12    1    4    4    0    0 -0.54079059801E+01 -0.18362572143E+01 -0.23219209550E+02  0.23911273069E+02  0.00000000000E+00 0.  1.
</event>
<event>
 8    1  0.2501893E-006  0.9118800E+02  0.7816164E-02  0.1184000E+00
        -11   -1    0    0    0    0  0.00000000000E+00  0.00000000000E+00  0.45593999997E+02  0.45594000000E+02  0.51100000000E-03 0.  1.
         11   -1    0    0    0    0 -0.00000000000E+00 -0.00000000000E+00 -0.45593999997E+02  0.45594000000E+02  0.51100000000E-03 0. -1.
         23    2    1    2    0    0  0.35527136788E-14  0.00000000000E+00  0.00000000000E+00  0.91188000000E+02  0.91188000000E+02 0.  0.
    9900012    2    3    3    0    0 -0.66479298924E+01 -0.35521513516E+02  0.70574885695E+01  0.54367067920E+02  0.39999962938E+02 0.  0.
        -12    1    3    3    0    0  0.66479298924E+01  0.35521513516E+02 -0.70574885695E+01  0.36820932080E+02  0.00000000000E+00 0.  1.
         11    1    4    4    0    0  0.39304555030E+01 -0.10394064194E+02 -0.94641802372E+01  0.14596429658E+02  0.51100000000E-03 0. -1.
        -11    1    4    4    0    0 -0.14009426169E+01  0.28261871933E+01  0.88063497563E+01  0.93542381068E+01  0.51100000000E-03 0.  1.
         12    1    4    4    0    0 -0.91774427784E+01 -0.27953636515E+02  0.77153190505E+01  0.30416400155E+02  0.00000000000E+00 0. -1.
</event>
<event>
 8    1  0.2501893E-006  0.9118800E+02  0.7816164E-02  0.1184000E+00
        -11   -1    0    0    0    0  0.00000000000E+00  0.00000000000E+00  0.45593999997E+02  0.45594000000E+02  0.51100000000E-03 0.  1.
         11   -1    0    0    0    0 -0.00000000000E+00 -0.00000000000E+00 -0.45593999997E+02  0.45594000000E+02  0.51100000000E-03 0. -1.
         23    2    1    2    0    0 -0.17763568394E-14  0.00000000000E+00  0.00000000000E+00  0.91188000000E+02  0.91188000000E+02 0.  0.
    9900012    2    3    3    0    0  0.12935220432E+02 -0.64149135284E+01 -0.33871938247E+02  0.54367092301E+02  0.40000018518E+02 0.  0.
        -12    1    3    3    0    0 -0.12935220432E+02  0.64149135284E+01  0.33871938247E+02  0.36820907699E+02  0.00000000000E+00 0.  1.
         11    1    4    4    0    0  0.21374814837E+02 -0.95728879454E+01 -0.63067581949E+01  0.24254857083E+02  0.51100000000E-03 0.  1.
        -11    1    4    4    0    0 -0.99939153049E+01  0.33356707377E+01 -0.24551557745E+02  0.26716736896E+02  0.51100000000E-03 0. -1.
         12    1    4    4    0    0  0.15543208994E+01 -0.17769632062E+00 -0.30136223069E+01  0.33954983213E+01  0.00000000000E+00 0. -1.
</event>
<event>
 8    1  0.2501893E-006  0.9118800E+02  0.7816164E-02  0.1184000E+00
        -11   -1    0    0    0    0  0.00000000000E+00  0.00000000000E+00  0.45593999997E+02  0.45594000000E+02  0.51100000000E-03 0. -1.
         11   -1    0    0    0    0 -0.00000000000E+00 -0.00000000000E+00 -0.45593999997E+02  0.45594000000E+02  0.51100000000E-03 0.  1.
         23    2    1    2    0    0  0.00000000000E+00  0.00000000000E+00  0.00000000000E+00  0.91188000000E+02  0.91188000000E+02 0.  0.
    9900012    2    3    3    0    0  0.18139226982E+02  0.30462276944E+02 -0.99397248203E+01  0.54367082010E+02  0.39999995058E+02 0.  0.
         12    1    3    3    0    0 -0.18139226982E+02 -0.30462276944E+02  0.99397248203E+01  0.36820917990E+02  0.00000000000E+00 0. -1.
         11    1    4    4    0    0  0.11892413754E+02  0.18427639994E+02 -0.66836687595E+00  0.21942063148E+02  0.51100000000E-03 0.  1.
        -11    1    4    4    0    0  0.15061745437E+02  0.88935342543E+01  0.21907058990E+01  0.17628111633E+02  0.51100000000E-03 0. -1.
         12    1    4    4    0    0 -0.88149322090E+01  0.31411026960E+01 -0.11462063843E+02  0.14796907229E+02  0.00000000000E+00 0. -1.
</event>
<event>
 8    1  0.2501893E-006  0.9118800E+02  0.7816164E-02  0.1184000E+00
        -11   -1    0    0    0    0  0.00000000000E+00  0.00000000000E+00  0.45593999997E+02  0.45594000000E+02  0.51100000000E-03 0.  1.
         11   -1    0    0    0    0 -0.00000000000E+00 -0.00000000000E+00 -0.45593999997E+02  0.45594000000E+02  0.51100000000E-03 0. -1.
         23    2    1    2    0    0  0.17763568394E-14  0.00000000000E+00 -0.35527136788E-14  0.91188000000E+02  0.91188000000E+02 0.  0.
    9900012    2    3    3    0    0  0.14123404943E+02  0.23532787301E+02 -0.24546223877E+02  0.54367085401E+02  0.40000002788E+02 0.  0.
        -12    1    3    3    0    0 -0.14123404943E+02 -0.23532787301E+02  0.24546223877E+02  0.36820914599E+02  0.00000000000E+00 0.  1.
         11    1    4    4    0    0 -0.14455673348E+01  0.81270025083E+01 -0.40317891816E+01  0.91865749306E+01  0.51100000000E-03 0. -1.
        -11    1    4    4    0    0 -0.11686107734E+01  0.27260847517E+01  0.87062455190E+01  0.91976029764E+01  0.51100000000E-03 0.  1.
         12    1    4    4    0    0  0.16737583051E+02  0.12679700041E+02 -0.29220680214E+02  0.35982907494E+02  0.00000000000E+00 0. -1.
</event>
<event>
 8    1  0.2501893E-006  0.9118800E+02  0.7816164E-02  0.1184000E+00
        -11   -1    0    0    0    0  0.00000000000E+00  0.00000000000E+00  0.45593999997E+02  0.45594000000E+02  0.51100000000E-03 0.  1.
         11   -1    0    0    0    0 -0.00000000000E+00 -0.00000000000E+00 -0.45593999997E+02  0.45594000000E+02  0.51100000000E-03 0. -1.
         23    2    1    2    0    0  0.35527136788E-14 -0.35527136788E-14  0.00000000000E+00  0.91188000000E+02  0.91188000000E+02 0.  0.
    9900012    2    3    3    0    0  0.26122726868E+02  0.20024091318E+02  0.16505077707E+02  0.54367099926E+02  0.40000035901E+02 0.  0.
         12    1    3    3    0    0 -0.26122726868E+02 -0.20024091318E+02 -0.16505077707E+02  0.36820900074E+02  0.00000000000E+00 0. -1.
         11    1    4    4    0    0 -0.36968533883E+01  0.14591213828E+01  0.16263769365E+01  0.42942825227E+01  0.51100000000E-03 0. -1.
        -11    1    4    4    0    0  0.29612213400E+02  0.67432414375E+01  0.20838622260E+02  0.36832087444E+02  0.51100000000E-03 0.  1.
        -12    1    4    4    0    0  0.20736685646E+00  0.11821728498E+02 -0.59599214890E+01  0.13240729959E+02  0.00000000000E+00 0.  1.
</event>
<event>
 8    1  0.2501893E-006  0.9118800E+02  0.7816164E-02  0.1184000E+00
        -11   -1    0    0    0    0  0.00000000000E+00  0.00000000000E+00  0.45593999997E+02  0.45594000000E+02  0.51100000000E-03 0. -1.
         11   -1    0    0    0    0 -0.00000000000E+00 -0.00000000000E+00 -0.45593999997E+02  0.45594000000E+02  0.51100000000E-03 0.  1.
         23    2    1    2    0    0 -0.66613381478E-15 -0.35527136788E-14  0.35527136788E-14  0.91188000000E+02  0.91188000000E+02 0.  0.
    9900012    2    3    3    0    0 -0.15134659342E+01  0.28112960855E+02 -0.23730812279E+02  0.54367073904E+02  0.39999976578E+02 0.  0.
         12    1    3    3    0    0  0.15134659342E+01 -0.28112960855E+02  0.23730812279E+02  0.36820926096E+02  0.00000000000E+00 0. -1.
         11    1    4    4    0    0 -0.89244714129E+01  0.33056814288E+02 -0.23217864656E+02  0.41369897272E+02  0.51100000000E-03 0.  1.
        -11    1    4    4    0    0  0.27934735266E+00  0.21332812937E+01  0.16602799833E+01  0.27176191612E+01  0.51100000000E-03 0. -1.
        -12    1    4    4    0    0  0.71316581260E+01 -0.70771347261E+01 -0.21732276056E+01  0.10279557470E+02  0.00000000000E+00 0.  1.
</event>
<event>
 8    1  0.2501893E-006  0.9118800E+02  0.7816164E-02  0.1184000E+00
        -11   -1    0    0    0    0  0.00000000000E+00  0.00000000000E+00  0.45593999997E+02  0.45594000000E+02  0.51100000000E-03 0. -1.
         11   -1    0    0    0    0 -0.00000000000E+00 -0.00000000000E+00 -0.45593999997E+02  0.45594000000E+02  0.51100000000E-03 0.  1.
         23    2    1    2    0    0  0.00000000000E+00  0.00000000000E+00 -0.71054273576E-14  0.91188000000E+02  0.91188000000E+02 0.  0.
    9900012    2    3    3    0    0  0.59535390939E+01  0.12479665640E+02 -0.34126138541E+02  0.54367081843E+02  0.39999994676E+02 0.  0.
         12    1    3    3    0    0 -0.59535390939E+01 -0.12479665640E+02  0.34126138541E+02  0.36820918157E+02  0.00000000000E+00 0. -1.
         11    1    4    4    0    0  0.31400866817E+01 -0.13205539210E+02 -0.95170336686E+01  0.16577706123E+02  0.51100000000E-03 0. -1.
        -11    1    4    4    0    0  0.55576409074E+01  0.24236684202E+02 -0.24130853796E+02  0.34649709072E+02  0.51100000000E-03 0.  1.
         12    1    4    4    0    0 -0.27441884952E+01  0.14485206481E+01 -0.47825107673E+00  0.31396666475E+01  0.00000000000E+00 0. -1.
</event>
<event>
 8    1  0.2501893E-006  0.9118800E+02  0.7816164E-02  0.1184000E+00
        -11   -1    0    0    0    0  0.00000000000E+00  0.00000000000E+00  0.45593999997E+02  0.45594000000E+02  0.51100000000E-03 0.  1.
         11   -1    0    0    0    0 -0.00000000000E+00 -0.00000000000E+00 -0.45593999997E+02  0.45594000000E+02  0.51100000000E-03 0. -1.
         23    2    1    2    0    0 -0.35527136788E-14  0.17763568394E-14  0.00000000000E+00  0.91188000000E+02  0.91188000000E+02 0.  0.
    9900012    2    3    3    0    0  0.30768535264E+02 -0.15726829975E+02  0.12717860630E+02  0.54367083087E+02  0.39999997512E+02 0.  0.
         12    1    3    3    0    0 -0.30768535264E+02  0.15726829975E+02 -0.12717860630E+02  0.36820916913E+02  0.00000000000E+00 0. -1.
         11    1    4    4    0    0 -0.65077107844E+01  0.20053127370E+01 -0.55403880683E+00  0.68321693543E+01  0.51100000000E-03 0. -1.
        -11    1    4    4    0    0  0.10633760336E+02 -0.15649672586E+02  0.54323812695E+01  0.19685016572E+02  0.51100000000E-03 0.  1.
         12    1    4    4    0    0  0.26642485711E+02 -0.20824701263E+01  0.78395181675E+01  0.27849897160E+02  0.00000000000E+00 0. -1.
</event>
<event>
 8    1  0.2501893E-006  0.9118800E+02  0.7816164E-02  0.1184000E+00
        -11   -1    0    0    0    0  0.00000000000E+00  0.00000000000E+00  0.45593999997E+02  0.45594000000E+02  0.51100000000E-03 0.  1.
         11   -1    0    0    0    0 -0.00000000000E+00 -0.00000000000E+00 -0.45593999997E+02  0.45594000000E+02  0.51100000000E-03 0. -1.
         23    2    1    2    0    0 -0.35527136788E-14  0.17763568394E-14  0.00000000000E+00  0.91188000000E+02  0.91188000000E+02 0.  0.
    9900012    2    3    3    0    0  0.28842518434E+02 -0.54323536492E+01 -0.22234675265E+02  0.54367053245E+02  0.39999929484E+02 0.  0.
        -12    1    3    3    0    0 -0.28842518434E+02  0.54323536492E+01  0.22234675265E+02  0.36820946755E+02  0.00000000000E+00 0.  1.
         11    1    4    4    0    0  0.54069370923E+01 -0.56266862910E+01 -0.97236610427E+00  0.78638453341E+01  0.51100000000E-03 0.  1.
        -11    1    4    4    0    0  0.27854356162E+02 -0.93531790393E+01 -0.20748682022E+02  0.35970194902E+02  0.51100000000E-03 0. -1.
         12    1    4    4    0    0 -0.44187748210E+01  0.95475116811E+01 -0.51362713835E+00  0.10533013009E+02  0.00000000000E+00 0. -1.
</event>
<event>
 8    1  0.2501893E-006  0.9118800E+02  0.7816164E-02  0.1184000E+00
        -11   -1    0    0    0    0  0.00000000000E+00  0.00000000000E+00  0.45593999997E+02  0.45594000000E+02  0.51100000000E-03 0. -1.
         11   -1    0    0    0    0 -0.00000000000E+00 -0.00000000000E+00 -0.45593999997E+02  0.45594000000E+02  0.51100000000E-03 0.  1.
         23    2    1    2    0    0  0.00000000000E+00  0.35527136788E-14  0.00000000000E+00  0.91188000000E+02  0.91188000000E+02 0.  0.
    9900012    2    3    3    0    0 -0.12698004061E+02 -0.30225134622E+02  0.16762498325E+02  0.54367089906E+02  0.40000013058E+02 0.  0.
        -12    1    3    3    0    0  0.12698004061E+02  0.30225134622E+02 -0.16762498325E+02  0.36820910094E+02  0.00000000000E+00 0.  1.
         11    1    4    4    0    0 -0.10612219406E+02 -0.26207861295E+02  0.17061757111E+01  0.28326352222E+02  0.51100000000E-03 0. -1.
        -11    1    4    4    0    0 -0.73300280538E+01  0.53038168373E+01  0.21884971464E+01  0.93085608090E+01  0.51100000000E-03 0.  1.
         12    1    4    4    0    0  0.52442433993E+01 -0.93210901643E+01  0.12867825468E+02  0.16732176874E+02  0.00000000000E+00 0. -1.
</event>
<event>
 8    1  0.2501893E-006  0.9118800E+02  0.7816164E-02  0.1184000E+00
        -11   -1    0    0    0    0  0.00000000000E+00  0.00000000000E+00  0.45593999997E+02  0.45594000000E+02  0.51100000000E-03 0. -1.
         11   -1    0    0    0    0 -0.00000000000E+00 -0.00000000000E+00 -0.45593999997E+02  0.45594000000E+02  0.51100000000E-03 0.  1.
         23    2    1    2    0    0 -0.17763568394E-14 -0.88817841970E-15 -0.71054273576E-14  0.91188000000E+02  0.91188000000E+02 0.  0.
    9900012    2    3    3    0    0  0.14185969058E+02 -0.47056770599E+01  0.33651068470E+02  0.54367088497E+02  0.40000009847E+02 0.  0.
        -12    1    3    3    0    0 -0.14185969058E+02  0.47056770599E+01 -0.33651068470E+02  0.36820911503E+02  0.00000000000E+00 0.  1.
         11    1    4    4    0    0  0.75273781992E+01  0.13667364562E+02  0.76260610588E+01  0.17367068957E+02  0.51100000000E-03 0. -1.
        -11    1    4    4    0    0  0.48916722012E+00  0.14267265698E+00 -0.24368616748E+01  0.24895652511E+01  0.51100000000E-03 0.  1.
         12    1    4    4    0    0  0.61694236387E+01 -0.18515714279E+02  0.28461869086E+02  0.34510454289E+02  0.00000000000E+00 0. -1.
</event>
<event>
 8    1  0.2501893E-006  0.9118800E+02  0.7816164E-02  0.1184000E+00
        -11   -1    0    0    0    0  0.00000000000E+00  0.00000000000E+00  0.45593999997E+02  0.45594000000E+02  0.51100000000E-03 0.  1.
         11   -1    0    0    0    0 -0.00000000000E+00 -0.00000000000E+00 -0.45593999997E+02  0.45594000000E+02  0.51100000000E-03 0. -1.
         23    2    1    2    0    0  0.00000000000E+00  0.00000000000E+00  0.35527136788E-14  0.91188000000E+02  0.91188000000E+02 0.  0.
    9900012    2    3    3    0    0  0.85513988580E+01  0.24647098291E+02  0.25984109741E+02  0.54367084264E+02  0.40000000197E+02 0.  0.
         12    1    3    3    0    0 -0.85513988580E+01 -0.24647098291E+02 -0.25984109741E+02  0.36820915736E+02  0.00000000000E+00 0. -1.
         11    1    4    4    0    0  0.62816127370E+01 -0.17709243794E+00  0.59708495119E+01  0.86683945725E+01  0.51100000000E-03 0. -1.
        -11    1    4    4    0    0  0.32651329622E+01  0.19741279687E+02  0.29055019566E+02  0.35278511579E+02  0.51100000000E-03 0.  1.
        -12    1    4    4    0    0 -0.99534684124E+00  0.50829110417E+01 -0.90417593372E+01  0.10420178113E+02  0.00000000000E+00 0.  1.
</event>
<event>
 8    1  0.2501893E-006  0.9118800E+02  0.7816164E-02  0.1184000E+00
        -11   -1    0    0    0    0  0.00000000000E+00  0.00000000000E+00  0.45593999997E+02  0.45594000000E+02  0.51100000000E-03 0.  1.
         11   -1    0    0    0    0 -0.00000000000E+00 -0.00000000000E+00 -0.45593999997E+02  0.45594000000E+02  0.51100000000E-03 0. -1.
         23    2    1    2    0    0  0.00000000000E+00  0.00000000000E+00  0.33306690739E-15  0.91188000000E+02  0.91188000000E+02 0.  0.
    9900012    2    3    3    0    0 -0.14988889277E+02  0.33624056253E+02 -0.72993615082E+00  0.54367125928E+02  0.40000095178E+02 0.  0.
        -12    1    3    3    0    0  0.14988889277E+02 -0.33624056253E+02  0.72993615082E+00  0.36820874072E+02  0.00000000000E+00 0.  1.
         11    1    4    4    0    0  0.74538282008E+01  0.20052077052E+02  0.49421304285E+00  0.21398354978E+02  0.51100000000E-03 0. -1.
        -11    1    4    4    0    0 -0.18397158124E+02  0.10111003016E+02 -0.95686756471E+01  0.23070486838E+02  0.51100000000E-03 0.  1.
        -12    1    4    4    0    0 -0.40455593543E+01  0.34609761846E+01  0.83445264534E+01  0.98982841125E+01  0.00000000000E+00 0.  1.
</event>
<event>
 8    1  0.2501893E-006  0.9118800E+02  0.7816164E-02  0.1184000E+00
        -11   -1    0    0    0    0  0.00000000000E+00  0.00000000000E+00  0.45593999997E+02  0.45594000000E+02  0.51100000000E-03 0.  1.
         11   -1    0    0    0    0 -0.00000000000E+00 -0.00000000000E+00 -0.45593999997E+02  0.45594000000E+02  0.51100000000E-03 0. -1.
         23    2    1    2    0    0  0.00000000000E+00  0.88817841970E-15  0.00000000000E+00  0.91188000000E+02  0.91188000000E+02 0.  0.
    9900012    2    3    3    0    0  0.33304696326E+02  0.42001112275E+01  0.15130659864E+02  0.54367073890E+02  0.39999976547E+02 0.  0.
         12    1    3    3    0    0 -0.33304696326E+02 -0.42001112275E+01 -0.15130659864E+02  0.36820926110E+02  0.00000000000E+00 0. -1.
         11    1    4    4    0    0  0.26700395575E+02  0.10500322727E+02 -0.64679889131E+01  0.29410929636E+02  0.51100000000E-03 0. -1.
        -11    1    4    4    0    0  0.56907879846E+01 -0.56156949515E+01  0.80019128415E+01  0.11311574031E+02  0.51100000000E-03 0.  1.
         12    1    4    4    0    0  0.91351276659E+00 -0.68451654786E+00  0.13596735935E+02  0.13644570223E+02  0.00000000000E+00 0. -1.
</event>
<event>
 8    1  0.2501893E-006  0.9118800E+02  0.7816164E-02  0.1184000E+00
        -11   -1    0    0    0    0  0.00000000000E+00  0.00000000000E+00  0.45593999997E+02  0.45594000000E+02  0.51100000000E-03 0.  1.
         11   -1    0    0    0    0 -0.00000000000E+00 -0.00000000000E+00 -0.45593999997E+02  0.45594000000E+02  0.51100000000E-03 0. -1.
         23    2    1    2    0    0  0.00000000000E+00  0.00000000000E+00 -0.35527136788E-14  0.91188000000E+02  0.91188000000E+02 0.  0.
    9900012    2    3    3    0    0  0.19264199069E+02  0.16311214178E+02 -0.26806983298E+02  0.54367089809E+02  0.40000012839E+02 0.  0.
        -12    1    3    3    0    0 -0.19264199069E+02 -0.16311214178E+02  0.26806983298E+02  0.36820910191E+02  0.00000000000E+00 0.  1.
         11    1    4    4    0    0  0.15215860953E+02  0.15122911842E+01 -0.10424807173E+02  0.18506378739E+02  0.51100000000E-03 0. -1.
        -11    1    4    4    0    0 -0.33376464134E+01 -0.57953894502E+01 -0.11715283132E+02  0.13489784341E+02  0.51100000000E-03 0.  1.
         12    1    4    4    0    0  0.73859845293E+01  0.20594312444E+02 -0.46668929929E+01  0.22370926729E+02  0.00000000000E+00 0. -1.
</event>
<event>
 8    1  0.2501893E-006  0.9118800E+02  0.7816164E-02  0.1184000E+00
        -11   -1    0    0    0    0  0.00000000000E+00  0.00000000000E+00  0.45593999997E+02  0.45594000000E+02  0.51100000000E-03 0. -1.
         11   -1    0    0    0    0 -0.00000000000E+00 -0.00000000000E+00 -0.45593999997E+02  0.45594000000E+02  0.51100000000E-03 0.  1.
         23    2    1    2    0    0 -0.35527136788E-14  0.00000000000E+00 -0.88817841970E-15  0.91188000000E+02  0.91188000000E+02 0.  0.
    9900012    2    3    3    0    0 -0.26122229742E+02 -0.25125237946E+02 -0.64909518866E+01  0.54367069472E+02  0.39999966476E+02 0.  0.
        -12    1    3    3    0    0  0.26122229742E+02  0.25125237946E+02  0.64909518866E+01  0.36820930528E+02  0.00000000000E+00 0.  1.
         11    1    4    4    0    0 -0.85115013243E+00 -0.15259243113E+02 -0.14843921837E+02  0.21305186521E+02  0.51100000000E-03 0. -1.
        -11    1    4    4    0    0 -0.31422835267E+01 -0.68664023561E+01 -0.28586710559E+01  0.80742447043E+01  0.51100000000E-03 0.  1.
         12    1    4    4    0    0 -0.22128796083E+02 -0.29995924772E+01  0.11211641007E+02  0.24987638247E+02  0.00000000000E+00 0. -1.
</event>
<event>
 8    1  0.2501893E-006  0.9118800E+02  0.7816164E-02  0.1184000E+00
        -11   -1    0    0    0    0  0.00000000000E+00  0.00000000000E+00  0.45593999997E+02  0.45594000000E+02  0.51100000000E-03 0. -1.
         11   -1    0    0    0    0 -0.00000000000E+00 -0.00000000000E+00 -0.45593999997E+02  0.45594000000E+02  0.51100000000E-03 0.  1.
         23    2    1    2    0    0  0.00000000000E+00 -0.17763568394E-14 -0.35527136788E-14  0.91188000000E+02  0.91188000000E+02 0.  0.
    9900012    2    3    3    0    0 -0.22311574353E+02  0.90964415059E+01 -0.27842921135E+02  0.54367083994E+02  0.39999999580E+02 0.  0.
         12    1    3    3    0    0  0.22311574353E+02 -0.90964415059E+01  0.27842921135E+02  0.36820916006E+02  0.00000000000E+00 0. -1.
         11    1    4    4    0    0 -0.13475178174E+02 -0.12984559232E+01 -0.12100172755E+02  0.18157108678E+02  0.51100000000E-03 0. -1.
        -11    1    4    4    0    0 -0.15348580024E+02  0.13325474657E+02 -0.16274786552E+01  0.20391073308E+02  0.51100000000E-03 0.  1.
         12    1    4    4    0    0  0.65121838443E+01 -0.29305772283E+01 -0.14115269726E+02  0.15818902008E+02  0.00000000000E+00 0. -1.
</event>
<event>
 8    1  0.2501893E-006  0.9118800E+02  0.7816164E-02  0.1184000E+00
        -11   -1    0    0    0    0  0.00000000000E+00  0.00000000000E+00  0.45593999997E+02  0.45594000000E+02  0.51100000000E-03 0.  1.
         11   -1    0    0    0    0 -0.00000000000E+00 -0.00000000000E+00 -0.45593999997E+02  0.45594000000E+02  0.51100000000E-03 0. -1.
         23    2    1    2    0    0  0.22204460493E-15  0.35527136788E-14  0.71054273576E-14  0.91188000000E+02  0.91188000000E+02 0.  0.
    9900012    2    3    3    0    0  0.18030073369E+01  0.14135132865E+02  0.33951908465E+02  0.54367015426E+02  0.39999843267E+02 0.  0.
         12    1    3    3    0    0 -0.18030073369E+01 -0.14135132865E+02 -0.33951908465E+02  0.36820984574E+02  0.00000000000E+00 0. -1.
         11    1    4    4    0    0  0.19711653099E+01  0.52338712753E+01 -0.18205259805E+01  0.58815998089E+01  0.51100000000E-03 0. -1.
        -11    1    4    4    0    0  0.13162184970E+02  0.12442549570E+02  0.25544481720E+02  0.31314225196E+02  0.51100000000E-03 0.  1.
         12    1    4    4    0    0 -0.13330342943E+02 -0.35412879805E+01  0.10227952725E+02  0.17171190422E+02  0.00000000000E+00 0. -1.
</event>
<event>
 8    1  0.2501893E-006  0.9118800E+02  0.7816164E-02  0.1184000E+00
        -11   -1    0    0    0    0  0.00000000000E+00  0.00000000000E+00  0.45593999997E+02  0.45594000000E+02  0.51100000000E-03 0.  1.
         11   -1    0    0    0    0 -0.00000000000E+00 -0.00000000000E+00 -0.45593999997E+02  0.45594000000E+02  0.51100000000E-03 0. -1.
         23    2    1    2    0    0 -0.17763568394E-14  0.71054273576E-14 -0.35527136788E-14  0.91188000000E+02  0.91188000000E+02 0.  0.
    9900012    2    3    3    0    0  0.14585373259E+02 -0.16582674591E+02  0.29462859025E+02  0.54367105502E+02  0.40000048612E+02 0.  0.
         12    1    3    3    0    0 -0.14585373259E+02  0.16582674591E+02 -0.29462859025E+02  0.36820894498E+02  0.00000000000E+00 0. -1.
         11    1    4    4    0    0  0.18472857826E+02  0.15277951796E-01  0.18066624794E+02  0.25838917186E+02  0.51100000000E-03 0. -1.
        -11    1    4    4    0    0  0.48637402902E+01 -0.16681558252E+02  0.81676471953E+01  0.19200021258E+02  0.51100000000E-03 0.  1.
         12    1    4    4    0    0 -0.87512248564E+01  0.83605709527E-01  0.32285870361E+01  0.93281670574E+01  0.00000000000E+00 0. -1.
</event>
<event>
 8    1  0.2501893E-006  0.9118800E+02  0.7816164E-02  0.1184000E+00
        -11   -1    0    0    0    0  0.00000000000E+00  0.00000000000E+00  0.45593999997E+02  0.45594000000E+02  0.51100000000E-03 0.  1.
         11   -1    0    0    0    0 -0.00000000000E+00 -0.00000000000E+00 -0.45593999997E+02  0.45594000000E+02  0.51100000000E-03 0. -1.
         23    2    1    2    0    0  0.00000000000E+00 -0.88817841970E-15 -0.71054273576E-14  0.91188000000E+02  0.91188000000E+02 0.  0.
    9900012    2    3    3    0    0 -0.11805781206E+02  0.46500068705E+01  0.34565614404E+02  0.54367072080E+02  0.39999972421E+02 0.  0.
         12    1    3    3    0    0  0.11805781206E+02 -0.46500068705E+01 -0.34565614404E+02  0.36820927920E+02  0.00000000000E+00 0. -1.
         11    1    4    4    0    0 -0.69452548874E+00 -0.55728493625E+01 -0.52164005936E+01  0.76648451443E+01  0.51100000000E-03 0. -1.
        -11    1    4    4    0    0 -0.13250443671E+02  0.77207547391E+01  0.40523140300E+02  0.43327926460E+02  0.51100000000E-03 0.  1.
         12    1    4    4    0    0  0.21391879541E+01  0.25021014939E+01 -0.74112530304E+00  0.33743004762E+01  0.00000000000E+00 0. -1.
</event>
<event>
 8    1  0.2501893E-006  0.9118800E+02  0.7816164E-02  0.1184000E+00
        -11   -1    0    0    0    0  0.00000000000E+00  0.00000000000E+00  0.45593999997E+02  0.45594000000E+02  0.51100000000E-03 0. -1.
         11   -1    0    0    0    0 -0.00000000000E+00 -0.00000000000E+00 -0.45593999997E+02  0.45594000000E+02  0.51100000000E-03 0.  1.
         23    2    1    2    0    0  0.00000000000E+00  0.00000000000E+00  0.35527136788E-14  0.91188000000E+02  0.91188000000E+02 0.  0.
    9900012    2    3    3    0    0  0.30620405066E+02  0.20713229187E+01  0.20344004467E+02  0.54367107795E+02  0.40000053840E+02 0.  0.
        -12    1    3    3    0    0 -0.30620405066E+02 -0.20713229187E+01 -0.20344004467E+02  0.36820892205E+02  0.00000000000E+00 0.  1.
         11    1    4    4    0    0  0.49409999972E+01  0.60313054389E+00  0.16771755467E+02  0.17494828639E+02  0.51100000000E-03 0. -1.
        -11    1    4    4    0    0  0.27091824863E+02  0.14713295572E+01 -0.55060155069E+01  0.27684797130E+02  0.51100000000E-03 0.  1.
        -12    1    4    4    0    0 -0.14124197944E+01 -0.31371823132E-02  0.90782645070E+01  0.91874820259E+01  0.00000000000E+00 0.  1.
</event>
<event>
 8    1  0.2501893E-006  0.9118800E+02  0.7816164E-02  0.1184000E+00
        -11   -1    0    0    0    0  0.00000000000E+00  0.00000000000E+00  0.45593999997E+02  0.45594000000E+02  0.51100000000E-03 0.  1.
         11   -1    0    0    0    0 -0.00000000000E+00 -0.00000000000E+00 -0.45593999997E+02  0.45594000000E+02  0.51100000000E-03 0. -1.
         23    2    1    2    0    0  0.00000000000E+00  0.00000000000E+00  0.88817841970E-15  0.91188000000E+02  0.91188000000E+02 0.  0.
    9900012    2    3    3    0    0 -0.14172016439E+02  0.33936010766E+02  0.18115055143E+01  0.54367076208E+02  0.39999981832E+02 0.  0.
        -12    1    3    3    0    0  0.14172016439E+02 -0.33936010766E+02 -0.18115055143E+01  0.36820923792E+02  0.00000000000E+00 0.  1.
         11    1    4    4    0    0 -0.13515327882E+02  0.14904395381E+02 -0.58835897204E+01  0.20962388168E+02  0.51100000000E-03 0. -1.
        -11    1    4    4    0    0 -0.12212254567E+02  0.67916273535E+01  0.88361775115E+01  0.16533100042E+02  0.51100000000E-03 0.  1.
        -12    1    4    4    0    0  0.11555566010E+02  0.12239988032E+02 -0.11410822768E+01  0.16871587999E+02  0.00000000000E+00 0.  1.
</event>
<event>
 8    1  0.2501893E-006  0.9118800E+02  0.7816164E-02  0.1184000E+00
        -11   -1    0    0    0    0  0.00000000000E+00  0.00000000000E+00  0.45593999997E+02  0.45594000000E+02  0.51100000000E-03 0. -1.
         11   -1    0    0    0    0 -0.00000000000E+00 -0.00000000000E+00 -0.45593999997E+02  0.45594000000E+02  0.51100000000E-03 0.  1.
         23    2    1    2    0    0  0.35527136788E-14  0.00000000000E+00  0.00000000000E+00  0.91188000000E+02  0.91188000000E+02 0.  0.
    9900012    2    3    3    0    0  0.26986061448E+02 -0.14810145445E+02  0.20203758715E+02  0.54367084928E+02  0.40000001709E+02 0.  0.
        -12    1    3    3    0    0 -0.26986061448E+02  0.14810145445E+02 -0.20203758715E+02  0.36820915073E+02  0.00000000000E+00 0.  1.
         11    1    4    4    0    0 -0.35946752399E+01 -0.15091037434E+02  0.82585056899E+01  0.17574527516E+02  0.51100000000E-03 0. -1.
        -11    1    4    4    0    0  0.83986793882E+00  0.41800098376E+01 -0.54956141608E+00  0.42988229097E+01  0.51100000000E-03 0.  1.
         12    1    4    4    0    0  0.29740868749E+02 -0.38991178480E+01  0.12494814441E+02  0.32493734502E+02  0.00000000000E+00 0. -1.
</event>
<event>
 8    1  0.2501893E-006  0.9118800E+02  0.7816164E-02  0.1184000E+00
        -11   -1    0    0    0    0  0.00000000000E+00  0.00000000000E+00  0.45593999997E+02  0.45594000000E+02  0.51100000000E-03 0.  1.
         11   -1    0    0    0    0 -0.00000000000E+00 -0.00000000000E+00 -0.45593999997E+02  0.45594000000E+02  0.51100000000E-03 0. -1.
         23    2    1    2    0    0  0.00000000000E+00  0.00000000000E+00 -0.35527136788E-14  0.91188000000E+02  0.91188000000E+02 0.  0.
    9900012    2    3    3    0    0 -0.26032106083E+02 -0.31041025927E+01  0.25854858114E+02  0.54367086267E+02  0.40000004763E+02 0.  0.
         12    1    3    3    0    0  0.26032106083E+02  0.31041025927E+01 -0.25854858114E+02  0.36820913733E+02  0.00000000000E+00 0. -1.
         11    1    4    4    0    0 -0.88614180644E+01 -0.24467517777E+01 -0.61658685450E+01  0.11069293543E+02  0.51100000000E-03 0. -1.
        -11    1    4    4    0    0 -0.19859168778E+02  0.34331424312E+01  0.13786631305E+02  0.24418113246E+02  0.51100000000E-03 0.  1.
        -12    1    4    4    0    0  0.26884807591E+01 -0.40904932461E+01  0.18234095354E+02  0.18879679478E+02  0.00000000000E+00 0.  1.
</event>
<event>
 8    1  0.2501893E-006  0.9118800E+02  0.7816164E-02  0.1184000E+00
        -11   -1    0    0    0    0  0.00000000000E+00  0.00000000000E+00  0.45593999997E+02  0.45594000000E+02  0.51100000000E-03 0. -1.
         11   -1    0    0    0    0 -0.00000000000E+00 -0.00000000000E+00 -0.45593999997E+02  0.45594000000E+02  0.51100000000E-03 0.  1.
         23    2    1    2    0    0  0.17763568394E-14  0.00000000000E+00  0.00000000000E+00  0.91188000000E+02  0.91188000000E+02 0.  0.
    9900012    2    3    3    0    0 -0.11185767612E+02 -0.10978095347E+02 -0.33318741068E+02  0.54367102661E+02  0.40000042137E+02 0.  0.
         12    1    3    3    0    0  0.11185767612E+02  0.10978095347E+02  0.33318741068E+02  0.36820897339E+02  0.00000000000E+00 0. -1.
         11    1    4    4    0    0 -0.61931750918E+01  0.16287458127E+01  0.14992097916E+01  0.65769187999E+01  0.51100000000E-03 0. -1.
        -11    1    4    4    0    0  0.54752226388E+01 -0.17729623144E+02 -0.29792802778E+02  0.35098841824E+02  0.51100000000E-03 0.  1.
         12    1    4    4    0    0 -0.10467815159E+02  0.51227819847E+01 -0.50251480812E+01  0.12691342037E+02  0.00000000000E+00 0. -1.
</event>
<event>
 8    1  0.2501893E-006  0.9118800E+02  0.7816164E-02  0.1184000E+00
        -11   -1    0    0    0    0  0.00000000000E+00  0.00000000000E+00  0.45593999997E+02  0.45594000000E+02  0.51100000000E-03 0.  1.
         11   -1    0    0    0    0 -0.00000000000E+00 -0.00000000000E+00 -0.45593999997E+02  0.45594000000E+02  0.51100000000E-03 0. -1.
         23    2    1    2    0    0  0.00000000000E+00  0.35527136788E-14 -0.17763568394E-14  0.91188000000E+02  0.91188000000E+02 0.  0.
    9900012    2    3    3    0    0  0.30298357245E+02 -0.16418146879E+02  0.12970491887E+02  0.54367086670E+02  0.40000005681E+02 0.  0.
         12    1    3    3    0    0 -0.30298357245E+02  0.16418146879E+02 -0.12970491887E+02  0.36820913330E+02  0.00000000000E+00 0. -1.
         11    1    4    4    0    0  0.67226742028E+01  0.84272426106E+00 -0.70862216019E+00  0.68122447287E+01  0.51100000000E-03 0. -1.
        -11    1    4    4    0    0  0.30268215833E+02 -0.21337043471E+02  0.14291390639E+02  0.39694812765E+02  0.51100000000E-03 0.  1.
         12    1    4    4    0    0 -0.66925327906E+01  0.40761723313E+01 -0.61227659187E+00  0.78600291763E+01  0.00000000000E+00 0. -1.
</event>
<event>
 8    1  0.2501893E-006  0.9118800E+02  0.7816164E-02  0.1184000E+00
        -11   -1    0    0    0    0  0.00000000000E+00  0.00000000000E+00  0.45593999997E+02  0.45594000000E+02  0.51100000000E-03 0.  1.
         11   -1    0    0    0    0 -0.00000000000E+00 -0.00000000000E+00 -0.45593999997E+02  0.45594000000E+02  0.51100000000E-03 0. -1.
         23    2    1    2    0    0  0.35527136788E-14  0.00000000000E+00 -0.35527136788E-14  0.91188000000E+02  0.91188000000E+02 0.  0.
    9900012    2    3    3    0    0  0.20522251960E+02 -0.22370466804E+02 -0.20837012790E+02  0.54367058777E+02  0.39999942094E+02 0.  0.
        -12    1    3    3    0    0 -0.20522251960E+02  0.22370466804E+02  0.20837012790E+02  0.36820941223E+02  0.00000000000E+00 0.  1.
         11    1    4    4    0    0  0.55871236813E+01 -0.15062021027E+02 -0.13767996679E+02  0.21157461125E+02  0.51100000000E-03 0. -1.
        -11    1    4    4    0    0 -0.10739384735E+00 -0.13624788558E+02  0.31155001251E+01  0.13976864383E+02  0.51100000000E-03 0.  1.
        -12    1    4    4    0    0  0.15042522126E+02  0.63163427809E+01 -0.10184516236E+02  0.19232733269E+02  0.00000000000E+00 0.  1.
</event>
<event>
 8    1  0.2501893E-006  0.9118800E+02  0.7816164E-02  0.1184000E+00
        -11   -1    0    0    0    0  0.00000000000E+00  0.00000000000E+00  0.45593999997E+02  0.45594000000E+02  0.51100000000E-03 0.  1.
         11   -1    0    0    0    0 -0.00000000000E+00 -0.00000000000E+00 -0.45593999997E+02  0.45594000000E+02  0.51100000000E-03 0. -1.
         23    2    1    2    0    0 -0.22204460493E-15  0.17763568394E-14 -0.71054273576E-14  0.91188000000E+02  0.91188000000E+02 0.  0.
    9900012    2    3    3    0    0  0.19278053179E+01  0.44463380913E+01 -0.36500588750E+02  0.54367091064E+02  0.40000015699E+02 0.  0.
        -12    1    3    3    0    0 -0.19278053179E+01 -0.44463380913E+01  0.36500588750E+02  0.36820908936E+02  0.00000000000E+00 0.  1.
         11    1    4    4    0    0 -0.48075892648E+00 -0.62538879926E+01 -0.83748250767E+01  0.10463266196E+02  0.51100000000E-03 0. -1.
        -11    1    4    4    0    0 -0.50554840234E+01 -0.10272260707E+02 -0.97685298813E+01  0.15049964619E+02  0.51100000000E-03 0.  1.
         12    1    4    4    0    0  0.74640482678E+01  0.20972486791E+02 -0.18357233792E+02  0.28853860248E+02  0.00000000000E+00 0. -1.
</event>
<event>
 8    1  0.2501893E-006  0.9118800E+02  0.7816164E-02  0.1184000E+00
        -11   -1    0    0    0    0  0.00000000000E+00  0.00000000000E+00  0.45593999997E+02  0.45594000000E+02  0.51100000000E-03 0. -1.
         11   -1    0    0    0    0 -0.00000000000E+00 -0.00000000000E+00 -0.45593999997E+02  0.45594000000E+02  0.51100000000E-03 0.  1.
         23    2    1    2    0    0  0.35527136788E-14  0.35527136788E-14 -0.17763568394E-14  0.91188000000E+02  0.91188000000E+02 0.  0.
    9900012    2    3    3    0    0 -0.27940414668E+02  0.21538658660E+02  0.10545134424E+02  0.54367075939E+02  0.39999981218E+02 0.  0.
         12    1    3    3    0    0  0.27940414668E+02 -0.21538658660E+02 -0.10545134424E+02  0.36820924061E+02  0.00000000000E+00 0. -1.
         11    1    4    4    0    0 -0.34362420634E+01  0.24053436181E+01  0.77768920890E+01  0.88359203406E+01  0.51100000000E-03 0. -1.
        -11    1    4    4    0    0 -0.16264583976E+02  0.17663513944E+02  0.16721659693E+02  0.29260046478E+02  0.51100000000E-03 0.  1.
         12    1    4    4    0    0 -0.82395886286E+01  0.14698010986E+01 -0.13953417358E+02  0.16271109120E+02  0.00000000000E+00 0. -1.
</event>
<event>
 8    1  0.2501893E-006  0.9118800E+02  0.7816164E-02  0.1184000E+00
        -11   -1    0    0    0    0  0.00000000000E+00  0.00000000000E+00  0.45593999997E+02  0.45594000000E+02  0.51100000000E-03 0. -1.
         11   -1    0    0    0    0 -0.00000000000E+00 -0.00000000000E+00 -0.45593999997E+02  0.45594000000E+02  0.51100000000E-03 0.  1.
         23    2    1    2    0    0  0.35527136788E-14 -0.44408920985E-15  0.35527136788E-14  0.91188000000E+02  0.91188000000E+02 0.  0.
    9900012    2    3    3    0    0 -0.23865342053E+02 -0.32054785433E+01 -0.27855898553E+02  0.54367072143E+02  0.39999972565E+02 0.  0.
         12    1    3    3    0    0  0.23865342053E+02  0.32054785433E+01  0.27855898553E+02  0.36820927857E+02  0.00000000000E+00 0. -1.
         11    1    4    4    0    0 -0.23336548833E+01 -0.77753218119E+01 -0.76507756974E+01  0.11155085989E+02  0.51100000000E-03 0. -1.
        -11    1    4    4    0    0  0.84368536083E+00 -0.10722217758E+02 -0.32175230161E+01  0.11226317885E+02  0.51100000000E-03 0.  1.
         12    1    4    4    0    0 -0.22375372531E+02  0.15292061026E+02 -0.16987599840E+02  0.31985668269E+02  0.00000000000E+00 0. -1.
</event>
<event>
 8    1  0.2501893E-006  0.9118800E+02  0.7816164E-02  0.1184000E+00
        -11   -1    0    0    0    0  0.00000000000E+00  0.00000000000E+00  0.45593999997E+02  0.45594000000E+02  0.51100000000E-03 0.  1.
         11   -1    0    0    0    0 -0.00000000000E+00 -0.00000000000E+00 -0.45593999997E+02  0.45594000000E+02  0.51100000000E-03 0. -1.
         23    2    1    2    0    0 -0.53290705182E-14  0.00000000000E+00 -0.53290705182E-14  0.91188000000E+02  0.91188000000E+02 0.  0.
    9900012    2    3    3    0    0  0.73192126518E+01  0.34709995247E+02  0.98704156537E+01  0.54367085440E+02  0.40000002877E+02 0.  0.
         12    1    3    3    0    0 -0.73192126518E+01 -0.34709995247E+02 -0.98704156537E+01  0.36820914560E+02  0.00000000000E+00 0. -1.
         11    1    4    4    0    0  0.71784208700E+00  0.38589021659E+00  0.11293506072E+02  0.11322874555E+02  0.51100000000E-03 0. -1.
        -11    1    4    4    0    0 -0.91334131350E+01  0.10099949069E+02 -0.35738919402E+01  0.14078384515E+02  0.51100000000E-03 0.  1.
        -12    1    4    4    0    0  0.15734783700E+02  0.24224155961E+02  0.21508015218E+01  0.28965826370E+02  0.00000000000E+00 0.  1.
</event>
<event>
 8    1  0.2501893E-006  0.9118800E+02  0.7816164E-02  0.1184000E+00
        -11   -1    0    0    0    0  0.00000000000E+00  0.00000000000E+00  0.45593999997E+02  0.45594000000E+02  0.51100000000E-03 0.  1.
         11   -1    0    0    0    0 -0.00000000000E+00 -0.00000000000E+00 -0.45593999997E+02  0.45594000000E+02  0.51100000000E-03 0. -1.
         23    2    1    2    0    0 -0.71054273576E-14  0.88817841970E-15 -0.88817841970E-15  0.91188000000E+02  0.91188000000E+02 0.  0.
    9900012    2    3    3    0    0  0.36197235524E+02  0.33626057429E+01  0.58509174374E+01  0.54367079156E+02  0.39999988552E+02 0.  0.
         12    1    3    3    0    0 -0.36197235524E+02 -0.33626057429E+01 -0.58509174374E+01  0.36820920844E+02  0.00000000000E+00 0. -1.
         11    1    4    4    0    0 -0.72182753200E+01 -0.40302793940E+01 -0.14303091358E+01  0.83900199686E+01  0.51100000000E-03 0. -1.
        -11    1    4    4    0    0  0.18761978330E+02  0.40394437121E+01 -0.22711017279E+01  0.19325807608E+02  0.51100000000E-03 0.  1.
         12    1    4    4    0    0  0.24653532513E+02  0.33534414247E+01  0.95523283011E+01  0.26651251579E+02  0.00000000000E+00 0. -1.
</event>
<event>
 8    1  0.2501893E-006  0.9118800E+02  0.7816164E-02  0.1184000E+00
        -11   -1    0    0    0    0  0.00000000000E+00  0.00000000000E+00  0.45593999997E+02  0.45594000000E+02  0.51100000000E-03 0. -1.
         11   -1    0    0    0    0 -0.00000000000E+00 -0.00000000000E+00 -0.45593999997E+02  0.45594000000E+02  0.51100000000E-03 0.  1.
         23    2    1    2    0    0  0.00000000000E+00  0.17763568394E-14  0.00000000000E+00  0.91188000000E+02  0.91188000000E+02 0.  0.
    9900012    2    3    3    0    0 -0.31710764507E+02 -0.61366622368E+01 -0.17679088149E+02  0.54367063472E+02  0.39999952797E+02 0.  0.
         12    1    3    3    0    0  0.31710764507E+02  0.61366622368E+01  0.17679088149E+02  0.36820936528E+02  0.00000000000E+00 0. -1.
         11    1    4    4    0    0 -0.72513657442E+01 -0.15662541092E+02 -0.15048870415E+02  0.22899039273E+02  0.51100000000E-03 0. -1.
        -11    1    4    4    0    0 -0.11376503415E+02 -0.40217435905E+01 -0.36515458527E+01  0.12606864750E+02  0.51100000000E-03 0.  1.
         12    1    4    4    0    0 -0.13082895348E+02  0.13547622446E+02  0.10213281184E+01  0.18861159448E+02  0.00000000000E+00 0. -1.
</event>
<event>
 8    1  0.2501893E-006  0.9118800E+02  0.7816164E-02  0.1184000E+00
        -11   -1    0    0    0    0  0.00000000000E+00  0.00000000000E+00  0.45593999997E+02  0.45594000000E+02  0.51100000000E-03 0.  1.
         11   -1    0    0    0    0 -0.00000000000E+00 -0.00000000000E+00 -0.45593999997E+02  0.45594000000E+02  0.51100000000E-03 0. -1.
         23    2    1    2    0    0  0.17763568394E-14  0.00000000000E+00  0.00000000000E+00  0.91188000000E+02  0.91188000000E+02 0.  0.
    9900012    2    3    3    0    0 -0.15319077358E+02  0.30827409305E+02 -0.13068145731E+02  0.54367085720E+02  0.40000003515E+02 0.  0.
        -12    1    3    3    0    0  0.15319077358E+02 -0.30827409305E+02  0.13068145731E+02  0.36820914280E+02  0.00000000000E+00 0.  1.
         11    1    4    4    0    0 -0.17957081792E+02  0.29428204191E+02  0.19852464573E+01  0.34531394298E+02  0.51100000000E-03 0. -1.
        -11    1    4    4    0    0  0.65064527760E+01 -0.94798755877E+00 -0.13561247765E+02  0.15071166157E+02  0.51100000000E-03 0.  1.
         12    1    4    4    0    0 -0.38684483420E+01  0.23471926732E+01 -0.14921444241E+01  0.47645252651E+01  0.00000000000E+00 0. -1.
</event>
<event>
 8    1  0.2501893E-006  0.9118800E+02  0.7816164E-02  0.1184000E+00
        -11   -1    0    0    0    0  0.00000000000E+00  0.00000000000E+00  0.45593999997E+02  0.45594000000E+02  0.51100000000E-03 0.  1.
         11   -1    0    0    0    0 -0.00000000000E+00 -0.00000000000E+00 -0.45593999997E+02  0.45594000000E+02  0.51100000000E-03 0. -1.
         23    2    1    2    0    0  0.35527136788E-14 -0.35527136788E-14 -0.35527136788E-14  0.91188000000E+02  0.91188000000E+02 0.  0.
    9900012    2    3    3    0    0 -0.19112400999E+02  0.25807377144E+02  0.18013199288E+02  0.54367082907E+02  0.39999997104E+02 0.  0.
         12    1    3    3    0    0  0.19112400999E+02 -0.25807377144E+02 -0.18013199288E+02  0.36820917093E+02  0.00000000000E+00 0. -1.
         11    1    4    4    0    0 -0.13921645547E+02  0.25712726920E+02  0.81708172603E+01  0.30359822058E+02  0.51100000000E-03 0. -1.
        -11    1    4    4    0    0  0.61399129382E+01  0.63964610445E+01  0.49128182215E+01  0.10136519517E+02  0.51100000000E-03 0.  1.
        -12    1    4    4    0    0 -0.11330668390E+02 -0.63018108211E+01  0.49295638058E+01  0.13870741332E+02  0.00000000000E+00 0.  1.
</event>
<event>
 8    1  0.2501893E-006  0.9118800E+02  0.7816164E-02  0.1184000E+00
        -11   -1    0    0    0    0  0.00000000000E+00  0.00000000000E+00  0.45593999997E+02  0.45594000000E+02  0.51100000000E-03 0. -1.
         11   -1    0    0    0    0 -0.00000000000E+00 -0.00000000000E+00 -0.45593999997E+02  0.45594000000E+02  0.51100000000E-03 0.  1.
         23    2    1    2    0    0  0.00000000000E+00  0.00000000000E+00 -0.35527136788E-14  0.91188000000E+02  0.91188000000E+02 0.  0.
    9900012    2    3    3    0    0  0.14130346397E+02 -0.24197270789E+02 -0.23887346790E+02  0.54367082852E+02  0.39999996978E+02 0.  0.
        -12    1    3    3    0    0 -0.14130346397E+02  0.24197270789E+02  0.23887346790E+02  0.36820917148E+02  0.00000000000E+00 0.  1.
         11    1    4    4    0    0  0.73312862322E+01 -0.20948707495E+02  0.41480136876E+01  0.22578798049E+02  0.51100000000E-03 0. -1.
        -11    1    4    4    0    0 -0.31009201264E+01 -0.38842226045E+01 -0.11086210635E+02  0.12149360369E+02  0.51100000000E-03 0.  1.
         12    1    4    4    0    0  0.98999802914E+01  0.63565931035E+00 -0.16949149842E+02  0.19638924433E+02  0.00000000000E+00 0. -1.
</event>
<event>
 8    1  0.2501893E-006  0.9118800E+02  0.7816164E-02  0.1184000E+00
        -11   -1    0    0    0    0  0.00000000000E+00  0.00000000000E+00  0.45593999997E+02  0.45594000000E+02  0.51100000000E-03 0.  1.
         11   -1    0    0    0    0 -0.00000000000E+00 -0.00000000000E+00 -0.45593999997E+02  0.45594000000E+02  0.51100000000E-03 0. -1.
         23    2    1    2    0    0  0.00000000000E+00 -0.44408920985E-15  0.00000000000E+00  0.91188000000E+02  0.91188000000E+02 0.  0.
    9900012    2    3    3    0    0 -0.11778804445E+02  0.37776311141E+01  0.34680960276E+02  0.54367085608E+02  0.40000003262E+02 0.  0.
         12    1    3    3    0    0  0.11778804445E+02 -0.37776311141E+01 -0.34680960276E+02  0.36820914392E+02  0.00000000000E+00 0. -1.
         11    1    4    4    0    0 -0.13571659013E+02  0.11566596693E+02  0.15673510513E+02  0.23740998704E+02  0.51100000000E-03 0. -1.
        -11    1    4    4    0    0 -0.84093374298E+01  0.11265622513E+01  0.13617715385E+02  0.16044571389E+02  0.51100000000E-03 0.  1.
         12    1    4    4    0    0  0.10202191998E+02 -0.89155278297E+01  0.53897343778E+01  0.14581515515E+02  0.00000000000E+00 0. -1.
</event>
<event>
 8    1  0.2501893E-006  0.9118800E+02  0.7816164E-02  0.1184000E+00
        -11   -1    0    0    0    0  0.00000000000E+00  0.00000000000E+00  0.45593999997E+02  0.45594000000E+02  0.51100000000E-03 0.  1.
         11   -1    0    0    0    0 -0.00000000000E+00 -0.00000000000E+00 -0.45593999997E+02  0.45594000000E+02  0.51100000000E-03 0. -1.
         23    2    1    2    0    0 -0.44408920985E-15  0.00000000000E+00  0.71054273576E-14  0.91188000000E+02  0.91188000000E+02 0.  0.
    9900012    2    3    3    0    0 -0.10234466506E+01  0.10159299726E+02 -0.35376897004E+02  0.54367032392E+02  0.39999881943E+02 0.  0.
        -12    1    3    3    0    0  0.10234466506E+01 -0.10159299726E+02  0.35376897004E+02  0.36820967608E+02  0.00000000000E+00 0.  1.
         11    1    4    4    0    0 -0.15407542214E+02 -0.13107691021E+01 -0.99533479531E+01  0.18389660368E+02  0.51100000000E-03 0. -1.
        -11    1    4    4    0    0  0.15487563877E+02  0.49257200625E+01 -0.97394087017E+01  0.18946858186E+02  0.51100000000E-03 0.  1.
         12    1    4    4    0    0 -0.11034683139E+01  0.65443487652E+01 -0.15684140350E+02  0.17030513838E+02  0.00000000000E+00 0. -1.
</event>
<event>
 8    1  0.2501893E-006  0.9118800E+02  0.7816164E-02  0.1184000E+00
        -11   -1    0    0    0    0  0.00000000000E+00  0.00000000000E+00  0.45593999997E+02  0.45594000000E+02  0.51100000000E-03 0.  1.
         11   -1    0    0    0    0 -0.00000000000E+00 -0.00000000000E+00 -0.45593999997E+02  0.45594000000E+02  0.51100000000E-03 0. -1.
         23    2    1    2    0    0  0.44408920985E-15 -0.17763568394E-14 -0.71054273576E-14  0.91188000000E+02  0.91188000000E+02 0.  0.
    9900012    2    3    3    0    0 -0.21959464679E+01 -0.82648706413E+01 -0.35814101943E+02  0.54367079784E+02  0.39999989983E+02 0.  0.
        -12    1    3    3    0    0  0.21959464679E+01  0.82648706413E+01  0.35814101943E+02  0.36820920216E+02  0.00000000000E+00 0.  1.
         11    1    4    4    0    0  0.83475786655E+00  0.48792197212E+01 -0.18785213816E+01  0.52945678413E+01  0.51100000000E-03 0. -1.
        -11    1    4    4    0    0 -0.62603886436E+01  0.10087583947E+02 -0.95390082263E+01  0.15229724031E+02  0.51100000000E-03 0.  1.
         12    1    4    4    0    0  0.32296843091E+01 -0.23231674309E+02 -0.24396572335E+02  0.33842787912E+02  0.00000000000E+00 0. -1.
</event>
<event>
 8    1  0.2501893E-006  0.9118800E+02  0.7816164E-02  0.1184000E+00
        -11   -1    0    0    0    0  0.00000000000E+00  0.00000000000E+00  0.45593999997E+02  0.45594000000E+02  0.51100000000E-03 0. -1.
         11   -1    0    0    0    0 -0.00000000000E+00 -0.00000000000E+00 -0.45593999997E+02  0.45594000000E+02  0.51100000000E-03 0.  1.
         23    2    1    2    0    0  0.00000000000E+00 -0.35527136788E-14  0.00000000000E+00  0.91188000000E+02  0.91188000000E+02 0.  0.
    9900012    2    3    3    0    0 -0.28240282696E+02  0.21561632008E+02 -0.96624304085E+01  0.54367080633E+02  0.39999991920E+02 0.  0.
         12    1    3    3    0    0  0.28240282696E+02 -0.21561632008E+02  0.96624304085E+01  0.36820919367E+02  0.00000000000E+00 0. -1.
         11    1    4    4    0    0 -0.56581941356E+01  0.69170778077E+01 -0.14317192090E+01  0.90504666415E+01  0.51100000000E-03 0. -1.
        -11    1    4    4    0    0  0.76118181254E+01  0.11064041972E+02 -0.63442522014E+01  0.14852687844E+02  0.51100000000E-03 0.  1.
         12    1    4    4    0    0 -0.30193906686E+02  0.35805122282E+01 -0.18864589981E+01  0.30463926148E+02  0.00000000000E+00 0. -1.
</event>
<event>
 8    1  0.2501893E-006  0.9118800E+02  0.7816164E-02  0.1184000E+00
        -11   -1    0    0    0    0  0.00000000000E+00  0.00000000000E+00  0.45593999997E+02  0.45594000000E+02  0.51100000000E-03 0.  1.
         11   -1    0    0    0    0 -0.00000000000E+00 -0.00000000000E+00 -0.45593999997E+02  0.45594000000E+02  0.51100000000E-03 0. -1.
         23    2    1    2    0    0  0.00000000000E+00  0.00000000000E+00  0.00000000000E+00  0.91188000000E+02  0.91188000000E+02 0.  0.
    9900012    2    3    3    0    0 -0.17778140601E+02  0.92808023549E+01  0.30880188617E+02  0.54367059972E+02  0.39999944818E+02 0.  0.
         12    1    3    3    0    0  0.17778140601E+02 -0.92808023549E+01 -0.30880188617E+02  0.36820940028E+02  0.00000000000E+00 0. -1.
         11    1    4    4    0    0 -0.71900789008E+01 -0.59480585126E+01  0.27918111556E+02  0.29436331085E+02  0.51100000000E-03 0.  1.
        -11    1    4    4    0    0  0.44116092310E+01  0.24792271304E+01  0.85377816333E+00  0.51320366897E+01  0.51100000000E-03 0. -1.
        -12    1    4    4    0    0 -0.14999670931E+02  0.12749633737E+02  0.21082988976E+01  0.19798692197E+02  0.00000000000E+00 0.  1.
</event>
<event>
 8    1  0.2501893E-006  0.9118800E+02  0.7816164E-02  0.1184000E+00
        -11   -1    0    0    0    0  0.00000000000E+00  0.00000000000E+00  0.45593999997E+02  0.45594000000E+02  0.51100000000E-03 0. -1.
         11   -1    0    0    0    0 -0.00000000000E+00 -0.00000000000E+00 -0.45593999997E+02  0.45594000000E+02  0.51100000000E-03 0.  1.
         23    2    1    2    0    0  0.00000000000E+00  0.00000000000E+00  0.00000000000E+00  0.91188000000E+02  0.91188000000E+02 0.  0.
    9900012    2    3    3    0    0  0.29526000168E+02  0.17108476868E+02 -0.13830830341E+02  0.54367129090E+02  0.40000102385E+02 0.  0.
        -12    1    3    3    0    0 -0.29526000168E+02 -0.17108476868E+02  0.13830830341E+02  0.36820870910E+02  0.00000000000E+00 0.  1.
         11    1    4    4    0    0 -0.18957253910E+01  0.83439440709E+01  0.67687225836E+00  0.85833171753E+01  0.51100000000E-03 0. -1.
        -11    1    4    4    0    0  0.12800922455E+02  0.16545739012E+02 -0.14757661237E+02  0.25601048037E+02  0.51100000000E-03 0.  1.
        -12    1    4    4    0    0  0.18620803104E+02 -0.77812062144E+01  0.24995863821E+00  0.20182763877E+02  0.00000000000E+00 0.  1.
</event>
<event>
 8    1  0.2501893E-006  0.9118800E+02  0.7816164E-02  0.1184000E+00
        -11   -1    0    0    0    0  0.00000000000E+00  0.00000000000E+00  0.45593999997E+02  0.45594000000E+02  0.51100000000E-03 0.  1.
         11   -1    0    0    0    0 -0.00000000000E+00 -0.00000000000E+00 -0.45593999997E+02  0.45594000000E+02  0.51100000000E-03 0. -1.
         23    2    1    2    0    0  0.44408920985E-15  0.00000000000E+00  0.17763568394E-14  0.91188000000E+02  0.91188000000E+02 0.  0.
    9900012    2    3    3    0    0 -0.24095092323E+01  0.35069154506E+02  0.10960315802E+02  0.54367084001E+02  0.39999999598E+02 0.  0.
         12    1    3    3    0    0  0.24095092323E+01 -0.35069154506E+02 -0.10960315802E+02  0.36820915999E+02  0.00000000000E+00 0. -1.
         11    1    4    4    0    0 -0.10251708565E+00  0.13545172712E+02 -0.58788725946E+01  0.14766291233E+02  0.51100000000E-03 0. -1.
        -11    1    4    4    0    0 -0.14331657037E+02  0.46828528979E+01  0.58682376283E+01  0.16179051821E+02  0.51100000000E-03 0.  1.
         12    1    4    4    0    0  0.12024664891E+02  0.16841128896E+02  0.10970950768E+02  0.23421740947E+02  0.00000000000E+00 0. -1.
</event>
<event>
 8    1  0.2501893E-006  0.9118800E+02  0.7816164E-02  0.1184000E+00
        -11   -1    0    0    0    0  0.00000000000E+00  0.00000000000E+00  0.45593999997E+02  0.45594000000E+02  0.51100000000E-03 0.  1.
         11   -1    0    0    0    0 -0.00000000000E+00 -0.00000000000E+00 -0.45593999997E+02  0.45594000000E+02  0.51100000000E-03 0. -1.
         23    2    1    2    0    0  0.00000000000E+00  0.35527136788E-14 -0.44408920985E-15  0.91188000000E+02  0.91188000000E+02 0.  0.
    9900012    2    3    3    0    0 -0.20836078616E+02 -0.30340652089E+02  0.10406803868E+01  0.54367077185E+02  0.39999984059E+02 0.  0.
        -12    1    3    3    0    0  0.20836078616E+02  0.30340652089E+02 -0.10406803868E+01  0.36820922815E+02  0.00000000000E+00 0.  1.
         11    1    4    4    0    0 -0.54219928763E+01  0.41119927742E+01  0.10732447963E+01  0.68890018130E+01  0.51100000000E-03 0. -1.
        -11    1    4    4    0    0  0.21689886498E+01 -0.33561803454E+01  0.96678463463E+01  0.10461152494E+02  0.51100000000E-03 0.  1.
         12    1    4    4    0    0 -0.17583074390E+02 -0.31096464518E+02 -0.97004107558E+01  0.37016922878E+02  0.00000000000E+00 0. -1.
</event>
<event>
 8    1  0.2501893E-006  0.9118800E+02  0.7816164E-02  0.1184000E+00
        -11   -1    0    0    0    0  0.00000000000E+00  0.00000000000E+00  0.45593999997E+02  0.45594000000E+02  0.51100000000E-03 0.  1.
         11   -1    0    0    0    0 -0.00000000000E+00 -0.00000000000E+00 -0.45593999997E+02  0.45594000000E+02  0.51100000000E-03 0. -1.
         23    2    1    2    0    0  0.00000000000E+00  0.00000000000E+00  0.00000000000E+00  0.91188000000E+02  0.91188000000E+02 0.  0.
    9900012    2    3    3    0    0 -0.62913369047E+01  0.28927983168E+02 -0.21894540132E+02  0.54367081790E+02  0.39999994558E+02 0.  0.
        -12    1    3    3    0    0  0.62913369047E+01 -0.28927983168E+02  0.21894540132E+02  0.36820918210E+02  0.00000000000E+00 0.  1.
         11    1    4    4    0    0  0.44801803551E+01  0.37193509165E+01 -0.19197762711E+02  0.20061397774E+02  0.51100000000E-03 0. -1.
        -11    1    4    4    0    0 -0.10143300004E+02  0.28705799672E+02 -0.35502080145E+01  0.30651483602E+02  0.51100000000E-03 0.  1.
        -12    1    4    4    0    0 -0.62821725627E+00 -0.34971674211E+01  0.85343059401E+00  0.36542004148E+01  0.00000000000E+00 0.  1.
</event>
<event>
 8    1  0.2501893E-006  0.9118800E+02  0.7816164E-02  0.1184000E+00
        -11   -1    0    0    0    0  0.00000000000E+00  0.00000000000E+00  0.45593999997E+02  0.45594000000E+02  0.51100000000E-03 0. -1.
         11   -1    0    0    0    0 -0.00000000000E+00 -0.00000000000E+00 -0.45593999997E+02  0.45594000000E+02  0.51100000000E-03 0.  1.
         23    2    1    2    0    0 -0.88817841970E-15  0.00000000000E+00  0.00000000000E+00  0.91188000000E+02  0.91188000000E+02 0.  0.
    9900012    2    3    3    0    0  0.55162452984E+01  0.10858919477E+02  0.34748165628E+02  0.54367080553E+02  0.39999991737E+02 0.  0.
        -12    1    3    3    0    0 -0.55162452984E+01 -0.10858919477E+02 -0.34748165628E+02  0.36820919447E+02  0.00000000000E+00 0.  1.
         11    1    4    4    0    0  0.20145133241E+02  0.96984576732E+01  0.11650241058E+02  0.25211398047E+02  0.51100000000E-03 0. -1.
        -11    1    4    4    0    0 -0.41399385925E+01 -0.41186899968E+01  0.98653754665E+01  0.11464219651E+02  0.51100000000E-03 0.  1.
         12    1    4    4    0    0 -0.10488949350E+02  0.52791518009E+01  0.13232549103E+02  0.17691462855E+02  0.00000000000E+00 0. -1.
</event>
<event>
 8    1  0.2501893E-006  0.9118800E+02  0.7816164E-02  0.1184000E+00
        -11   -1    0    0    0    0  0.00000000000E+00  0.00000000000E+00  0.45593999997E+02  0.45594000000E+02  0.51100000000E-03 0.  1.
         11   -1    0    0    0    0 -0.00000000000E+00 -0.00000000000E+00 -0.45593999997E+02  0.45594000000E+02  0.51100000000E-03 0. -1.
         23    2    1    2    0    0  0.00000000000E+00  0.00000000000E+00  0.00000000000E+00  0.91188000000E+02  0.91188000000E+02 0.  0.
    9900012    2    3    3    0    0  0.20013365549E+02 -0.28691751238E+02  0.11490388136E+02  0.54367076475E+02  0.39999982440E+02 0.  0.
         12    1    3    3    0    0 -0.20013365549E+02  0.28691751238E+02 -0.11490388136E+02  0.36820923525E+02  0.00000000000E+00 0. -1.
         11    1    4    4    0    0  0.11501338918E+02 -0.17698890931E+02  0.13251513817E+02  0.24922563187E+02  0.51100000000E-03 0. -1.
        -11    1    4    4    0    0 -0.21271199280E+01 -0.11819915087E+02  0.84423108973E+01  0.14680178657E+02  0.51100000000E-03 0.  1.
         12    1    4    4    0    0  0.10639146559E+02  0.82705477932E+00 -0.10203436578E+02  0.14764334631E+02  0.00000000000E+00 0. -1.
</event>
<event>
 8    1  0.2501893E-006  0.9118800E+02  0.7816164E-02  0.1184000E+00
        -11   -1    0    0    0    0  0.00000000000E+00  0.00000000000E+00  0.45593999997E+02  0.45594000000E+02  0.51100000000E-03 0.  1.
         11   -1    0    0    0    0 -0.00000000000E+00 -0.00000000000E+00 -0.45593999997E+02  0.45594000000E+02  0.51100000000E-03 0. -1.
         23    2    1    2    0    0  0.00000000000E+00  0.00000000000E+00 -0.88817841970E-15  0.91188000000E+02  0.91188000000E+02 0.  0.
    9900012    2    3    3    0    0 -0.29795772263E+02  0.20515484541E+02  0.68635029872E+01  0.54367070843E+02  0.39999969600E+02 0.  0.
        -12    1    3    3    0    0  0.29795772263E+02 -0.20515484541E+02 -0.68635029872E+01  0.36820929157E+02  0.00000000000E+00 0.  1.
         11    1    4    4    0    0 -0.91060174401E+01  0.18787880667E+02  0.28723711552E+01  0.21074974019E+02  0.51100000000E-03 0. -1.
        -11    1    4    4    0    0  0.14210007648E+01 -0.72522691221E+01 -0.36386940326E+01  0.82373991719E+01  0.51100000000E-03 0.  1.
         12    1    4    4    0    0 -0.22110755588E+02  0.89798729960E+01  0.76298258647E+01  0.25054697652E+02  0.00000000000E+00 0. -1.
</event>
<event>
 8    1  0.2501893E-006  0.9118800E+02  0.7816164E-02  0.1184000E+00
        -11   -1    0    0    0    0  0.00000000000E+00  0.00000000000E+00  0.45593999997E+02  0.45594000000E+02  0.51100000000E-03 0.  1.
         11   -1    0    0    0    0 -0.00000000000E+00 -0.00000000000E+00 -0.45593999997E+02  0.45594000000E+02  0.51100000000E-03 0. -1.
         23    2    1    2    0    0  0.00000000000E+00  0.11102230246E-14  0.00000000000E+00  0.91188000000E+02  0.91188000000E+02 0.  0.
    9900012    2    3    3    0    0  0.24127889248E+02 -0.74869781972E+00  0.27804038197E+02  0.54367080293E+02  0.39999991144E+02 0.  0.
         12    1    3    3    0    0 -0.24127889248E+02  0.74869781972E+00 -0.27804038197E+02  0.36820919707E+02  0.00000000000E+00 0. -1.
         11    1    4    4    0    0  0.20286719856E+02 -0.54370865683E+01  0.14472064325E+02  0.25505951442E+02  0.51100000000E-03 0. -1.
        -11    1    4    4    0    0  0.10526752682E+02 -0.46309594424E+01  0.30473969446E+00  0.11504398025E+02  0.51100000000E-03 0.  1.
         12    1    4    4    0    0 -0.66855832901E+01  0.93193481911E+01  0.13027234177E+02  0.17356730825E+02  0.00000000000E+00 0. -1.
</event>
<event>
 8    1  0.2501893E-006  0.9118800E+02  0.7816164E-02  0.1184000E+00
        -11   -1    0    0    0    0  0.00000000000E+00  0.00000000000E+00  0.45593999997E+02  0.45594000000E+02  0.51100000000E-03 0.  1.
         11   -1    0    0    0    0 -0.00000000000E+00 -0.00000000000E+00 -0.45593999997E+02  0.45594000000E+02  0.51100000000E-03 0. -1.
         23    2    1    2    0    0 -0.17763568394E-14  0.00000000000E+00  0.00000000000E+00  0.91188000000E+02  0.91188000000E+02 0.  0.
    9900012    2    3    3    0    0  0.90019455518E+01  0.74238030679E+01  0.34923214460E+02  0.54367098546E+02  0.40000032755E+02 0.  0.
         12    1    3    3    0    0 -0.90019455518E+01 -0.74238030679E+01 -0.34923214460E+02  0.36820901454E+02  0.00000000000E+00 0. -1.
         11    1    4    4    0    0  0.36240195648E+01  0.15874545704E+02  0.17910215349E+02  0.24205588884E+02  0.51100000000E-03 0. -1.
        -11    1    4    4    0    0 -0.80109117224E+01  0.13930692438E+01  0.72106548189E+01  0.10867791483E+02  0.51100000000E-03 0.  1.
         12    1    4    4    0    0  0.13388837709E+02 -0.98438118799E+01  0.98023442915E+01  0.19293718178E+02  0.00000000000E+00 0. -1.
</event>
<event>
 8    1  0.2501893E-006  0.9118800E+02  0.7816164E-02  0.1184000E+00
        -11   -1    0    0    0    0  0.00000000000E+00  0.00000000000E+00  0.45593999997E+02  0.45594000000E+02  0.51100000000E-03 0. -1.
         11   -1    0    0    0    0 -0.00000000000E+00 -0.00000000000E+00 -0.45593999997E+02  0.45594000000E+02  0.51100000000E-03 0.  1.
         23    2    1    2    0    0  0.26645352591E-14  0.00000000000E+00  0.00000000000E+00  0.91188000000E+02  0.91188000000E+02 0.  0.
    9900012    2    3    3    0    0  0.73441691646E+01 -0.31540962417E+01 -0.35942923664E+02  0.54367096897E+02  0.40000028997E+02 0.  0.
         12    1    3    3    0    0 -0.73441691646E+01  0.31540962417E+01  0.35942923664E+02  0.36820903103E+02  0.00000000000E+00 0. -1.
         11    1    4    4    0    0  0.13436084379E+02 -0.64895381776E+01 -0.25679247733E+01  0.15140564954E+02  0.51100000000E-03 0. -1.
        -11    1    4    4    0    0  0.41689630635E+01 -0.16564505600E+01 -0.24122125164E+02  0.24535708756E+02  0.51100000000E-03 0.  1.
         12    1    4    4    0    0 -0.10260878278E+02  0.49918924959E+01 -0.92528737263E+01  0.14690823188E+02  0.00000000000E+00 0. -1.
</event>
<event>
 8    1  0.2501893E-006  0.9118800E+02  0.7816164E-02  0.1184000E+00
        -11   -1    0    0    0    0  0.00000000000E+00  0.00000000000E+00  0.45593999997E+02  0.45594000000E+02  0.51100000000E-03 0. -1.
         11   -1    0    0    0    0 -0.00000000000E+00 -0.00000000000E+00 -0.45593999997E+02  0.45594000000E+02  0.51100000000E-03 0.  1.
         23    2    1    2    0    0 -0.17763568394E-14  0.55511151231E-16  0.71054273576E-14  0.91188000000E+02  0.91188000000E+02 0.  0.
    9900012    2    3    3    0    0  0.90520880552E+01  0.43273396760E+00  0.35688263431E+02  0.54367086057E+02  0.40000004284E+02 0.  0.
        -12    1    3    3    0    0 -0.90520880552E+01 -0.43273396760E+00 -0.35688263431E+02  0.36820913943E+02  0.00000000000E+00 0.  1.
         11    1    4    4    0    0  0.13533672610E+02  0.11704875777E+02  0.36307975736E+02  0.40477568029E+02  0.51100000000E-03 0. -1.
        -11    1    4    4    0    0 -0.33709682138E+01 -0.16544537146E+01  0.13853381742E+01  0.40024749731E+01  0.51100000000E-03 0.  1.
         12    1    4    4    0    0 -0.11106163408E+01 -0.96176880950E+01 -0.20050504785E+01  0.98870430549E+01  0.00000000000E+00 0. -1.
</event>
<event>
 8    1  0.2501893E-006  0.9118800E+02  0.7816164E-02  0.1184000E+00
        -11   -1    0    0    0    0  0.00000000000E+00  0.00000000000E+00  0.45593999997E+02  0.45594000000E+02  0.51100000000E-03 0. -1.
         11   -1    0    0    0    0 -0.00000000000E+00 -0.00000000000E+00 -0.45593999997E+02  0.45594000000E+02  0.51100000000E-03 0.  1.
         23    2    1    2    0    0 -0.88817841970E-15  0.00000000000E+00  0.35527136788E-14  0.91188000000E+02  0.91188000000E+02 0.  0.
    9900012    2    3    3    0    0  0.63233739444E+01  0.25453643494E+02 -0.25843824038E+02  0.54367132737E+02  0.40000110699E+02 0.  0.
         12    1    3    3    0    0 -0.63233739444E+01 -0.25453643494E+02  0.25843824038E+02  0.36820867263E+02  0.00000000000E+00 0. -1.
         11    1    4    4    0    0  0.15007783899E+02  0.45589834176E+01 -0.13357279915E+01  0.15741730429E+02  0.51100000000E-03 0. -1.
        -11    1    4    4    0    0 -0.48788783546E+01  0.24111569192E+02 -0.22190076480E+02  0.33129604847E+02  0.51100000000E-03 0.  1.
        -12    1    4    4    0    0 -0.38055316001E+01 -0.32169091157E+01 -0.23180195664E+01  0.54957974606E+01  0.00000000000E+00 0.  1.
</event>
<event>
 8    1  0.2501893E-006  0.9118800E+02  0.7816164E-02  0.1184000E+00
        -11   -1    0    0    0    0  0.00000000000E+00  0.00000000000E+00  0.45593999997E+02  0.45594000000E+02  0.51100000000E-03 0. -1.
         11   -1    0    0    0    0 -0.00000000000E+00 -0.00000000000E+00 -0.45593999997E+02  0.45594000000E+02  0.51100000000E-03 0.  1.
         23    2    1    2    0    0 -0.71054273576E-14  0.44408920985E-15  0.17763568394E-14  0.91188000000E+02  0.91188000000E+02 0.  0.
    9900012    2    3    3    0    0  0.33171552464E+02 -0.25611421879E+01 -0.15775566266E+02  0.54367084298E+02  0.40000000273E+02 0.  0.
         12    1    3    3    0    0 -0.33171552464E+02  0.25611421879E+01  0.15775566266E+02  0.36820915702E+02  0.00000000000E+00 0. -1.
         11    1    4    4    0    0  0.69646335219E+01 -0.31129688270E+01  0.28266436857E+01  0.81355153370E+01  0.51100000000E-03 0. -1.
        -11    1    4    4    0    0  0.12887937089E+02 -0.20386851276E+00  0.89006539138E+01  0.15664039234E+02  0.51100000000E-03 0.  1.
        -12    1    4    4    0    0  0.13318981853E+02  0.75569515190E+00 -0.27502863865E+02  0.30567529726E+02  0.00000000000E+00 0.  1.
</event>
<event>
 8    1  0.2501893E-006  0.9118800E+02  0.7816164E-02  0.1184000E+00
        -11   -1    0    0    0    0  0.00000000000E+00  0.00000000000E+00  0.45593999997E+02  0.45594000000E+02  0.51100000000E-03 0. -1.
         11   -1    0    0    0    0 -0.00000000000E+00 -0.00000000000E+00 -0.45593999997E+02  0.45594000000E+02  0.51100000000E-03 0.  1.
         23    2    1    2    0    0  0.00000000000E+00  0.00000000000E+00  0.35527136788E-14  0.91188000000E+02  0.91188000000E+02 0.  0.
    9900012    2    3    3    0    0 -0.25403571629E+02  0.23532698595E+01 -0.26549953439E+02  0.54367090748E+02  0.40000014978E+02 0.  0.
        -12    1    3    3    0    0  0.25403571629E+02 -0.23532698595E+01  0.26549953439E+02  0.36820909252E+02  0.00000000000E+00 0.  1.
         11    1    4    4    0    0 -0.71388117615E+01 -0.76889317288E+01  0.44125795101E+01  0.11382142272E+02  0.51100000000E-03 0. -1.
        -11    1    4    4    0    0  0.30318628300E+01  0.11447760137E+01 -0.13925104112E+02  0.14297245508E+02  0.51100000000E-03 0.  1.
         12    1    4    4    0    0 -0.21296622697E+02  0.88974255745E+01 -0.17037428838E+02  0.28687702968E+02  0.00000000000E+00 0. -1.
</event>
<event>
 8    1  0.2501893E-006  0.9118800E+02  0.7816164E-02  0.1184000E+00
        -11   -1    0    0    0    0  0.00000000000E+00  0.00000000000E+00  0.45593999997E+02  0.45594000000E+02  0.51100000000E-03 0.  1.
         11   -1    0    0    0    0 -0.00000000000E+00 -0.00000000000E+00 -0.45593999997E+02  0.45594000000E+02  0.51100000000E-03 0. -1.
         23    2    1    2    0    0  0.00000000000E+00  0.19984014443E-14  0.00000000000E+00  0.91188000000E+02  0.91188000000E+02 0.  0.
    9900012    2    3    3    0    0  0.22259250493E+02 -0.18655061567E+01  0.29271569843E+02  0.54367093617E+02  0.40000021520E+02 0.  0.
         12    1    3    3    0    0 -0.22259250493E+02  0.18655061567E+01 -0.29271569843E+02  0.36820906383E+02  0.00000000000E+00 0. -1.
         11    1    4    4    0    0 -0.15509428805E+01 -0.97692936023E+01  0.11989553282E+01  0.99640361022E+01  0.51100000000E-03 0. -1.
        -11    1    4    4    0    0  0.31752738841E+00 -0.22533206582E+01  0.15899056549E+02  0.16061079573E+02  0.51100000000E-03 0.  1.
         12    1    4    4    0    0  0.23492665985E+02  0.10157108104E+02  0.12173557966E+02  0.28341977942E+02  0.00000000000E+00 0. -1.
</event>
<event>
 8    1  0.2501893E-006  0.9118800E+02  0.7816164E-02  0.1184000E+00
        -11   -1    0    0    0    0  0.00000000000E+00  0.00000000000E+00  0.45593999997E+02  0.45594000000E+02  0.51100000000E-03 0. -1.
         11   -1    0    0    0    0 -0.00000000000E+00 -0.00000000000E+00 -0.45593999997E+02  0.45594000000E+02  0.51100000000E-03 0.  1.
         23    2    1    2    0    0 -0.17763568394E-14  0.00000000000E+00  0.53290705182E-14  0.91188000000E+02  0.91188000000E+02 0.  0.
    9900012    2    3    3    0    0 -0.12828046287E+02 -0.32040490583E+02  0.12830855911E+02  0.54367045752E+02  0.39999912400E+02 0.  0.
        -12    1    3    3    0    0  0.12828046287E+02  0.32040490583E+02 -0.12830855911E+02  0.36820954248E+02  0.00000000000E+00 0.  1.
         11    1    4    4    0    0 -0.18822749661E+01 -0.21786155125E+02 -0.71098062150E+01  0.22994104872E+02  0.51100000000E-03 0. -1.
        -11    1    4    4    0    0 -0.14892292133E+02 -0.10576205316E+02  0.20405053486E+02  0.27386177022E+02  0.51100000000E-03 0.  1.
         12    1    4    4    0    0  0.39465208116E+01  0.32186985862E+00 -0.46439135974E+00  0.39867638578E+01  0.00000000000E+00 0. -1.
</event>
<event>
 8    1  0.2501893E-006  0.9118800E+02  0.7816164E-02  0.1184000E+00
        -11   -1    0    0    0    0  0.00000000000E+00  0.00000000000E+00  0.45593999997E+02  0.45594000000E+02  0.51100000000E-03 0. -1.
         11   -1    0    0    0    0 -0.00000000000E+00 -0.00000000000E+00 -0.45593999997E+02  0.45594000000E+02  0.51100000000E-03 0.  1.
         23    2    1    2    0    0  0.00000000000E+00  0.00000000000E+00 -0.71054273576E-14  0.91188000000E+02  0.91188000000E+02 0.  0.
    9900012    2    3    3    0    0  0.21127180312E+02  0.18292371057E+01  0.30101051128E+02  0.54367120932E+02  0.40000083789E+02 0.  0.
        -12    1    3    3    0    0 -0.21127180312E+02 -0.18292371057E+01 -0.30101051128E+02  0.36820879068E+02  0.00000000000E+00 0.  1.
         11    1    4    4    0    0  0.17056759424E+02  0.21641668580E+01  0.37514243622E+02  0.41266634646E+02  0.51100000000E-03 0. -1.
        -11    1    4    4    0    0 -0.19011340620E+01 -0.35390726166E+01 -0.25321050360E+01  0.47487789885E+01  0.51100000000E-03 0.  1.
         12    1    4    4    0    0  0.59715549492E+01  0.32041428643E+01 -0.48810874579E+01  0.83517072972E+01  0.00000000000E+00 0. -1.
</event>
<event>
 8    1  0.2501893E-006  0.9118800E+02  0.7816164E-02  0.1184000E+00
        -11   -1    0    0    0    0  0.00000000000E+00  0.00000000000E+00  0.45593999997E+02  0.45594000000E+02  0.51100000000E-03 0. -1.
         11   -1    0    0    0    0 -0.00000000000E+00 -0.00000000000E+00 -0.45593999997E+02  0.45594000000E+02  0.51100000000E-03 0.  1.
         23    2    1    2    0    0  0.00000000000E+00  0.71054273576E-14 -0.35527136788E-14  0.91188000000E+02  0.91188000000E+02 0.  0.
    9900012    2    3    3    0    0  0.17273015216E+02  0.27883139580E+02 -0.16731786917E+02  0.54367092612E+02  0.40000019227E+02 0.  0.
         12    1    3    3    0    0 -0.17273015216E+02 -0.27883139580E+02  0.16731786917E+02  0.36820907388E+02  0.00000000000E+00 0. -1.
         11    1    4    4    0    0 -0.52130642287E+01  0.13207342804E+02 -0.47344584683E+01  0.14967466046E+02  0.51100000000E-03 0. -1.
        -11    1    4    4    0    0  0.18070730136E+02  0.21728080560E+02 -0.12831991315E+02  0.31037409265E+02  0.51100000000E-03 0.  1.
         12    1    4    4    0    0  0.44153493082E+01 -0.70522837846E+01  0.83466286649E+00  0.83622173012E+01  0.00000000000E+00 0. -1.
</event>
<event>
 8    1  0.2501893E-006  0.9118800E+02  0.7816164E-02  0.1184000E+00
        -11   -1    0    0    0    0  0.00000000000E+00  0.00000000000E+00  0.45593999997E+02  0.45594000000E+02  0.51100000000E-03 0.  1.
         11   -1    0    0    0    0 -0.00000000000E+00 -0.00000000000E+00 -0.45593999997E+02  0.45594000000E+02  0.51100000000E-03 0. -1.
         23    2    1    2    0    0  0.71054273576E-14 -0.17763568394E-14  0.35527136788E-14  0.91188000000E+02  0.91188000000E+02 0.  0.
    9900012    2    3    3    0    0 -0.32489143993E+02  0.98770210258E+01 -0.14235904274E+02  0.54367340144E+02  0.40000583521E+02 0.  0.
        -12    1    3    3    0    0  0.32489143993E+02 -0.98770210258E+01  0.14235904274E+02  0.36820659856E+02  0.00000000000E+00 0.  1.
         11    1    4    4    0    0  0.64027835714E+01  0.63140566823E+01 -0.99174276401E+01  0.13387244694E+02  0.51100000000E-03 0. -1.
        -11    1    4    4    0    0 -0.12886582670E+02 -0.15209198032E+01 -0.62685281170E+01  0.14410817291E+02  0.51100000000E-03 0.  1.
        -12    1    4    4    0    0 -0.26005344894E+02  0.50838841468E+01  0.19500514827E+01  0.26569278159E+02  0.00000000000E+00 0.  1.
</event>
<event>
 8    1  0.2501893E-006  0.9118800E+02  0.7816164E-02  0.1184000E+00
        -11   -1    0    0    0    0  0.00000000000E+00  0.00000000000E+00  0.45593999997E+02  0.45594000000E+02  0.51100000000E-03 0.  1.
         11   -1    0    0    0    0 -0.00000000000E+00 -0.00000000000E+00 -0.45593999997E+02  0.45594000000E+02  0.51100000000E-03 0. -1.
         23    2    1    2    0    0  0.00000000000E+00  0.88817841970E-15  0.71054273576E-14  0.91188000000E+02  0.91188000000E+02 0.  0.
    9900012    2    3    3    0    0 -0.46684198708E+01 -0.67923206613E+01 -0.35886618641E+02  0.54367093418E+02  0.40000021065E+02 0.  0.
        -12    1    3    3    0    0  0.46684198708E+01  0.67923206613E+01  0.35886618641E+02  0.36820906582E+02  0.00000000000E+00 0.  1.
         11    1    4    4    0    0 -0.13539174364E+01 -0.90106821581E+01 -0.42560847108E+02  0.43525293706E+02  0.51100000000E-03 0. -1.
        -11    1    4    4    0    0  0.22491095100E+01  0.60613081763E+00  0.35896795954E+01  0.42792158177E+01  0.51100000000E-03 0.  1.
         12    1    4    4    0    0 -0.55636119444E+01  0.16122306792E+01  0.30845488714E+01  0.65625838944E+01  0.00000000000E+00 0. -1.
</event>
<event>
 8    1  0.2501893E-006  0.9118800E+02  0.7816164E-02  0.1184000E+00
        -11   -1    0    0    0    0  0.00000000000E+00  0.00000000000E+00  0.45593999997E+02  0.45594000000E+02  0.51100000000E-03 0.  1.
         11   -1    0    0    0    0 -0.00000000000E+00 -0.00000000000E+00 -0.45593999997E+02  0.45594000000E+02  0.51100000000E-03 0. -1.
         23    2    1    2    0    0  0.35527136788E-14 -0.13322676296E-14  0.00000000000E+00  0.91188000000E+02  0.91188000000E+02 0.  0.
    9900012    2    3    3    0    0 -0.19830032141E+02 -0.25144035115E+01 -0.30922925108E+02  0.54367086147E+02  0.40000004489E+02 0.  0.
        -12    1    3    3    0    0  0.19830032141E+02  0.25144035115E+01  0.30922925108E+02  0.36820913853E+02  0.00000000000E+00 0.  1.
         11    1    4    4    0    0 -0.99612140078E+01  0.31872982169E+01 -0.25832983800E+01  0.10773025815E+02  0.51100000000E-03 0. -1.
        -11    1    4    4    0    0 -0.14138983911E+01  0.31011987539E+01  0.61373991231E+01  0.70202714071E+01  0.51100000000E-03 0.  1.
         12    1    4    4    0    0 -0.84549197415E+01 -0.88029004823E+01 -0.34477025852E+02  0.36573788925E+02  0.00000000000E+00 0. -1.
</event>
<event>
 8    1  0.2501893E-006  0.9118800E+02  0.7816164E-02  0.1184000E+00
        -11   -1    0    0    0    0  0.00000000000E+00  0.00000000000E+00  0.45593999997E+02  0.45594000000E+02  0.51100000000E-03 0. -1.
         11   -1    0    0    0    0 -0.00000000000E+00 -0.00000000000E+00 -0.45593999997E+02  0.45594000000E+02  0.51100000000E-03 0.  1.
         23    2    1    2    0    0  0.35527136788E-14  0.35527136788E-14  0.35527136788E-14  0.91188000000E+02  0.91188000000E+02 0.  0.
    9900012    2    3    3    0    0  0.12097258496E+02 -0.18227510837E+02 -0.29617473630E+02  0.54367074446E+02  0.39999977816E+02 0.  0.
         12    1    3    3    0    0 -0.12097258496E+02  0.18227510837E+02  0.29617473630E+02  0.36820925554E+02  0.00000000000E+00 0. -1.
         11    1    4    4    0    0 -0.44090226968E+01  0.23292090738E+01 -0.53980303056E+01  0.73487024359E+01  0.51100000000E-03 0. -1.
        -11    1    4    4    0    0 -0.48839373643E+01  0.49453286456E+01 -0.31979376217E+01  0.76508773931E+01  0.51100000000E-03 0.  1.
        -12    1    4    4    0    0  0.21390218557E+02 -0.25502048556E+02 -0.21021505702E+02  0.39367494617E+02  0.00000000000E+00 0.  1.
</event>
<event>
 8    1  0.2501893E-006  0.9118800E+02  0.7816164E-02  0.1184000E+00
        -11   -1    0    0    0    0  0.00000000000E+00  0.00000000000E+00  0.45593999997E+02  0.45594000000E+02  0.51100000000E-03 0.  1.
         11   -1    0    0    0    0 -0.00000000000E+00 -0.00000000000E+00 -0.45593999997E+02  0.45594000000E+02  0.51100000000E-03 0. -1.
         23    2    1    2    0    0 -0.17763568394E-14  0.00000000000E+00  0.00000000000E+00  0.91188000000E+02  0.91188000000E+02 0.  0.
    9900012    2    3    3    0    0 -0.11938106311E+02  0.28846226231E+02 -0.19523318941E+02  0.54367039494E+02  0.39999898135E+02 0.  0.
         12    1    3    3    0    0  0.11938106311E+02 -0.28846226231E+02  0.19523318941E+02  0.36820960506E+02  0.00000000000E+00 0. -1.
         11    1    4    4    0    0 -0.34561793458E+00 -0.43340802355E+01 -0.65190471348E+01  0.78359223485E+01  0.51100000000E-03 0. -1.
        -11    1    4    4    0    0  0.87393804672E+01  0.12297151995E+02 -0.75842129098E+01  0.16885408016E+02  0.51100000000E-03 0.  1.
        -12    1    4    4    0    0 -0.20331868844E+02  0.20883154472E+02 -0.54200588962E+01  0.29645709130E+02  0.00000000000E+00 0.  1.
</event>
<event>
 8    1  0.2501893E-006  0.9118800E+02  0.7816164E-02  0.1184000E+00
        -11   -1    0    0    0    0  0.00000000000E+00  0.00000000000E+00  0.45593999997E+02  0.45594000000E+02  0.51100000000E-03 0.  1.
         11   -1    0    0    0    0 -0.00000000000E+00 -0.00000000000E+00 -0.45593999997E+02  0.45594000000E+02  0.51100000000E-03 0. -1.
         23    2    1    2    0    0  0.00000000000E+00 -0.17763568394E-14  0.00000000000E+00  0.91188000000E+02  0.91188000000E+02 0.  0.
    9900012    2    3    3    0    0  0.27875944738E+02 -0.74083693424E+01 -0.22887278175E+02  0.54367085649E+02  0.40000003354E+02 0.  0.
        -12    1    3    3    0    0 -0.27875944738E+02  0.74083693424E+01  0.22887278175E+02  0.36820914351E+02  0.00000000000E+00 0.  1.
         11    1    4    4    0    0  0.18855304842E+02  0.68371256848E+01 -0.10699314754E+02  0.22732007056E+02  0.51100000000E-03 0.  1.
        -11    1    4    4    0    0  0.50021501179E+01 -0.29074688032E+01 -0.17539612934E+02  0.18469242074E+02  0.51100000000E-03 0. -1.
        -12    1    4    4    0    0  0.40184897785E+01 -0.11338026224E+02  0.53516495131E+01  0.13165836520E+02  0.00000000000E+00 0.  1.
</event>
<event>
 8    1  0.2501893E-006  0.9118800E+02  0.7816164E-02  0.1184000E+00
        -11   -1    0    0    0    0  0.00000000000E+00  0.00000000000E+00  0.45593999997E+02  0.45594000000E+02  0.51100000000E-03 0.  1.
         11   -1    0    0    0    0 -0.00000000000E+00 -0.00000000000E+00 -0.45593999997E+02  0.45594000000E+02  0.51100000000E-03 0. -1.
         23    2    1    2    0    0  0.00000000000E+00 -0.71054273576E-14  0.44408920985E-15  0.91188000000E+02  0.91188000000E+02 0.  0.
    9900012    2    3    3    0    0 -0.66595300395E+01 -0.36149129220E+02 -0.21613970988E+01  0.54367074955E+02  0.39999978975E+02 0.  0.
         12    1    3    3    0    0  0.66595300395E+01  0.36149129220E+02  0.21613970988E+01  0.36820925045E+02  0.00000000000E+00 0. -1.
         11    1    4    4    0    0 -0.14009095318E+02 -0.19960474713E+02 -0.34096259267E+01  0.24623177123E+02  0.51100000000E-03 0. -1.
        -11    1    4    4    0    0  0.41581773709E+01  0.59497673660E+01  0.13126789760E+01  0.73765369322E+01  0.51100000000E-03 0.  1.
        -12    1    4    4    0    0  0.31913879078E+01 -0.22138421873E+02 -0.64450148070E-01  0.22367360900E+02  0.00000000000E+00 0.  1.
</event>
<event>
 8    1  0.2501893E-006  0.9118800E+02  0.7816164E-02  0.1184000E+00
        -11   -1    0    0    0    0  0.00000000000E+00  0.00000000000E+00  0.45593999997E+02  0.45594000000E+02  0.51100000000E-03 0. -1.
         11   -1    0    0    0    0 -0.00000000000E+00 -0.00000000000E+00 -0.45593999997E+02  0.45594000000E+02  0.51100000000E-03 0.  1.
         23    2    1    2    0    0  0.00000000000E+00 -0.35527136788E-14 -0.17763568394E-14  0.91188000000E+02  0.91188000000E+02 0.  0.
    9900012    2    3    3    0    0  0.19929410141E+02 -0.27168614440E+02  0.14848038349E+02  0.54367092326E+02  0.40000018576E+02 0.  0.
        -12    1    3    3    0    0 -0.19929410141E+02  0.27168614440E+02 -0.14848038349E+02  0.36820907674E+02  0.00000000000E+00 0.  1.
         11    1    4    4    0    0  0.14519236634E+02 -0.26647802797E+02  0.17984783040E+02  0.35275572960E+02  0.51100000000E-03 0. -1.
        -11    1    4    4    0    0  0.15178703458E+01 -0.68116918815E+01 -0.77060676785E+01  0.10396468439E+02  0.51100000000E-03 0.  1.
         12    1    4    4    0    0  0.38923031609E+01  0.62908802390E+01  0.45693229866E+01  0.86950509276E+01  0.00000000000E+00 0. -1.
</event>
<event>
 8    1  0.2501893E-006  0.9118800E+02  0.7816164E-02  0.1184000E+00
        -11   -1    0    0    0    0  0.00000000000E+00  0.00000000000E+00  0.45593999997E+02  0.45594000000E+02  0.51100000000E-03 0.  1.
         11   -1    0    0    0    0 -0.00000000000E+00 -0.00000000000E+00 -0.45593999997E+02  0.45594000000E+02  0.51100000000E-03 0. -1.
         23    2    1    2    0    0  0.00000000000E+00  0.00000000000E+00 -0.35527136788E-14  0.91188000000E+02  0.91188000000E+02 0.  0.
    9900012    2    3    3    0    0 -0.82045143008E+01  0.27941151324E+02  0.22533438322E+02  0.54367111433E+02  0.40000062135E+02 0.  0.
        -12    1    3    3    0    0  0.82045143008E+01 -0.27941151324E+02 -0.22533438322E+02  0.36820888567E+02  0.00000000000E+00 0.  1.
         11    1    4    4    0    0 -0.78981829483E+01  0.17745663668E+02 -0.84563099301E+01  0.21184877881E+02  0.51100000000E-03 0. -1.
        -11    1    4    4    0    0  0.86847285963E+00  0.10170634841E+02  0.23793345007E+02  0.25890525778E+02  0.51100000000E-03 0.  1.
         12    1    4    4    0    0 -0.11748042121E+01  0.24852813980E-01  0.71964032458E+01  0.72917077750E+01  0.00000000000E+00 0. -1.
</event>
<event>
 8    1  0.2501893E-006  0.9118800E+02  0.7816164E-02  0.1184000E+00
        -11   -1    0    0    0    0  0.00000000000E+00  0.00000000000E+00  0.45593999997E+02  0.45594000000E+02  0.51100000000E-03 0.  1.
         11   -1    0    0    0    0 -0.00000000000E+00 -0.00000000000E+00 -0.45593999997E+02  0.45594000000E+02  0.51100000000E-03 0. -1.
         23    2    1    2    0    0  0.00000000000E+00  0.00000000000E+00  0.88817841970E-15  0.91188000000E+02  0.91188000000E+02 0.  0.
    9900012    2    3    3    0    0 -0.15362147596E+02  0.33395681217E+02  0.21242332632E+01  0.54367089234E+02  0.40000011526E+02 0.  0.
         12    1    3    3    0    0  0.15362147596E+02 -0.33395681217E+02 -0.21242332632E+01  0.36820910766E+02  0.00000000000E+00 0. -1.
         11    1    4    4    0    0  0.39393205036E+01 -0.69951230238E+00 -0.75964025151E+01  0.85856214058E+01  0.51100000000E-03 0. -1.
        -11    1    4    4    0    0 -0.14829837578E+02  0.26160320730E+02  0.16616934727E+02  0.34357080540E+02  0.51100000000E-03 0.  1.
        -12    1    4    4    0    0 -0.44716305217E+01  0.79348727893E+01 -0.68962989485E+01  0.11424387287E+02  0.00000000000E+00 0.  1.
</event>
<event>
 8    1  0.2501893E-006  0.9118800E+02  0.7816164E-02  0.1184000E+00
        -11   -1    0    0    0    0  0.00000000000E+00  0.00000000000E+00  0.45593999997E+02  0.45594000000E+02  0.51100000000E-03 0. -1.
         11   -1    0    0    0    0 -0.00000000000E+00 -0.00000000000E+00 -0.45593999997E+02  0.45594000000E+02  0.51100000000E-03 0.  1.
         23    2    1    2    0    0  0.71054273576E-14  0.00000000000E+00  0.35527136788E-14  0.91188000000E+02  0.91188000000E+02 0.  0.
    9900012    2    3    3    0    0  0.32795978440E+02 -0.22038595590E+01  0.16593569816E+02  0.54367085318E+02  0.40000002599E+02 0.  0.
        -12    1    3    3    0    0 -0.32795978440E+02  0.22038595590E+01 -0.16593569816E+02  0.36820914682E+02  0.00000000000E+00 0.  1.
         11    1    4    4    0    0  0.15238647800E+02 -0.40808933109E+01 -0.52998452693E+01  0.16642068295E+02  0.51100000000E-03 0. -1.
        -11    1    4    4    0    0  0.14167330024E+01  0.59628751451E+01 -0.37245923592E+01  0.71718617456E+01  0.51100000000E-03 0.  1.
        -12    1    4    4    0    0  0.16140597637E+02 -0.40858413932E+01  0.25618007444E+02  0.30553155277E+02  0.00000000000E+00 0.  1.
</event>
<event>
 8    1  0.2501893E-006  0.9118800E+02  0.7816164E-02  0.1184000E+00
        -11   -1    0    0    0    0  0.00000000000E+00  0.00000000000E+00  0.45593999997E+02  0.45594000000E+02  0.51100000000E-03 0.  1.
         11   -1    0    0    0    0 -0.00000000000E+00 -0.00000000000E+00 -0.45593999997E+02  0.45594000000E+02  0.51100000000E-03 0. -1.
         23    2    1    2    0    0  0.00000000000E+00  0.00000000000E+00  0.17763568394E-14  0.91188000000E+02  0.91188000000E+02 0.  0.
    9900012    2    3    3    0    0  0.35510249817E+02  0.37839048122E+01 -0.89712418932E+01  0.54367096171E+02  0.40000027341E+02 0.  0.
        -12    1    3    3    0    0 -0.35510249817E+02 -0.37839048122E+01  0.89712418932E+01  0.36820903829E+02  0.00000000000E+00 0.  1.
         11    1    4    4    0    0  0.45765428549E+01  0.46846612706E+01 -0.17088697624E+02  0.18300666176E+02  0.51100000000E-03 0. -1.
        -11    1    4    4    0    0  0.28425314566E+02  0.45082183235E+01  0.87229808845E+01  0.30073459003E+02  0.51100000000E-03 0.  1.
        -12    1    4    4    0    0  0.25083923962E+01 -0.54089747820E+01 -0.60552515371E+00  0.59929709925E+01  0.00000000000E+00 0.  1.
</event>
<event>
 8    1  0.2501893E-006  0.9118800E+02  0.7816164E-02  0.1184000E+00
        -11   -1    0    0    0    0  0.00000000000E+00  0.00000000000E+00  0.45593999997E+02  0.45594000000E+02  0.51100000000E-03 0. -1.
         11   -1    0    0    0    0 -0.00000000000E+00 -0.00000000000E+00 -0.45593999997E+02  0.45594000000E+02  0.51100000000E-03 0.  1.
         23    2    1    2    0    0 -0.88817841970E-15  0.00000000000E+00  0.00000000000E+00  0.91188000000E+02  0.91188000000E+02 0.  0.
    9900012    2    3    3    0    0 -0.63395871217E+01 -0.35853871577E+02 -0.54854460633E+01  0.54367074014E+02  0.39999976831E+02 0.  0.
         12    1    3    3    0    0  0.63395871217E+01  0.35853871577E+02  0.54854460633E+01  0.36820925986E+02  0.00000000000E+00 0. -1.
         11    1    4    4    0    0  0.12427164253E+02 -0.55289220671E+01 -0.30792377665E+01  0.13945791339E+02  0.51100000000E-03 0. -1.
        -11    1    4    4    0    0 -0.15971165524E+02 -0.32283021115E+02  0.37327855483E+00  0.36019590748E+02  0.51100000000E-03 0.  1.
        -12    1    4    4    0    0 -0.27955858506E+01  0.19580716056E+01 -0.27794868516E+01  0.44016919269E+01  0.00000000000E+00 0.  1.
</event>
<event>
 8    1  0.2501893E-006  0.9118800E+02  0.7816164E-02  0.1184000E+00
        -11   -1    0    0    0    0  0.00000000000E+00  0.00000000000E+00  0.45593999997E+02  0.45594000000E+02  0.51100000000E-03 0.  1.
         11   -1    0    0    0    0 -0.00000000000E+00 -0.00000000000E+00 -0.45593999997E+02  0.45594000000E+02  0.51100000000E-03 0. -1.
         23    2    1    2    0    0  0.00000000000E+00  0.35527136788E-14  0.00000000000E+00  0.91188000000E+02  0.91188000000E+02 0.  0.
    9900012    2    3    3    0    0 -0.15710077372E+02  0.31983713159E+02  0.92744419418E+01  0.54367085945E+02  0.40000004030E+02 0.  0.
         12    1    3    3    0    0  0.15710077372E+02 -0.31983713159E+02 -0.92744419418E+01  0.36820914055E+02  0.00000000000E+00 0. -1.
         11    1    4    4    0    0 -0.17790962346E+02  0.58020411806E+00  0.17783552079E+01  0.17889033666E+02  0.51100000000E-03 0. -1.
        -11    1    4    4    0    0 -0.22230172529E+01  0.18179473556E+02 -0.36264743008E+01  0.18670468140E+02  0.51100000000E-03 0.  1.
         12    1    4    4    0    0  0.43039022262E+01  0.13224035485E+02  0.11122561035E+02  0.17807584139E+02  0.00000000000E+00 0. -1.
</event>
<event>
 8    1  0.2501893E-006  0.9118800E+02  0.7816164E-02  0.1184000E+00
        -11   -1    0    0    0    0  0.00000000000E+00  0.00000000000E+00  0.45593999997E+02  0.45594000000E+02  0.51100000000E-03 0.  1.
         11   -1    0    0    0    0 -0.00000000000E+00 -0.00000000000E+00 -0.45593999997E+02  0.45594000000E+02  0.51100000000E-03 0. -1.
         23    2    1    2    0    0 -0.17763568394E-14 -0.71054273576E-14  0.00000000000E+00  0.91188000000E+02  0.91188000000E+02 0.  0.
    9900012    2    3    3    0    0  0.11732428990E+02  0.32817150428E+02  0.11881282919E+02  0.54367080185E+02  0.39999990898E+02 0.  0.
         12    1    3    3    0    0 -0.11732428990E+02 -0.32817150428E+02 -0.11881282919E+02  0.36820919815E+02  0.00000000000E+00 0. -1.
         11    1    4    4    0    0  0.99370142564E+01  0.33457080795E+00 -0.63278697591E+01  0.11785504907E+02  0.51100000000E-03 0. -1.
        -11    1    4    4    0    0 -0.79181055395E+01  0.55266760148E+01  0.64363335472E+01  0.11604608261E+02  0.51100000000E-03 0.  1.
        -12    1    4    4    0    0  0.97135202735E+01  0.26955903605E+02  0.11772819130E+02  0.30976967017E+02  0.00000000000E+00 0.  1.
</event>
<event>
 8    1  0.2501893E-006  0.9118800E+02  0.7816164E-02  0.1184000E+00
        -11   -1    0    0    0    0  0.00000000000E+00  0.00000000000E+00  0.45593999997E+02  0.45594000000E+02  0.51100000000E-03 0.  1.
         11   -1    0    0    0    0 -0.00000000000E+00 -0.00000000000E+00 -0.45593999997E+02  0.45594000000E+02  0.51100000000E-03 0. -1.
         23    2    1    2    0    0 -0.17763568394E-14  0.71054273576E-14  0.22204460493E-15  0.91188000000E+02  0.91188000000E+02 0.  0.
    9900012    2    3    3    0    0 -0.13144560408E+02  0.34373244587E+02 -0.12166109737E+01  0.54367088088E+02  0.40000008914E+02 0.  0.
         12    1    3    3    0    0  0.13144560408E+02 -0.34373244587E+02  0.12166109737E+01  0.36820911912E+02  0.00000000000E+00 0. -1.
         11    1    4    4    0    0 -0.85198832454E+01  0.31692329865E+00 -0.18804708549E+01  0.87306942330E+01  0.51100000000E-03 0. -1.
        -11    1    4    4    0    0 -0.99030267468E+01  0.88335257827E+01  0.11616269144E+02  0.17636292853E+02  0.51100000000E-03 0.  1.
        -12    1    4    4    0    0  0.52783495844E+01  0.25222795506E+02 -0.10952409263E+02  0.28000101002E+02  0.00000000000E+00 0.  1.
</event>
<event>
 8    1  0.2501893E-006  0.9118800E+02  0.7816164E-02  0.1184000E+00
        -11   -1    0    0    0    0  0.00000000000E+00  0.00000000000E+00  0.45593999997E+02  0.45594000000E+02  0.51100000000E-03 0. -1.
         11   -1    0    0    0    0 -0.00000000000E+00 -0.00000000000E+00 -0.45593999997E+02  0.45594000000E+02  0.51100000000E-03 0.  1.
         23    2    1    2    0    0  0.00000000000E+00 -0.35527136788E-14  0.35527136788E-14  0.91188000000E+02  0.91188000000E+02 0.  0.
    9900012    2    3    3    0    0 -0.40289920378E+01  0.31771833325E+02 -0.18168575525E+02  0.54367091453E+02  0.40000016584E+02 0.  0.
         12    1    3    3    0    0  0.40289920378E+01 -0.31771833325E+02  0.18168575525E+02  0.36820908547E+02  0.00000000000E+00 0. -1.
         11    1    4    4    0    0  0.14231484250E+02  0.90641040759E+01  0.11905392761E+00  0.16873271786E+02  0.51100000000E-03 0. -1.
        -11    1    4    4    0    0  0.15206793775E+01  0.44986720280E+01  0.37770045579E+00  0.47637352655E+01  0.51100000000E-03 0.  1.
         12    1    4    4    0    0 -0.19781155665E+02  0.18209057221E+02 -0.18665329908E+02  0.32730084401E+02  0.00000000000E+00 0. -1.
</event>
<event>
 8    1  0.2501893E-006  0.9118800E+02  0.7816164E-02  0.1184000E+00
        -11   -1    0    0    0    0  0.00000000000E+00  0.00000000000E+00  0.45593999997E+02  0.45594000000E+02  0.51100000000E-03 0. -1.
         11   -1    0    0    0    0 -0.00000000000E+00 -0.00000000000E+00 -0.45593999997E+02  0.45594000000E+02  0.51100000000E-03 0.  1.
         23    2    1    2    0    0  0.00000000000E+00  0.00000000000E+00 -0.44408920985E-15  0.91188000000E+02  0.91188000000E+02 0.  0.
    9900012    2    3    3    0    0  0.32439008466E+02 -0.17276083333E+02  0.22422217342E+01  0.54367083609E+02  0.39999998703E+02 0.  0.
         12    1    3    3    0    0 -0.32439008466E+02  0.17276083333E+02 -0.22422217342E+01  0.36820916391E+02  0.00000000000E+00 0. -1.
         11    1    4    4    0    0  0.83283459070E+01 -0.15112615416E+02  0.74585705353E+00  0.17271618143E+02  0.51100000000E-03 0. -1.
        -11    1    4    4    0    0  0.20238115591E+02 -0.13831549496E+02  0.30564840630E+01  0.24702938676E+02  0.51100000000E-03 0.  1.
         12    1    4    4    0    0  0.38725469683E+01  0.11668081579E+02 -0.15601193823E+01  0.12392526790E+02  0.00000000000E+00 0. -1.
</event>
<event>
 8    1  0.2501893E-006  0.9118800E+02  0.7816164E-02  0.1184000E+00
        -11   -1    0    0    0    0  0.00000000000E+00  0.00000000000E+00  0.45593999997E+02  0.45594000000E+02  0.51100000000E-03 0. -1.
         11   -1    0    0    0    0 -0.00000000000E+00 -0.00000000000E+00 -0.45593999997E+02  0.45594000000E+02  0.51100000000E-03 0.  1.
         23    2    1    2    0    0 -0.88817841970E-15 -0.35527136788E-14 -0.35527136788E-14  0.91188000000E+02  0.91188000000E+02 0.  0.
    9900012    2    3    3    0    0 -0.54190665935E+01 -0.29282006999E+02 -0.21655933833E+02  0.54367059126E+02  0.39999942890E+02 0.  0.
         12    1    3    3    0    0  0.54190665935E+01  0.29282006999E+02  0.21655933833E+02  0.36820940874E+02  0.00000000000E+00 0. -1.
         11    1    4    4    0    0  0.90739917646E+01 -0.41046902911E+01  0.24615349961E+01  0.10258896808E+02  0.51100000000E-03 0. -1.
        -11    1    4    4    0    0 -0.64836449229E+01 -0.30241195765E+01  0.33695392777E+01  0.79080178240E+01  0.51100000000E-03 0.  1.
         12    1    4    4    0    0 -0.80094134352E+01 -0.22153197132E+02 -0.27487008106E+02  0.36200144494E+02  0.00000000000E+00 0. -1.
</event>
<event>
 8    1  0.2501893E-006  0.9118800E+02  0.7816164E-02  0.1184000E+00
        -11   -1    0    0    0    0  0.00000000000E+00  0.00000000000E+00  0.45593999997E+02  0.45594000000E+02  0.51100000000E-03 0. -1.
         11   -1    0    0    0    0 -0.00000000000E+00 -0.00000000000E+00 -0.45593999997E+02  0.45594000000E+02  0.51100000000E-03 0.  1.
         23    2    1    2    0    0  0.00000000000E+00  0.00000000000E+00  0.00000000000E+00  0.91188000000E+02  0.91188000000E+02 0.  0.
    9900012    2    3    3    0    0  0.27980879720E+02 -0.80191505825E+01  0.22550616367E+02  0.54367262575E+02  0.40000406691E+02 0.  0.
         12    1    3    3    0    0 -0.27980879720E+02  0.80191505825E+01 -0.22550616367E+02  0.36820737425E+02  0.00000000000E+00 0. -1.
         11    1    4    4    0    0 -0.49004521355E+00  0.10844593925E+01  0.13659933119E+02  0.13711672748E+02  0.51100000000E-03 0. -1.
        -11    1    4    4    0    0 -0.42389373619E+01 -0.18569225829E+01 -0.25116156396E+01  0.52654501060E+01  0.51100000000E-03 0.  1.
        -12    1    4    4    0    0  0.32709862295E+02 -0.72466873920E+01  0.11402298888E+02  0.35390139721E+02  0.00000000000E+00 0.  1.
</event>
<event>
 8    1  0.2501893E-006  0.9118800E+02  0.7816164E-02  0.1184000E+00
        -11   -1    0    0    0    0  0.00000000000E+00  0.00000000000E+00  0.45593999997E+02  0.45594000000E+02  0.51100000000E-03 0. -1.
         11   -1    0    0    0    0 -0.00000000000E+00 -0.00000000000E+00 -0.45593999997E+02  0.45594000000E+02  0.51100000000E-03 0.  1.
         23    2    1    2    0    0 -0.88817841970E-15  0.00000000000E+00  0.00000000000E+00  0.91188000000E+02  0.91188000000E+02 0.  0.
    9900012    2    3    3    0    0 -0.60231282752E+01  0.17461776603E+02 -0.31852596358E+02  0.54367087313E+02  0.40000007147E+02 0.  0.
         12    1    3    3    0    0  0.60231282752E+01 -0.17461776603E+02  0.31852596358E+02  0.36820912687E+02  0.00000000000E+00 0. -1.
         11    1    4    4    0    0 -0.98019176865E+01  0.56680764238E+01 -0.88811310625E+01  0.14390245651E+02  0.51100000000E-03 0. -1.
        -11    1    4    4    0    0  0.46374454337E+01 -0.99391028258E+01 -0.77898517886E+01  0.13452637521E+02  0.51100000000E-03 0.  1.
        -12    1    4    4    0    0 -0.85865602242E+00  0.21732803005E+02 -0.15181613507E+02  0.26524204141E+02  0.00000000000E+00 0.  1.
</event>
<event>
 8    1  0.2501893E-006  0.9118800E+02  0.7816164E-02  0.1184000E+00
        -11   -1    0    0    0    0  0.00000000000E+00  0.00000000000E+00  0.45593999997E+02  0.45594000000E+02  0.51100000000E-03 0.  1.
         11   -1    0    0    0    0 -0.00000000000E+00 -0.00000000000E+00 -0.45593999997E+02  0.45594000000E+02  0.51100000000E-03 0. -1.
         23    2    1    2    0    0 -0.35527136788E-14  0.35527136788E-14  0.88817841970E-15  0.91188000000E+02  0.91188000000E+02 0.  0.
    9900012    2    3    3    0    0 -0.26078052445E+02  0.25793463961E+02 -0.32267891122E+01  0.54367085150E+02  0.40000002216E+02 0.  0.
         12    1    3    3    0    0  0.26078052445E+02 -0.25793463961E+02  0.32267891122E+01  0.36820914850E+02  0.00000000000E+00 0. -1.
         11    1    4    4    0    0 -0.14401640520E+02  0.27136476995E+02  0.46409001342E+01  0.31069817954E+02  0.51100000000E-03 0. -1.
        -11    1    4    4    0    0 -0.15833892430E+02 -0.11286864381E+00 -0.97231218892E+01  0.18581280590E+02  0.51100000000E-03 0.  1.
         12    1    4    4    0    0  0.41574805052E+01 -0.12301443904E+01  0.18554326428E+01  0.47159866057E+01  0.00000000000E+00 0. -1.
</event>
<event>
 8    1  0.2501893E-006  0.9118800E+02  0.7816164E-02  0.1184000E+00
        -11   -1    0    0    0    0  0.00000000000E+00  0.00000000000E+00  0.45593999997E+02  0.45594000000E+02  0.51100000000E-03 0.  1.
         11   -1    0    0    0    0 -0.00000000000E+00 -0.00000000000E+00 -0.45593999997E+02  0.45594000000E+02  0.51100000000E-03 0. -1.
         23    2    1    2    0    0  0.35527136788E-14  0.35527136788E-14 -0.35527136788E-14  0.91188000000E+02  0.91188000000E+02 0.  0.
    9900012    2    3    3    0    0  0.19212466350E+02  0.20947098822E+02 -0.23406845551E+02  0.54367078896E+02  0.39999987958E+02 0.  0.
        -12    1    3    3    0    0 -0.19212466350E+02 -0.20947098822E+02  0.23406845551E+02  0.36820921104E+02  0.00000000000E+00 0.  1.
         11    1    4    4    0    0  0.21045516828E+02  0.11535692650E+02 -0.95287292552E+01  0.25822135174E+02  0.51100000000E-03 0. -1.
        -11    1    4    4    0    0  0.10560131204E+02  0.50559718173E+01 -0.78170229354E+01  0.14077821916E+02  0.51100000000E-03 0.  1.
        -12    1    4    4    0    0 -0.12393181682E+02  0.43554343549E+01 -0.60610933603E+01  0.14467121806E+02  0.00000000000E+00 0.  1.
</event>
<event>
 8    1  0.2501893E-006  0.9118800E+02  0.7816164E-02  0.1184000E+00
        -11   -1    0    0    0    0  0.00000000000E+00  0.00000000000E+00  0.45593999997E+02  0.45594000000E+02  0.51100000000E-03 0. -1.
         11   -1    0    0    0    0 -0.00000000000E+00 -0.00000000000E+00 -0.45593999997E+02  0.45594000000E+02  0.51100000000E-03 0.  1.
         23    2    1    2    0    0  0.00000000000E+00  0.88817841970E-15  0.44408920985E-15  0.91188000000E+02  0.91188000000E+02 0.  0.
    9900012    2    3    3    0    0 -0.36327482913E+02 -0.57850566937E+01 -0.16208083444E+01  0.54367083181E+02  0.39999997727E+02 0.  0.
         12    1    3    3    0    0  0.36327482913E+02  0.57850566937E+01  0.16208083444E+01  0.36820916819E+02  0.00000000000E+00 0. -1.
         11    1    4    4    0    0 -0.12914684990E+02  0.34029194110E+00  0.10214345999E+02  0.16469297236E+02  0.51100000000E-03 0.  1.
        -11    1    4    4    0    0 -0.26161484628E+02  0.26865682364E+01 -0.11380786807E+02  0.28655945900E+02  0.51100000000E-03 0. -1.
         12    1    4    4    0    0  0.27486867053E+01 -0.88119168712E+01 -0.45436753619E+00  0.92418400444E+01  0.00000000000E+00 0. -1.
</event>
<event>
 8    1  0.2501893E-006  0.9118800E+02  0.7816164E-02  0.1184000E+00
        -11   -1    0    0    0    0  0.00000000000E+00  0.00000000000E+00  0.45593999997E+02  0.45594000000E+02  0.51100000000E-03 0.  1.
         11   -1    0    0    0    0 -0.00000000000E+00 -0.00000000000E+00 -0.45593999997E+02  0.45594000000E+02  0.51100000000E-03 0. -1.
         23    2    1    2    0    0  0.26645352591E-14  0.35527136788E-14  0.71054273576E-14  0.91188000000E+02  0.91188000000E+02 0.  0.
    9900012    2    3    3    0    0 -0.68158411536E+01 -0.14508538236E+02 -0.33148557454E+02  0.54367078859E+02  0.39999987875E+02 0.  0.
        -12    1    3    3    0    0  0.68158411536E+01  0.14508538236E+02  0.33148557454E+02  0.36820921141E+02  0.00000000000E+00 0.  1.
         11    1    4    4    0    0  0.60788810974E+01  0.31579040003E+01  0.95461938104E+00  0.69163900624E+01  0.51100000000E-03 0. -1.
        -11    1    4    4    0    0  0.67167414074E+01 -0.13899041082E+01 -0.37517111953E+01  0.78180423200E+01  0.51100000000E-03 0.  1.
        -12    1    4    4    0    0 -0.19611463658E+02 -0.16276538128E+02 -0.30351465640E+02  0.39632646477E+02  0.00000000000E+00 0.  1.
</event>
<event>
 8    1  0.2501893E-006  0.9118800E+02  0.7816164E-02  0.1184000E+00
        -11   -1    0    0    0    0  0.00000000000E+00  0.00000000000E+00  0.45593999997E+02  0.45594000000E+02  0.51100000000E-03 0.  1.
         11   -1    0    0    0    0 -0.00000000000E+00 -0.00000000000E+00 -0.45593999997E+02  0.45594000000E+02  0.51100000000E-03 0. -1.
         23    2    1    2    0    0 -0.35527136788E-14 -0.88817841970E-15  0.35527136788E-14  0.91188000000E+02  0.91188000000E+02 0.  0.
    9900012    2    3    3    0    0  0.23228737534E+02  0.60412638355E+01 -0.27923295390E+02  0.54367061099E+02  0.39999947387E+02 0.  0.
        -12    1    3    3    0    0 -0.23228737534E+02 -0.60412638355E+01  0.27923295390E+02  0.36820938901E+02  0.00000000000E+00 0.  1.
         11    1    4    4    0    0  0.20311917852E+02  0.89811001174E+01  0.23931689862E+00  0.22210165217E+02  0.51100000000E-03 0. -1.
        -11    1    4    4    0    0 -0.46409350856E+01 -0.65172626976E+00 -0.25097858091E+01  0.53162064170E+01  0.51100000000E-03 0.  1.
        -12    1    4    4    0    0  0.75577547676E+01 -0.22881100121E+01 -0.25652826479E+02  0.26840689464E+02  0.00000000000E+00 0.  1.
</event>
<event>
 8    1  0.2501893E-006  0.9118800E+02  0.7816164E-02  0.1184000E+00
        -11   -1    0    0    0    0  0.00000000000E+00  0.00000000000E+00  0.45593999997E+02  0.45594000000E+02  0.51100000000E-03 0. -1.
         11   -1    0    0    0    0 -0.00000000000E+00 -0.00000000000E+00 -0.45593999997E+02  0.45594000000E+02  0.51100000000E-03 0.  1.
         23    2    1    2    0    0  0.00000000000E+00  0.35527136788E-14  0.00000000000E+00  0.91188000000E+02  0.91188000000E+02 0.  0.
    9900012    2    3    3    0    0 -0.14150274195E+02  0.27571964797E+02  0.19883066966E+02  0.54367084007E+02  0.39999999611E+02 0.  0.
         12    1    3    3    0    0  0.14150274195E+02 -0.27571964797E+02 -0.19883066966E+02  0.36820915993E+02  0.00000000000E+00 0. -1.
         11    1    4    4    0    0 -0.11649588476E+02  0.12740946097E+01  0.19497870306E+02  0.22748696127E+02  0.51100000000E-03 0. -1.
        -11    1    4    4    0    0  0.20427769989E+01  0.13967522960E+02 -0.78089773591E+01  0.16132103495E+02  0.51100000000E-03 0.  1.
        -12    1    4    4    0    0 -0.45434627184E+01  0.12330347227E+02  0.81941740189E+01  0.15486284385E+02  0.00000000000E+00 0.  1.
</event>
<event>
 8    1  0.2501893E-006  0.9118800E+02  0.7816164E-02  0.1184000E+00
        -11   -1    0    0    0    0  0.00000000000E+00  0.00000000000E+00  0.45593999997E+02  0.45594000000E+02  0.51100000000E-03 0.  1.
         11   -1    0    0    0    0 -0.00000000000E+00 -0.00000000000E+00 -0.45593999997E+02  0.45594000000E+02  0.51100000000E-03 0. -1.
         23    2    1    2    0    0  0.88817841970E-15  0.00000000000E+00  0.00000000000E+00  0.91188000000E+02  0.91188000000E+02 0.  0.
    9900012    2    3    3    0    0 -0.58516361834E+01  0.29669105078E+02 -0.21006745033E+02  0.54367071453E+02  0.39999970992E+02 0.  0.
        -12    1    3    3    0    0  0.58516361834E+01 -0.29669105078E+02  0.21006745033E+02  0.36820928547E+02  0.00000000000E+00 0.  1.
         11    1    4    4    0    0 -0.10498987031E+02  0.24805126674E+01  0.37648209080E+00  0.10794601002E+02  0.51100000000E-03 0. -1.
        -11    1    4    4    0    0 -0.68241650476E+01 -0.12972517606E+01 -0.18894179142E+01  0.71987492694E+01  0.51100000000E-03 0.  1.
         12    1    4    4    0    0  0.11471515896E+02  0.28485844172E+02 -0.19493809209E+02  0.36373721181E+02  0.00000000000E+00 0. -1.
</event>
<event>
 8    1  0.2501893E-006  0.9118800E+02  0.7816164E-02  0.1184000E+00
        -11   -1    0    0    0    0  0.00000000000E+00  0.00000000000E+00  0.45593999997E+02  0.45594000000E+02  0.51100000000E-03 0.  1.
         11   -1    0    0    0    0 -0.00000000000E+00 -0.00000000000E+00 -0.45593999997E+02  0.45594000000E+02  0.51100000000E-03 0. -1.
         23    2    1    2    0    0 -0.88817841970E-15  0.00000000000E+00 -0.17763568394E-14  0.91188000000E+02  0.91188000000E+02 0.  0.
    9900012    2    3    3    0    0  0.76754391327E+01  0.34504576121E+02 -0.10310349455E+02  0.54367062409E+02  0.39999950374E+02 0.  0.
        -12    1    3    3    0    0 -0.76754391327E+01 -0.34504576121E+02  0.10310349455E+02  0.36820937591E+02  0.00000000000E+00 0.  1.
         11    1    4    4    0    0 -0.63442327091E+01  0.39626464124E+01  0.51145001061E+00  0.74975620458E+01  0.51100000000E-03 0. -1.
        -11    1    4    4    0    0  0.78437303218E+01 -0.35764985239E+01 -0.85197124456E+01  0.12120270107E+02  0.51100000000E-03 0.  1.
         12    1    4    4    0    0  0.61759415200E+01  0.34118428233E+02 -0.23020870200E+01  0.34749230256E+02  0.00000000000E+00 0. -1.
</event>
<event>
 8    1  0.2501893E-006  0.9118800E+02  0.7816164E-02  0.1184000E+00
        -11   -1    0    0    0    0  0.00000000000E+00  0.00000000000E+00  0.45593999997E+02  0.45594000000E+02  0.51100000000E-03 0.  1.
         11   -1    0    0    0    0 -0.00000000000E+00 -0.00000000000E+00 -0.45593999997E+02  0.45594000000E+02  0.51100000000E-03 0. -1.
         23    2    1    2    0    0  0.35527136788E-14  0.00000000000E+00  0.35527136788E-14  0.91188000000E+02  0.91188000000E+02 0.  0.
    9900012    2    3    3    0    0 -0.18356849949E+02 -0.19921780213E+02  0.24938495963E+02  0.54367084099E+02  0.39999999820E+02 0.  0.
         12    1    3    3    0    0  0.18356849949E+02  0.19921780213E+02 -0.24938495963E+02  0.36820915901E+02  0.00000000000E+00 0. -1.
         11    1    4    4    0    0  0.19491670902E+01 -0.20810969720E+02  0.85717201389E+01  0.22591372234E+02  0.51100000000E-03 0. -1.
        -11    1    4    4    0    0 -0.11991474427E+02 -0.15771309111E+01  0.19165465845E+02  0.22662698033E+02  0.51100000000E-03 0.  1.
         12    1    4    4    0    0 -0.83145426121E+01  0.24663204178E+01 -0.27986900209E+01  0.91130138311E+01  0.00000000000E+00 0. -1.
</event>
<event>
 8    1  0.2501893E-006  0.9118800E+02  0.7816164E-02  0.1184000E+00
        -11   -1    0    0    0    0  0.00000000000E+00  0.00000000000E+00  0.45593999997E+02  0.45594000000E+02  0.51100000000E-03 0.  1.
         11   -1    0    0    0    0 -0.00000000000E+00 -0.00000000000E+00 -0.45593999997E+02  0.45594000000E+02  0.51100000000E-03 0. -1.
         23    2    1    2    0    0  0.00000000000E+00 -0.35527136788E-14 -0.17763568394E-14  0.91188000000E+02  0.91188000000E+02 0.  0.
    9900012    2    3    3    0    0 -0.26008794576E+02 -0.25339416456E+02 -0.61020355091E+01  0.54367105673E+02  0.40000049003E+02 0.  0.
        -12    1    3    3    0    0  0.26008794576E+02  0.25339416456E+02  0.61020355091E+01  0.36820894327E+02  0.00000000000E+00 0.  1.
         11    1    4    4    0    0 -0.33097326729E+00 -0.16681535975E+02 -0.87796212676E+01  0.18853777755E+02  0.51100000000E-03 0. -1.
        -11    1    4    4    0    0 -0.33199708998E+01 -0.92968918645E+01  0.77831124526E+01  0.12571047881E+02  0.51100000000E-03 0.  1.
        -12    1    4    4    0    0 -0.22357850409E+02  0.63901138278E+00 -0.51055266941E+01  0.22942280037E+02  0.00000000000E+00 0.  1.
</event>
<event>
 8    1  0.2501893E-006  0.9118800E+02  0.7816164E-02  0.1184000E+00
        -11   -1    0    0    0    0  0.00000000000E+00  0.00000000000E+00  0.45593999997E+02  0.45594000000E+02  0.51100000000E-03 0.  1.
         11   -1    0    0    0    0 -0.00000000000E+00 -0.00000000000E+00 -0.45593999997E+02  0.45594000000E+02  0.51100000000E-03 0. -1.
         23    2    1    2    0    0  0.11102230246E-15 -0.17763568394E-14 -0.71054273576E-14  0.91188000000E+02  0.91188000000E+02 0.  0.
    9900012    2    3    3    0    0 -0.77735195241E+00  0.11543243288E+02  0.34956129672E+02  0.54367058360E+02  0.39999941142E+02 0.  0.
         12    1    3    3    0    0  0.77735195241E+00 -0.11543243288E+02 -0.34956129672E+02  0.36820941640E+02  0.00000000000E+00 0. -1.
         11    1    4    4    0    0  0.36225732347E+01  0.77866985116E+01  0.44456155242E-01  0.85882295709E+01  0.51100000000E-03 0. -1.
        -11    1    4    4    0    0 -0.13916656827E+02  0.41704407674E+01  0.66929298502E+01  0.15995662652E+02  0.51100000000E-03 0.  1.
        -12    1    4    4    0    0  0.95167316401E+01 -0.41389599126E+00  0.28218743666E+02  0.29783166136E+02  0.00000000000E+00 0.  1.
</event>
<event>
 8    1  0.2501893E-006  0.9118800E+02  0.7816164E-02  0.1184000E+00
        -11   -1    0    0    0    0  0.00000000000E+00  0.00000000000E+00  0.45593999997E+02  0.45594000000E+02  0.51100000000E-03 0.  1.
         11   -1    0    0    0    0 -0.00000000000E+00 -0.00000000000E+00 -0.45593999997E+02  0.45594000000E+02  0.51100000000E-03 0. -1.
         23    2    1    2    0    0  0.00000000000E+00  0.00000000000E+00  0.00000000000E+00  0.91188000000E+02  0.91188000000E+02 0.  0.
    9900012    2    3    3    0    0  0.18493810934E+02 -0.26806123714E+02  0.17181103264E+02  0.54367087182E+02  0.40000006848E+02 0.  0.
         12    1    3    3    0    0 -0.18493810934E+02  0.26806123714E+02 -0.17181103264E+02  0.36820912818E+02  0.00000000000E+00 0. -1.
         11    1    4    4    0    0  0.17977657180E+01 -0.66025375544E+01 -0.95131088783E+01  0.11718562392E+02  0.51100000000E-03 0. -1.
        -11    1    4    4    0    0  0.14653274883E+02 -0.24272802407E+02  0.24966808216E+02  0.37778683332E+02  0.51100000000E-03 0.  1.
        -12    1    4    4    0    0  0.20427703327E+01  0.40692162481E+01  0.17274039261E+01  0.48698414584E+01  0.00000000000E+00 0.  1.
</event>
<event>
 8    1  0.2501893E-006  0.9118800E+02  0.7816164E-02  0.1184000E+00
        -11   -1    0    0    0    0  0.00000000000E+00  0.00000000000E+00  0.45593999997E+02  0.45594000000E+02  0.51100000000E-03 0.  1.
         11   -1    0    0    0    0 -0.00000000000E+00 -0.00000000000E+00 -0.45593999997E+02  0.45594000000E+02  0.51100000000E-03 0. -1.
         23    2    1    2    0    0  0.71054273576E-14 -0.88817841970E-15  0.17763568394E-14  0.91188000000E+02  0.91188000000E+02 0.  0.
    9900012    2    3    3    0    0 -0.35526624656E+02  0.44887236167E+01 -0.85726515172E+01  0.54367081309E+02  0.39999993461E+02 0.  0.
         12    1    3    3    0    0  0.35526624656E+02 -0.44887236167E+01  0.85726515172E+01  0.36820918691E+02  0.00000000000E+00 0. -1.
         11    1    4    4    0    0 -0.20555459364E+02 -0.27684103176E+01 -0.12440547320E+01  0.20778322305E+02  0.51100000000E-03 0. -1.
        -11    1    4    4    0    0 -0.16098924038E+02  0.12417294259E+02 -0.14289559940E+02  0.24850675553E+02  0.51100000000E-03 0.  1.
         12    1    4    4    0    0  0.11277587460E+01 -0.51601603249E+01  0.69609631547E+01  0.87380834517E+01  0.00000000000E+00 0. -1.
</event>
<event>
 8    1  0.2501893E-006  0.9118800E+02  0.7816164E-02  0.1184000E+00
        -11   -1    0    0    0    0  0.00000000000E+00  0.00000000000E+00  0.45593999997E+02  0.45594000000E+02  0.51100000000E-03 0.  1.
         11   -1    0    0    0    0 -0.00000000000E+00 -0.00000000000E+00 -0.45593999997E+02  0.45594000000E+02  0.51100000000E-03 0. -1.
         23    2    1    2    0    0  0.35527136788E-14  0.53290705182E-14  0.00000000000E+00  0.91188000000E+02  0.91188000000E+02 0.  0.
    9900012    2    3    3    0    0  0.17336340215E+02  0.14915490838E+02  0.28857550645E+02  0.54367098487E+02  0.40000032621E+02 0.  0.
         12    1    3    3    0    0 -0.17336340215E+02 -0.14915490838E+02 -0.28857550645E+02  0.36820901513E+02  0.00000000000E+00 0. -1.
         11    1    4    4    0    0 -0.28749378635E+00  0.33414684257E+01  0.99000295734E+00  0.34968800428E+01  0.51100000000E-03 0. -1.
        -11    1    4    4    0    0 -0.80735637196E+01 -0.47458484487E+01 -0.33664585501E+00  0.93711706486E+01  0.51100000000E-03 0.  1.
         12    1    4    4    0    0  0.25697397721E+02  0.16319870862E+02  0.28204193543E+02  0.41499047796E+02  0.00000000000E+00 0. -1.
</event>
<event>
 8    1  0.2501893E-006  0.9118800E+02  0.7816164E-02  0.1184000E+00
        -11   -1    0    0    0    0  0.00000000000E+00  0.00000000000E+00  0.45593999997E+02  0.45594000000E+02  0.51100000000E-03 0.  1.
         11   -1    0    0    0    0 -0.00000000000E+00 -0.00000000000E+00 -0.45593999997E+02  0.45594000000E+02  0.51100000000E-03 0. -1.
         23    2    1    2    0    0  0.00000000000E+00  0.35527136788E-14  0.00000000000E+00  0.91188000000E+02  0.91188000000E+02 0.  0.
    9900012    2    3    3    0    0 -0.29201771410E+01  0.30499901650E+02  0.20420778401E+02  0.54367087115E+02  0.40000006696E+02 0.  0.
         12    1    3    3    0    0  0.29201771410E+01 -0.30499901650E+02 -0.20420778401E+02  0.36820912885E+02  0.00000000000E+00 0. -1.
         11    1    4    4    0    0 -0.72222469824E+01  0.13979979149E+02  0.89814307344E+01  0.18118133645E+02  0.51100000000E-03 0.  1.
        -11    1    4    4    0    0  0.14105556130E+01  0.24016002985E+02  0.13977470315E+02  0.27823151209E+02  0.51100000000E-03 0. -1.
         12    1    4    4    0    0  0.28915142284E+01 -0.74960804842E+01 -0.25381226492E+01  0.84258022609E+01  0.00000000000E+00 0. -1.
</event>
<event>
 8    1  0.2501893E-006  0.9118800E+02  0.7816164E-02  0.1184000E+00
        -11   -1    0    0    0    0  0.00000000000E+00  0.00000000000E+00  0.45593999997E+02  0.45594000000E+02  0.51100000000E-03 0. -1.
         11   -1    0    0    0    0 -0.00000000000E+00 -0.00000000000E+00 -0.45593999997E+02  0.45594000000E+02  0.51100000000E-03 0.  1.
         23    2    1    2    0    0  0.00000000000E+00  0.00000000000E+00  0.00000000000E+00  0.91188000000E+02  0.91188000000E+02 0.  0.
    9900012    2    3    3    0    0 -0.22188386529E+02  0.28526046715E+02  0.70512289446E+01  0.54367086546E+02  0.40000005398E+02 0.  0.
         12    1    3    3    0    0  0.22188386529E+02 -0.28526046715E+02 -0.70512289446E+01  0.36820913454E+02  0.00000000000E+00 0. -1.
         11    1    4    4    0    0 -0.35569088724E+01  0.15015133463E+02 -0.15983397808E+01  0.15513237056E+02  0.51100000000E-03 0. -1.
        -11    1    4    4    0    0  0.88204926866E-01  0.12966299537E+02 -0.67404285860E+01  0.14613900286E+02  0.51100000000E-03 0.  1.
         12    1    4    4    0    0 -0.18719682584E+02  0.54461371508E+00  0.15389997311E+02  0.24239949204E+02  0.00000000000E+00 0. -1.
</event>
<event>
 8    1  0.2501893E-006  0.9118800E+02  0.7816164E-02  0.1184000E+00
        -11   -1    0    0    0    0  0.00000000000E+00  0.00000000000E+00  0.45593999997E+02  0.45594000000E+02  0.51100000000E-03 0.  1.
         11   -1    0    0    0    0 -0.00000000000E+00 -0.00000000000E+00 -0.45593999997E+02  0.45594000000E+02  0.51100000000E-03 0. -1.
         23    2    1    2    0    0  0.00000000000E+00 -0.88817841970E-15  0.00000000000E+00  0.91188000000E+02  0.91188000000E+02 0.  0.
    9900012    2    3    3    0    0 -0.26995368727E+01 -0.33854392832E+01 -0.36565436002E+02  0.54367084633E+02  0.40000001037E+02 0.  0.
        -12    1    3    3    0    0  0.26995368727E+01  0.33854392832E+01  0.36565436002E+02  0.36820915367E+02  0.00000000000E+00 0.  1.
         11    1    4    4    0    0 -0.65170811939E-01 -0.11533270812E+02 -0.23380600241E+02  0.26070539902E+02  0.51100000000E-03 0. -1.
        -11    1    4    4    0    0 -0.53802251345E+01 -0.86381718861E+00 -0.17209921459E+02  0.18051991567E+02  0.51100000000E-03 0.  1.
        -12    1    4    4    0    0  0.27458590737E+01  0.90116487175E+01  0.40250856984E+01  0.10244553165E+02  0.00000000000E+00 0.  1.
</event>
<event>
 8    1  0.2501893E-006  0.9118800E+02  0.7816164E-02  0.1184000E+00
        -11   -1    0    0    0    0  0.00000000000E+00  0.00000000000E+00  0.45593999997E+02  0.45594000000E+02  0.51100000000E-03 0. -1.
         11   -1    0    0    0    0 -0.00000000000E+00 -0.00000000000E+00 -0.45593999997E+02  0.45594000000E+02  0.51100000000E-03 0.  1.
         23    2    1    2    0    0 -0.71054273576E-14  0.35527136788E-14  0.00000000000E+00  0.91188000000E+02  0.91188000000E+02 0.  0.
    9900012    2    3    3    0    0  0.26484309162E+02 -0.12025153609E+02  0.22577777959E+02  0.54367095493E+02  0.40000025796E+02 0.  0.
        -12    1    3    3    0    0 -0.26484309162E+02  0.12025153609E+02 -0.22577777959E+02  0.36820904507E+02  0.00000000000E+00 0.  1.
         11    1    4    4    0    0  0.60889514862E+01 -0.21257498572E+02  0.15664544389E+02  0.27098607472E+02  0.51100000000E-03 0. -1.
        -11    1    4    4    0    0 -0.12136734834E+00 -0.18298785169E+01  0.31680169640E+01  0.36605350928E+01  0.51100000000E-03 0.  1.
        -12    1    4    4    0    0  0.20516725024E+02  0.11062223480E+02  0.37452166062E+01  0.23607952928E+02  0.00000000000E+00 0.  1.
</event>
<event>
 8    1  0.2501893E-006  0.9118800E+02  0.7816164E-02  0.1184000E+00
        -11   -1    0    0    0    0  0.00000000000E+00  0.00000000000E+00  0.45593999997E+02  0.45594000000E+02  0.51100000000E-03 0. -1.
         11   -1    0    0    0    0 -0.00000000000E+00 -0.00000000000E+00 -0.45593999997E+02  0.45594000000E+02  0.51100000000E-03 0.  1.
         23    2    1    2    0    0 -0.35527136788E-14  0.00000000000E+00  0.00000000000E+00  0.91188000000E+02  0.91188000000E+02 0.  0.
    9900012    2    3    3    0    0 -0.19513802229E+02  0.27313214825E+02  0.15132102106E+02  0.54367072585E+02  0.39999973573E+02 0.  0.
         12    1    3    3    0    0  0.19513802229E+02 -0.27313214825E+02 -0.15132102106E+02  0.36820927415E+02  0.00000000000E+00 0. -1.
         11    1    4    4    0    0  0.82350585184E+01  0.91956368948E+01  0.98415875108E+01  0.15787107769E+02  0.51100000000E-03 0. -1.
        -11    1    4    4    0    0 -0.20525835912E+02  0.21428562036E+02  0.69189330180E+01  0.30469080150E+02  0.51100000000E-03 0.  1.
         12    1    4    4    0    0 -0.72230248349E+01 -0.33109841055E+01 -0.16284184224E+01  0.81108846664E+01  0.00000000000E+00 0. -1.
</event>
<event>
 8    1  0.2501893E-006  0.9118800E+02  0.7816164E-02  0.1184000E+00
        -11   -1    0    0    0    0  0.00000000000E+00  0.00000000000E+00  0.45593999997E+02  0.45594000000E+02  0.51100000000E-03 0.  1.
         11   -1    0    0    0    0 -0.00000000000E+00 -0.00000000000E+00 -0.45593999997E+02  0.45594000000E+02  0.51100000000E-03 0. -1.
         23    2    1    2    0    0  0.00000000000E+00  0.00000000000E+00  0.00000000000E+00  0.91188000000E+02  0.91188000000E+02 0.  0.
    9900012    2    3    3    0    0 -0.14574850790E+02  0.11189620058E+02  0.31908374960E+02  0.54367105589E+02  0.40000048812E+02 0.  0.
         12    1    3    3    0    0  0.14574850790E+02 -0.11189620058E+02 -0.31908374960E+02  0.36820894411E+02  0.00000000000E+00 0. -1.
         11    1    4    4    0    0  0.75536969647E+01 -0.31588147547E+01  0.66078665293E+01  0.10521423327E+02  0.51100000000E-03 0. -1.
        -11    1    4    4    0    0  0.25985568412E+01  0.10241413720E+02  0.95484917226E+01  0.14241234044E+02  0.51100000000E-03 0.  1.
        -12    1    4    4    0    0 -0.24727104596E+02  0.41070210921E+01  0.15752016708E+02  0.29604448219E+02  0.00000000000E+00 0.  1.
</event>
<event>
 8    1  0.2501893E-006  0.9118800E+02  0.7816164E-02  0.1184000E+00
        -11   -1    0    0    0    0  0.00000000000E+00  0.00000000000E+00  0.45593999997E+02  0.45594000000E+02  0.51100000000E-03 0. -1.
         11   -1    0    0    0    0 -0.00000000000E+00 -0.00000000000E+00 -0.45593999997E+02  0.45594000000E+02  0.51100000000E-03 0.  1.
         23    2    1    2    0    0  0.35527136788E-14  0.17763568394E-14  0.00000000000E+00  0.91188000000E+02  0.91188000000E+02 0.  0.
    9900012    2    3    3    0    0 -0.23735351552E+02 -0.14749839753E+02  0.23975992619E+02  0.54367178334E+02  0.40000214648E+02 0.  0.
        -12    1    3    3    0    0  0.23735351552E+02  0.14749839753E+02 -0.23975992619E+02  0.36820821666E+02  0.00000000000E+00 0.  1.
         11    1    4    4    0    0 -0.78578655957E+01  0.94072417066E+00  0.54361346536E+01  0.96011756530E+01  0.51100000000E-03 0. -1.
        -11    1    4    4    0    0  0.42345077594E+01 -0.17590850336E+02  0.16455554645E+02  0.24457194247E+02  0.51100000000E-03 0.  1.
        -12    1    4    4    0    0 -0.20111993716E+02  0.19002864120E+01  0.20843033204E+01  0.20308808434E+02  0.00000000000E+00 0.  1.
</event>
<event>
 8    1  0.2501893E-006  0.9118800E+02  0.7816164E-02  0.1184000E+00
        -11   -1    0    0    0    0  0.00000000000E+00  0.00000000000E+00  0.45593999997E+02  0.45594000000E+02  0.51100000000E-03 0.  1.
         11   -1    0    0    0    0 -0.00000000000E+00 -0.00000000000E+00 -0.45593999997E+02  0.45594000000E+02  0.51100000000E-03 0. -1.
         23    2    1    2    0    0 -0.35527136788E-14 -0.35527136788E-14 -0.71054273576E-14  0.91188000000E+02  0.91188000000E+02 0.  0.
    9900012    2    3    3    0    0 -0.23601988520E+02 -0.17873251645E+02 -0.21892299401E+02  0.54367085297E+02  0.40000002552E+02 0.  0.
        -12    1    3    3    0    0  0.23601988520E+02  0.17873251645E+02  0.21892299401E+02  0.36820914703E+02  0.00000000000E+00 0.  1.
         11    1    4    4    0    0 -0.55173241106E+01 -0.14139484584E+02 -0.35151685440E+01  0.15579547484E+02  0.51100000000E-03 0. -1.
        -11    1    4    4    0    0  0.25869454491E+01 -0.10723419903E+02 -0.13585397875E+01  0.11114389402E+02  0.51100000000E-03 0.  1.
         12    1    4    4    0    0 -0.20671609858E+02  0.69896528419E+01 -0.17018591070E+02  0.27673148411E+02  0.00000000000E+00 0. -1.
</event>
<event>
 8    1  0.2501893E-006  0.9118800E+02  0.7816164E-02  0.1184000E+00
        -11   -1    0    0    0    0  0.00000000000E+00  0.00000000000E+00  0.45593999997E+02  0.45594000000E+02  0.51100000000E-03 0. -1.
         11   -1    0    0    0    0 -0.00000000000E+00 -0.00000000000E+00 -0.45593999997E+02  0.45594000000E+02  0.51100000000E-03 0.  1.
         23    2    1    2    0    0 -0.71054273576E-14 -0.88817841970E-15  0.00000000000E+00  0.91188000000E+02  0.91188000000E+02 0.  0.
    9900012    2    3    3    0    0 -0.28072183400E+02 -0.61697570595E+01 -0.23014408184E+02  0.54367131365E+02  0.40000107573E+02 0.  0.
         12    1    3    3    0    0  0.28072183400E+02  0.61697570595E+01  0.23014408184E+02  0.36820868635E+02  0.00000000000E+00 0. -1.
         11    1    4    4    0    0 -0.17657315652E+02  0.10480040645E+02 -0.32232610255E+01  0.20784644809E+02  0.51100000000E-03 0. -1.
        -11    1    4    4    0    0 -0.53822232048E+01 -0.54469412934E+01 -0.19876827842E+02  0.21300839922E+02  0.51100000000E-03 0.  1.
        -12    1    4    4    0    0 -0.50326445433E+01 -0.11202856411E+02  0.85680683860E-01  0.12281646634E+02  0.00000000000E+00 0.  1.
</event>
<event>
 8    1  0.2501893E-006  0.9118800E+02  0.7816164E-02  0.1184000E+00
        -11   -1    0    0    0    0  0.00000000000E+00  0.00000000000E+00  0.45593999997E+02  0.45594000000E+02  0.51100000000E-03 0. -1.
         11   -1    0    0    0    0 -0.00000000000E+00 -0.00000000000E+00 -0.45593999997E+02  0.45594000000E+02  0.51100000000E-03 0.  1.
         23    2    1    2    0    0 -0.26645352591E-14 -0.71054273576E-14  0.00000000000E+00  0.91188000000E+02  0.91188000000E+02 0.  0.
    9900012    2    3    3    0    0 -0.24624418774E+00 -0.34859080151E+02  0.11855855513E+02  0.54367117133E+02  0.40000075127E+02 0.  0.
        -12    1    3    3    0    0  0.24624418774E+00  0.34859080151E+02 -0.11855855513E+02  0.36820882867E+02  0.00000000000E+00 0.  1.
         11    1    4    4    0    0 -0.11184213590E+02 -0.16961801658E+01  0.13051099250E+02  0.17271214569E+02  0.51100000000E-03 0. -1.
        -11    1    4    4    0    0  0.84633855241E+01 -0.27356725929E+02  0.40092975868E+01  0.28915286882E+02  0.51100000000E-03 0.  1.
         12    1    4    4    0    0  0.24745838780E+01 -0.58061740563E+01 -0.52045413238E+01  0.81806156817E+01  0.00000000000E+00 0. -1.
</event>
<event>
 8    1  0.2501893E-006  0.9118800E+02  0.7816164E-02  0.1184000E+00
        -11   -1    0    0    0    0  0.00000000000E+00  0.00000000000E+00  0.45593999997E+02  0.45594000000E+02  0.51100000000E-03 0. -1.
         11   -1    0    0    0    0 -0.00000000000E+00 -0.00000000000E+00 -0.45593999997E+02  0.45594000000E+02  0.51100000000E-03 0.  1.
         23    2    1    2    0    0 -0.35527136788E-14  0.00000000000E+00  0.35527136788E-14  0.91188000000E+02  0.91188000000E+02 0.  0.
    9900012    2    3    3    0    0 -0.12657437861E+02 -0.23149577647E+02  0.25684315625E+02  0.54366841035E+02  0.39999445703E+02 0.  0.
        -12    1    3    3    0    0  0.12657437861E+02  0.23149577647E+02 -0.25684315625E+02  0.36821158965E+02  0.00000000000E+00 0.  1.
         11    1    4    4    0    0 -0.14543532624E+02  0.45574891784E+01  0.12844725003E+02  0.19931683559E+02  0.51100000000E-03 0. -1.
        -11    1    4    4    0    0  0.60791629946E+00 -0.65562864976E+01 -0.37019355840E+01  0.75537263780E+01  0.51100000000E-03 0.  1.
        -12    1    4    4    0    0  0.12781784640E+01 -0.21150780328E+02  0.16541526205E+02  0.26881431098E+02  0.00000000000E+00 0.  1.
</event>
<event>
 8    1  0.2501893E-006  0.9118800E+02  0.7816164E-02  0.1184000E+00
        -11   -1    0    0    0    0  0.00000000000E+00  0.00000000000E+00  0.45593999997E+02  0.45594000000E+02  0.51100000000E-03 0.  1.
         11   -1    0    0    0    0 -0.00000000000E+00 -0.00000000000E+00 -0.45593999997E+02  0.45594000000E+02  0.51100000000E-03 0. -1.
         23    2    1    2    0    0  0.00000000000E+00  0.35527136788E-14  0.00000000000E+00  0.91188000000E+02  0.91188000000E+02 0.  0.
    9900012    2    3    3    0    0  0.73475569165E+01  0.29856203878E+02 -0.20258253175E+02  0.54367131945E+02  0.40000108894E+02 0.  0.
        -12    1    3    3    0    0 -0.73475569165E+01 -0.29856203878E+02  0.20258253175E+02  0.36820868055E+02  0.00000000000E+00 0.  1.
         11    1    4    4    0    0  0.32001435855E+01 -0.28934213293E+01 -0.22899250068E+01  0.48843180440E+01  0.51100000000E-03 0. -1.
        -11    1    4    4    0    0 -0.12730539314E+02  0.23479231583E+02 -0.85276628940E+01  0.28036796922E+02  0.51100000000E-03 0.  1.
         12    1    4    4    0    0  0.16877952645E+02  0.92703936238E+01 -0.94406652746E+01  0.21446016979E+02  0.00000000000E+00 0. -1.
</event>
<event>
 8    1  0.2501893E-006  0.9118800E+02  0.7816164E-02  0.1184000E+00
        -11   -1    0    0    0    0  0.00000000000E+00  0.00000000000E+00  0.45593999997E+02  0.45594000000E+02  0.51100000000E-03 0.  1.
         11   -1    0    0    0    0 -0.00000000000E+00 -0.00000000000E+00 -0.45593999997E+02  0.45594000000E+02  0.51100000000E-03 0. -1.
         23    2    1    2    0    0  0.00000000000E+00 -0.35527136788E-14  0.00000000000E+00  0.91188000000E+02  0.91188000000E+02 0.  0.
    9900012    2    3    3    0    0  0.17606517108E+02  0.22961100081E+02 -0.22772387160E+02  0.54367038870E+02  0.39999896711E+02 0.  0.
         12    1    3    3    0    0 -0.17606517108E+02 -0.22961100081E+02  0.22772387160E+02  0.36820961130E+02  0.00000000000E+00 0. -1.
         11    1    4    4    0    0 -0.57223210015E+01 -0.51224077417E+01 -0.26167841781E+01  0.81136661511E+01  0.51100000000E-03 0. -1.
        -11    1    4    4    0    0  0.14658730127E+02  0.24601849100E+02 -0.22730106285E+02  0.36562098955E+02  0.51100000000E-03 0.  1.
         12    1    4    4    0    0  0.86701079828E+01  0.34816587232E+01  0.25745033028E+01  0.96912737633E+01  0.00000000000E+00 0. -1.
</event>
<event>
 8    1  0.2501893E-006  0.9118800E+02  0.7816164E-02  0.1184000E+00
        -11   -1    0    0    0    0  0.00000000000E+00  0.00000000000E+00  0.45593999997E+02  0.45594000000E+02  0.51100000000E-03 0. -1.
         11   -1    0    0    0    0 -0.00000000000E+00 -0.00000000000E+00 -0.45593999997E+02  0.45594000000E+02  0.51100000000E-03 0.  1.
         23    2    1    2    0    0  0.66613381478E-15  0.00000000000E+00 -0.71054273576E-14  0.91188000000E+02  0.91188000000E+02 0.  0.
    9900012    2    3    3    0    0 -0.35003991907E+00 -0.94666551835E+01  0.35581445386E+02  0.54367090939E+02  0.40000015414E+02 0.  0.
        -12    1    3    3    0    0  0.35003991907E+00  0.94666551835E+01 -0.35581445386E+02  0.36820909061E+02  0.00000000000E+00 0.  1.
         11    1    4    4    0    0  0.89726879610E+01 -0.82375591980E+01  0.29481617193E+02  0.31898781534E+02  0.51100000000E-03 0. -1.
        -11    1    4    4    0    0  0.44072802709E+01 -0.30604896002E+01  0.67241804782E+01  0.86026344420E+01  0.51100000000E-03 0.  1.
        -12    1    4    4    0    0 -0.13730008151E+02  0.18313936146E+01 -0.62435228499E+00  0.13865674963E+02  0.00000000000E+00 0.  1.
</event>
<event>
 8    1  0.2501893E-006  0.9118800E+02  0.7816164E-02  0.1184000E+00
        -11   -1    0    0    0    0  0.00000000000E+00  0.00000000000E+00  0.45593999997E+02  0.45594000000E+02  0.51100000000E-03 0.  1.
         11   -1    0    0    0    0 -0.00000000000E+00 -0.00000000000E+00 -0.45593999997E+02  0.45594000000E+02  0.51100000000E-03 0. -1.
         23    2    1    2    0    0  0.00000000000E+00  0.00000000000E+00  0.10547118734E-14  0.91188000000E+02  0.91188000000E+02 0.  0.
    9900012    2    3    3    0    0 -0.18780194165E+02  0.31669400914E+02  0.36337711087E+00  0.54367099820E+02  0.40000035660E+02 0.  0.
         12    1    3    3    0    0  0.18780194165E+02 -0.31669400914E+02 -0.36337711087E+00  0.36820900180E+02  0.00000000000E+00 0. -1.
         11    1    4    4    0    0 -0.10409380001E+02 -0.31588051454E+01 -0.11421243996E+02  0.15772699725E+02  0.51100000000E-03 0. -1.
        -11    1    4    4    0    0 -0.91405862392E+01  0.22751224786E+02  0.63441066442E+01  0.25326196624E+02  0.51100000000E-03 0.  1.
         12    1    4    4    0    0  0.76977207539E+00  0.12076981274E+02  0.54405144624E+01  0.13268203471E+02  0.00000000000E+00 0. -1.
</event>
<event>
 8    1  0.2501893E-006  0.9118800E+02  0.7816164E-02  0.1184000E+00
        -11   -1    0    0    0    0  0.00000000000E+00  0.00000000000E+00  0.45593999997E+02  0.45594000000E+02  0.51100000000E-03 0. -1.
         11   -1    0    0    0    0 -0.00000000000E+00 -0.00000000000E+00 -0.45593999997E+02  0.45594000000E+02  0.51100000000E-03 0.  1.
         23    2    1    2    0    0  0.00000000000E+00 -0.17763568394E-14  0.00000000000E+00  0.91188000000E+02  0.91188000000E+02 0.  0.
    9900012    2    3    3    0    0  0.10554398545E+02 -0.81344394979E+01  0.34325135013E+02  0.54367091154E+02  0.40000015904E+02 0.  0.
        -12    1    3    3    0    0 -0.10554398545E+02  0.81344394979E+01 -0.34325135013E+02  0.36820908846E+02  0.00000000000E+00 0.  1.
         11    1    4    4    0    0 -0.91172454614E+01  0.13342657614E+01 -0.11544621186E+01  0.92863993544E+01  0.51100000000E-03 0.  1.
        -11    1    4    4    0    0  0.10494504931E+02 -0.14055093128E+02  0.21768546648E+02  0.27956213979E+02  0.51100000000E-03 0. -1.
         12    1    4    4    0    0  0.91771390755E+01  0.45863878689E+01  0.13711050483E+02  0.17124477821E+02  0.00000000000E+00 0. -1.
</event>
<event>
 8    1  0.2501893E-006  0.9118800E+02  0.7816164E-02  0.1184000E+00
        -11   -1    0    0    0    0  0.00000000000E+00  0.00000000000E+00  0.45593999997E+02  0.45594000000E+02  0.51100000000E-03 0.  1.
         11   -1    0    0    0    0 -0.00000000000E+00 -0.00000000000E+00 -0.45593999997E+02  0.45594000000E+02  0.51100000000E-03 0. -1.
         23    2    1    2    0    0 -0.88817841970E-15  0.00000000000E+00  0.00000000000E+00  0.91188000000E+02  0.91188000000E+02 0.  0.
    9900012    2    3    3    0    0  0.50871213898E+01  0.34521996971E+02 -0.11753055467E+02  0.54367063134E+02  0.39999952025E+02 0.  0.
        -12    1    3    3    0    0 -0.50871213898E+01 -0.34521996971E+02  0.11753055467E+02  0.36820936866E+02  0.00000000000E+00 0.  1.
         11    1    4    4    0    0  0.67200577952E+01 -0.96862678327E+00 -0.13629340120E+02  0.15226829183E+02  0.51100000000E-03 0. -1.
        -11    1    4    4    0    0 -0.68594131362E+01  0.68869007651E+01  0.25718596810E+01  0.10054621485E+02  0.51100000000E-03 0.  1.
         12    1    4    4    0    0  0.52264767308E+01  0.28603722990E+02 -0.69557502796E+00  0.29085612466E+02  0.00000000000E+00 0. -1.
</event>
<event>
 8    1  0.2501893E-006  0.9118800E+02  0.7816164E-02  0.1184000E+00
        -11   -1    0    0    0    0  0.00000000000E+00  0.00000000000E+00  0.45593999997E+02  0.45594000000E+02  0.51100000000E-03 0.  1.
         11   -1    0    0    0    0 -0.00000000000E+00 -0.00000000000E+00 -0.45593999997E+02  0.45594000000E+02  0.51100000000E-03 0. -1.
         23    2    1    2    0    0  0.00000000000E+00 -0.71054273576E-14 -0.88817841970E-15  0.91188000000E+02  0.91188000000E+02 0.  0.
    9900012    2    3    3    0    0  0.62543657546E+01 -0.35943804161E+02  0.49704581366E+01  0.54367087428E+02  0.40000007410E+02 0.  0.
         12    1    3    3    0    0 -0.62543657546E+01  0.35943804161E+02 -0.49704581366E+01  0.36820912572E+02  0.00000000000E+00 0. -1.
         11    1    4    4    0    0  0.13383991451E+02 -0.29482490969E+02  0.26420707210E+01  0.32485828277E+02  0.51100000000E-03 0. -1.
        -11    1    4    4    0    0 -0.50587074467E+01 -0.36091460970E+01  0.10936937111E+02  0.12579071914E+02  0.51100000000E-03 0.  1.
        -12    1    4    4    0    0 -0.20709182499E+01 -0.28521670946E+01 -0.86085496954E+01  0.93021872369E+01  0.00000000000E+00 0.  1.
</event>
<event>
 8    1  0.2501893E-006  0.9118800E+02  0.7816164E-02  0.1184000E+00
        -11   -1    0    0    0    0  0.00000000000E+00  0.00000000000E+00  0.45593999997E+02  0.45594000000E+02  0.51100000000E-03 0.  1.
         11   -1    0    0    0    0 -0.00000000000E+00 -0.00000000000E+00 -0.45593999997E+02  0.45594000000E+02  0.51100000000E-03 0. -1.
         23    2    1    2    0    0  0.00000000000E+00  0.00000000000E+00  0.00000000000E+00  0.91188000000E+02  0.91188000000E+02 0.  0.
    9900012    2    3    3    0    0  0.31830504561E+02 -0.80652955903E+01 -0.16659832759E+02  0.54367081474E+02  0.39999993837E+02 0.  0.
         12    1    3    3    0    0 -0.31830504561E+02  0.80652955903E+01  0.16659832759E+02  0.36820918526E+02  0.00000000000E+00 0. -1.
         11    1    4    4    0    0  0.21948681214E+01  0.83203548341E+01 -0.45312925131E-01  0.86051033787E+01  0.51100000000E-03 0. -1.
        -11    1    4    4    0    0  0.97355375365E+01 -0.11928550078E+02 -0.19841767778E+02  0.25115070116E+02  0.51100000000E-03 0.  1.
        -12    1    4    4    0    0  0.19900098903E+02 -0.44571003464E+01  0.32272479446E+01  0.20646907980E+02  0.00000000000E+00 0.  1.
</event>
<event>
 8    1  0.2501893E-006  0.9118800E+02  0.7816164E-02  0.1184000E+00
        -11   -1    0    0    0    0  0.00000000000E+00  0.00000000000E+00  0.45593999997E+02  0.45594000000E+02  0.51100000000E-03 0. -1.
         11   -1    0    0    0    0 -0.00000000000E+00 -0.00000000000E+00 -0.45593999997E+02  0.45594000000E+02  0.51100000000E-03 0.  1.
         23    2    1    2    0    0  0.71054273576E-14  0.00000000000E+00 -0.35527136788E-14  0.91188000000E+02  0.91188000000E+02 0.  0.
    9900012    2    3    3    0    0  0.26496833626E+02  0.18816516295E+02 -0.17309812560E+02  0.54367175885E+02  0.40000209063E+02 0.  0.
         12    1    3    3    0    0 -0.26496833626E+02 -0.18816516295E+02  0.17309812560E+02  0.36820824115E+02  0.00000000000E+00 0. -1.
         11    1    4    4    0    0  0.21127951072E+02  0.72087692060E+01  0.60061493480E+01  0.23117752923E+02  0.51100000000E-03 0.  1.
        -11    1    4    4    0    0 -0.21327053640E+01  0.89966300109E+01 -0.34747149923E+01  0.98773188802E+01  0.51100000000E-03 0. -1.
        -12    1    4    4    0    0  0.75015879177E+01  0.26111170785E+01 -0.19841246916E+02  0.21372104081E+02  0.00000000000E+00 0.  1.
</event>
<event>
 8    1  0.2501893E-006  0.9118800E+02  0.7816164E-02  0.1184000E+00
        -11   -1    0    0    0    0  0.00000000000E+00  0.00000000000E+00  0.45593999997E+02  0.45594000000E+02  0.51100000000E-03 0.  1.
         11   -1    0    0    0    0 -0.00000000000E+00 -0.00000000000E+00 -0.45593999997E+02  0.45594000000E+02  0.51100000000E-03 0. -1.
         23    2    1    2    0    0  0.00000000000E+00  0.44408920985E-15  0.00000000000E+00  0.91188000000E+02  0.91188000000E+02 0.  0.
    9900012    2    3    3    0    0  0.31814653632E+01 -0.23826980531E+01 -0.36605735499E+02  0.54367097739E+02  0.40000030916E+02 0.  0.
        -12    1    3    3    0    0 -0.31814653632E+01  0.23826980531E+01  0.36605735499E+02  0.36820902261E+02  0.00000000000E+00 0.  1.
         11    1    4    4    0    0  0.94723553327E+01  0.10141655207E+02 -0.19949926589E+02  0.24301815921E+02  0.51100000000E-03 0. -1.
        -11    1    4    4    0    0 -0.13379436798E+02 -0.44853674630E+01 -0.11331342531E+02  0.18097711847E+02  0.51100000000E-03 0.  1.
         12    1    4    4    0    0  0.70885468282E+01 -0.80389857970E+01 -0.53244663790E+01  0.11967569971E+02  0.00000000000E+00 0. -1.
</event>
<event>
 8    1  0.2501893E-006  0.9118800E+02  0.7816164E-02  0.1184000E+00
        -11   -1    0    0    0    0  0.00000000000E+00  0.00000000000E+00  0.45593999997E+02  0.45594000000E+02  0.51100000000E-03 0.  1.
         11   -1    0    0    0    0 -0.00000000000E+00 -0.00000000000E+00 -0.45593999997E+02  0.45594000000E+02  0.51100000000E-03 0. -1.
         23    2    1    2    0    0 -0.71054273576E-14  0.00000000000E+00  0.00000000000E+00  0.91188000000E+02  0.91188000000E+02 0.  0.
    9900012    2    3    3    0    0  0.21057554593E+02  0.87564420550E+01  0.28908180351E+02  0.54367098679E+02  0.40000033058E+02 0.  0.
         12    1    3    3    0    0 -0.21057554593E+02 -0.87564420550E+01 -0.28908180351E+02  0.36820901321E+02  0.00000000000E+00 0. -1.
         11    1    4    4    0    0  0.43325969389E+01 -0.41141768629E+01  0.93034223720E+01  0.11056740731E+02  0.51100000000E-03 0. -1.
        -11    1    4    4    0    0  0.12116036170E+02  0.21061950055E+02  0.22862228818E+02  0.33362937212E+02  0.51100000000E-03 0.  1.
         12    1    4    4    0    0  0.46089214836E+01 -0.81913311371E+01 -0.32574708387E+01  0.99474207363E+01  0.00000000000E+00 0. -1.
</event>
<event>
 8    1  0.2501893E-006  0.9118800E+02  0.7816164E-02  0.1184000E+00
        -11   -1    0    0    0    0  0.00000000000E+00  0.00000000000E+00  0.45593999997E+02  0.45594000000E+02  0.51100000000E-03 0.  1.
         11   -1    0    0    0    0 -0.00000000000E+00 -0.00000000000E+00 -0.45593999997E+02  0.45594000000E+02  0.51100000000E-03 0. -1.
         23    2    1    2    0    0  0.00000000000E+00  0.00000000000E+00  0.00000000000E+00  0.91188000000E+02  0.91188000000E+02 0.  0.
    9900012    2    3    3    0    0 -0.20442381084E+02  0.23520687546E+01 -0.30534525612E+02  0.54367076245E+02  0.39999981916E+02 0.  0.
        -12    1    3    3    0    0  0.20442381084E+02 -0.23520687546E+01  0.30534525612E+02  0.36820923755E+02  0.00000000000E+00 0.  1.
         11    1    4    4    0    0 -0.30236695535E+02 -0.34841921612E+01 -0.21376200240E+02  0.37193269403E+02  0.51100000000E-03 0. -1.
        -11    1    4    4    0    0  0.81200951465E+01  0.33635008331E+00 -0.78041622595E+01  0.11267387692E+02  0.51100000000E-03 0.  1.
        -12    1    4    4    0    0  0.16742193046E+01  0.54999108324E+01 -0.13541631122E+01  0.59064191503E+01  0.00000000000E+00 0.  1.
</event>
<event>
 8    1  0.2501893E-006  0.9118800E+02  0.7816164E-02  0.1184000E+00
        -11   -1    0    0    0    0  0.00000000000E+00  0.00000000000E+00  0.45593999997E+02  0.45594000000E+02  0.51100000000E-03 0.  1.
         11   -1    0    0    0    0 -0.00000000000E+00 -0.00000000000E+00 -0.45593999997E+02  0.45594000000E+02  0.51100000000E-03 0. -1.
         23    2    1    2    0    0  0.00000000000E+00 -0.17763568394E-14 -0.35527136788E-14  0.91188000000E+02  0.91188000000E+02 0.  0.
    9900012    2    3    3    0    0 -0.18619028392E+02  0.14457850746E+02 -0.28285741563E+02  0.54367070596E+02  0.39999969037E+02 0.  0.
        -12    1    3    3    0    0  0.18619028392E+02 -0.14457850746E+02  0.28285741563E+02  0.36820929404E+02  0.00000000000E+00 0.  1.
         11    1    4    4    0    0 -0.67271381421E+01  0.26677705933E+02 -0.22389334244E+02  0.35471631899E+02  0.51100000000E-03 0. -1.
        -11    1    4    4    0    0 -0.87286212968E+01 -0.10188172874E+02 -0.21485325747E+01  0.13586901366E+02  0.51100000000E-03 0.  1.
         12    1    4    4    0    0 -0.31632689530E+01 -0.20316823129E+01 -0.37478747437E+01  0.53085373300E+01  0.00000000000E+00 0. -1.
</event>
<event>
 8    1  0.2501893E-006  0.9118800E+02  0.7816164E-02  0.1184000E+00
        -11   -1    0    0    0    0  0.00000000000E+00  0.00000000000E+00  0.45593999997E+02  0.45594000000E+02  0.51100000000E-03 0. -1.
         11   -1    0    0    0    0 -0.00000000000E+00 -0.00000000000E+00 -0.45593999997E+02  0.45594000000E+02  0.51100000000E-03 0.  1.
         23    2    1    2    0    0  0.35527136788E-14  0.17763568394E-14 -0.35527136788E-14  0.91188000000E+02  0.91188000000E+02 0.  0.
    9900012    2    3    3    0    0 -0.19227756925E+02 -0.14095892742E+02 -0.28060261695E+02  0.54367094050E+02  0.40000022506E+02 0.  0.
         12    1    3    3    0    0  0.19227756925E+02  0.14095892742E+02  0.28060261695E+02  0.36820905950E+02  0.00000000000E+00 0. -1.
         11    1    4    4    0    0 -0.14972154220E+02  0.65879538326E+01 -0.54337924733E+01  0.17236375448E+02  0.51100000000E-03 0. -1.
        -11    1    4    4    0    0 -0.32534496503E+01 -0.50648358195E+01  0.32861213823E+01  0.68582862660E+01  0.51100000000E-03 0.  1.
         12    1    4    4    0    0 -0.10021530547E+01 -0.15619010755E+02 -0.25912590604E+02  0.30272432336E+02  0.00000000000E+00 0. -1.
</event>
<event>
 8    1  0.2501893E-006  0.9118800E+02  0.7816164E-02  0.1184000E+00
        -11   -1    0    0    0    0  0.00000000000E+00  0.00000000000E+00  0.45593999997E+02  0.45594000000E+02  0.51100000000E-03 0. -1.
         11   -1    0    0    0    0 -0.00000000000E+00 -0.00000000000E+00 -0.45593999997E+02  0.45594000000E+02  0.51100000000E-03 0.  1.
         23    2    1    2    0    0  0.35527136788E-14  0.00000000000E+00  0.00000000000E+00  0.91188000000E+02  0.91188000000E+02 0.  0.
    9900012    2    3    3    0    0  0.16386293462E+02 -0.55268080463E+01 -0.32507284957E+02  0.54367084804E+02  0.40000001427E+02 0.  0.
         12    1    3    3    0    0 -0.16386293462E+02  0.55268080463E+01  0.32507284957E+02  0.36820915196E+02  0.00000000000E+00 0. -1.
         11    1    4    4    0    0  0.25708412989E+02 -0.45648643355E+01 -0.13006663736E+02  0.29170769387E+02  0.51100000000E-03 0. -1.
        -11    1    4    4    0    0 -0.52559642457E+00  0.50361647642E-01 -0.15450335857E+02  0.15459355299E+02  0.51100000000E-03 0.  1.
         12    1    4    4    0    0 -0.87965231018E+01 -0.10123053584E+01 -0.40502853637E+01  0.97369601184E+01  0.00000000000E+00 0. -1.
</event>
<event>
 8    1  0.2501893E-006  0.9118800E+02  0.7816164E-02  0.1184000E+00
        -11   -1    0    0    0    0  0.00000000000E+00  0.00000000000E+00  0.45593999997E+02  0.45594000000E+02  0.51100000000E-03 0.  1.
         11   -1    0    0    0    0 -0.00000000000E+00 -0.00000000000E+00 -0.45593999997E+02  0.45594000000E+02  0.51100000000E-03 0. -1.
         23    2    1    2    0    0  0.35527136788E-14  0.00000000000E+00  0.88817841970E-15  0.91188000000E+02  0.91188000000E+02 0.  0.
    9900012    2    3    3    0    0  0.19660790468E+02  0.30975484766E+02 -0.31231926588E+01  0.54367059345E+02  0.39999943389E+02 0.  0.
        -12    1    3    3    0    0 -0.19660790468E+02 -0.30975484766E+02  0.31231926588E+01  0.36820940655E+02  0.00000000000E+00 0.  1.
         11    1    4    4    0    0 -0.10323122010E+02  0.63883259848E+01 -0.69829879628E+01  0.14004987614E+02  0.51100000000E-03 0. -1.
        -11    1    4    4    0    0  0.53278383213E+01  0.50434661405E+00  0.24000531783E+01  0.58651924269E+01  0.51100000000E-03 0.  1.
         12    1    4    4    0    0  0.24656074156E+02  0.24082812168E+02  0.14597421257E+01  0.34496879304E+02  0.00000000000E+00 0. -1.
</event>
<event>
 8    1  0.2501893E-006  0.9118800E+02  0.7816164E-02  0.1184000E+00
        -11   -1    0    0    0    0  0.00000000000E+00  0.00000000000E+00  0.45593999997E+02  0.45594000000E+02  0.51100000000E-03 0. -1.
         11   -1    0    0    0    0 -0.00000000000E+00 -0.00000000000E+00 -0.45593999997E+02  0.45594000000E+02  0.51100000000E-03 0.  1.
         23    2    1    2    0    0  0.00000000000E+00  0.00000000000E+00  0.00000000000E+00  0.91188000000E+02  0.91188000000E+02 0.  0.
    9900012    2    3    3    0    0 -0.55753313646E+01  0.25506090725E+02  0.25963831720E+02  0.54367278368E+02  0.40000442694E+02 0.  0.
        -12    1    3    3    0    0  0.55753313646E+01 -0.25506090725E+02 -0.25963831720E+02  0.36820721632E+02  0.00000000000E+00 0.  1.
         11    1    4    4    0    0 -0.70797881745E+01 -0.77763300298E+01  0.12415286426E+02  0.16270649852E+02  0.51100000000E-03 0. -1.
        -11    1    4    4    0    0 -0.16327209638E+01  0.46392353112E+01 -0.20530971451E+01  0.53294924868E+01  0.51100000000E-03 0.  1.
        -12    1    4    4    0    0  0.31371777737E+01  0.28643185444E+02  0.15601642439E+02  0.32767136029E+02  0.00000000000E+00 0.  1.
</event>
<event>
 8    1  0.2501893E-006  0.9118800E+02  0.7816164E-02  0.1184000E+00
        -11   -1    0    0    0    0  0.00000000000E+00  0.00000000000E+00  0.45593999997E+02  0.45594000000E+02  0.51100000000E-03 0. -1.
         11   -1    0    0    0    0 -0.00000000000E+00 -0.00000000000E+00 -0.45593999997E+02  0.45594000000E+02  0.51100000000E-03 0.  1.
         23    2    1    2    0    0  0.35527136788E-14  0.88817841970E-15  0.00000000000E+00  0.91188000000E+02  0.91188000000E+02 0.  0.
    9900012    2    3    3    0    0  0.24452080377E+02  0.71182915476E+01  0.26593330851E+02  0.54367088074E+02  0.40000008882E+02 0.  0.
        -12    1    3    3    0    0 -0.24452080377E+02 -0.71182915476E+01 -0.26593330851E+02  0.36820911926E+02  0.00000000000E+00 0.  1.
         11    1    4    4    0    0  0.15769092061E+02 -0.12210549135E+01 -0.15836250602E+01  0.15895380088E+02  0.51100000000E-03 0.  1.
        -11    1    4    4    0    0 -0.40176353337E+01  0.12259662819E+02  0.14047754482E+02  0.19073021060E+02  0.51100000000E-03 0. -1.
        -12    1    4    4    0    0  0.12700623649E+02 -0.39203163577E+01  0.14129201429E+02  0.19398686926E+02  0.00000000000E+00 0.  1.
</event>
<event>
 8    1  0.2501893E-006  0.9118800E+02  0.7816164E-02  0.1184000E+00
        -11   -1    0    0    0    0  0.00000000000E+00  0.00000000000E+00  0.45593999997E+02  0.45594000000E+02  0.51100000000E-03 0.  1.
         11   -1    0    0    0    0 -0.00000000000E+00 -0.00000000000E+00 -0.45593999997E+02  0.45594000000E+02  0.51100000000E-03 0. -1.
         23    2    1    2    0    0 -0.44408920985E-15 -0.22204460493E-15  0.00000000000E+00  0.91188000000E+02  0.91188000000E+02 0.  0.
    9900012    2    3    3    0    0 -0.39192732023E+01  0.18434115526E+01  0.36565292968E+02  0.54367088572E+02  0.40000010018E+02 0.  0.
         12    1    3    3    0    0  0.39192732023E+01 -0.18434115526E+01 -0.36565292968E+02  0.36820911428E+02  0.00000000000E+00 0. -1.
         11    1    4    4    0    0  0.11345527341E+02  0.50272448518E+01  0.13658595799E+02  0.18454035355E+02  0.51100000000E-03 0. -1.
        -11    1    4    4    0    0 -0.11482334757E+02 -0.68355092607E+01  0.26407912287E+02  0.29596385420E+02  0.51100000000E-03 0.  1.
         12    1    4    4    0    0 -0.37824657866E+01  0.36516759615E+01 -0.35012151179E+01  0.63166677968E+01  0.00000000000E+00 0. -1.
</event>
<event>
 8    1  0.2501893E-006  0.9118800E+02  0.7816164E-02  0.1184000E+00
        -11   -1    0    0    0    0  0.00000000000E+00  0.00000000000E+00  0.45593999997E+02  0.45594000000E+02  0.51100000000E-03 0. -1.
         11   -1    0    0    0    0 -0.00000000000E+00 -0.00000000000E+00 -0.45593999997E+02  0.45594000000E+02  0.51100000000E-03 0.  1.
         23    2    1    2    0    0  0.00000000000E+00  0.35527136788E-14  0.00000000000E+00  0.91188000000E+02  0.91188000000E+02 0.  0.
    9900012    2    3    3    0    0  0.11559818620E+02  0.30038737672E+02  0.17883660734E+02  0.54367075396E+02  0.39999979980E+02 0.  0.
        -12    1    3    3    0    0 -0.11559818620E+02 -0.30038737672E+02 -0.17883660734E+02  0.36820924604E+02  0.00000000000E+00 0.  1.
         11    1    4    4    0    0  0.67763429109E+01  0.26714902318E+01 -0.29234570932E+01  0.78487123111E+01  0.51100000000E-03 0. -1.
        -11    1    4    4    0    0 -0.36535464009E+01 -0.26071413262E+01 -0.45273063574E+01  0.63751149255E+01  0.51100000000E-03 0.  1.
         12    1    4    4    0    0  0.84370221100E+01  0.29974388766E+02  0.25334424185E+02  0.40143248159E+02  0.00000000000E+00 0. -1.
</event>
<event>
 8    1  0.2501893E-006  0.9118800E+02  0.7816164E-02  0.1184000E+00
        -11   -1    0    0    0    0  0.00000000000E+00  0.00000000000E+00  0.45593999997E+02  0.45594000000E+02  0.51100000000E-03 0. -1.
         11   -1    0    0    0    0 -0.00000000000E+00 -0.00000000000E+00 -0.45593999997E+02  0.45594000000E+02  0.51100000000E-03 0.  1.
         23    2    1    2    0    0  0.00000000000E+00  0.00000000000E+00  0.00000000000E+00  0.91188000000E+02  0.91188000000E+02 0.  0.
    9900012    2    3    3    0    0  0.32265012753E+02  0.11333319815E+02  0.13649313631E+02  0.54367096310E+02  0.40000027657E+02 0.  0.
        -12    1    3    3    0    0 -0.32265012753E+02 -0.11333319815E+02 -0.13649313631E+02  0.36820903690E+02  0.00000000000E+00 0.  1.
         11    1    4    4    0    0 -0.10371960832E+01  0.68755907819E+01  0.14856289601E+02  0.16403013909E+02  0.51100000000E-03 0. -1.
        -11    1    4    4    0    0  0.19601610936E+02  0.20562614084E+01 -0.93839870936E+01  0.21829122206E+02  0.51100000000E-03 0.  1.
         12    1    4    4    0    0  0.13700597900E+02  0.24014676251E+01  0.81770111231E+01  0.16134960195E+02  0.00000000000E+00 0. -1.
</event>
<event>
 8    1  0.2501893E-006  0.9118800E+02  0.7816164E-02  0.1184000E+00
        -11   -1    0    0    0    0  0.00000000000E+00  0.00000000000E+00  0.45593999997E+02  0.45594000000E+02  0.51100000000E-03 0.  1.
         11   -1    0    0    0    0 -0.00000000000E+00 -0.00000000000E+00 -0.45593999997E+02  0.45594000000E+02  0.51100000000E-03 0. -1.
         23    2    1    2    0    0  0.00000000000E+00 -0.35527136788E-14  0.00000000000E+00  0.91188000000E+02  0.91188000000E+02 0.  0.
    9900012    2    3    3    0    0  0.17122690827E+02 -0.28894884849E+02 -0.15089037389E+02  0.54367082563E+02  0.39999996319E+02 0.  0.
        -12    1    3    3    0    0 -0.17122690827E+02  0.28894884849E+02  0.15089037389E+02  0.36820917437E+02  0.00000000000E+00 0.  1.
         11    1    4    4    0    0  0.10760020555E+01 -0.29224602771E+01  0.50978909821E+01  0.59738636762E+01  0.51100000000E-03 0. -1.
        -11    1    4    4    0    0 -0.65011259452E-01  0.26543899017E+01 -0.14883503401E+02  0.15118488217E+02  0.51100000000E-03 0.  1.
         12    1    4    4    0    0  0.16111700031E+02 -0.28626814473E+02 -0.53034249701E+01  0.33274730670E+02  0.00000000000E+00 0. -1.
</event>
<event>
 8    1  0.2501893E-006  0.9118800E+02  0.7816164E-02  0.1184000E+00
        -11   -1    0    0    0    0  0.00000000000E+00  0.00000000000E+00  0.45593999997E+02  0.45594000000E+02  0.51100000000E-03 0.  1.
         11   -1    0    0    0    0 -0.00000000000E+00 -0.00000000000E+00 -0.45593999997E+02  0.45594000000E+02  0.51100000000E-03 0. -1.
         23    2    1    2    0    0 -0.13322676296E-14 -0.35527136788E-14  0.00000000000E+00  0.91188000000E+02  0.91188000000E+02 0.  0.
    9900012    2    3    3    0    0 -0.25771874894E+01 -0.25124347222E+02 -0.26793751440E+02  0.54367084274E+02  0.40000000219E+02 0.  0.
        -12    1    3    3    0    0  0.25771874894E+01  0.25124347222E+02  0.26793751440E+02  0.36820915726E+02  0.00000000000E+00 0.  1.
         11    1    4    4    0    0  0.92916898315E+01 -0.28475730591E+02 -0.15411312732E+02  0.33685475995E+02  0.51100000000E-03 0. -1.
        -11    1    4    4    0    0 -0.13989465153E+02  0.15248045896E+01 -0.76527439759E+01  0.16018572188E+02  0.51100000000E-03 0.  1.
        -12    1    4    4    0    0  0.21205878323E+01  0.18265787793E+01 -0.37296947324E+01  0.46630360913E+01  0.00000000000E+00 0.  1.
</event>
<event>
 8    1  0.2501893E-006  0.9118800E+02  0.7816164E-02  0.1184000E+00
        -11   -1    0    0    0    0  0.00000000000E+00  0.00000000000E+00  0.45593999997E+02  0.45594000000E+02  0.51100000000E-03 0.  1.
         11   -1    0    0    0    0 -0.00000000000E+00 -0.00000000000E+00 -0.45593999997E+02  0.45594000000E+02  0.51100000000E-03 0. -1.
         23    2    1    2    0    0  0.00000000000E+00  0.88817841970E-15 -0.35527136788E-14  0.91188000000E+02  0.91188000000E+02 0.  0.
    9900012    2    3    3    0    0 -0.34191832277E+02  0.68131028182E+01 -0.11843979838E+02  0.54367087153E+02  0.40000006782E+02 0.  0.
        -12    1    3    3    0    0  0.34191832277E+02 -0.68131028182E+01  0.11843979838E+02  0.36820912847E+02  0.00000000000E+00 0.  1.
         11    1    4    4    0    0 -0.18913355755E+02  0.24378719312E+01 -0.18193075171E+02  0.26356142167E+02  0.51100000000E-03 0. -1.
        -11    1    4    4    0    0 -0.19811935490E+02  0.18291132594E+01  0.93758046572E+01  0.21994639265E+02  0.51100000000E-03 0.  1.
        -12    1    4    4    0    0  0.45334589683E+01  0.25461176277E+01 -0.30267093248E+01  0.60163057209E+01  0.00000000000E+00 0.  1.
</event>
<event>
 8    1  0.2501893E-006  0.9118800E+02  0.7816164E-02  0.1184000E+00
        -11   -1    0    0    0    0  0.00000000000E+00  0.00000000000E+00  0.45593999997E+02  0.45594000000E+02  0.51100000000E-03 0.  1.
         11   -1    0    0    0    0 -0.00000000000E+00 -0.00000000000E+00 -0.45593999997E+02  0.45594000000E+02  0.51100000000E-03 0. -1.
         23    2    1    2    0    0  0.35527136788E-14  0.00000000000E+00  0.00000000000E+00  0.91188000000E+02  0.91188000000E+02 0.  0.
    9900012    2    3    3    0    0  0.27666952325E+02 -0.98234750018E+01 -0.22222038651E+02  0.54367083201E+02  0.39999997774E+02 0.  0.
        -12    1    3    3    0    0 -0.27666952325E+02  0.98234750018E+01  0.22222038651E+02  0.36820916799E+02  0.00000000000E+00 0.  1.
         11    1    4    4    0    0  0.48840481186E+01  0.36837290928E+01 -0.20075258582E+02  0.20986657511E+02  0.51100000000E-03 0. -1.
        -11    1    4    4    0    0 -0.11776479277E+01 -0.14627640876E+01 -0.60004898791E+01  0.62874806138E+01  0.51100000000E-03 0.  1.
        -12    1    4    4    0    0  0.23960552134E+02 -0.12044440007E+02  0.38537098102E+01  0.27092945077E+02  0.00000000000E+00 0.  1.
</event>
<event>
 8    1  0.2501893E-006  0.9118800E+02  0.7816164E-02  0.1184000E+00
        -11   -1    0    0    0    0  0.00000000000E+00  0.00000000000E+00  0.45593999997E+02  0.45594000000E+02  0.51100000000E-03 0. -1.
         11   -1    0    0    0    0 -0.00000000000E+00 -0.00000000000E+00 -0.45593999997E+02  0.45594000000E+02  0.51100000000E-03 0.  1.
         23    2    1    2    0    0  0.00000000000E+00 -0.44408920985E-15  0.00000000000E+00  0.91188000000E+02  0.91188000000E+02 0.  0.
    9900012    2    3    3    0    0  0.99602719491E+01  0.21503554231E+01 -0.35382895296E+02  0.54367077615E+02  0.39999985040E+02 0.  0.
         12    1    3    3    0    0 -0.99602719491E+01 -0.21503554231E+01  0.35382895296E+02  0.36820922385E+02  0.00000000000E+00 0. -1.
         11    1    4    4    0    0  0.10589530053E+02 -0.51818793528E+01 -0.32593516948E+01  0.12231655411E+02  0.51100000000E-03 0. -1.
        -11    1    4    4    0    0 -0.12283843774E+02  0.81164484894E+01 -0.23021650614E+02  0.27327018703E+02  0.51100000000E-03 0.  1.
        -12    1    4    4    0    0  0.11654585671E+02 -0.78421371350E+00 -0.91018929875E+01  0.14808403501E+02  0.00000000000E+00 0.  1.
</event>
<event>
 8    1  0.2501893E-006  0.9118800E+02  0.7816164E-02  0.1184000E+00
        -11   -1    0    0    0    0  0.00000000000E+00  0.00000000000E+00  0.45593999997E+02  0.45594000000E+02  0.51100000000E-03 0.  1.
         11   -1    0    0    0    0 -0.00000000000E+00 -0.00000000000E+00 -0.45593999997E+02  0.45594000000E+02  0.51100000000E-03 0. -1.
         23    2    1    2    0    0  0.00000000000E+00 -0.35527136788E-14  0.00000000000E+00  0.91188000000E+02  0.91188000000E+02 0.  0.
    9900012    2    3    3    0    0  0.32228530608E+02 -0.17058792827E+02 -0.51084567742E+01  0.54367123741E+02  0.40000090193E+02 0.  0.
         12    1    3    3    0    0 -0.32228530608E+02  0.17058792827E+02  0.51084567742E+01  0.36820876259E+02  0.00000000000E+00 0. -1.
         11    1    4    4    0    0 -0.16504431005E+00 -0.56598790003E+01 -0.14509465765E+01  0.58452302051E+01  0.51100000000E-03 0. -1.
        -11    1    4    4    0    0  0.30733063383E+02 -0.21656837313E+02 -0.28925659791E+00  0.37598184224E+02  0.51100000000E-03 0.  1.
        -12    1    4    4    0    0  0.16605115352E+01  0.10257923487E+02 -0.33682535998E+01  0.10923709312E+02  0.00000000000E+00 0.  1.
</event>
<event>
 8    1  0.2501893E-006  0.9118800E+02  0.7816164E-02  0.1184000E+00
        -11   -1    0    0    0    0  0.00000000000E+00  0.00000000000E+00  0.45593999997E+02  0.45594000000E+02  0.51100000000E-03 0.  1.
         11   -1    0    0    0    0 -0.00000000000E+00 -0.00000000000E+00 -0.45593999997E+02  0.45594000000E+02  0.51100000000E-03 0. -1.
         23    2    1    2    0    0  0.00000000000E+00 -0.55511151231E-16  0.00000000000E+00  0.91188000000E+02  0.91188000000E+02 0.  0.
    9900012    2    3    3    0    0  0.26935150329E+02  0.97478781224E-01  0.25105104926E+02  0.54367107578E+02  0.40000053346E+02 0.  0.
         12    1    3    3    0    0 -0.26935150329E+02 -0.97478781224E-01 -0.25105104926E+02  0.36820892422E+02  0.00000000000E+00 0. -1.
         11    1    4    4    0    0 -0.83103370324E+01 -0.21241387093E+01  0.12071436858E+02  0.14808553438E+02  0.51100000000E-03 0. -1.
        -11    1    4    4    0    0  0.38744496621E+01  0.23357322297E+01  0.58148526225E+01  0.73674633705E+01  0.51100000000E-03 0.  1.
         12    1    4    4    0    0  0.31371037699E+02 -0.11411473917E+00  0.72188154458E+01  0.32191090770E+02  0.00000000000E+00 0. -1.
</event>
<event>
 8    1  0.2501893E-006  0.9118800E+02  0.7816164E-02  0.1184000E+00
        -11   -1    0    0    0    0  0.00000000000E+00  0.00000000000E+00  0.45593999997E+02  0.45594000000E+02  0.51100000000E-03 0.  1.
         11   -1    0    0    0    0 -0.00000000000E+00 -0.00000000000E+00 -0.45593999997E+02  0.45594000000E+02  0.51100000000E-03 0. -1.
         23    2    1    2    0    0  0.00000000000E+00  0.33306690739E-15  0.00000000000E+00  0.91188000000E+02  0.91188000000E+02 0.  0.
    9900012    2    3    3    0    0  0.35870124262E+02  0.26846973553E+00 -0.83091755378E+01  0.54367078112E+02  0.39999986172E+02 0.  0.
         12    1    3    3    0    0 -0.35870124262E+02 -0.26846973553E+00  0.83091755378E+01  0.36820921888E+02  0.00000000000E+00 0. -1.
         11    1    4    4    0    0  0.42731446646E+01 -0.26413657997E+01 -0.40032031882E+00  0.50395272825E+01  0.51100000000E-03 0. -1.
        -11    1    4    4    0    0  0.22377270819E+02 -0.82647895417E+01 -0.19470896732E+02  0.30792284996E+02  0.51100000000E-03 0.  1.
         12    1    4    4    0    0  0.92197087780E+01  0.11174625077E+02  0.11562041513E+02  0.18535265833E+02  0.00000000000E+00 0. -1.
</event>
<event>
 8    1  0.2501893E-006  0.9118800E+02  0.7816164E-02  0.1184000E+00
        -11   -1    0    0    0    0  0.00000000000E+00  0.00000000000E+00  0.45593999997E+02  0.45594000000E+02  0.51100000000E-03 0.  1.
         11   -1    0    0    0    0 -0.00000000000E+00 -0.00000000000E+00 -0.45593999997E+02  0.45594000000E+02  0.51100000000E-03 0. -1.
         23    2    1    2    0    0  0.00000000000E+00  0.17763568394E-14 -0.35527136788E-14  0.91188000000E+02  0.91188000000E+02 0.  0.
    9900012    2    3    3    0    0 -0.28654797055E+02  0.10297827746E+02 -0.20703535849E+02  0.54367094970E+02  0.40000024603E+02 0.  0.
        -12    1    3    3    0    0  0.28654797055E+02 -0.10297827746E+02  0.20703535849E+02  0.36820905030E+02  0.00000000000E+00 0.  1.
         11    1    4    4    0    0 -0.77601475400E+01  0.29280938411E+01 -0.22285113724E+02  0.23778560035E+02  0.51100000000E-03 0. -1.
        -11    1    4    4    0    0 -0.16406598310E+02 -0.24776219042E+01  0.75503918902E+01  0.18229742081E+02  0.51100000000E-03 0.  1.
         12    1    4    4    0    0 -0.44880512057E+01  0.98473558087E+01 -0.59688140150E+01  0.12358792853E+02  0.00000000000E+00 0. -1.
</event>
<event>
 8    1  0.2501893E-006  0.9118800E+02  0.7816164E-02  0.1184000E+00
        -11   -1    0    0    0    0  0.00000000000E+00  0.00000000000E+00  0.45593999997E+02  0.45594000000E+02  0.51100000000E-03 0.  1.
         11   -1    0    0    0    0 -0.00000000000E+00 -0.00000000000E+00 -0.45593999997E+02  0.45594000000E+02  0.51100000000E-03 0. -1.
         23    2    1    2    0    0  0.00000000000E+00  0.88817841970E-15  0.71054273576E-14  0.91188000000E+02  0.91188000000E+02 0.  0.
    9900012    2    3    3    0    0 -0.14346464108E+02 -0.64691979541E+01  0.33288275908E+02  0.54367070252E+02  0.39999968255E+02 0.  0.
         12    1    3    3    0    0  0.14346464108E+02  0.64691979541E+01 -0.33288275908E+02  0.36820929748E+02  0.00000000000E+00 0. -1.
         11    1    4    4    0    0 -0.65970521086E+00 -0.34714441896E+01 -0.74001692913E+00  0.36102300541E+01  0.51100000000E-03 0. -1.
        -11    1    4    4    0    0 -0.10447762842E+02 -0.16679746336E+02  0.81434977974E+01  0.21299911804E+02  0.51100000000E-03 0.  1.
        -12    1    4    4    0    0 -0.32389960547E+01  0.13681992572E+02  0.25884795039E+02  0.29456928394E+02  0.00000000000E+00 0.  1.
</event>
<event>
 8    1  0.2501893E-006  0.9118800E+02  0.7816164E-02  0.1184000E+00
        -11   -1    0    0    0    0  0.00000000000E+00  0.00000000000E+00  0.45593999997E+02  0.45594000000E+02  0.51100000000E-03 0. -1.
         11   -1    0    0    0    0 -0.00000000000E+00 -0.00000000000E+00 -0.45593999997E+02  0.45594000000E+02  0.51100000000E-03 0.  1.
         23    2    1    2    0    0  0.00000000000E+00 -0.71054273576E-14 -0.88817841970E-15  0.91188000000E+02  0.91188000000E+02 0.  0.
    9900012    2    3    3    0    0 -0.15143401649E+02  0.33449423485E+02  0.27554430227E+01  0.54367095459E+02  0.40000025719E+02 0.  0.
         12    1    3    3    0    0  0.15143401649E+02 -0.33449423485E+02 -0.27554430227E+01  0.36820904541E+02  0.00000000000E+00 0. -1.
         11    1    4    4    0    0  0.26779319953E+01 -0.47359753264E+01 -0.40907975231E+01  0.68070115837E+01  0.51100000000E-03 0. -1.
        -11    1    4    4    0    0 -0.11133961990E+02  0.93989450695E+01 -0.54424385461E+01  0.15553951768E+02  0.51100000000E-03 0.  1.
        -12    1    4    4    0    0 -0.66873716535E+01  0.28786453741E+02  0.12288679092E+02  0.32006132107E+02  0.00000000000E+00 0.  1.
</event>
<event>
 8    1  0.2501893E-006  0.9118800E+02  0.7816164E-02  0.1184000E+00
        -11   -1    0    0    0    0  0.00000000000E+00  0.00000000000E+00  0.45593999997E+02  0.45594000000E+02  0.51100000000E-03 0.  1.
         11   -1    0    0    0    0 -0.00000000000E+00 -0.00000000000E+00 -0.45593999997E+02  0.45594000000E+02  0.51100000000E-03 0. -1.
         23    2    1    2    0    0  0.00000000000E+00  0.00000000000E+00 -0.71054273576E-14  0.91188000000E+02  0.91188000000E+02 0.  0.
    9900012    2    3    3    0    0 -0.15950459567E+02 -0.20734869221E+02  0.25911936891E+02  0.54367076119E+02  0.39999981628E+02 0.  0.
         12    1    3    3    0    0  0.15950459567E+02  0.20734869221E+02 -0.25911936891E+02  0.36820923881E+02  0.00000000000E+00 0. -1.
         11    1    4    4    0    0 -0.87382077982E+01 -0.11500535663E+02 -0.80715802106E+01  0.16545966379E+02  0.51100000000E-03 0. -1.
        -11    1    4    4    0    0 -0.84604476987E+01 -0.13054612452E+01  0.18280533309E+02  0.20185670726E+02  0.51100000000E-03 0.  1.
         12    1    4    4    0    0  0.12481959297E+01 -0.79288723127E+01  0.15702983793E+02  0.17635439014E+02  0.00000000000E+00 0. -1.
</event>
<event>
 8    1  0.2501893E-006  0.9118800E+02  0.7816164E-02  0.1184000E+00
        -11   -1    0    0    0    0  0.00000000000E+00  0.00000000000E+00  0.45593999997E+02  0.45594000000E+02  0.51100000000E-03 0. -1.
         11   -1    0    0    0    0 -0.00000000000E+00 -0.00000000000E+00 -0.45593999997E+02  0.45594000000E+02  0.51100000000E-03 0.  1.
         23    2    1    2    0    0 -0.88817841970E-15  0.00000000000E+00  0.71054273576E-14  0.91188000000E+02  0.91188000000E+02 0.  0.
    9900012    2    3    3    0    0  0.13796815702E+01  0.36952426017E+01 -0.36609046832E+02  0.54367073218E+02  0.39999975015E+02 0.  0.
         12    1    3    3    0    0 -0.13796815702E+01 -0.36952426017E+01  0.36609046832E+02  0.36820926782E+02  0.00000000000E+00 0. -1.
         11    1    4    4    0    0  0.10119989671E+02  0.12522353651E+02 -0.14098495684E+02  0.21400726920E+02  0.51100000000E-03 0. -1.
        -11    1    4    4    0    0 -0.40607772972E+01 -0.54265526597E+01 -0.25548693722E+02  0.26432425866E+02  0.51100000000E-03 0.  1.
         12    1    4    4    0    0 -0.46795308034E+01 -0.34005583899E+01  0.30381425738E+01  0.65339204312E+01  0.00000000000E+00 0. -1.
</event>
<event>
 8    1  0.2501893E-006  0.9118800E+02  0.7816164E-02  0.1184000E+00
        -11   -1    0    0    0    0  0.00000000000E+00  0.00000000000E+00  0.45593999997E+02  0.45594000000E+02  0.51100000000E-03 0. -1.
         11   -1    0    0    0    0 -0.00000000000E+00 -0.00000000000E+00 -0.45593999997E+02  0.45594000000E+02  0.51100000000E-03 0.  1.
         23    2    1    2    0    0  0.00000000000E+00 -0.17763568394E-14  0.35527136788E-14  0.91188000000E+02  0.91188000000E+02 0.  0.
    9900012    2    3    3    0    0  0.15262632132E+02  0.12397768807E+02 -0.31130805977E+02  0.54367086218E+02  0.40000004650E+02 0.  0.
         12    1    3    3    0    0 -0.15262632132E+02 -0.12397768807E+02  0.31130805977E+02  0.36820913782E+02  0.00000000000E+00 0. -1.
         11    1    4    4    0    0 -0.25915664934E+01 -0.10565344914E+02 -0.14822494730E+02  0.18386111071E+02  0.51100000000E-03 0. -1.
        -11    1    4    4    0    0  0.93470017525E+00  0.17087383777E+01 -0.69970688560E+01  0.72630864030E+01  0.51100000000E-03 0.  1.
         12    1    4    4    0    0  0.16919498450E+02  0.21254375343E+02 -0.93112423908E+01  0.28717888743E+02  0.00000000000E+00 0. -1.
</event>
<event>
 8    1  0.2501893E-006  0.9118800E+02  0.7816164E-02  0.1184000E+00
        -11   -1    0    0    0    0  0.00000000000E+00  0.00000000000E+00  0.45593999997E+02  0.45594000000E+02  0.51100000000E-03 0. -1.
         11   -1    0    0    0    0 -0.00000000000E+00 -0.00000000000E+00 -0.45593999997E+02  0.45594000000E+02  0.51100000000E-03 0.  1.
         23    2    1    2    0    0  0.17763568394E-14  0.17763568394E-14 -0.71054273576E-14  0.91188000000E+02  0.91188000000E+02 0.  0.
    9900012    2    3    3    0    0 -0.13434873917E+01  0.10516173017E+02 -0.35261675304E+02  0.54367073904E+02  0.39999976579E+02 0.  0.
         12    1    3    3    0    0  0.13434873917E+01 -0.10516173017E+02  0.35261675304E+02  0.36820926096E+02  0.00000000000E+00 0. -1.
         11    1    4    4    0    0  0.83560511061E+01 -0.10572126058E+01  0.30243849263E+01  0.89492006919E+01  0.51100000000E-03 0. -1.
        -11    1    4    4    0    0  0.54034460478E+01  0.19881896821E+01 -0.49814799790E+01  0.76134926575E+01  0.51100000000E-03 0.  1.
        -12    1    4    4    0    0 -0.15102984546E+02  0.95851959403E+01 -0.33304580252E+02  0.37804380555E+02  0.00000000000E+00 0.  1.
</event>
<event>
 8    1  0.2501893E-006  0.9118800E+02  0.7816164E-02  0.1184000E+00
        -11   -1    0    0    0    0  0.00000000000E+00  0.00000000000E+00  0.45593999997E+02  0.45594000000E+02  0.51100000000E-03 0. -1.
         11   -1    0    0    0    0 -0.00000000000E+00 -0.00000000000E+00 -0.45593999997E+02  0.45594000000E+02  0.51100000000E-03 0.  1.
         23    2    1    2    0    0  0.00000000000E+00 -0.17763568394E-14  0.17763568394E-14  0.91188000000E+02  0.91188000000E+02 0.  0.
    9900012    2    3    3    0    0  0.33298313507E+02 -0.13315307436E+02  0.83490399569E+01  0.54367060812E+02  0.39999946732E+02 0.  0.
         12    1    3    3    0    0 -0.33298313507E+02  0.13315307436E+02 -0.83490399569E+01  0.36820939188E+02  0.00000000000E+00 0. -1.
         11    1    4    4    0    0  0.54664683940E+01 -0.58001626977E+00  0.73924715282E+01  0.92123466680E+01  0.51100000000E-03 0. -1.
        -11    1    4    4    0    0  0.15704548627E+02 -0.13677802860E+02  0.15671154913E+02  0.26063388790E+02  0.51100000000E-03 0.  1.
        -12    1    4    4    0    0  0.12127296485E+02  0.94251169391E+00 -0.14714586484E+02  0.19091325353E+02  0.00000000000E+00 0.  1.
</event>
<event>
 8    1  0.2501893E-006  0.9118800E+02  0.7816164E-02  0.1184000E+00
        -11   -1    0    0    0    0  0.00000000000E+00  0.00000000000E+00  0.45593999997E+02  0.45594000000E+02  0.51100000000E-03 0. -1.
         11   -1    0    0    0    0 -0.00000000000E+00 -0.00000000000E+00 -0.45593999997E+02  0.45594000000E+02  0.51100000000E-03 0.  1.
         23    2    1    2    0    0  0.17763568394E-14  0.00000000000E+00  0.35527136788E-14  0.91188000000E+02  0.91188000000E+02 0.  0.
    9900012    2    3    3    0    0 -0.14545699561E+02 -0.14859048861E+02 -0.30387688577E+02  0.54367077607E+02  0.39999985022E+02 0.  0.
         12    1    3    3    0    0  0.14545699561E+02  0.14859048861E+02  0.30387688577E+02  0.36820922393E+02  0.00000000000E+00 0. -1.
         11    1    4    4    0    0 -0.22123986010E+02 -0.19891663663E+01 -0.60421097348E+01  0.23020309080E+02  0.51100000000E-03 0. -1.
        -11    1    4    4    0    0  0.55612680542E+01 -0.15072501698E+02 -0.23037634354E+02  0.28086306391E+02  0.51100000000E-03 0.  1.
         12    1    4    4    0    0  0.20170183950E+01  0.22026192033E+01 -0.13079444888E+01  0.32604621369E+01  0.00000000000E+00 0. -1.
</event>
<event>
 8    1  0.2501893E-006  0.9118800E+02  0.7816164E-02  0.1184000E+00
        -11   -1    0    0    0    0  0.00000000000E+00  0.00000000000E+00  0.45593999997E+02  0.45594000000E+02  0.51100000000E-03 0.  1.
         11   -1    0    0    0    0 -0.00000000000E+00 -0.00000000000E+00 -0.45593999997E+02  0.45594000000E+02  0.51100000000E-03 0. -1.
         23    2    1    2    0    0  0.00000000000E+00 -0.88817841970E-15  0.00000000000E+00  0.91188000000E+02  0.91188000000E+02 0.  0.
    9900012    2    3    3    0    0  0.92274410495E+01 -0.42291084945E+01 -0.35394185415E+02  0.54367090341E+02  0.40000014049E+02 0.  0.
        -12    1    3    3    0    0 -0.92274410495E+01  0.42291084945E+01  0.35394185415E+02  0.36820909659E+02  0.00000000000E+00 0.  1.
         11    1    4    4    0    0  0.20478196650E+01  0.49968882153E+01 -0.14743080769E+02  0.15700983664E+02  0.51100000000E-03 0.  1.
        -11    1    4    4    0    0  0.12790786524E+02 -0.15490513278E+02 -0.46963089189E+01  0.20630451746E+02  0.51100000000E-03 0. -1.
         12    1    4    4    0    0 -0.56111651396E+01  0.62645165685E+01 -0.15954795727E+02  0.18035654930E+02  0.00000000000E+00 0. -1.
</event>
<event>
 8    1  0.2501893E-006  0.9118800E+02  0.7816164E-02  0.1184000E+00
        -11   -1    0    0    0    0  0.00000000000E+00  0.00000000000E+00  0.45593999997E+02  0.45594000000E+02  0.51100000000E-03 0.  1.
         11   -1    0    0    0    0 -0.00000000000E+00 -0.00000000000E+00 -0.45593999997E+02  0.45594000000E+02  0.51100000000E-03 0. -1.
         23    2    1    2    0    0  0.17763568394E-14  0.00000000000E+00  0.00000000000E+00  0.91188000000E+02  0.91188000000E+02 0.  0.
    9900012    2    3    3    0    0  0.32470988381E+01 -0.21103864650E+02 -0.29997693576E+02  0.54367104113E+02  0.40000045447E+02 0.  0.
        -12    1    3    3    0    0 -0.32470988381E+01  0.21103864650E+02  0.29997693576E+02  0.36820895887E+02  0.00000000000E+00 0.  1.
         11    1    4    4    0    0 -0.11512627869E+02 -0.11444808901E+02 -0.32979996912E+01  0.16565055190E+02  0.51100000000E-03 0. -1.
        -11    1    4    4    0    0  0.18975560313E+02 -0.47556949669E+01 -0.15876830846E+02  0.25194489115E+02  0.51100000000E-03 0.  1.
        -12    1    4    4    0    0 -0.42158336054E+01 -0.49033607824E+01 -0.10822863039E+02  0.12607559808E+02  0.00000000000E+00 0.  1.
</event>
<event>
 8    1  0.2501893E-006  0.9118800E+02  0.7816164E-02  0.1184000E+00
        -11   -1    0    0    0    0  0.00000000000E+00  0.00000000000E+00  0.45593999997E+02  0.45594000000E+02  0.51100000000E-03 0. -1.
         11   -1    0    0    0    0 -0.00000000000E+00 -0.00000000000E+00 -0.45593999997E+02  0.45594000000E+02  0.51100000000E-03 0.  1.
         23    2    1    2    0    0  0.21094237468E-14  0.00000000000E+00  0.00000000000E+00  0.91188000000E+02  0.91188000000E+02 0.  0.
    9900012    2    3    3    0    0 -0.42894915861E+00  0.36170484849E+02 -0.68768746467E+01  0.54367090498E+02  0.40000014409E+02 0.  0.
         12    1    3    3    0    0  0.42894915861E+00 -0.36170484849E+02  0.68768746467E+01  0.36820909502E+02  0.00000000000E+00 0. -1.
         11    1    4    4    0    0  0.47896479395E+01  0.56177501896E+00  0.39499454162E+01  0.62336496219E+01  0.51100000000E-03 0. -1.
        -11    1    4    4    0    0  0.77236353899E+01  0.13443111331E+02 -0.15635936754E+02  0.22019407447E+02  0.51100000000E-03 0.  1.
        -12    1    4    4    0    0 -0.12942232488E+02  0.22165598500E+02  0.48091166907E+01  0.26114033430E+02  0.00000000000E+00 0.  1.
</event>
<event>
 8    1  0.2501893E-006  0.9118800E+02  0.7816164E-02  0.1184000E+00
        -11   -1    0    0    0    0  0.00000000000E+00  0.00000000000E+00  0.45593999997E+02  0.45594000000E+02  0.51100000000E-03 0. -1.
         11   -1    0    0    0    0 -0.00000000000E+00 -0.00000000000E+00 -0.45593999997E+02  0.45594000000E+02  0.51100000000E-03 0.  1.
         23    2    1    2    0    0  0.00000000000E+00  0.35527136788E-14  0.35527136788E-14  0.91188000000E+02  0.91188000000E+02 0.  0.
    9900012    2    3    3    0    0  0.15486546411E+02  0.21253374431E+02  0.25772874649E+02  0.54367080510E+02  0.39999991638E+02 0.  0.
        -12    1    3    3    0    0 -0.15486546411E+02 -0.21253374431E+02 -0.25772874649E+02  0.36820919490E+02  0.00000000000E+00 0.  1.
         11    1    4    4    0    0  0.51889817203E+01  0.34850596111E+01 -0.55836332979E+01  0.83814159217E+01  0.51100000000E-03 0. -1.
        -11    1    4    4    0    0 -0.13351000399E+01  0.88681456190E+01 -0.23187437840E+01  0.92629947551E+01  0.51100000000E-03 0.  1.
         12    1    4    4    0    0  0.11632664731E+02  0.89001692010E+01  0.33675251730E+02  0.36722669833E+02  0.00000000000E+00 0. -1.
</event>
<event>
 8    1  0.2501893E-006  0.9118800E+02  0.7816164E-02  0.1184000E+00
        -11   -1    0    0    0    0  0.00000000000E+00  0.00000000000E+00  0.45593999997E+02  0.45594000000E+02  0.51100000000E-03 0.  1.
         11   -1    0    0    0    0 -0.00000000000E+00 -0.00000000000E+00 -0.45593999997E+02  0.45594000000E+02  0.51100000000E-03 0. -1.
         23    2    1    2    0    0  0.35527136788E-14 -0.17763568394E-14  0.35527136788E-14  0.91188000000E+02  0.91188000000E+02 0.  0.
    9900012    2    3    3    0    0 -0.16262992166E+02 -0.12797520700E+02  0.30455178354E+02  0.54367091010E+02  0.40000015577E+02 0.  0.
         12    1    3    3    0    0  0.16262992166E+02  0.12797520700E+02 -0.30455178354E+02  0.36820908990E+02  0.00000000000E+00 0. -1.
         11    1    4    4    0    0 -0.88442025755E+01 -0.95875148388E+01  0.52940620337E+01  0.14077196207E+02  0.51100000000E-03 0.  1.
        -11    1    4    4    0    0 -0.15815198424E+02  0.68457790133E+01  0.88610164166E+01  0.19377894717E+02  0.51100000000E-03 0. -1.
        -12    1    4    4    0    0  0.83964088329E+01 -0.10055784874E+02  0.16300099903E+02  0.20912000086E+02  0.00000000000E+00 0.  1.
</event>
<event>
 8    1  0.2501893E-006  0.9118800E+02  0.7816164E-02  0.1184000E+00
        -11   -1    0    0    0    0  0.00000000000E+00  0.00000000000E+00  0.45593999997E+02  0.45594000000E+02  0.51100000000E-03 0.  1.
         11   -1    0    0    0    0 -0.00000000000E+00 -0.00000000000E+00 -0.45593999997E+02  0.45594000000E+02  0.51100000000E-03 0. -1.
         23    2    1    2    0    0  0.00000000000E+00  0.17763568394E-14 -0.35527136788E-14  0.91188000000E+02  0.91188000000E+02 0.  0.
    9900012    2    3    3    0    0 -0.31399841803E+02 -0.96463950974E+01  0.16636601471E+02  0.54367088657E+02  0.40000010212E+02 0.  0.
         12    1    3    3    0    0  0.31399841803E+02  0.96463950974E+01 -0.16636601471E+02  0.36820911343E+02  0.00000000000E+00 0. -1.
         11    1    4    4    0    0  0.24638877469E+01 -0.40364366512E+01  0.12106333311E+02  0.12997187010E+02  0.51100000000E-03 0. -1.
        -11    1    4    4    0    0 -0.13702741897E+02  0.87277471484E+01  0.15675241171E+00  0.16246946709E+02  0.51100000000E-03 0.  1.
         12    1    4    4    0    0 -0.20160987653E+02 -0.14337705595E+02  0.43735157479E+01  0.25122954939E+02  0.00000000000E+00 0. -1.
</event>
<event>
 8    1  0.2501893E-006  0.9118800E+02  0.7816164E-02  0.1184000E+00
        -11   -1    0    0    0    0  0.00000000000E+00  0.00000000000E+00  0.45593999997E+02  0.45594000000E+02  0.51100000000E-03 0. -1.
         11   -1    0    0    0    0 -0.00000000000E+00 -0.00000000000E+00 -0.45593999997E+02  0.45594000000E+02  0.51100000000E-03 0.  1.
         23    2    1    2    0    0  0.00000000000E+00  0.88817841970E-15  0.00000000000E+00  0.91188000000E+02  0.91188000000E+02 0.  0.
    9900012    2    3    3    0    0  0.29431916823E+02 -0.69032813450E+01 -0.21021164955E+02  0.54367049479E+02  0.39999920898E+02 0.  0.
         12    1    3    3    0    0 -0.29431916823E+02  0.69032813450E+01  0.21021164955E+02  0.36820950521E+02  0.00000000000E+00 0. -1.
         11    1    4    4    0    0  0.88641623208E+01  0.11208888949E+02 -0.32172920212E+01  0.14647987347E+02  0.51100000000E-03 0. -1.
        -11    1    4    4    0    0  0.11372660255E+02 -0.19333325618E+02 -0.20149153429E+02  0.30151339355E+02  0.51100000000E-03 0.  1.
        -12    1    4    4    0    0  0.91950942469E+01  0.12211553240E+01  0.23452804960E+01  0.95677227771E+01  0.00000000000E+00 0.  1.
</event>
<event>
 8    1  0.2501893E-006  0.9118800E+02  0.7816164E-02  0.1184000E+00
        -11   -1    0    0    0    0  0.00000000000E+00  0.00000000000E+00  0.45593999997E+02  0.45594000000E+02  0.51100000000E-03 0. -1.
         11   -1    0    0    0    0 -0.00000000000E+00 -0.00000000000E+00 -0.45593999997E+02  0.45594000000E+02  0.51100000000E-03 0.  1.
         23    2    1    2    0    0  0.00000000000E+00  0.17763568394E-14  0.00000000000E+00  0.91188000000E+02  0.91188000000E+02 0.  0.
    9900012    2    3    3    0    0 -0.22335760005E+02  0.40001585124E+01 -0.28998074783E+02  0.54367139279E+02  0.40000125614E+02 0.  0.
         12    1    3    3    0    0  0.22335760005E+02 -0.40001585124E+01  0.28998074783E+02  0.36820860721E+02  0.00000000000E+00 0. -1.
         11    1    4    4    0    0 -0.27986256299E+02  0.79360823066E+01 -0.23912335119E+02  0.37656496320E+02  0.51100000000E-03 0.  1.
        -11    1    4    4    0    0 -0.24571918445E+01  0.12002820792E+01  0.30731410263E+01  0.41137166722E+01  0.51100000000E-03 0. -1.
         12    1    4    4    0    0  0.81076881392E+01 -0.51362058733E+01 -0.81588806907E+01  0.12596926286E+02  0.00000000000E+00 0. -1.
</event>
<event>
 8    1  0.2501893E-006  0.9118800E+02  0.7816164E-02  0.1184000E+00
        -11   -1    0    0    0    0  0.00000000000E+00  0.00000000000E+00  0.45593999997E+02  0.45594000000E+02  0.51100000000E-03 0. -1.
         11   -1    0    0    0    0 -0.00000000000E+00 -0.00000000000E+00 -0.45593999997E+02  0.45594000000E+02  0.51100000000E-03 0.  1.
         23    2    1    2    0    0  0.00000000000E+00  0.00000000000E+00  0.00000000000E+00  0.91188000000E+02  0.91188000000E+02 0.  0.
    9900012    2    3    3    0    0  0.13337186867E+02 -0.32457428212E+02  0.11153834861E+02  0.54367173940E+02  0.40000204630E+02 0.  0.
        -12    1    3    3    0    0 -0.13337186867E+02  0.32457428212E+02 -0.11153834861E+02  0.36820826060E+02  0.00000000000E+00 0.  1.
         11    1    4    4    0    0  0.98503713420E+01 -0.27995463477E+02  0.72934071415E+01  0.30560915871E+02  0.51100000000E-03 0. -1.
        -11    1    4    4    0    0 -0.13949588861E+01  0.71906550340E+01  0.76747645998E+01  0.10609120700E+02  0.51100000000E-03 0.  1.
        -12    1    4    4    0    0  0.48817744111E+01 -0.11652619769E+02 -0.38143368803E+01  0.13197137368E+02  0.00000000000E+00 0.  1.
</event>
<event>
 8    1  0.2501893E-006  0.9118800E+02  0.7816164E-02  0.1184000E+00
        -11   -1    0    0    0    0  0.00000000000E+00  0.00000000000E+00  0.45593999997E+02  0.45594000000E+02  0.51100000000E-03 0.  1.
         11   -1    0    0    0    0 -0.00000000000E+00 -0.00000000000E+00 -0.45593999997E+02  0.45594000000E+02  0.51100000000E-03 0. -1.
         23    2    1    2    0    0 -0.17763568394E-14  0.00000000000E+00  0.00000000000E+00  0.91188000000E+02  0.91188000000E+02 0.  0.
    9900012    2    3    3    0    0 -0.12559227112E+02  0.11782752868E+02  0.32545561554E+02  0.54367068077E+02  0.39999963296E+02 0.  0.
         12    1    3    3    0    0  0.12559227112E+02 -0.11782752868E+02 -0.32545561554E+02  0.36820931923E+02  0.00000000000E+00 0. -1.
         11    1    4    4    0    0 -0.16712914515E+02  0.81013713594E+01  0.34115698166E+01  0.18883657971E+02  0.51100000000E-03 0. -1.
        -11    1    4    4    0    0  0.37147895649E+01  0.63359627130E+01  0.31224143355E+02  0.32076334166E+02  0.51100000000E-03 0.  1.
         12    1    4    4    0    0  0.43889783793E+00 -0.26545812047E+01 -0.20901516171E+01  0.34070759409E+01  0.00000000000E+00 0. -1.
</event>
<event>
 8    1  0.2501893E-006  0.9118800E+02  0.7816164E-02  0.1184000E+00
        -11   -1    0    0    0    0  0.00000000000E+00  0.00000000000E+00  0.45593999997E+02  0.45594000000E+02  0.51100000000E-03 0.  1.
         11   -1    0    0    0    0 -0.00000000000E+00 -0.00000000000E+00 -0.45593999997E+02  0.45594000000E+02  0.51100000000E-03 0. -1.
         23    2    1    2    0    0 -0.88817841970E-15  0.00000000000E+00 -0.71054273576E-14  0.91188000000E+02  0.91188000000E+02 0.  0.
    9900012    2    3    3    0    0 -0.50738585872E+01 -0.10709877525E+02  0.34861683690E+02  0.54367047985E+02  0.39999917492E+02 0.  0.
         12    1    3    3    0    0  0.50738585872E+01  0.10709877525E+02 -0.34861683690E+02  0.36820952015E+02  0.00000000000E+00 0. -1.
         11    1    4    4    0    0  0.12335715063E+01 -0.12928507124E+02  0.18005485581E+02  0.22200574461E+02  0.51100000000E-03 0. -1.
        -11    1    4    4    0    0  0.66201769350E+01  0.31219137079E+01  0.17726494958E+02  0.19178157149E+02  0.51100000000E-03 0.  1.
         12    1    4    4    0    0 -0.12927607029E+02 -0.90328410899E+00 -0.87029684938E+00  0.12988316376E+02  0.00000000000E+00 0. -1.
</event>
<event>
 8    1  0.2501893E-006  0.9118800E+02  0.7816164E-02  0.1184000E+00
        -11   -1    0    0    0    0  0.00000000000E+00  0.00000000000E+00  0.45593999997E+02  0.45594000000E+02  0.51100000000E-03 0. -1.
         11   -1    0    0    0    0 -0.00000000000E+00 -0.00000000000E+00 -0.45593999997E+02  0.45594000000E+02  0.51100000000E-03 0.  1.
         23    2    1    2    0    0 -0.44408920985E-15  0.00000000000E+00  0.00000000000E+00  0.91188000000E+02  0.91188000000E+02 0.  0.
    9900012    2    3    3    0    0  0.51514566431E+00  0.80002661618E+01 -0.35937612666E+02  0.54367059792E+02  0.39999944407E+02 0.  0.
         12    1    3    3    0    0 -0.51514566431E+00 -0.80002661618E+01  0.35937612666E+02  0.36820940208E+02  0.00000000000E+00 0. -1.
         11    1    4    4    0    0 -0.70940802886E+01  0.13209373984E+01 -0.51542884436E+01  0.88677810287E+01  0.51100000000E-03 0. -1.
        -11    1    4    4    0    0  0.15625286993E+02  0.13283159971E+02 -0.11287038929E+02  0.23409168726E+02  0.51100000000E-03 0.  1.
        -12    1    4    4    0    0 -0.80160610398E+01 -0.66038312072E+01 -0.19496285293E+02  0.22090110037E+02  0.00000000000E+00 0.  1.
</event>
<event>
 8    1  0.2501893E-006  0.9118800E+02  0.7816164E-02  0.1184000E+00
        -11   -1    0    0    0    0  0.00000000000E+00  0.00000000000E+00  0.45593999997E+02  0.45594000000E+02  0.51100000000E-03 0.  1.
         11   -1    0    0    0    0 -0.00000000000E+00 -0.00000000000E+00 -0.45593999997E+02  0.45594000000E+02  0.51100000000E-03 0. -1.
         23    2    1    2    0    0 -0.35527136788E-14  0.88817841970E-15  0.00000000000E+00  0.91188000000E+02  0.91188000000E+02 0.  0.
    9900012    2    3    3    0    0  0.18075521490E+02  0.24991012186E+01  0.31981475415E+02  0.54367017480E+02  0.39999847949E+02 0.  0.
         12    1    3    3    0    0 -0.18075521490E+02 -0.24991012186E+01 -0.31981475415E+02  0.36820982520E+02  0.00000000000E+00 0. -1.
         11    1    4    4    0    0  0.11102954993E+02 -0.15940333031E+02  0.17827969218E+02  0.26366765319E+02  0.51100000000E-03 0. -1.
        -11    1    4    4    0    0 -0.29518284326E+01  0.49738117929E-01  0.33867246861E+01  0.44928464626E+01  0.51100000000E-03 0.  1.
         12    1    4    4    0    0  0.99243949292E+01  0.18389696132E+02  0.10766781511E+02  0.23507405698E+02  0.00000000000E+00 0. -1.
</event>
<event>
 8    1  0.2501893E-006  0.9118800E+02  0.7816164E-02  0.1184000E+00
        -11   -1    0    0    0    0  0.00000000000E+00  0.00000000000E+00  0.45593999997E+02  0.45594000000E+02  0.51100000000E-03 0. -1.
         11   -1    0    0    0    0 -0.00000000000E+00 -0.00000000000E+00 -0.45593999997E+02  0.45594000000E+02  0.51100000000E-03 0.  1.
         23    2    1    2    0    0  0.00000000000E+00 -0.44408920985E-15  0.00000000000E+00  0.91188000000E+02  0.91188000000E+02 0.  0.
    9900012    2    3    3    0    0 -0.32848486650E+02 -0.24893979048E+01  0.16448738409E+02  0.54367066112E+02  0.39999958815E+02 0.  0.
        -12    1    3    3    0    0  0.32848486650E+02  0.24893979048E+01 -0.16448738409E+02  0.36820933888E+02  0.00000000000E+00 0.  1.
         11    1    4    4    0    0 -0.24119004785E+01 -0.37948281918E+01 -0.20553143775E+01  0.49439156926E+01  0.51100000000E-03 0. -1.
        -11    1    4    4    0    0 -0.21399840204E+02  0.16649861216E+01 -0.68285944726E+01  0.22524543109E+02  0.51100000000E-03 0.  1.
         12    1    4    4    0    0 -0.90367459676E+01 -0.35955583458E+00  0.25332647259E+02  0.26898607310E+02  0.00000000000E+00 0. -1.
</event>
<event>
 8    1  0.2501893E-006  0.9118800E+02  0.7816164E-02  0.1184000E+00
        -11   -1    0    0    0    0  0.00000000000E+00  0.00000000000E+00  0.45593999997E+02  0.45594000000E+02  0.51100000000E-03 0. -1.
         11   -1    0    0    0    0 -0.00000000000E+00 -0.00000000000E+00 -0.45593999997E+02  0.45594000000E+02  0.51100000000E-03 0.  1.
         23    2    1    2    0    0 -0.71054273576E-14  0.00000000000E+00 -0.88817841970E-15  0.91188000000E+02  0.91188000000E+02 0.  0.
    9900012    2    3    3    0    0  0.35122034714E+02  0.10611328531E+02  0.31023897849E+01  0.54367048926E+02  0.39999919636E+02 0.  0.
        -12    1    3    3    0    0 -0.35122034714E+02 -0.10611328531E+02 -0.31023897849E+01  0.36820951074E+02  0.00000000000E+00 0.  1.
         11    1    4    4    0    0  0.11266152035E+02 -0.22566987571E+01  0.48948207058E+01  0.12489120904E+02  0.51100000000E-03 0. -1.
        -11    1    4    4    0    0  0.67718075873E+01  0.51938664200E+01 -0.16158696754E+02  0.18273946138E+02  0.51100000000E-03 0.  1.
        -12    1    4    4    0    0  0.17084075092E+02  0.76741608684E+01  0.14366265833E+02  0.23603981884E+02  0.00000000000E+00 0.  1.
</event>
<event>
 8    1  0.2501893E-006  0.9118800E+02  0.7816164E-02  0.1184000E+00
        -11   -1    0    0    0    0  0.00000000000E+00  0.00000000000E+00  0.45593999997E+02  0.45594000000E+02  0.51100000000E-03 0. -1.
         11   -1    0    0    0    0 -0.00000000000E+00 -0.00000000000E+00 -0.45593999997E+02  0.45594000000E+02  0.51100000000E-03 0.  1.
         23    2    1    2    0    0  0.00000000000E+00  0.00000000000E+00  0.00000000000E+00  0.91188000000E+02  0.91188000000E+02 0.  0.
    9900012    2    3    3    0    0  0.28819521158E+02 -0.22675772222E+02 -0.33204026928E+01  0.54367074975E+02  0.39999979021E+02 0.  0.
         12    1    3    3    0    0 -0.28819521158E+02  0.22675772222E+02  0.33204026928E+01  0.36820925025E+02  0.00000000000E+00 0. -1.
         11    1    4    4    0    0  0.12531843564E+02  0.62343155940E+01  0.39356790839E+01  0.14539716784E+02  0.51100000000E-03 0. -1.
        -11    1    4    4    0    0  0.15654851296E+02 -0.10105497326E+02 -0.94361007819E+01  0.20886250107E+02  0.51100000000E-03 0.  1.
        -12    1    4    4    0    0  0.63282629864E+00 -0.18804590490E+02  0.21800190052E+01  0.18941108085E+02  0.00000000000E+00 0.  1.
</event>
<event>
 8    1  0.2501893E-006  0.9118800E+02  0.7816164E-02  0.1184000E+00
        -11   -1    0    0    0    0  0.00000000000E+00  0.00000000000E+00  0.45593999997E+02  0.45594000000E+02  0.51100000000E-03 0.  1.
         11   -1    0    0    0    0 -0.00000000000E+00 -0.00000000000E+00 -0.45593999997E+02  0.45594000000E+02  0.51100000000E-03 0. -1.
         23    2    1    2    0    0 -0.35527136788E-14  0.17763568394E-14  0.00000000000E+00  0.91188000000E+02  0.91188000000E+02 0.  0.
    9900012    2    3    3    0    0 -0.18419285452E+02  0.80556208705E+01 -0.30848280992E+02  0.54367088220E+02  0.40000009215E+02 0.  0.
        -12    1    3    3    0    0  0.18419285452E+02 -0.80556208705E+01  0.30848280992E+02  0.36820911780E+02  0.00000000000E+00 0.  1.
         11    1    4    4    0    0  0.37337167476E+01 -0.54736328848E+01 -0.17576180761E+02  0.18783594654E+02  0.51100000000E-03 0. -1.
        -11    1    4    4    0    0 -0.11409492206E+02  0.77289690890E+00 -0.14949230387E+02  0.18821619788E+02  0.51100000000E-03 0.  1.
        -12    1    4    4    0    0 -0.10743509994E+02  0.12756356846E+02  0.16771301565E+01  0.16761873778E+02  0.00000000000E+00 0.  1.
</event>
<event>
 8    1  0.2501893E-006  0.9118800E+02  0.7816164E-02  0.1184000E+00
        -11   -1    0    0    0    0  0.00000000000E+00  0.00000000000E+00  0.45593999997E+02  0.45594000000E+02  0.51100000000E-03 0.  1.
         11   -1    0    0    0    0 -0.00000000000E+00 -0.00000000000E+00 -0.45593999997E+02  0.45594000000E+02  0.51100000000E-03 0. -1.
         23    2    1    2    0    0 -0.88817841970E-15 -0.44408920985E-15  0.71054273576E-14  0.91188000000E+02  0.91188000000E+02 0.  0.
    9900012    2    3    3    0    0  0.59612771168E+01  0.14143294036E+01 -0.36307613120E+02  0.54367083077E+02  0.39999997492E+02 0.  0.
        -12    1    3    3    0    0 -0.59612771168E+01 -0.14143294036E+01  0.36307613120E+02  0.36820916923E+02  0.00000000000E+00 0.  1.
         11    1    4    4    0    0 -0.76122407494E+00 -0.96795917073E+01 -0.15852796672E+02  0.18589919857E+02  0.51100000000E-03 0. -1.
        -11    1    4    4    0    0  0.14278344943E+02 -0.16107881902E+01 -0.79874167936E+01  0.16439726281E+02  0.51100000000E-03 0.  1.
         12    1    4    4    0    0 -0.75558437513E+01  0.12704709301E+02 -0.12467399655E+02  0.19337436939E+02  0.00000000000E+00 0. -1.
</event>
<event>
 8    1  0.2501893E-006  0.9118800E+02  0.7816164E-02  0.1184000E+00
        -11   -1    0    0    0    0  0.00000000000E+00  0.00000000000E+00  0.45593999997E+02  0.45594000000E+02  0.51100000000E-03 0.  1.
         11   -1    0    0    0    0 -0.00000000000E+00 -0.00000000000E+00 -0.45593999997E+02  0.45594000000E+02  0.51100000000E-03 0. -1.
         23    2    1    2    0    0  0.00000000000E+00 -0.17763568394E-14 -0.35527136788E-14  0.91188000000E+02  0.91188000000E+02 0.  0.
    9900012    2    3    3    0    0 -0.26712936259E+02 -0.13755535581E+02 -0.21283422141E+02  0.54367085009E+02  0.40000001896E+02 0.  0.
        -12    1    3    3    0    0  0.26712936259E+02  0.13755535581E+02  0.21283422141E+02  0.36820914991E+02  0.00000000000E+00 0.  1.
         11    1    4    4    0    0 -0.19979546788E+02 -0.13651264598E+01 -0.30760676730E+02  0.36705109907E+02  0.51100000000E-03 0. -1.
        -11    1    4    4    0    0 -0.35100177350E+01 -0.81955492757E+01  0.32464424110E+01  0.94882369817E+01  0.51100000000E-03 0.  1.
         12    1    4    4    0    0 -0.32233717362E+01 -0.41948598453E+01  0.62308121781E+01  0.81737381210E+01  0.00000000000E+00 0. -1.
</event>
<event>
 8    1  0.2501893E-006  0.9118800E+02  0.7816164E-02  0.1184000E+00
        -11   -1    0    0    0    0  0.00000000000E+00  0.00000000000E+00  0.45593999997E+02  0.45594000000E+02  0.51100000000E-03 0.  1.
         11   -1    0    0    0    0 -0.00000000000E+00 -0.00000000000E+00 -0.45593999997E+02  0.45594000000E+02  0.51100000000E-03 0. -1.
         23    2    1    2    0    0  0.00000000000E+00 -0.44408920985E-15  0.00000000000E+00  0.91188000000E+02  0.91188000000E+02 0.  0.
    9900012    2    3    3    0    0 -0.30002795366E+02 -0.29134790271E+01  0.21145299668E+02  0.54367084913E+02  0.40000001676E+02 0.  0.
         12    1    3    3    0    0  0.30002795366E+02  0.29134790271E+01 -0.21145299668E+02  0.36820915087E+02  0.00000000000E+00 0. -1.
         11    1    4    4    0    0  0.37738695629E+01  0.20945601787E+01  0.97650424366E+01  0.10676391144E+02  0.51100000000E-03 0. -1.
        -11    1    4    4    0    0 -0.29795498663E+02  0.60417067693E+01  0.73999369764E+01  0.31289503492E+02  0.51100000000E-03 0.  1.
        -12    1    4    4    0    0 -0.39811662660E+01 -0.11049745975E+02  0.39803202545E+01  0.12401190277E+02  0.00000000000E+00 0.  1.
</event>
<event>
 8    1  0.2501893E-006  0.9118800E+02  0.7816164E-02  0.1184000E+00
        -11   -1    0    0    0    0  0.00000000000E+00  0.00000000000E+00  0.45593999997E+02  0.45594000000E+02  0.51100000000E-03 0. -1.
         11   -1    0    0    0    0 -0.00000000000E+00 -0.00000000000E+00 -0.45593999997E+02  0.45594000000E+02  0.51100000000E-03 0.  1.
         23    2    1    2    0    0  0.35527136788E-14  0.00000000000E+00  0.66613381478E-15  0.91188000000E+02  0.91188000000E+02 0.  0.
    9900012    2    3    3    0    0 -0.30905025968E+02 -0.19935779261E+02 -0.17954055843E+01  0.54367090098E+02  0.40000013495E+02 0.  0.
        -12    1    3    3    0    0  0.30905025968E+02  0.19935779261E+02  0.17954055843E+01  0.36820909902E+02  0.00000000000E+00 0.  1.
         11    1    4    4    0    0 -0.22960034878E+02 -0.22806262206E+02  0.37922791898E+01  0.32583280669E+02  0.51100000000E-03 0. -1.
        -11    1    4    4    0    0 -0.10369205017E+02  0.58491897160E+01  0.30853624355E+01  0.12298491559E+02  0.51100000000E-03 0.  1.
        -12    1    4    4    0    0  0.24242139266E+01 -0.29787067706E+01 -0.86730472096E+01  0.94853178696E+01  0.00000000000E+00 0.  1.
</event>
<event>
 8    1  0.2501893E-006  0.9118800E+02  0.7816164E-02  0.1184000E+00
        -11   -1    0    0    0    0  0.00000000000E+00  0.00000000000E+00  0.45593999997E+02  0.45594000000E+02  0.51100000000E-03 0.  1.
         11   -1    0    0    0    0 -0.00000000000E+00 -0.00000000000E+00 -0.45593999997E+02  0.45594000000E+02  0.51100000000E-03 0. -1.
         23    2    1    2    0    0  0.00000000000E+00  0.00000000000E+00  0.00000000000E+00  0.91188000000E+02  0.91188000000E+02 0.  0.
    9900012    2    3    3    0    0 -0.26174960619E+02 -0.47736590063E+01 -0.25453141860E+02  0.54367098134E+02  0.40000031816E+02 0.  0.
        -12    1    3    3    0    0  0.26174960619E+02  0.47736590063E+01  0.25453141860E+02  0.36820901866E+02  0.00000000000E+00 0.  1.
         11    1    4    4    0    0 -0.79924531093E+01  0.21651618568E+01  0.46413864795E+00  0.82935310644E+01  0.51100000000E-03 0. -1.
        -11    1    4    4    0    0 -0.67787777866E+01 -0.18552863783E+02 -0.66286456121E+01  0.20835055214E+02  0.51100000000E-03 0.  1.
        -12    1    4    4    0    0 -0.11403729723E+02  0.11614042920E+02 -0.19288634895E+02  0.25238511856E+02  0.00000000000E+00 0.  1.
</event>
<event>
 8    1  0.2501893E-006  0.9118800E+02  0.7816164E-02  0.1184000E+00
        -11   -1    0    0    0    0  0.00000000000E+00  0.00000000000E+00  0.45593999997E+02  0.45594000000E+02  0.51100000000E-03 0.  1.
         11   -1    0    0    0    0 -0.00000000000E+00 -0.00000000000E+00 -0.45593999997E+02  0.45594000000E+02  0.51100000000E-03 0. -1.
         23    2    1    2    0    0  0.00000000000E+00 -0.35527136788E-14  0.00000000000E+00  0.91188000000E+02  0.91188000000E+02 0.  0.
    9900012    2    3    3    0    0 -0.21005344189E+02 -0.14457661043E+02  0.26561834822E+02  0.54367088598E+02  0.40000010077E+02 0.  0.
         12    1    3    3    0    0  0.21005344189E+02  0.14457661043E+02 -0.26561834822E+02  0.36820911402E+02  0.00000000000E+00 0. -1.
         11    1    4    4    0    0 -0.10954878663E+02  0.10082212041E+02  0.88581697330E+01  0.17324189373E+02  0.51100000000E-03 0. -1.
        -11    1    4    4    0    0  0.40502100004E+01 -0.11474868881E+01 -0.46982174930E+00  0.42357596654E+01  0.51100000000E-03 0.  1.
         12    1    4    4    0    0 -0.14100675527E+02 -0.23392386195E+02  0.18173486839E+02  0.32807139560E+02  0.00000000000E+00 0. -1.
</event>
<event>
 8    1  0.2501893E-006  0.9118800E+02  0.7816164E-02  0.1184000E+00
        -11   -1    0    0    0    0  0.00000000000E+00  0.00000000000E+00  0.45593999997E+02  0.45594000000E+02  0.51100000000E-03 0. -1.
         11   -1    0    0    0    0 -0.00000000000E+00 -0.00000000000E+00 -0.45593999997E+02  0.45594000000E+02  0.51100000000E-03 0.  1.
         23    2    1    2    0    0  0.35527136788E-14  0.35527136788E-14  0.00000000000E+00  0.91188000000E+02  0.91188000000E+02 0.  0.
    9900012    2    3    3    0    0  0.16874629755E+02 -0.31941201407E+02 -0.71264020928E+01  0.54367094478E+02  0.40000023481E+02 0.  0.
         12    1    3    3    0    0 -0.16874629755E+02  0.31941201407E+02  0.71264020928E+01  0.36820905522E+02  0.00000000000E+00 0. -1.
         11    1    4    4    0    0  0.79237016577E+01 -0.36002044801E+01  0.16625805569E+01  0.88606260856E+01  0.51100000000E-03 0. -1.
        -11    1    4    4    0    0 -0.85701487648E+01 -0.39332681951E+01 -0.12031708116E+02  0.15286597038E+02  0.51100000000E-03 0.  1.
        -12    1    4    4    0    0  0.17521076862E+02 -0.24407728732E+02  0.32427254663E+01  0.30219871355E+02  0.00000000000E+00 0.  1.
</event>
<event>
 8    1  0.2501893E-006  0.9118800E+02  0.7816164E-02  0.1184000E+00
        -11   -1    0    0    0    0  0.00000000000E+00  0.00000000000E+00  0.45593999997E+02  0.45594000000E+02  0.51100000000E-03 0.  1.
         11   -1    0    0    0    0 -0.00000000000E+00 -0.00000000000E+00 -0.45593999997E+02  0.45594000000E+02  0.51100000000E-03 0. -1.
         23    2    1    2    0    0  0.17763568394E-14  0.00000000000E+00  0.00000000000E+00  0.91188000000E+02  0.91188000000E+02 0.  0.
    9900012    2    3    3    0    0  0.15451290798E+02 -0.19830583827E+02 -0.26903257298E+02  0.54367086168E+02  0.40000004536E+02 0.  0.
        -12    1    3    3    0    0 -0.15451290798E+02  0.19830583827E+02  0.26903257298E+02  0.36820913832E+02  0.00000000000E+00 0.  1.
         11    1    4    4    0    0 -0.54219452806E+01 -0.81814707718E+01 -0.13870165592E+01  0.99125057282E+01  0.51100000000E-03 0. -1.
        -11    1    4    4    0    0  0.20747082290E+02 -0.11994444828E+02 -0.56978442979E+01  0.24632774107E+02  0.51100000000E-03 0.  1.
         12    1    4    4    0    0  0.12615378869E+00  0.34533177347E+00 -0.19818396440E+02  0.19821806332E+02  0.00000000000E+00 0. -1.
</event>
<event>
 8    1  0.2501893E-006  0.9118800E+02  0.7816164E-02  0.1184000E+00
        -11   -1    0    0    0    0  0.00000000000E+00  0.00000000000E+00  0.45593999997E+02  0.45594000000E+02  0.51100000000E-03 0.  1.
         11   -1    0    0    0    0 -0.00000000000E+00 -0.00000000000E+00 -0.45593999997E+02  0.45594000000E+02  0.51100000000E-03 0. -1.
         23    2    1    2    0    0  0.00000000000E+00  0.17763568394E-14  0.00000000000E+00  0.91188000000E+02  0.91188000000E+02 0.  0.
    9900012    2    3    3    0    0  0.11028966629E+02  0.74946671167E+01 -0.34321612423E+02  0.54367065473E+02  0.39999957360E+02 0.  0.
        -12    1    3    3    0    0 -0.11028966629E+02 -0.74946671167E+01  0.34321612423E+02  0.36820934527E+02  0.00000000000E+00 0.  1.
         11    1    4    4    0    0  0.49319601133E+01 -0.66468412580E+01 -0.26580878245E+02  0.27839680634E+02  0.51100000000E-03 0. -1.
        -11    1    4    4    0    0  0.25395139038E+01 -0.26095101482E+01  0.42691813751E+01  0.56111125417E+01  0.51100000000E-03 0.  1.
         12    1    4    4    0    0  0.35574926123E+01  0.16751018523E+02 -0.12009915553E+02  0.20916272298E+02  0.00000000000E+00 0. -1.
</event>
<event>
 8    1  0.2501893E-006  0.9118800E+02  0.7816164E-02  0.1184000E+00
        -11   -1    0    0    0    0  0.00000000000E+00  0.00000000000E+00  0.45593999997E+02  0.45594000000E+02  0.51100000000E-03 0.  1.
         11   -1    0    0    0    0 -0.00000000000E+00 -0.00000000000E+00 -0.45593999997E+02  0.45594000000E+02  0.51100000000E-03 0. -1.
         23    2    1    2    0    0  0.35527136788E-14 -0.71054273576E-14  0.00000000000E+00  0.91188000000E+02  0.91188000000E+02 0.  0.
    9900012    2    3    3    0    0 -0.25405121835E+02  0.26645016794E+02 -0.63487096474E+00  0.54367079363E+02  0.39999989023E+02 0.  0.
         12    1    3    3    0    0  0.25405121835E+02 -0.26645016794E+02  0.63487096474E+00  0.36820920637E+02  0.00000000000E+00 0. -1.
         11    1    4    4    0    0 -0.14641544348E+01 -0.13306909121E+01  0.28529921954E+00  0.19989703396E+01  0.51100000000E-03 0. -1.
        -11    1    4    4    0    0  0.48943869745E+01  0.22208148763E+02 -0.27388631722E+01  0.22905420037E+02  0.51100000000E-03 0.  1.
         12    1    4    4    0    0 -0.28835354375E+02  0.57675589431E+01  0.18186929879E+01  0.29462688986E+02  0.00000000000E+00 0. -1.
</event>
<event>
 8    1  0.2501893E-006  0.9118800E+02  0.7816164E-02  0.1184000E+00
        -11   -1    0    0    0    0  0.00000000000E+00  0.00000000000E+00  0.45593999997E+02  0.45594000000E+02  0.51100000000E-03 0. -1.
         11   -1    0    0    0    0 -0.00000000000E+00 -0.00000000000E+00 -0.45593999997E+02  0.45594000000E+02  0.51100000000E-03 0.  1.
         23    2    1    2    0    0  0.00000000000E+00 -0.35527136788E-14  0.00000000000E+00  0.91188000000E+02  0.91188000000E+02 0.  0.
    9900012    2    3    3    0    0 -0.32481220635E+02 -0.13612649830E+02  0.10744519606E+02  0.54367100624E+02  0.40000037492E+02 0.  0.
         12    1    3    3    0    0  0.32481220635E+02  0.13612649830E+02 -0.10744519606E+02  0.36820899376E+02  0.00000000000E+00 0. -1.
         11    1    4    4    0    0 -0.42110991174E+01 -0.17986191949E+02  0.68118286950E+01  0.19688511042E+02  0.51100000000E-03 0. -1.
        -11    1    4    4    0    0 -0.16385584528E+02  0.21546920223E+01 -0.73999395902E+01  0.18107710630E+02  0.51100000000E-03 0.  1.
         12    1    4    4    0    0 -0.11884536989E+02  0.22188500971E+01  0.11332630501E+02  0.16570878953E+02  0.00000000000E+00 0. -1.
</event>
<event>
 8    1  0.2501893E-006  0.9118800E+02  0.7816164E-02  0.1184000E+00
        -11   -1    0    0    0    0  0.00000000000E+00  0.00000000000E+00  0.45593999997E+02  0.45594000000E+02  0.51100000000E-03 0. -1.
         11   -1    0    0    0    0 -0.00000000000E+00 -0.00000000000E+00 -0.45593999997E+02  0.45594000000E+02  0.51100000000E-03 0.  1.
         23    2    1    2    0    0  0.53290705182E-14 -0.13322676296E-14  0.00000000000E+00  0.91188000000E+02  0.91188000000E+02 0.  0.
    9900012    2    3    3    0    0 -0.12291329858E+02 -0.21204885529E+01 -0.34644001016E+02  0.54367081112E+02  0.39999993010E+02 0.  0.
         12    1    3    3    0    0  0.12291329858E+02  0.21204885529E+01  0.34644001016E+02  0.36820918888E+02  0.00000000000E+00 0. -1.
         11    1    4    4    0    0  0.94816474993E+01 -0.80974355135E+01 -0.10515026598E+02  0.16310606544E+02  0.51100000000E-03 0. -1.
        -11    1    4    4    0    0 -0.39750498907E+01 -0.40656008680E+01  0.88674706942E+00  0.57546896248E+01  0.51100000000E-03 0.  1.
         12    1    4    4    0    0 -0.17797927467E+02  0.10042547829E+02 -0.25015721487E+02  0.32301784943E+02  0.00000000000E+00 0. -1.
</event>
<event>
 8    1  0.2501893E-006  0.9118800E+02  0.7816164E-02  0.1184000E+00
        -11   -1    0    0    0    0  0.00000000000E+00  0.00000000000E+00  0.45593999997E+02  0.45594000000E+02  0.51100000000E-03 0.  1.
         11   -1    0    0    0    0 -0.00000000000E+00 -0.00000000000E+00 -0.45593999997E+02  0.45594000000E+02  0.51100000000E-03 0. -1.
         23    2    1    2    0    0  0.44408920985E-15  0.00000000000E+00  0.00000000000E+00  0.91188000000E+02  0.91188000000E+02 0.  0.
    9900012    2    3    3    0    0 -0.28508457274E+01 -0.28330029046E+02 -0.23346563442E+02  0.54367083503E+02  0.39999998462E+02 0.  0.
        -12    1    3    3    0    0  0.28508457274E+01  0.28330029046E+02  0.23346563442E+02  0.36820916497E+02  0.00000000000E+00 0.  1.
         11    1    4    4    0    0 -0.82261037942E+01 -0.10581132325E+02  0.11138309552E+01  0.13448783014E+02  0.51100000000E-03 0. -1.
        -11    1    4    4    0    0 -0.83857534009E+01 -0.16115452834E+02 -0.94074363837E+01  0.20457970078E+02  0.51100000000E-03 0.  1.
         12    1    4    4    0    0  0.13761011468E+02 -0.16334438876E+01 -0.15052958014E+02  0.20460330411E+02  0.00000000000E+00 0. -1.
</event>
<event>
 8    1  0.2501893E-006  0.9118800E+02  0.7816164E-02  0.1184000E+00
        -11   -1    0    0    0    0  0.00000000000E+00  0.00000000000E+00  0.45593999997E+02  0.45594000000E+02  0.51100000000E-03 0.  1.
         11   -1    0    0    0    0 -0.00000000000E+00 -0.00000000000E+00 -0.45593999997E+02  0.45594000000E+02  0.51100000000E-03 0. -1.
         23    2    1    2    0    0  0.00000000000E+00 -0.35527136788E-14 -0.44408920985E-15  0.91188000000E+02  0.91188000000E+02 0.  0.
    9900012    2    3    3    0    0 -0.29300324472E+02 -0.22007427932E+02 -0.35976676055E+01  0.54367094110E+02  0.40000022643E+02 0.  0.
        -12    1    3    3    0    0  0.29300324472E+02  0.22007427932E+02  0.35976676055E+01  0.36820905890E+02  0.00000000000E+00 0.  1.
         11    1    4    4    0    0 -0.16326507137E+01 -0.12409160771E+02 -0.45321964889E+01  0.13311409567E+02  0.51100000000E-03 0. -1.
        -11    1    4    4    0    0 -0.85672386476E+01 -0.97762377588E+00  0.13940649553E+02  0.16391919854E+02  0.51100000000E-03 0.  1.
         12    1    4    4    0    0 -0.19100435111E+02 -0.86206433849E+01 -0.13006120669E+02  0.24663764689E+02  0.00000000000E+00 0. -1.
</event>
<event>
 8    1  0.2501893E-006  0.9118800E+02  0.7816164E-02  0.1184000E+00
        -11   -1    0    0    0    0  0.00000000000E+00  0.00000000000E+00  0.45593999997E+02  0.45594000000E+02  0.51100000000E-03 0.  1.
         11   -1    0    0    0    0 -0.00000000000E+00 -0.00000000000E+00 -0.45593999997E+02  0.45594000000E+02  0.51100000000E-03 0. -1.
         23    2    1    2    0    0 -0.71054273576E-14  0.00000000000E+00  0.00000000000E+00  0.91188000000E+02  0.91188000000E+02 0.  0.
    9900012    2    3    3    0    0 -0.19636921582E+02  0.14668925582E+02 -0.27477136823E+02  0.54367094050E+02  0.40000022506E+02 0.  0.
        -12    1    3    3    0    0  0.19636921582E+02 -0.14668925582E+02  0.27477136823E+02  0.36820905950E+02  0.00000000000E+00 0.  1.
         11    1    4    4    0    0 -0.17319181707E+02  0.72995076045E+01 -0.15563118109E+02  0.24401793209E+02  0.51100000000E-03 0. -1.
        -11    1    4    4    0    0 -0.10495296827E+01  0.16479792343E+02 -0.12556161153E+02  0.20744692126E+02  0.51100000000E-03 0.  1.
        -12    1    4    4    0    0 -0.12682101928E+01 -0.91103743658E+01  0.64214243852E+00  0.92206087158E+01  0.00000000000E+00 0.  1.
</event>
<event>
 8    1  0.2501893E-006  0.9118800E+02  0.7816164E-02  0.1184000E+00
        -11   -1    0    0    0    0  0.00000000000E+00  0.00000000000E+00  0.45593999997E+02  0.45594000000E+02  0.51100000000E-03 0.  1.
         11   -1    0    0    0    0 -0.00000000000E+00 -0.00000000000E+00 -0.45593999997E+02  0.45594000000E+02  0.51100000000E-03 0. -1.
         23    2    1    2    0    0  0.00000000000E+00 -0.44408920985E-15  0.71054273576E-14  0.91188000000E+02  0.91188000000E+02 0.  0.
    9900012    2    3    3    0    0 -0.10059841036E+02 -0.37059741205E+01  0.35225623915E+02  0.54367092542E+02  0.40000019069E+02 0.  0.
         12    1    3    3    0    0  0.10059841036E+02  0.37059741205E+01 -0.35225623915E+02  0.36820907458E+02  0.00000000000E+00 0. -1.
         11    1    4    4    0    0  0.10945395673E+02  0.14087660975E+01  0.39347474698E+01  0.11716166022E+02  0.51100000000E-03 0. -1.
        -11    1    4    4    0    0 -0.92764474879E+01 -0.12163878950E+02  0.16682143840E+02  0.22634185483E+02  0.51100000000E-03 0.  1.
        -12    1    4    4    0    0 -0.11728789220E+02  0.70491387321E+01  0.14608732605E+02  0.20016741037E+02  0.00000000000E+00 0.  1.
</event>
<event>
 8    1  0.2501893E-006  0.9118800E+02  0.7816164E-02  0.1184000E+00
        -11   -1    0    0    0    0  0.00000000000E+00  0.00000000000E+00  0.45593999997E+02  0.45594000000E+02  0.51100000000E-03 0. -1.
         11   -1    0    0    0    0 -0.00000000000E+00 -0.00000000000E+00 -0.45593999997E+02  0.45594000000E+02  0.51100000000E-03 0.  1.
         23    2    1    2    0    0 -0.71054273576E-14  0.17763568394E-14 -0.17763568394E-14  0.91188000000E+02  0.91188000000E+02 0.  0.
    9900012    2    3    3    0    0 -0.35401967521E+02 -0.42072983817E+01 -0.92081138330E+01  0.54366945909E+02  0.39999684788E+02 0.  0.
         12    1    3    3    0    0  0.35401967521E+02  0.42072983817E+01  0.92081138330E+01  0.36821054091E+02  0.00000000000E+00 0. -1.
         11    1    4    4    0    0 -0.15881920979E+02 -0.10590560884E+02 -0.13481843611E+02  0.23369970074E+02  0.51100000000E-03 0. -1.
        -11    1    4    4    0    0 -0.65536288585E+01  0.10262844662E+02 -0.64035551231E+01  0.13757963157E+02  0.51100000000E-03 0.  1.
         12    1    4    4    0    0 -0.12966417683E+02 -0.38795821595E+01  0.10677284901E+02  0.17239012678E+02  0.00000000000E+00 0. -1.
</event>
<event>
 8    1  0.2501893E-006  0.9118800E+02  0.7816164E-02  0.1184000E+00
        -11   -1    0    0    0    0  0.00000000000E+00  0.00000000000E+00  0.45593999997E+02  0.45594000000E+02  0.51100000000E-03 0.  1.
         11   -1    0    0    0    0 -0.00000000000E+00 -0.00000000000E+00 -0.45593999997E+02  0.45594000000E+02  0.51100000000E-03 0. -1.
         23    2    1    2    0    0  0.17763568394E-14  0.00000000000E+00  0.00000000000E+00  0.91188000000E+02  0.91188000000E+02 0.  0.
    9900012    2    3    3    0    0  0.14239222813E+02 -0.25364887506E+02 -0.22575348489E+02  0.54367090941E+02  0.40000015419E+02 0.  0.
        -12    1    3    3    0    0 -0.14239222813E+02  0.25364887506E+02  0.22575348489E+02  0.36820909059E+02  0.00000000000E+00 0.  1.
         11    1    4    4    0    0  0.75639504336E+01 -0.25644820273E+02 -0.44903310902E+01  0.27111496207E+02  0.51100000000E-03 0. -1.
        -11    1    4    4    0    0  0.24933608178E+01 -0.66767991977E+01 -0.17754865512E+02  0.19131956129E+02  0.51100000000E-03 0.  1.
        -12    1    4    4    0    0  0.41819115614E+01  0.69567319645E+01 -0.33015188636E+00  0.81236386060E+01  0.00000000000E+00 0.  1.
</event>
<event>
 8    1  0.2501893E-006  0.9118800E+02  0.7816164E-02  0.1184000E+00
        -11   -1    0    0    0    0  0.00000000000E+00  0.00000000000E+00  0.45593999997E+02  0.45594000000E+02  0.51100000000E-03 0. -1.
         11   -1    0    0    0    0 -0.00000000000E+00 -0.00000000000E+00 -0.45593999997E+02  0.45594000000E+02  0.51100000000E-03 0.  1.
         23    2    1    2    0    0 -0.88817841970E-15  0.00000000000E+00  0.88817841970E-15  0.91188000000E+02  0.91188000000E+02 0.  0.
    9900012    2    3    3    0    0  0.75897750855E+01 -0.35548082374E+02  0.58729018009E+01  0.54367328878E+02  0.40000557839E+02 0.  0.
         12    1    3    3    0    0 -0.75897750855E+01  0.35548082374E+02 -0.58729018009E+01  0.36820671122E+02  0.00000000000E+00 0. -1.
         11    1    4    4    0    0  0.15839115663E+00  0.41124601637E+01 -0.71244880338E+01  0.82277424827E+01  0.51100000000E-03 0. -1.
        -11    1    4    4    0    0  0.19074216242E+01 -0.21881283173E+02 -0.22444277368E+01  0.22078638244E+02  0.51100000000E-03 0.  1.
         12    1    4    4    0    0  0.55239623047E+01 -0.17779259364E+02  0.15241817571E+02  0.24060948152E+02  0.00000000000E+00 0. -1.
</event>
<event>
 8    1  0.2501893E-006  0.9118800E+02  0.7816164E-02  0.1184000E+00
        -11   -1    0    0    0    0  0.00000000000E+00  0.00000000000E+00  0.45593999997E+02  0.45594000000E+02  0.51100000000E-03 0.  1.
         11   -1    0    0    0    0 -0.00000000000E+00 -0.00000000000E+00 -0.45593999997E+02  0.45594000000E+02  0.51100000000E-03 0. -1.
         23    2    1    2    0    0  0.35527136788E-14 -0.35527136788E-14  0.00000000000E+00  0.91188000000E+02  0.91188000000E+02 0.  0.
    9900012    2    3    3    0    0 -0.16849962999E+02  0.24307500897E+02  0.21931805337E+02  0.54367082870E+02  0.39999997020E+02 0.  0.
         12    1    3    3    0    0  0.16849962999E+02 -0.24307500897E+02 -0.21931805337E+02  0.36820917130E+02  0.00000000000E+00 0. -1.
         11    1    4    4    0    0 -0.14665237124E+02  0.13771174517E+02 -0.28441145671E+01  0.20317564210E+02  0.51100000000E-03 0. -1.
        -11    1    4    4    0    0 -0.58510301077E+01 -0.38106869167E+01  0.27412624699E+01  0.75013604292E+01  0.51100000000E-03 0.  1.
        -12    1    4    4    0    0  0.36663042327E+01  0.14347013296E+02  0.22034657434E+02  0.26548158232E+02  0.00000000000E+00 0.  1.
</event>
<event>
 8    1  0.2501893E-006  0.9118800E+02  0.7816164E-02  0.1184000E+00
        -11   -1    0    0    0    0  0.00000000000E+00  0.00000000000E+00  0.45593999997E+02  0.45594000000E+02  0.51100000000E-03 0. -1.
         11   -1    0    0    0    0 -0.00000000000E+00 -0.00000000000E+00 -0.45593999997E+02  0.45594000000E+02  0.51100000000E-03 0.  1.
         23    2    1    2    0    0  0.00000000000E+00  0.35527136788E-14 -0.35527136788E-14  0.91188000000E+02  0.91188000000E+02 0.  0.
    9900012    2    3    3    0    0  0.20223741329E+02  0.27173264732E+02 -0.14435865203E+02  0.54367078858E+02  0.39999987873E+02 0.  0.
         12    1    3    3    0    0 -0.20223741329E+02 -0.27173264732E+02  0.14435865203E+02  0.36820921142E+02  0.00000000000E+00 0. -1.
         11    1    4    4    0    0  0.21449207235E+02  0.72286909437E+01 -0.10562723091E+02  0.24977861860E+02  0.51100000000E-03 0. -1.
        -11    1    4    4    0    0  0.26212476330E+01  0.21368428648E+01 -0.96911824322E+01  0.10264309708E+02  0.51100000000E-03 0.  1.
         12    1    4    4    0    0 -0.38467135385E+01  0.17807730924E+02  0.58180403197E+01  0.19124907290E+02  0.00000000000E+00 0. -1.
</event>
<event>
 8    1  0.2501893E-006  0.9118800E+02  0.7816164E-02  0.1184000E+00
        -11   -1    0    0    0    0  0.00000000000E+00  0.00000000000E+00  0.45593999997E+02  0.45594000000E+02  0.51100000000E-03 0.  1.
         11   -1    0    0    0    0 -0.00000000000E+00 -0.00000000000E+00 -0.45593999997E+02  0.45594000000E+02  0.51100000000E-03 0. -1.
         23    2    1    2    0    0 -0.35527136788E-14 -0.35527136788E-14  0.00000000000E+00  0.91188000000E+02  0.91188000000E+02 0.  0.
    9900012    2    3    3    0    0 -0.21585040496E+02  0.18887194534E+02 -0.23089828789E+02  0.54367078174E+02  0.39999986314E+02 0.  0.
        -12    1    3    3    0    0  0.21585040496E+02 -0.18887194534E+02  0.23089828789E+02  0.36820921826E+02  0.00000000000E+00 0.  1.
         11    1    4    4    0    0 -0.10771875454E+02  0.21548518539E+02 -0.28337063243E+02  0.37193562690E+02  0.51100000000E-03 0. -1.
        -11    1    4    4    0    0 -0.55080472934E+01 -0.18366791493E+01  0.89380921661E+01  0.10658398900E+02  0.51100000000E-03 0.  1.
        -12    1    4    4    0    0 -0.53051177486E+01 -0.82464485582E+00 -0.36908577114E+01  0.65151165846E+01  0.00000000000E+00 0.  1.
</event>
<event>
 8    1  0.2501893E-006  0.9118800E+02  0.7816164E-02  0.1184000E+00
        -11   -1    0    0    0    0  0.00000000000E+00  0.00000000000E+00  0.45593999997E+02  0.45594000000E+02  0.51100000000E-03 0. -1.
         11   -1    0    0    0    0 -0.00000000000E+00 -0.00000000000E+00 -0.45593999997E+02  0.45594000000E+02  0.51100000000E-03 0.  1.
         23    2    1    2    0    0  0.88817841970E-15  0.00000000000E+00 -0.17763568394E-14  0.91188000000E+02  0.91188000000E+02 0.  0.
    9900012    2    3    3    0    0  0.40391015692E+01  0.34726913841E+02  0.11554601325E+02  0.54367058972E+02  0.39999942539E+02 0.  0.
        -12    1    3    3    0    0 -0.40391015692E+01 -0.34726913841E+02 -0.11554601325E+02  0.36820941028E+02  0.00000000000E+00 0.  1.
         11    1    4    4    0    0  0.94062776366E+01  0.14729005077E+02 -0.23869953993E+00  0.17477946884E+02  0.51100000000E-03 0. -1.
        -11    1    4    4    0    0 -0.63610001397E+01  0.22577994089E+02  0.18344523474E+02  0.29778342493E+02  0.51100000000E-03 0.  1.
        -12    1    4    4    0    0  0.99382407219E+00 -0.25800853250E+01 -0.65512226093E+01  0.71107695960E+01  0.00000000000E+00 0.  1.
</event>
<event>
 8    1  0.2501893E-006  0.9118800E+02  0.7816164E-02  0.1184000E+00
        -11   -1    0    0    0    0  0.00000000000E+00  0.00000000000E+00  0.45593999997E+02  0.45594000000E+02  0.51100000000E-03 0. -1.
         11   -1    0    0    0    0 -0.00000000000E+00 -0.00000000000E+00 -0.45593999997E+02  0.45594000000E+02  0.51100000000E-03 0.  1.
         23    2    1    2    0    0  0.22204460493E-15  0.00000000000E+00  0.71054273576E-14  0.91188000000E+02  0.91188000000E+02 0.  0.
    9900012    2    3    3    0    0  0.12480174025E+01  0.14378756386E+02 -0.33874542258E+02  0.54366935434E+02  0.39999660907E+02 0.  0.
         12    1    3    3    0    0 -0.12480174025E+01 -0.14378756386E+02  0.33874542258E+02  0.36821064566E+02  0.00000000000E+00 0. -1.
         11    1    4    4    0    0  0.16635235720E+01  0.91976957741E+01 -0.28673871250E+01  0.97768516104E+01  0.51100000000E-03 0. -1.
        -11    1    4    4    0    0 -0.11021328901E+02  0.11017018771E+02 -0.28113435123E+02  0.32143578332E+02  0.51100000000E-03 0.  1.
         12    1    4    4    0    0  0.10605822731E+02 -0.58359581594E+01 -0.28937200094E+01  0.12446505491E+02  0.00000000000E+00 0. -1.
</event>
<event>
 8    1  0.2501893E-006  0.9118800E+02  0.7816164E-02  0.1184000E+00
        -11   -1    0    0    0    0  0.00000000000E+00  0.00000000000E+00  0.45593999997E+02  0.45594000000E+02  0.51100000000E-03 0.  1.
         11   -1    0    0    0    0 -0.00000000000E+00 -0.00000000000E+00 -0.45593999997E+02  0.45594000000E+02  0.51100000000E-03 0. -1.
         23    2    1    2    0    0  0.00000000000E+00  0.35527136788E-14  0.00000000000E+00  0.91188000000E+02  0.91188000000E+02 0.  0.
    9900012    2    3    3    0    0 -0.20950203953E+02 -0.23739497595E+02  0.18796416720E+02  0.54367081038E+02  0.39999992841E+02 0.  0.
         12    1    3    3    0    0  0.20950203953E+02  0.23739497595E+02 -0.18796416720E+02  0.36820918962E+02  0.00000000000E+00 0. -1.
         11    1    4    4    0    0 -0.17094467140E+02  0.68564082952E+01  0.85971241292E+01  0.20325887067E+02  0.51100000000E-03 0. -1.
        -11    1    4    4    0    0 -0.69486304318E+01 -0.19370968389E+02  0.85365311139E+01  0.22279816986E+02  0.51100000000E-03 0.  1.
        -12    1    4    4    0    0  0.30928936191E+01 -0.11224937501E+02  0.16627614772E+01  0.11761376984E+02  0.00000000000E+00 0.  1.
</event>
<event>
 8    1  0.2501893E-006  0.9118800E+02  0.7816164E-02  0.1184000E+00
        -11   -1    0    0    0    0  0.00000000000E+00  0.00000000000E+00  0.45593999997E+02  0.45594000000E+02  0.51100000000E-03 0.  1.
         11   -1    0    0    0    0 -0.00000000000E+00 -0.00000000000E+00 -0.45593999997E+02  0.45594000000E+02  0.51100000000E-03 0. -1.
         23    2    1    2    0    0  0.44408920985E-15  0.00000000000E+00  0.00000000000E+00  0.91188000000E+02  0.91188000000E+02 0.  0.
    9900012    2    3    3    0    0  0.35648238607E+01  0.15237546652E+02 -0.33329993064E+02  0.54367092423E+02  0.40000018797E+02 0.  0.
        -12    1    3    3    0    0 -0.35648238607E+01 -0.15237546652E+02  0.33329993064E+02  0.36820907577E+02  0.00000000000E+00 0.  1.
         11    1    4    4    0    0  0.11516154624E+01 -0.18918567184E+00 -0.25741233113E+02  0.25767675329E+02  0.51100000000E-03 0. -1.
        -11    1    4    4    0    0  0.44026043883E+01  0.20209228689E+02 -0.16943581653E+01  0.20752510679E+02  0.51100000000E-03 0.  1.
        -12    1    4    4    0    0 -0.19893959900E+01 -0.47824963652E+01 -0.58944017851E+01  0.78469064154E+01  0.00000000000E+00 0.  1.
</event>
<event>
 8    1  0.2501893E-006  0.9118800E+02  0.7816164E-02  0.1184000E+00
        -11   -1    0    0    0    0  0.00000000000E+00  0.00000000000E+00  0.45593999997E+02  0.45594000000E+02  0.51100000000E-03 0.  1.
         11   -1    0    0    0    0 -0.00000000000E+00 -0.00000000000E+00 -0.45593999997E+02  0.45594000000E+02  0.51100000000E-03 0. -1.
         23    2    1    2    0    0  0.00000000000E+00  0.00000000000E+00  0.00000000000E+00  0.91188000000E+02  0.91188000000E+02 0.  0.
    9900012    2    3    3    0    0  0.15996318190E+02  0.89292063699E+01 -0.31940036937E+02  0.54367097220E+02  0.40000029732E+02 0.  0.
        -12    1    3    3    0    0 -0.15996318190E+02 -0.89292063699E+01  0.31940036937E+02  0.36820902780E+02  0.00000000000E+00 0.  1.
         11    1    4    4    0    0  0.15353028841E+02  0.10451339716E+02 -0.16585266179E+02  0.24900141585E+02  0.51100000000E-03 0. -1.
        -11    1    4    4    0    0 -0.10453993119E+02  0.31701624099E+01 -0.13729820523E+01  0.11010040046E+02  0.51100000000E-03 0.  1.
         12    1    4    4    0    0  0.11097282468E+02 -0.46922957563E+01 -0.13981788705E+02  0.18456915589E+02  0.00000000000E+00 0. -1.
</event>
<event>
 8    1  0.2501893E-006  0.9118800E+02  0.7816164E-02  0.1184000E+00
        -11   -1    0    0    0    0  0.00000000000E+00  0.00000000000E+00  0.45593999997E+02  0.45594000000E+02  0.51100000000E-03 0. -1.
         11   -1    0    0    0    0 -0.00000000000E+00 -0.00000000000E+00 -0.45593999997E+02  0.45594000000E+02  0.51100000000E-03 0.  1.
         23    2    1    2    0    0  0.17763568394E-14  0.00000000000E+00 -0.88817841970E-15  0.91188000000E+02  0.91188000000E+02 0.  0.
    9900012    2    3    3    0    0  0.11000573351E+02 -0.34614053774E+02  0.60524366984E+01  0.54367118388E+02  0.40000077988E+02 0.  0.
         12    1    3    3    0    0 -0.11000573351E+02  0.34614053774E+02 -0.60524366984E+01  0.36820881612E+02  0.00000000000E+00 0. -1.
         11    1    4    4    0    0  0.50024798741E+01 -0.21445287556E+02 -0.34914156050E+01  0.22296079172E+02  0.51100000000E-03 0.  1.
        -11    1    4    4    0    0  0.24981056494E+01 -0.16383392577E+02 -0.45595326003E+01  0.17188525881E+02  0.51100000000E-03 0. -1.
         12    1    4    4    0    0  0.34999878279E+01  0.32146263589E+01  0.14103384904E+02  0.14882513335E+02  0.00000000000E+00 0. -1.
</event>
<event>
 8    1  0.2501893E-006  0.9118800E+02  0.7816164E-02  0.1184000E+00
        -11   -1    0    0    0    0  0.00000000000E+00  0.00000000000E+00  0.45593999997E+02  0.45594000000E+02  0.51100000000E-03 0. -1.
         11   -1    0    0    0    0 -0.00000000000E+00 -0.00000000000E+00 -0.45593999997E+02  0.45594000000E+02  0.51100000000E-03 0.  1.
         23    2    1    2    0    0  0.88817841970E-15 -0.11102230246E-14  0.00000000000E+00  0.91188000000E+02  0.91188000000E+02 0.  0.
    9900012    2    3    3    0    0 -0.53047067583E+01 -0.38408917425E+00 -0.36434766232E+02  0.54367087074E+02  0.40000006603E+02 0.  0.
         12    1    3    3    0    0  0.53047067583E+01  0.38408917425E+00  0.36434766232E+02  0.36820912926E+02  0.00000000000E+00 0. -1.
         11    1    4    4    0    0 -0.22867516398E+01 -0.78872102143E+01 -0.13074648796E+01  0.83154544494E+01  0.51100000000E-03 0. -1.
        -11    1    4    4    0    0 -0.99188174257E+01  0.13740453299E+02 -0.11026360701E+02  0.20217903614E+02  0.51100000000E-03 0.  1.
         12    1    4    4    0    0  0.69008623072E+01 -0.62373322588E+01 -0.24100940652E+02  0.25833729011E+02  0.00000000000E+00 0. -1.
</event>
<event>
 8    1  0.2501893E-006  0.9118800E+02  0.7816164E-02  0.1184000E+00
        -11   -1    0    0    0    0  0.00000000000E+00  0.00000000000E+00  0.45593999997E+02  0.45594000000E+02  0.51100000000E-03 0.  1.
         11   -1    0    0    0    0 -0.00000000000E+00 -0.00000000000E+00 -0.45593999997E+02  0.45594000000E+02  0.51100000000E-03 0. -1.
         23    2    1    2    0    0  0.00000000000E+00  0.35527136788E-14 -0.35527136788E-14  0.91188000000E+02  0.91188000000E+02 0.  0.
    9900012    2    3    3    0    0 -0.26821547322E+00 -0.21013248563E+02 -0.30234956576E+02  0.54367066364E+02  0.39999959389E+02 0.  0.
        -12    1    3    3    0    0  0.26821547322E+00  0.21013248563E+02  0.30234956576E+02  0.36820933636E+02  0.00000000000E+00 0.  1.
         11    1    4    4    0    0 -0.13354890227E+01  0.58345089228E+01 -0.30668175232E+01  0.67253546584E+01  0.51100000000E-03 0.  1.
        -11    1    4    4    0    0  0.10002062576E+01 -0.88320975800E+01 -0.28228409765E+02  0.29594754237E+02  0.51100000000E-03 0. -1.
        -12    1    4    4    0    0  0.67067291920E-01 -0.18015659906E+02  0.10602707126E+01  0.18046957468E+02  0.00000000000E+00 0.  1.
</event>
<event>
 8    1  0.2501893E-006  0.9118800E+02  0.7816164E-02  0.1184000E+00
        -11   -1    0    0    0    0  0.00000000000E+00  0.00000000000E+00  0.45593999997E+02  0.45594000000E+02  0.51100000000E-03 0.  1.
         11   -1    0    0    0    0 -0.00000000000E+00 -0.00000000000E+00 -0.45593999997E+02  0.45594000000E+02  0.51100000000E-03 0. -1.
         23    2    1    2    0    0 -0.35527136788E-14 -0.17763568394E-14  0.00000000000E+00  0.91188000000E+02  0.91188000000E+02 0.  0.
    9900012    2    3    3    0    0 -0.31601123976E+02 -0.15951279180E+02  0.10134130063E+02  0.54367150795E+02  0.40000151868E+02 0.  0.
         12    1    3    3    0    0  0.31601123976E+02  0.15951279180E+02 -0.10134130063E+02  0.36820849205E+02  0.00000000000E+00 0. -1.
         11    1    4    4    0    0 -0.30862666577E+01  0.60045941094E+00 -0.57437534740E+01  0.65479995127E+01  0.51100000000E-03 0. -1.
        -11    1    4    4    0    0 -0.30360320349E+02 -0.72137270386E+01  0.23713739950E+01  0.31295532019E+02  0.51100000000E-03 0.  1.
         12    1    4    4    0    0  0.18454630311E+01 -0.93380115528E+01  0.13506509542E+02  0.16523619263E+02  0.00000000000E+00 0. -1.
</event>
<event>
 8    1  0.2501893E-006  0.9118800E+02  0.7816164E-02  0.1184000E+00
        -11   -1    0    0    0    0  0.00000000000E+00  0.00000000000E+00  0.45593999997E+02  0.45594000000E+02  0.51100000000E-03 0. -1.
         11   -1    0    0    0    0 -0.00000000000E+00 -0.00000000000E+00 -0.45593999997E+02  0.45594000000E+02  0.51100000000E-03 0.  1.
         23    2    1    2    0    0  0.00000000000E+00  0.00000000000E+00  0.35527136788E-14  0.91188000000E+02  0.91188000000E+02 0.  0.
    9900012    2    3    3    0    0 -0.65559701265E+01  0.24746583243E+02  0.26465179201E+02  0.54367084250E+02  0.40000000166E+02 0.  0.
        -12    1    3    3    0    0  0.65559701265E+01 -0.24746583243E+02 -0.26465179201E+02  0.36820915750E+02  0.00000000000E+00 0.  1.
         11    1    4    4    0    0  0.32503948094E+01 -0.37077411863E+01  0.20494133382E+02  0.21078944814E+02  0.51100000000E-03 0. -1.
        -11    1    4    4    0    0 -0.54087525207E+01  0.20033736886E+02  0.99200648568E+01  0.23000280531E+02  0.51100000000E-03 0.  1.
         12    1    4    4    0    0 -0.43976124151E+01  0.84205875427E+01 -0.39490190373E+01  0.10287858906E+02  0.00000000000E+00 0. -1.
</event>
<event>
 8    1  0.2501893E-006  0.9118800E+02  0.7816164E-02  0.1184000E+00
        -11   -1    0    0    0    0  0.00000000000E+00  0.00000000000E+00  0.45593999997E+02  0.45594000000E+02  0.51100000000E-03 0.  1.
         11   -1    0    0    0    0 -0.00000000000E+00 -0.00000000000E+00 -0.45593999997E+02  0.45594000000E+02  0.51100000000E-03 0. -1.
         23    2    1    2    0    0  0.00000000000E+00  0.27755575616E-15  0.00000000000E+00  0.91188000000E+02  0.91188000000E+02 0.  0.
    9900012    2    3    3    0    0 -0.16932418836E+02  0.29002796224E+00 -0.32695359609E+02  0.54367116471E+02  0.40000073619E+02 0.  0.
        -12    1    3    3    0    0  0.16932418836E+02 -0.29002796224E+00  0.32695359609E+02  0.36820883529E+02  0.00000000000E+00 0.  1.
         11    1    4    4    0    0 -0.64096340093E+01  0.71839911940E+01 -0.29694283126E+01  0.10075248998E+02  0.51100000000E-03 0. -1.
        -11    1    4    4    0    0  0.13172369101E+01 -0.88654856217E+01  0.29861453366E+01  0.94471695559E+01  0.51100000000E-03 0.  1.
         12    1    4    4    0    0 -0.11840021737E+02  0.19715223899E+01 -0.32712076633E+02  0.34844697917E+02  0.00000000000E+00 0. -1.
</event>
<event>
 8    1  0.2501893E-006  0.9118800E+02  0.7816164E-02  0.1184000E+00
        -11   -1    0    0    0    0  0.00000000000E+00  0.00000000000E+00  0.45593999997E+02  0.45594000000E+02  0.51100000000E-03 0.  1.
         11   -1    0    0    0    0 -0.00000000000E+00 -0.00000000000E+00 -0.45593999997E+02  0.45594000000E+02  0.51100000000E-03 0. -1.
         23    2    1    2    0    0  0.00000000000E+00 -0.17763568394E-14  0.00000000000E+00  0.91188000000E+02  0.91188000000E+02 0.  0.
    9900012    2    3    3    0    0  0.34505015963E+02  0.49884010245E+01  0.11844923664E+02  0.54367048247E+02  0.39999918088E+02 0.  0.
         12    1    3    3    0    0 -0.34505015963E+02 -0.49884010245E+01 -0.11844923664E+02  0.36820951753E+02  0.00000000000E+00 0. -1.
         11    1    4    4    0    0 -0.65559408267E+01 -0.25243378329E+00 -0.37844419995E+01  0.75740401667E+01  0.51100000000E-03 0. -1.
        -11    1    4    4    0    0  0.82127007390E+01 -0.28321864924E+01  0.86407581026E+01  0.12252854141E+02  0.51100000000E-03 0.  1.
         12    1    4    4    0    0  0.32848256051E+02  0.80730213002E+01  0.69886075612E+01  0.34540153939E+02  0.00000000000E+00 0. -1.
</event>
<event>
 8    1  0.2501893E-006  0.9118800E+02  0.7816164E-02  0.1184000E+00
        -11   -1    0    0    0    0  0.00000000000E+00  0.00000000000E+00  0.45593999997E+02  0.45594000000E+02  0.51100000000E-03 0.  1.
         11   -1    0    0    0    0 -0.00000000000E+00 -0.00000000000E+00 -0.45593999997E+02  0.45594000000E+02  0.51100000000E-03 0. -1.
         23    2    1    2    0    0 -0.35527136788E-14  0.00000000000E+00  0.00000000000E+00  0.91188000000E+02  0.91188000000E+02 0.  0.
    9900012    2    3    3    0    0  0.23887937594E+02 -0.71088377494E+01  0.27103699825E+02  0.54367086365E+02  0.40000004987E+02 0.  0.
         12    1    3    3    0    0 -0.23887937594E+02  0.71088377494E+01 -0.27103699825E+02  0.36820913635E+02  0.00000000000E+00 0. -1.
         11    1    4    4    0    0  0.15463049043E+02  0.29936362053E+01  0.25968378085E+02  0.30371440599E+02  0.51100000000E-03 0. -1.
        -11    1    4    4    0    0  0.15026106881E+02 -0.72083044181E+01  0.17730646999E+01  0.16759692696E+02  0.51100000000E-03 0.  1.
         12    1    4    4    0    0 -0.66012183296E+01 -0.28941695367E+01 -0.63774295991E+00  0.72359530696E+01  0.00000000000E+00 0. -1.
</event>
<event>
 8    1  0.2501893E-006  0.9118800E+02  0.7816164E-02  0.1184000E+00
        -11   -1    0    0    0    0  0.00000000000E+00  0.00000000000E+00  0.45593999997E+02  0.45594000000E+02  0.51100000000E-03 0.  1.
         11   -1    0    0    0    0 -0.00000000000E+00 -0.00000000000E+00 -0.45593999997E+02  0.45594000000E+02  0.51100000000E-03 0. -1.
         23    2    1    2    0    0  0.00000000000E+00  0.00000000000E+00 -0.22204460493E-14  0.91188000000E+02  0.91188000000E+02 0.  0.
    9900012    2    3    3    0    0 -0.34118375435E+02 -0.13844095613E+02  0.24492844522E+00  0.54367047872E+02  0.39999917233E+02 0.  0.
        -12    1    3    3    0    0  0.34118375435E+02  0.13844095613E+02 -0.24492844522E+00  0.36820952128E+02  0.00000000000E+00 0.  1.
         11    1    4    4    0    0 -0.22774526533E+00  0.96485397249E+00 -0.12268481120E+02  0.12308470269E+02  0.51100000000E-03 0. -1.
        -11    1    4    4    0    0 -0.15099137336E+02 -0.14872710189E+02  0.85501343945E+01  0.22853582981E+02  0.51100000000E-03 0.  1.
         12    1    4    4    0    0 -0.18791492834E+02  0.63760603607E-01  0.39632751711E+01  0.19204994622E+02  0.00000000000E+00 0. -1.
</event>
<event>
 8    1  0.2501893E-006  0.9118800E+02  0.7816164E-02  0.1184000E+00
        -11   -1    0    0    0    0  0.00000000000E+00  0.00000000000E+00  0.45593999997E+02  0.45594000000E+02  0.51100000000E-03 0. -1.
         11   -1    0    0    0    0 -0.00000000000E+00 -0.00000000000E+00 -0.45593999997E+02  0.45594000000E+02  0.51100000000E-03 0.  1.
         23    2    1    2    0    0  0.35527136788E-14  0.00000000000E+00  0.00000000000E+00  0.91188000000E+02  0.91188000000E+02 0.  0.
    9900012    2    3    3    0    0 -0.17126778520E+02 -0.15959670627E+02  0.28420794241E+02  0.54367093244E+02  0.40000020669E+02 0.  0.
        -12    1    3    3    0    0  0.17126778520E+02  0.15959670627E+02 -0.28420794241E+02  0.36820906756E+02  0.00000000000E+00 0.  1.
         11    1    4    4    0    0  0.36610941671E+01 -0.30924970706E+01 -0.62103100097E+01  0.78444311017E+01  0.51100000000E-03 0. -1.
        -11    1    4    4    0    0  0.15980213331E+01 -0.66216233023E+01  0.34570319995E+01  0.76387589205E+01  0.51100000000E-03 0.  1.
         12    1    4    4    0    0 -0.22385894020E+02 -0.62455502539E+01  0.31174072252E+02  0.38883903222E+02  0.00000000000E+00 0. -1.
</event>
<event>
 8    1  0.2501893E-006  0.9118800E+02  0.7816164E-02  0.1184000E+00
        -11   -1    0    0    0    0  0.00000000000E+00  0.00000000000E+00  0.45593999997E+02  0.45594000000E+02  0.51100000000E-03 0. -1.
         11   -1    0    0    0    0 -0.00000000000E+00 -0.00000000000E+00 -0.45593999997E+02  0.45594000000E+02  0.51100000000E-03 0.  1.
         23    2    1    2    0    0  0.00000000000E+00  0.88817841970E-15  0.00000000000E+00  0.91188000000E+02  0.91188000000E+02 0.  0.
    9900012    2    3    3    0    0 -0.17656094542E+02 -0.65072285542E+01  0.31649620321E+02  0.54367079800E+02  0.39999990019E+02 0.  0.
        -12    1    3    3    0    0  0.17656094542E+02  0.65072285542E+01 -0.31649620321E+02  0.36820920200E+02  0.00000000000E+00 0.  1.
         11    1    4    4    0    0 -0.21907624505E+01 -0.87901800855E+01  0.75372208996E+01  0.11784583370E+02  0.51100000000E-03 0. -1.
        -11    1    4    4    0    0 -0.66571573108E+00 -0.10968728326E+02  0.19194249570E+02  0.22117309857E+02  0.51100000000E-03 0.  1.
        -12    1    4    4    0    0 -0.14799616361E+02  0.13251679858E+02  0.49181498517E+01  0.20465186572E+02  0.00000000000E+00 0.  1.
</event>
<event>
 8    1  0.2501893E-006  0.9118800E+02  0.7816164E-02  0.1184000E+00
        -11   -1    0    0    0    0  0.00000000000E+00  0.00000000000E+00  0.45593999997E+02  0.45594000000E+02  0.51100000000E-03 0. -1.
         11   -1    0    0    0    0 -0.00000000000E+00 -0.00000000000E+00 -0.45593999997E+02  0.45594000000E+02  0.51100000000E-03 0.  1.
         23    2    1    2    0    0  0.00000000000E+00 -0.17763568394E-14  0.00000000000E+00  0.91188000000E+02  0.91188000000E+02 0.  0.
    9900012    2    3    3    0    0  0.12102252307E+02  0.12794024240E+02 -0.32336149797E+02  0.54367107142E+02  0.40000052351E+02 0.  0.
         12    1    3    3    0    0 -0.12102252307E+02 -0.12794024240E+02  0.32336149797E+02  0.36820892858E+02  0.00000000000E+00 0. -1.
         11    1    4    4    0    0  0.73792575511E-01 -0.31454838230E+01 -0.11207936683E+02  0.11641192326E+02  0.51100000000E-03 0. -1.
        -11    1    4    4    0    0  0.14848337090E+02  0.49338647563E+01 -0.26015437389E+02  0.30358180422E+02  0.51100000000E-03 0.  1.
         12    1    4    4    0    0 -0.28198773584E+01  0.11005643307E+02  0.48872242746E+01  0.12367734393E+02  0.00000000000E+00 0. -1.
</event>
<event>
 8    1  0.2501893E-006  0.9118800E+02  0.7816164E-02  0.1184000E+00
        -11   -1    0    0    0    0  0.00000000000E+00  0.00000000000E+00  0.45593999997E+02  0.45594000000E+02  0.51100000000E-03 0.  1.
         11   -1    0    0    0    0 -0.00000000000E+00 -0.00000000000E+00 -0.45593999997E+02  0.45594000000E+02  0.51100000000E-03 0. -1.
         23    2    1    2    0    0  0.00000000000E+00  0.17763568394E-14  0.35527136788E-14  0.91188000000E+02  0.91188000000E+02 0.  0.
    9900012    2    3    3    0    0 -0.18573987686E+02  0.10975176764E+02  0.29838425909E+02  0.54367093109E+02  0.40000020360E+02 0.  0.
         12    1    3    3    0    0  0.18573987686E+02 -0.10975176764E+02 -0.29838425909E+02  0.36820906891E+02  0.00000000000E+00 0. -1.
         11    1    4    4    0    0 -0.17438749483E+02  0.11216990260E+02  0.71304021717E+01  0.21926547595E+02  0.51100000000E-03 0. -1.
        -11    1    4    4    0    0 -0.11960773386E+02 -0.22135583891E+01  0.11901032148E+02  0.17017476522E+02  0.51100000000E-03 0.  1.
         12    1    4    4    0    0  0.10825535183E+02  0.19717448933E+01  0.10806991589E+02  0.15423068992E+02  0.00000000000E+00 0. -1.
</event>
<event>
 8    1  0.2501893E-006  0.9118800E+02  0.7816164E-02  0.1184000E+00
        -11   -1    0    0    0    0  0.00000000000E+00  0.00000000000E+00  0.45593999997E+02  0.45594000000E+02  0.51100000000E-03 0.  1.
         11   -1    0    0    0    0 -0.00000000000E+00 -0.00000000000E+00 -0.45593999997E+02  0.45594000000E+02  0.51100000000E-03 0. -1.
         23    2    1    2    0    0 -0.35527136788E-14  0.00000000000E+00 -0.88817841970E-15  0.91188000000E+02  0.91188000000E+02 0.  0.
    9900012    2    3    3    0    0 -0.29032711423E+02 -0.21457679490E+02  0.72422454251E+01  0.54367075780E+02  0.39999980855E+02 0.  0.
         12    1    3    3    0    0  0.29032711423E+02  0.21457679490E+02 -0.72422454251E+01  0.36820924220E+02  0.00000000000E+00 0. -1.
         11    1    4    4    0    0  0.61833489289E+01 -0.41617565625E+01  0.29278476297E+01  0.80078907127E+01  0.51100000000E-03 0. -1.
        -11    1    4    4    0    0 -0.96051774338E+01  0.42057192295E+01  0.73146176430E+01  0.12784801105E+02  0.51100000000E-03 0.  1.
        -12    1    4    4    0    0 -0.25610882918E+02 -0.21501642157E+02 -0.30002198476E+01  0.33574383962E+02  0.00000000000E+00 0.  1.
</event>
<event>
 8    1  0.2501893E-006  0.9118800E+02  0.7816164E-02  0.1184000E+00
        -11   -1    0    0    0    0  0.00000000000E+00  0.00000000000E+00  0.45593999997E+02  0.45594000000E+02  0.51100000000E-03 0.  1.
         11   -1    0    0    0    0 -0.00000000000E+00 -0.00000000000E+00 -0.45593999997E+02  0.45594000000E+02  0.51100000000E-03 0. -1.
         23    2    1    2    0    0  0.00000000000E+00 -0.88817841970E-15 -0.35527136788E-14  0.91188000000E+02  0.91188000000E+02 0.  0.
    9900012    2    3    3    0    0 -0.23839467340E+02  0.10658766904E+01  0.28041452799E+02  0.54367090570E+02  0.40000014573E+02 0.  0.
         12    1    3    3    0    0  0.23839467340E+02 -0.10658766904E+01 -0.28041452799E+02  0.36820909430E+02  0.00000000000E+00 0. -1.
         11    1    4    4    0    0  0.28510921867E+01 -0.81400479954E+01  0.12489996935E+02  0.15178574759E+02  0.51100000000E-03 0. -1.
        -11    1    4    4    0    0 -0.21694763899E+02  0.11482781357E+02  0.20359320074E+02  0.31890734743E+02  0.51100000000E-03 0.  1.
        -12    1    4    4    0    0 -0.49957956275E+01 -0.22768566716E+01 -0.48078642098E+01  0.72977810679E+01  0.00000000000E+00 0.  1.
</event>
<event>
 8    1  0.2501893E-006  0.9118800E+02  0.7816164E-02  0.1184000E+00
        -11   -1    0    0    0    0  0.00000000000E+00  0.00000000000E+00  0.45593999997E+02  0.45594000000E+02  0.51100000000E-03 0. -1.
         11   -1    0    0    0    0 -0.00000000000E+00 -0.00000000000E+00 -0.45593999997E+02  0.45594000000E+02  0.51100000000E-03 0.  1.
         23    2    1    2    0    0  0.00000000000E+00  0.00000000000E+00  0.35527136788E-14  0.91188000000E+02  0.91188000000E+02 0.  0.
    9900012    2    3    3    0    0 -0.77758453647E+01  0.21867442184E+02 -0.28585482179E+02  0.54367101176E+02  0.40000038751E+02 0.  0.
         12    1    3    3    0    0  0.77758453647E+01 -0.21867442184E+02  0.28585482179E+02  0.36820898824E+02  0.00000000000E+00 0. -1.
         11    1    4    4    0    0 -0.12947270972E+01 -0.10946221707E+01 -0.12198412262E+02  0.12315672045E+02  0.51100000000E-03 0. -1.
        -11    1    4    4    0    0  0.33880428573E+01 -0.49793517712E+01  0.29101607439E+01  0.66889322227E+01  0.51100000000E-03 0.  1.
        -12    1    4    4    0    0 -0.98691611248E+01  0.27941416125E+02 -0.19297230661E+02  0.35362496908E+02  0.00000000000E+00 0.  1.
</event>
<event>
 8    1  0.2501893E-006  0.9118800E+02  0.7816164E-02  0.1184000E+00
        -11   -1    0    0    0    0  0.00000000000E+00  0.00000000000E+00  0.45593999997E+02  0.45594000000E+02  0.51100000000E-03 0. -1.
         11   -1    0    0    0    0 -0.00000000000E+00 -0.00000000000E+00 -0.45593999997E+02  0.45594000000E+02  0.51100000000E-03 0.  1.
         23    2    1    2    0    0  0.00000000000E+00  0.88817841970E-15  0.17763568394E-14  0.91188000000E+02  0.91188000000E+02 0.  0.
    9900012    2    3    3    0    0  0.35607056752E+02  0.65855212066E+01  0.66744978762E+01  0.54367075215E+02  0.39999979567E+02 0.  0.
         12    1    3    3    0    0 -0.35607056752E+02 -0.65855212066E+01 -0.66744978762E+01  0.36820924785E+02  0.00000000000E+00 0. -1.
         11    1    4    4    0    0  0.72464935464E+01  0.27225246840E+01  0.14357414807E+02  0.16311320289E+02  0.51100000000E-03 0. -1.
        -11    1    4    4    0    0 -0.24713865974E+01 -0.36011278842E+00 -0.64442543459E+01  0.69112840536E+01  0.51100000000E-03 0.  1.
        -12    1    4    4    0    0  0.30831949803E+02  0.42231093110E+01 -0.12386625845E+01  0.31144470873E+02  0.00000000000E+00 0.  1.
</event>
<event>
 8    1  0.2501893E-006  0.9118800E+02  0.7816164E-02  0.1184000E+00
        -11   -1    0    0    0    0  0.00000000000E+00  0.00000000000E+00  0.45593999997E+02  0.45594000000E+02  0.51100000000E-03 0.  1.
         11   -1    0    0    0    0 -0.00000000000E+00 -0.00000000000E+00 -0.45593999997E+02  0.45594000000E+02  0.51100000000E-03 0. -1.
         23    2    1    2    0    0  0.00000000000E+00  0.35527136788E-14  0.00000000000E+00  0.91188000000E+02  0.91188000000E+02 0.  0.
    9900012    2    3    3    0    0 -0.61988792188E+01 -0.21245004041E+02  0.29427931950E+02  0.54367089105E+02  0.40000011232E+02 0.  0.
         12    1    3    3    0    0  0.61988792188E+01  0.21245004041E+02 -0.29427931950E+02  0.36820910895E+02  0.00000000000E+00 0. -1.
         11    1    4    4    0    0 -0.14776900797E+02 -0.71174013777E+01  0.46067609271E+01  0.17036327246E+02  0.51100000000E-03 0. -1.
        -11    1    4    4    0    0  0.79242882807E+01  0.16037686278E+01  0.18816047016E+02  0.20479503025E+02  0.51100000000E-03 0.  1.
        -12    1    4    4    0    0  0.65373329795E+00 -0.15731371291E+02  0.60051240068E+01  0.16851258833E+02  0.00000000000E+00 0.  1.
</event>
<event>
 8    1  0.2501893E-006  0.9118800E+02  0.7816164E-02  0.1184000E+00
        -11   -1    0    0    0    0  0.00000000000E+00  0.00000000000E+00  0.45593999997E+02  0.45594000000E+02  0.51100000000E-03 0. -1.
         11   -1    0    0    0    0 -0.00000000000E+00 -0.00000000000E+00 -0.45593999997E+02  0.45594000000E+02  0.51100000000E-03 0.  1.
         23    2    1    2    0    0  0.71054273576E-14 -0.24424906542E-14  0.00000000000E+00  0.91188000000E+02  0.91188000000E+02 0.  0.
    9900012    2    3    3    0    0  0.32791950549E+02  0.86268550449E+00 -0.16724931939E+02  0.54367087525E+02  0.40000007631E+02 0.  0.
         12    1    3    3    0    0 -0.32791950549E+02 -0.86268550449E+00  0.16724931939E+02  0.36820912475E+02  0.00000000000E+00 0. -1.
         11    1    4    4    0    0  0.10157479477E+02  0.22162136511E+01  0.25504907374E+01  0.10704718377E+02  0.51100000000E-03 0. -1.
        -11    1    4    4    0    0  0.14484692336E+02  0.14336161130E+02 -0.15447645709E+02  0.25572672645E+02  0.51100000000E-03 0.  1.
        -12    1    4    4    0    0  0.81497787366E+01 -0.15689689277E+02 -0.38277769678E+01  0.18089696503E+02  0.00000000000E+00 0.  1.
</event>
<event>
 8    1  0.2501893E-006  0.9118800E+02  0.7816164E-02  0.1184000E+00
        -11   -1    0    0    0    0  0.00000000000E+00  0.00000000000E+00  0.45593999997E+02  0.45594000000E+02  0.51100000000E-03 0.  1.
         11   -1    0    0    0    0 -0.00000000000E+00 -0.00000000000E+00 -0.45593999997E+02  0.45594000000E+02  0.51100000000E-03 0. -1.
         23    2    1    2    0    0  0.00000000000E+00  0.00000000000E+00  0.00000000000E+00  0.91188000000E+02  0.91188000000E+02 0.  0.
    9900012    2    3    3    0    0  0.61763556572E+01 -0.34385516598E+02  0.11630233795E+02  0.54367170853E+02  0.40000197594E+02 0.  0.
         12    1    3    3    0    0 -0.61763556572E+01  0.34385516598E+02 -0.11630233795E+02  0.36820829147E+02  0.00000000000E+00 0. -1.
         11    1    4    4    0    0  0.69256372671E+01 -0.35656989380E+02  0.48944325357E+01  0.36651614062E+02  0.51100000000E-03 0.  1.
        -11    1    4    4    0    0 -0.10099579043E+01  0.50762245689E+01 -0.38585292559E+01  0.64557198763E+01  0.51100000000E-03 0. -1.
         12    1    4    4    0    0  0.26067629441E+00 -0.38047517862E+01  0.10594330516E+02  0.11259836915E+02  0.00000000000E+00 0. -1.
</event>
<event>
 8    1  0.2501893E-006  0.9118800E+02  0.7816164E-02  0.1184000E+00
        -11   -1    0    0    0    0  0.00000000000E+00  0.00000000000E+00  0.45593999997E+02  0.45594000000E+02  0.51100000000E-03 0.  1.
         11   -1    0    0    0    0 -0.00000000000E+00 -0.00000000000E+00 -0.45593999997E+02  0.45594000000E+02  0.51100000000E-03 0. -1.
         23    2    1    2    0    0  0.00000000000E+00  0.00000000000E+00  0.00000000000E+00  0.91188000000E+02  0.91188000000E+02 0.  0.
    9900012    2    3    3    0    0 -0.14227754302E+02  0.17871183154E+02  0.28878631425E+02  0.54367034060E+02  0.39999885746E+02 0.  0.
         12    1    3    3    0    0  0.14227754302E+02 -0.17871183154E+02 -0.28878631425E+02  0.36820965940E+02  0.00000000000E+00 0. -1.
         11    1    4    4    0    0  0.66065783194E+01 -0.17355919134E+01  0.91488673998E+01  0.11417571166E+02  0.51100000000E-03 0. -1.
        -11    1    4    4    0    0  0.57760382918E+01  0.43241438986E+01  0.57607696629E+01  0.92329467763E+01  0.51100000000E-03 0.  1.
         12    1    4    4    0    0 -0.26610370913E+02  0.15282631169E+02  0.13968994362E+02  0.33716516117E+02  0.00000000000E+00 0. -1.
</event>
<event>
 8    1  0.2501893E-006  0.9118800E+02  0.7816164E-02  0.1184000E+00
        -11   -1    0    0    0    0  0.00000000000E+00  0.00000000000E+00  0.45593999997E+02  0.45594000000E+02  0.51100000000E-03 0. -1.
         11   -1    0    0    0    0 -0.00000000000E+00 -0.00000000000E+00 -0.45593999997E+02  0.45594000000E+02  0.51100000000E-03 0.  1.
         23    2    1    2    0    0  0.88817841970E-15  0.00000000000E+00  0.71054273576E-14  0.91188000000E+02  0.91188000000E+02 0.  0.
    9900012    2    3    3    0    0  0.64748272683E+01  0.53009935724E+01 -0.35857423392E+02  0.54367099233E+02  0.40000034321E+02 0.  0.
         12    1    3    3    0    0 -0.64748272683E+01 -0.53009935724E+01  0.35857423392E+02  0.36820900767E+02  0.00000000000E+00 0. -1.
         11    1    4    4    0    0  0.20630120600E+01 -0.70220934255E+01 -0.14268358734E+01  0.74566531170E+01  0.51100000000E-03 0. -1.
        -11    1    4    4    0    0  0.63817343113E+01 -0.28846290144E+01  0.20836985245E+01  0.73068062225E+01  0.51100000000E-03 0.  1.
        -12    1    4    4    0    0 -0.19699191029E+01  0.15207716012E+02 -0.36514286043E+02  0.39603639893E+02  0.00000000000E+00 0.  1.
</event>
<event>
 8    1  0.2501893E-006  0.9118800E+02  0.7816164E-02  0.1184000E+00
        -11   -1    0    0    0    0  0.00000000000E+00  0.00000000000E+00  0.45593999997E+02  0.45594000000E+02  0.51100000000E-03 0. -1.
         11   -1    0    0    0    0 -0.00000000000E+00 -0.00000000000E+00 -0.45593999997E+02  0.45594000000E+02  0.51100000000E-03 0.  1.
         23    2    1    2    0    0 -0.22204460493E-15  0.00000000000E+00  0.88817841970E-15  0.91188000000E+02  0.91188000000E+02 0.  0.
    9900012    2    3    3    0    0 -0.11302798577E+01  0.36712498837E+02 -0.25875405882E+01  0.54367075653E+02  0.39999980567E+02 0.  0.
         12    1    3    3    0    0  0.11302798577E+01 -0.36712498837E+02  0.25875405882E+01  0.36820924347E+02  0.00000000000E+00 0. -1.
         11    1    4    4    0    0  0.46847589261E+01 -0.13419116722E+01 -0.14886753863E+01  0.50954732654E+01  0.51100000000E-03 0. -1.
        -11    1    4    4    0    0  0.76426520581E+01  0.38829919309E+01  0.76815814731E+01  0.11510623398E+02  0.51100000000E-03 0.  1.
         12    1    4    4    0    0 -0.13457690842E+02  0.34171418579E+02 -0.87804466750E+01  0.37760978990E+02  0.00000000000E+00 0. -1.
</event>
<event>
 8    1  0.2501893E-006  0.9118800E+02  0.7816164E-02  0.1184000E+00
        -11   -1    0    0    0    0  0.00000000000E+00  0.00000000000E+00  0.45593999997E+02  0.45594000000E+02  0.51100000000E-03 0.  1.
         11   -1    0    0    0    0 -0.00000000000E+00 -0.00000000000E+00 -0.45593999997E+02  0.45594000000E+02  0.51100000000E-03 0. -1.
         23    2    1    2    0    0 -0.35527136788E-14 -0.17763568394E-14 -0.35527136788E-14  0.91188000000E+02  0.91188000000E+02 0.  0.
    9900012    2    3    3    0    0  0.19886126022E+02 -0.11656551057E+02 -0.28713058338E+02  0.54367178311E+02  0.40000214595E+02 0.  0.
        -12    1    3    3    0    0 -0.19886126022E+02  0.11656551057E+02  0.28713058338E+02  0.36820821689E+02  0.00000000000E+00 0.  1.
         11    1    4    4    0    0  0.31383325199E+01 -0.17982703105E+02 -0.12467272423E+02  0.22105646878E+02  0.51100000000E-03 0. -1.
        -11    1    4    4    0    0  0.29267033371E+01  0.33574086836E+01  0.50293778466E+01  0.67180672278E+01  0.51100000000E-03 0.  1.
        -12    1    4    4    0    0  0.13821090165E+02  0.29687433645E+01 -0.21275163762E+02  0.25543464205E+02  0.00000000000E+00 0.  1.
</event>
<event>
 8    1  0.2501893E-006  0.9118800E+02  0.7816164E-02  0.1184000E+00
        -11   -1    0    0    0    0  0.00000000000E+00  0.00000000000E+00  0.45593999997E+02  0.45594000000E+02  0.51100000000E-03 0. -1.
         11   -1    0    0    0    0 -0.00000000000E+00 -0.00000000000E+00 -0.45593999997E+02  0.45594000000E+02  0.51100000000E-03 0.  1.
         23    2    1    2    0    0  0.35527136788E-14  0.35527136788E-14  0.17763568394E-14  0.91188000000E+02  0.91188000000E+02 0.  0.
    9900012    2    3    3    0    0 -0.26956134141E+02  0.20001921296E+02 -0.15134999495E+02  0.54367106026E+02  0.40000049808E+02 0.  0.
         12    1    3    3    0    0  0.26956134141E+02 -0.20001921296E+02  0.15134999495E+02  0.36820893974E+02  0.00000000000E+00 0. -1.
         11    1    4    4    0    0  0.27513582790E+01  0.20675464546E+01  0.80026721622E+01  0.87113421882E+01  0.51100000000E-03 0. -1.
        -11    1    4    4    0    0 -0.85079765048E+01  0.14550565120E+02 -0.15414258025E+02  0.22840839745E+02  0.51100000000E-03 0.  1.
         12    1    4    4    0    0 -0.21199515915E+02  0.33838097210E+01 -0.77234136321E+01  0.22814924093E+02  0.00000000000E+00 0. -1.
</event>
<event>
 8    1  0.2501893E-006  0.9118800E+02  0.7816164E-02  0.1184000E+00
        -11   -1    0    0    0    0  0.00000000000E+00  0.00000000000E+00  0.45593999997E+02  0.45594000000E+02  0.51100000000E-03 0.  1.
         11   -1    0    0    0    0 -0.00000000000E+00 -0.00000000000E+00 -0.45593999997E+02  0.45594000000E+02  0.51100000000E-03 0. -1.
         23    2    1    2    0    0  0.17763568394E-14  0.00000000000E+00 -0.71054273576E-14  0.91188000000E+02  0.91188000000E+02 0.  0.
    9900012    2    3    3    0    0  0.15708750188E+02 -0.66032755008E+01  0.32640648997E+02  0.54367081398E+02  0.39999993662E+02 0.  0.
         12    1    3    3    0    0 -0.15708750188E+02  0.66032755008E+01 -0.32640648997E+02  0.36820918602E+02  0.00000000000E+00 0. -1.
         11    1    4    4    0    0 -0.33329128260E+01 -0.69094520366E+01  0.21894301526E+01  0.79776211997E+01  0.51100000000E-03 0. -1.
        -11    1    4    4    0    0  0.14563752027E+02 -0.12886193107E+02  0.24397831865E+02  0.31199535988E+02  0.51100000000E-03 0.  1.
         12    1    4    4    0    0  0.44779109869E+01  0.13192369642E+02  0.60533869787E+01  0.15189924210E+02  0.00000000000E+00 0. -1.
</event>
<event>
 8    1  0.2501893E-006  0.9118800E+02  0.7816164E-02  0.1184000E+00
        -11   -1    0    0    0    0  0.00000000000E+00  0.00000000000E+00  0.45593999997E+02  0.45594000000E+02  0.51100000000E-03 0.  1.
         11   -1    0    0    0    0 -0.00000000000E+00 -0.00000000000E+00 -0.45593999997E+02  0.45594000000E+02  0.51100000000E-03 0. -1.
         23    2    1    2    0    0  0.00000000000E+00  0.00000000000E+00  0.35527136788E-14  0.91188000000E+02  0.91188000000E+02 0.  0.
    9900012    2    3    3    0    0 -0.20199355806E+02 -0.48767681218E+01 -0.30397103224E+02  0.54367072164E+02  0.39999972613E+02 0.  0.
        -12    1    3    3    0    0  0.20199355806E+02  0.48767681218E+01  0.30397103224E+02  0.36820927836E+02  0.00000000000E+00 0.  1.
         11    1    4    4    0    0 -0.43147391092E+00 -0.15686939639E+01 -0.16838817052E+02  0.16917231761E+02  0.51100000000E-03 0. -1.
        -11    1    4    4    0    0 -0.26274951626E+02 -0.33153559463E+01 -0.54238824732E+01  0.27033001486E+02  0.51100000000E-03 0.  1.
        -12    1    4    4    0    0  0.65070697302E+01  0.72817883758E-02 -0.81344036984E+01  0.10416838917E+02  0.00000000000E+00 0.  1.
</event>
<event>
 8    1  0.2501893E-006  0.9118800E+02  0.7816164E-02  0.1184000E+00
        -11   -1    0    0    0    0  0.00000000000E+00  0.00000000000E+00  0.45593999997E+02  0.45594000000E+02  0.51100000000E-03 0. -1.
         11   -1    0    0    0    0 -0.00000000000E+00 -0.00000000000E+00 -0.45593999997E+02  0.45594000000E+02  0.51100000000E-03 0.  1.
         23    2    1    2    0    0 -0.35527136788E-14 -0.35527136788E-14  0.00000000000E+00  0.91188000000E+02  0.91188000000E+02 0.  0.
    9900012    2    3    3    0    0  0.17927014965E+02  0.18298292187E+02  0.26449480976E+02  0.54367076513E+02  0.39999982527E+02 0.  0.
        -12    1    3    3    0    0 -0.17927014965E+02 -0.18298292187E+02 -0.26449480976E+02  0.36820923487E+02  0.00000000000E+00 0.  1.
         11    1    4    4    0    0  0.11790653728E+02  0.21331060162E+02  0.19168627623E+02  0.31007578560E+02  0.51100000000E-03 0. -1.
        -11    1    4    4    0    0  0.81462595415E+01 -0.88962726169E+01  0.10835119889E+02  0.16214346557E+02  0.51100000000E-03 0.  1.
        -12    1    4    4    0    0 -0.20098983045E+01  0.58635046414E+01 -0.35542665352E+01  0.71451513964E+01  0.00000000000E+00 0.  1.
</event>
<event>
 8    1  0.2501893E-006  0.9118800E+02  0.7816164E-02  0.1184000E+00
        -11   -1    0    0    0    0  0.00000000000E+00  0.00000000000E+00  0.45593999997E+02  0.45594000000E+02  0.51100000000E-03 0.  1.
         11   -1    0    0    0    0 -0.00000000000E+00 -0.00000000000E+00 -0.45593999997E+02  0.45594000000E+02  0.51100000000E-03 0. -1.
         23    2    1    2    0    0  0.88817841970E-15  0.00000000000E+00 -0.71054273576E-14  0.91188000000E+02  0.91188000000E+02 0.  0.
    9900012    2    3    3    0    0  0.63355559216E+01 -0.33877690333E+01 -0.36113195325E+02  0.54367093921E+02  0.40000022212E+02 0.  0.
        -12    1    3    3    0    0 -0.63355559216E+01  0.33877690333E+01  0.36113195325E+02  0.36820906079E+02  0.00000000000E+00 0.  1.
         11    1    4    4    0    0  0.45193600893E+01 -0.10927890232E+01 -0.34332004404E+02  0.34645422932E+02  0.51100000000E-03 0. -1.
        -11    1    4    4    0    0 -0.36928400328E+01  0.15699947732E+01 -0.89991246357E+01  0.98532327469E+01  0.51100000000E-03 0.  1.
        -12    1    4    4    0    0  0.55090358651E+01 -0.38649747833E+01  0.72179337146E+01  0.98684382425E+01  0.00000000000E+00 0.  1.
</event>
<event>
 8    1  0.2501893E-006  0.9118800E+02  0.7816164E-02  0.1184000E+00
        -11   -1    0    0    0    0  0.00000000000E+00  0.00000000000E+00  0.45593999997E+02  0.45594000000E+02  0.51100000000E-03 0. -1.
         11   -1    0    0    0    0 -0.00000000000E+00 -0.00000000000E+00 -0.45593999997E+02  0.45594000000E+02  0.51100000000E-03 0.  1.
         23    2    1    2    0    0 -0.17763568394E-14 -0.71054273576E-14  0.00000000000E+00  0.91188000000E+02  0.91188000000E+02 0.  0.
    9900012    2    3    3    0    0 -0.59910858225E+01 -0.31712962490E+02  0.17724944372E+02  0.54367098976E+02  0.40000033735E+02 0.  0.
        -12    1    3    3    0    0  0.59910858225E+01  0.31712962490E+02 -0.17724944372E+02  0.36820901024E+02  0.00000000000E+00 0.  1.
         11    1    4    4    0    0 -0.15062150813E+02  0.41796130963E+00  0.12682219834E+02  0.19694714493E+02  0.51100000000E-03 0. -1.
        -11    1    4    4    0    0  0.18571101869E+01 -0.15627390551E+02  0.54560764818E+01  0.16656319057E+02  0.51100000000E-03 0.  1.
         12    1    4    4    0    0  0.72139548040E+01 -0.16503533249E+02 -0.41335194350E+00  0.18016065426E+02  0.00000000000E+00 0. -1.
</event>
<event>
 8    1  0.2501893E-006  0.9118800E+02  0.7816164E-02  0.1184000E+00
        -11   -1    0    0    0    0  0.00000000000E+00  0.00000000000E+00  0.45593999997E+02  0.45594000000E+02  0.51100000000E-03 0.  1.
         11   -1    0    0    0    0 -0.00000000000E+00 -0.00000000000E+00 -0.45593999997E+02  0.45594000000E+02  0.51100000000E-03 0. -1.
         23    2    1    2    0    0  0.00000000000E+00  0.00000000000E+00  0.44408920985E-15  0.91188000000E+02  0.91188000000E+02 0.  0.
    9900012    2    3    3    0    0 -0.32575246886E+02  0.16899157621E+02 -0.30089010906E+01  0.54367058625E+02  0.39999941746E+02 0.  0.
        -12    1    3    3    0    0  0.32575246886E+02 -0.16899157621E+02  0.30089010906E+01  0.36820941375E+02  0.00000000000E+00 0.  1.
         11    1    4    4    0    0 -0.17899824183E+02  0.56383835623E+01 -0.20117607420E+01  0.18874380957E+02  0.51100000000E-03 0. -1.
        -11    1    4    4    0    0 -0.16581263695E+02  0.13200390662E+01 -0.12024065684E+02  0.20524594142E+02  0.51100000000E-03 0.  1.
        -12    1    4    4    0    0  0.19058409912E+01  0.99407349927E+01  0.11026925335E+02  0.14968083526E+02  0.00000000000E+00 0.  1.
</event>
<event>
 8    1  0.2501893E-006  0.9118800E+02  0.7816164E-02  0.1184000E+00
        -11   -1    0    0    0    0  0.00000000000E+00  0.00000000000E+00  0.45593999997E+02  0.45594000000E+02  0.51100000000E-03 0.  1.
         11   -1    0    0    0    0 -0.00000000000E+00 -0.00000000000E+00 -0.45593999997E+02  0.45594000000E+02  0.51100000000E-03 0. -1.
         23    2    1    2    0    0  0.00000000000E+00  0.88817841970E-15  0.00000000000E+00  0.91188000000E+02  0.91188000000E+02 0.  0.
    9900012    2    3    3    0    0 -0.32860005079E+02  0.63448206499E+01  0.15353941451E+02  0.54367079303E+02  0.39999988888E+02 0.  0.
         12    1    3    3    0    0  0.32860005079E+02 -0.63448206499E+01 -0.15353941451E+02  0.36820920697E+02  0.00000000000E+00 0. -1.
         11    1    4    4    0    0 -0.41499313945E+01  0.52329093411E+01  0.11851272720E+02  0.13603600115E+02  0.51100000000E-03 0.  1.
        -11    1    4    4    0    0 -0.10016998684E+01 -0.94895705161E+01  0.55267743430E+01  0.11027265577E+02  0.51100000000E-03 0. -1.
         12    1    4    4    0    0 -0.27708373816E+02  0.10601481825E+02 -0.20241056115E+01  0.29736213611E+02  0.00000000000E+00 0. -1.
</event>
<event>
 8    1  0.2501893E-006  0.9118800E+02  0.7816164E-02  0.1184000E+00
        -11   -1    0    0    0    0  0.00000000000E+00  0.00000000000E+00  0.45593999997E+02  0.45594000000E+02  0.51100000000E-03 0.  1.
         11   -1    0    0    0    0 -0.00000000000E+00 -0.00000000000E+00 -0.45593999997E+02  0.45594000000E+02  0.51100000000E-03 0. -1.
         23    2    1    2    0    0  0.00000000000E+00  0.00000000000E+00  0.00000000000E+00  0.91188000000E+02  0.91188000000E+02 0.  0.
    9900012    2    3    3    0    0 -0.31269224184E+02  0.18566196468E+02 -0.57715633543E+01  0.54367095939E+02  0.40000026811E+02 0.  0.
        -12    1    3    3    0    0  0.31269224184E+02 -0.18566196468E+02  0.57715633543E+01  0.36820904061E+02  0.00000000000E+00 0.  1.
         11    1    4    4    0    0 -0.93372625675E+01 -0.72304017659E+01 -0.63630465902E+01  0.13414601899E+02  0.51100000000E-03 0. -1.
        -11    1    4    4    0    0  0.48071045644E+01  0.23260381592E+01  0.59900021812E+00  0.53737797995E+01  0.51100000000E-03 0.  1.
         12    1    4    4    0    0 -0.26739066181E+02  0.23470560075E+02 -0.75169822560E-02  0.35578714240E+02  0.00000000000E+00 0. -1.
</event>
<event>
 8    1  0.2501893E-006  0.9118800E+02  0.7816164E-02  0.1184000E+00
        -11   -1    0    0    0    0  0.00000000000E+00  0.00000000000E+00  0.45593999997E+02  0.45594000000E+02  0.51100000000E-03 0.  1.
         11   -1    0    0    0    0 -0.00000000000E+00 -0.00000000000E+00 -0.45593999997E+02  0.45594000000E+02  0.51100000000E-03 0. -1.
         23    2    1    2    0    0  0.22204460493E-15  0.17763568394E-14  0.00000000000E+00  0.91188000000E+02  0.91188000000E+02 0.  0.
    9900012    2    3    3    0    0  0.12718546125E+01 -0.93298951568E+01  0.35596571191E+02  0.54367076080E+02  0.39999981539E+02 0.  0.
         12    1    3    3    0    0 -0.12718546125E+01  0.93298951568E+01 -0.35596571191E+02  0.36820923920E+02  0.00000000000E+00 0. -1.
         11    1    4    4    0    0  0.11077697504E+01  0.80598519193E+01  0.19720658969E+01  0.83712251758E+01  0.51100000000E-03 0. -1.
        -11    1    4    4    0    0 -0.66477474155E+01 -0.21034314630E+02  0.30547633262E+02  0.37680138479E+02  0.51100000000E-03 0.  1.
        -12    1    4    4    0    0  0.68118322775E+01  0.36445675535E+01  0.30768720319E+01  0.83157124247E+01  0.00000000000E+00 0.  1.
</event>
<event>
 8    1  0.2501893E-006  0.9118800E+02  0.7816164E-02  0.1184000E+00
        -11   -1    0    0    0    0  0.00000000000E+00  0.00000000000E+00  0.45593999997E+02  0.45594000000E+02  0.51100000000E-03 0. -1.
         11   -1    0    0    0    0 -0.00000000000E+00 -0.00000000000E+00 -0.45593999997E+02  0.45594000000E+02  0.51100000000E-03 0.  1.
         23    2    1    2    0    0  0.00000000000E+00  0.00000000000E+00  0.71054273576E-14  0.91188000000E+02  0.91188000000E+02 0.  0.
    9900012    2    3    3    0    0  0.10425885482E+01 -0.11415727723E+02  0.34991059686E+02  0.54367080834E+02  0.39999992376E+02 0.  0.
        -12    1    3    3    0    0 -0.10425885482E+01  0.11415727723E+02 -0.34991059686E+02  0.36820919166E+02  0.00000000000E+00 0.  1.
         11    1    4    4    0    0 -0.69149115020E+01 -0.63117973674E+01  0.25097865017E+02  0.26787265925E+02  0.51100000000E-03 0. -1.
        -11    1    4    4    0    0  0.59107069777E+01 -0.10782986243E+02 -0.35874010972E+01  0.12809320676E+02  0.51100000000E-03 0.  1.
        -12    1    4    4    0    0  0.20467930725E+01  0.56790558875E+01  0.13480595766E+02  0.14770494232E+02  0.00000000000E+00 0.  1.
</event>
<event>
 8    1  0.2501893E-006  0.9118800E+02  0.7816164E-02  0.1184000E+00
        -11   -1    0    0    0    0  0.00000000000E+00  0.00000000000E+00  0.45593999997E+02  0.45594000000E+02  0.51100000000E-03 0. -1.
         11   -1    0    0    0    0 -0.00000000000E+00 -0.00000000000E+00 -0.45593999997E+02  0.45594000000E+02  0.51100000000E-03 0.  1.
         23    2    1    2    0    0  0.71054273576E-14 -0.17763568394E-14  0.10658141036E-13  0.91188000000E+02  0.91188000000E+02 0.  0.
    9900012    2    3    3    0    0 -0.17743833984E+02  0.48374855824E+01 -0.31898821729E+02  0.54367085577E+02  0.40000003190E+02 0.  0.
         12    1    3    3    0    0  0.17743833984E+02 -0.48374855824E+01  0.31898821729E+02  0.36820914423E+02  0.00000000000E+00 0. -1.
         11    1    4    4    0    0  0.30470796203E+01 -0.54425531246E+01  0.16668603260E+01  0.64563536407E+01  0.51100000000E-03 0. -1.
        -11    1    4    4    0    0 -0.42087238728E+01  0.12537081058E+02 -0.26750917573E+02  0.29841302742E+02  0.51100000000E-03 0.  1.
         12    1    4    4    0    0 -0.16582189731E+02 -0.22570423512E+01 -0.68147644824E+01  0.18069429194E+02  0.00000000000E+00 0. -1.
</event>
<event>
 8    1  0.2501893E-006  0.9118800E+02  0.7816164E-02  0.1184000E+00
        -11   -1    0    0    0    0  0.00000000000E+00  0.00000000000E+00  0.45593999997E+02  0.45594000000E+02  0.51100000000E-03 0. -1.
         11   -1    0    0    0    0 -0.00000000000E+00 -0.00000000000E+00 -0.45593999997E+02  0.45594000000E+02  0.51100000000E-03 0.  1.
         23    2    1    2    0    0 -0.71054273576E-14  0.00000000000E+00 -0.88817841970E-15  0.91188000000E+02  0.91188000000E+02 0.  0.
    9900012    2    3    3    0    0 -0.36158518961E+02  0.37607589497E+01  0.58479041813E+01  0.54367084957E+02  0.40000001776E+02 0.  0.
         12    1    3    3    0    0  0.36158518961E+02 -0.37607589497E+01 -0.58479041813E+01  0.36820915043E+02  0.00000000000E+00 0. -1.
         11    1    4    4    0    0 -0.29265258837E+01  0.30395831557E+01  0.14590187679E+02  0.15188060978E+02  0.51100000000E-03 0. -1.
        -11    1    4    4    0    0 -0.85417966725E+01  0.84153870399E+01 -0.37109869170E+00  0.11996613853E+02  0.51100000000E-03 0.  1.
         12    1    4    4    0    0 -0.24690196405E+02 -0.76942112459E+01 -0.83711848060E+01  0.27182410126E+02  0.00000000000E+00 0. -1.
</event>
<event>
 8    1  0.2501893E-006  0.9118800E+02  0.7816164E-02  0.1184000E+00
        -11   -1    0    0    0    0  0.00000000000E+00  0.00000000000E+00  0.45593999997E+02  0.45594000000E+02  0.51100000000E-03 0. -1.
         11   -1    0    0    0    0 -0.00000000000E+00 -0.00000000000E+00 -0.45593999997E+02  0.45594000000E+02  0.51100000000E-03 0.  1.
         23    2    1    2    0    0  0.35527136788E-14 -0.33306690739E-15  0.71054273576E-14  0.91188000000E+02  0.91188000000E+02 0.  0.
    9900012    2    3    3    0    0  0.23752204599E+02 -0.51903632974E+00  0.28130822609E+02  0.54367084711E+02  0.40000001217E+02 0.  0.
        -12    1    3    3    0    0 -0.23752204599E+02  0.51903632974E+00 -0.28130822609E+02  0.36820915289E+02  0.00000000000E+00 0.  1.
         11    1    4    4    0    0  0.23484828367E+02 -0.55015272998E+01  0.34114977013E+02  0.41780804479E+02  0.51100000000E-03 0. -1.
        -11    1    4    4    0    0  0.16008367815E+01  0.13245974192E+01  0.25004259581E+01  0.32510562833E+01  0.51100000000E-03 0.  1.
        -12    1    4    4    0    0 -0.13334605497E+01  0.36578935509E+01 -0.84845803618E+01  0.93352239492E+01  0.00000000000E+00 0.  1.
</event>
<event>
 8    1  0.2501893E-006  0.9118800E+02  0.7816164E-02  0.1184000E+00
        -11   -1    0    0    0    0  0.00000000000E+00  0.00000000000E+00  0.45593999997E+02  0.45594000000E+02  0.51100000000E-03 0. -1.
         11   -1    0    0    0    0 -0.00000000000E+00 -0.00000000000E+00 -0.45593999997E+02  0.45594000000E+02  0.51100000000E-03 0.  1.
         23    2    1    2    0    0  0.00000000000E+00  0.00000000000E+00  0.00000000000E+00  0.91188000000E+02  0.91188000000E+02 0.  0.
    9900012    2    3    3    0    0 -0.12309599207E+02  0.30464306237E+02 -0.16618662915E+02  0.54367080073E+02  0.39999990643E+02 0.  0.
         12    1    3    3    0    0  0.12309599207E+02 -0.30464306237E+02  0.16618662915E+02  0.36820919927E+02  0.00000000000E+00 0. -1.
         11    1    4    4    0    0 -0.65043180305E+01  0.33682690385E+01  0.90852493835E+01  0.11670181917E+02  0.51100000000E-03 0. -1.
        -11    1    4    4    0    0 -0.20288698652E+01  0.27442993573E+02 -0.14999075234E+02  0.31340173377E+02  0.51100000000E-03 0.  1.
        -12    1    4    4    0    0 -0.37764113112E+01 -0.34695637460E+00 -0.10704837065E+02  0.11356724779E+02  0.00000000000E+00 0.  1.
</event>
<event>
 8    1  0.2501893E-006  0.9118800E+02  0.7816164E-02  0.1184000E+00
        -11   -1    0    0    0    0  0.00000000000E+00  0.00000000000E+00  0.45593999997E+02  0.45594000000E+02  0.51100000000E-03 0.  1.
         11   -1    0    0    0    0 -0.00000000000E+00 -0.00000000000E+00 -0.45593999997E+02  0.45594000000E+02  0.51100000000E-03 0. -1.
         23    2    1    2    0    0  0.00000000000E+00  0.00000000000E+00 -0.35527136788E-14  0.91188000000E+02  0.91188000000E+02 0.  0.
    9900012    2    3    3    0    0  0.62071995087E+01 -0.23905334887E+02  0.27309098075E+02  0.54367065744E+02  0.39999957978E+02 0.  0.
         12    1    3    3    0    0 -0.62071995087E+01  0.23905334887E+02 -0.27309098075E+02  0.36820934256E+02  0.00000000000E+00 0. -1.
         11    1    4    4    0    0  0.20548713719E+01  0.38594058381E+01  0.10726491837E+02  0.11583399206E+02  0.51100000000E-03 0. -1.
        -11    1    4    4    0    0  0.11217931261E+02 -0.12117593582E+02 -0.29542133532E+01  0.16775143302E+02  0.51100000000E-03 0.  1.
        -12    1    4    4    0    0 -0.70656031242E+01 -0.15647147143E+02  0.19536819591E+02  0.26008523237E+02  0.00000000000E+00 0.  1.
</event>
<event>
 8    1  0.2501893E-006  0.9118800E+02  0.7816164E-02  0.1184000E+00
        -11   -1    0    0    0    0  0.00000000000E+00  0.00000000000E+00  0.45593999997E+02  0.45594000000E+02  0.51100000000E-03 0. -1.
         11   -1    0    0    0    0 -0.00000000000E+00 -0.00000000000E+00 -0.45593999997E+02  0.45594000000E+02  0.51100000000E-03 0.  1.
         23    2    1    2    0    0  0.17763568394E-14 -0.35527136788E-14  0.35527136788E-14  0.91188000000E+02  0.91188000000E+02 0.  0.
    9900012    2    3    3    0    0  0.10954396352E+02  0.19950784258E+02 -0.28943895369E+02  0.54367059340E+02  0.39999943378E+02 0.  0.
         12    1    3    3    0    0 -0.10954396352E+02 -0.19950784258E+02  0.28943895369E+02  0.36820940660E+02  0.00000000000E+00 0. -1.
         11    1    4    4    0    0 -0.68608664130E+01  0.22092106324E+01 -0.14987427687E+01  0.73619514874E+01  0.51100000000E-03 0. -1.
        -11    1    4    4    0    0  0.18404719471E+02  0.18032459872E+02 -0.72056040476E+01  0.26754888110E+02  0.51100000000E-03 0.  1.
        -12    1    4    4    0    0 -0.58945670550E+00 -0.29088624623E+00 -0.20239548553E+02  0.20250219743E+02  0.00000000000E+00 0.  1.
</event>
<event>
 8    1  0.2501893E-006  0.9118800E+02  0.7816164E-02  0.1184000E+00
        -11   -1    0    0    0    0  0.00000000000E+00  0.00000000000E+00  0.45593999997E+02  0.45594000000E+02  0.51100000000E-03 0.  1.
         11   -1    0    0    0    0 -0.00000000000E+00 -0.00000000000E+00 -0.45593999997E+02  0.45594000000E+02  0.51100000000E-03 0. -1.
         23    2    1    2    0    0  0.22204460493E-15 -0.49960036108E-15  0.00000000000E+00  0.91188000000E+02  0.91188000000E+02 0.  0.
    9900012    2    3    3    0    0  0.13796193535E+01  0.14608449480E+00 -0.36794761370E+02  0.54367093513E+02  0.40000021281E+02 0.  0.
        -12    1    3    3    0    0 -0.13796193535E+01 -0.14608449480E+00  0.36794761370E+02  0.36820906487E+02  0.00000000000E+00 0.  1.
         11    1    4    4    0    0  0.36758605905E+00 -0.19092685784E+01 -0.43701299102E+02  0.43744530738E+02  0.51100000000E-03 0. -1.
        -11    1    4    4    0    0 -0.19945365669E+00  0.48915577719E+01  0.49951165754E+01  0.69941624988E+01  0.51100000000E-03 0.  1.
         12    1    4    4    0    0  0.12114869512E+01 -0.28362046987E+01  0.19114211565E+01  0.36284002761E+01  0.00000000000E+00 0. -1.
</event>
<event>
 8    1  0.2501893E-006  0.9118800E+02  0.7816164E-02  0.1184000E+00
        -11   -1    0    0    0    0  0.00000000000E+00  0.00000000000E+00  0.45593999997E+02  0.45594000000E+02  0.51100000000E-03 0.  1.
         11   -1    0    0    0    0 -0.00000000000E+00 -0.00000000000E+00 -0.45593999997E+02  0.45594000000E+02  0.51100000000E-03 0. -1.
         23    2    1    2    0    0  0.00000000000E+00 -0.88817841970E-15  0.71054273576E-14  0.91188000000E+02  0.91188000000E+02 0.  0.
    9900012    2    3    3    0    0  0.75611915112E+01 -0.75454117048E+01  0.35237493809E+02  0.54367002936E+02  0.39999814792E+02 0.  0.
         12    1    3    3    0    0 -0.75611915112E+01  0.75454117048E+01 -0.35237493809E+02  0.36820997064E+02  0.00000000000E+00 0. -1.
         11    1    4    4    0    0 -0.84616951708E+01  0.59152627690E+01  0.48726889329E+01  0.11416379307E+02  0.51100000000E-03 0. -1.
        -11    1    4    4    0    0  0.88438549374E+01  0.52849287029E+01  0.10431740897E+02  0.14661700445E+02  0.51100000000E-03 0.  1.
         12    1    4    4    0    0  0.71790317446E+01 -0.18745603177E+02  0.19933063979E+02  0.28288923183E+02  0.00000000000E+00 0. -1.
</event>
<event>
 8    1  0.2501893E-006  0.9118800E+02  0.7816164E-02  0.1184000E+00
        -11   -1    0    0    0    0  0.00000000000E+00  0.00000000000E+00  0.45593999997E+02  0.45594000000E+02  0.51100000000E-03 0. -1.
         11   -1    0    0    0    0 -0.00000000000E+00 -0.00000000000E+00 -0.45593999997E+02  0.45594000000E+02  0.51100000000E-03 0.  1.
         23    2    1    2    0    0  0.00000000000E+00  0.00000000000E+00 -0.35527136788E-14  0.91188000000E+02  0.91188000000E+02 0.  0.
    9900012    2    3    3    0    0  0.52461070484E+01 -0.28238685595E+02  0.23039840033E+02  0.54367092460E+02  0.40000018882E+02 0.  0.
        -12    1    3    3    0    0 -0.52461070484E+01  0.28238685595E+02 -0.23039840033E+02  0.36820907540E+02  0.00000000000E+00 0.  1.
         11    1    4    4    0    0  0.13927519525E+01 -0.13530011483E+01 -0.29851634008E+01  0.35611193323E+01  0.51100000000E-03 0. -1.
        -11    1    4    4    0    0 -0.37423132692E+00 -0.73533443387E+01 -0.82950104813E+01  0.11091389507E+02  0.51100000000E-03 0.  1.
         12    1    4    4    0    0  0.42275864229E+01 -0.19532340108E+02  0.34320013916E+02  0.39714583621E+02  0.00000000000E+00 0. -1.
</event>
<event>
 8    1  0.2501893E-006  0.9118800E+02  0.7816164E-02  0.1184000E+00
        -11   -1    0    0    0    0  0.00000000000E+00  0.00000000000E+00  0.45593999997E+02  0.45594000000E+02  0.51100000000E-03 0.  1.
         11   -1    0    0    0    0 -0.00000000000E+00 -0.00000000000E+00 -0.45593999997E+02  0.45594000000E+02  0.51100000000E-03 0. -1.
         23    2    1    2    0    0 -0.35527136788E-14 -0.35527136788E-14  0.33306690739E-15  0.91188000000E+02  0.91188000000E+02 0.  0.
    9900012    2    3    3    0    0 -0.22065260889E+02  0.29471815712E+02 -0.56101051786E+00  0.54367103864E+02  0.40000044878E+02 0.  0.
         12    1    3    3    0    0  0.22065260889E+02 -0.29471815712E+02  0.56101051786E+00  0.36820896136E+02  0.00000000000E+00 0. -1.
         11    1    4    4    0    0  0.47847094112E+01  0.15747013521E+02  0.15132891932E-01  0.16457888937E+02  0.51100000000E-03 0. -1.
        -11    1    4    4    0    0 -0.60772321898E+01  0.94914827820E+01  0.92146363220E+01  0.14557833606E+02  0.51100000000E-03 0.  1.
         12    1    4    4    0    0 -0.20772738111E+02  0.42333194089E+01 -0.97907797318E+01  0.23351381321E+02  0.00000000000E+00 0. -1.
</event>
<event>
 8    1  0.2501893E-006  0.9118800E+02  0.7816164E-02  0.1184000E+00
        -11   -1    0    0    0    0  0.00000000000E+00  0.00000000000E+00  0.45593999997E+02  0.45594000000E+02  0.51100000000E-03 0.  1.
         11   -1    0    0    0    0 -0.00000000000E+00 -0.00000000000E+00 -0.45593999997E+02  0.45594000000E+02  0.51100000000E-03 0. -1.
         23    2    1    2    0    0  0.35527136788E-14 -0.88817841970E-15 -0.35527136788E-14  0.91188000000E+02  0.91188000000E+02 0.  0.
    9900012    2    3    3    0    0 -0.29502399244E+02  0.72441679114E+01  0.20806475950E+02  0.54367096001E+02  0.40000026954E+02 0.  0.
         12    1    3    3    0    0  0.29502399244E+02 -0.72441679114E+01 -0.20806475950E+02  0.36820903999E+02  0.00000000000E+00 0. -1.
         11    1    4    4    0    0  0.31090378705E+01 -0.33195116214E+01  0.15536879915E+02  0.16188882347E+02  0.51100000000E-03 0.  1.
        -11    1    4    4    0    0 -0.85528129569E+01 -0.12899651114E+01 -0.43540808699E+01  0.96836274167E+01  0.51100000000E-03 0. -1.
        -12    1    4    4    0    0 -0.24058624157E+02  0.11853644644E+02  0.96236769048E+01  0.28494586238E+02  0.00000000000E+00 0.  1.
</event>
<event>
 8    1  0.2501893E-006  0.9118800E+02  0.7816164E-02  0.1184000E+00
        -11   -1    0    0    0    0  0.00000000000E+00  0.00000000000E+00  0.45593999997E+02  0.45594000000E+02  0.51100000000E-03 0. -1.
         11   -1    0    0    0    0 -0.00000000000E+00 -0.00000000000E+00 -0.45593999997E+02  0.45594000000E+02  0.51100000000E-03 0.  1.
         23    2    1    2    0    0 -0.11102230246E-15  0.71054273576E-14  0.35527136788E-14  0.91188000000E+02  0.91188000000E+02 0.  0.
    9900012    2    3    3    0    0 -0.42087417573E+00  0.28936036119E+02  0.22766382957E+02  0.54367088627E+02  0.40000010143E+02 0.  0.
         12    1    3    3    0    0  0.42087417573E+00 -0.28936036119E+02 -0.22766382957E+02  0.36820911373E+02  0.00000000000E+00 0. -1.
         11    1    4    4    0    0  0.23771897289E+01 -0.10424171154E+01  0.50757093650E+00  0.26448616158E+01  0.51100000000E-03 0. -1.
        -11    1    4    4    0    0  0.76642048482E+01  0.86799970770E+01 -0.73977020060E+01  0.13740756182E+02  0.51100000000E-03 0.  1.
         12    1    4    4    0    0 -0.10462268753E+02  0.21298456158E+02  0.29656514027E+02  0.37981470830E+02  0.00000000000E+00 0. -1.
</event>
<event>
 8    1  0.2501893E-006  0.9118800E+02  0.7816164E-02  0.1184000E+00
        -11   -1    0    0    0    0  0.00000000000E+00  0.00000000000E+00  0.45593999997E+02  0.45594000000E+02  0.51100000000E-03 0.  1.
         11   -1    0    0    0    0 -0.00000000000E+00 -0.00000000000E+00 -0.45593999997E+02  0.45594000000E+02  0.51100000000E-03 0. -1.
         23    2    1    2    0    0  0.00000000000E+00  0.00000000000E+00  0.00000000000E+00  0.91188000000E+02  0.91188000000E+02 0.  0.
    9900012    2    3    3    0    0  0.27298393203E+02  0.18195081853E+02 -0.16718760207E+02  0.54367079073E+02  0.39999988362E+02 0.  0.
        -12    1    3    3    0    0 -0.27298393203E+02 -0.18195081853E+02  0.16718760207E+02  0.36820920927E+02  0.00000000000E+00 0.  1.
         11    1    4    4    0    0  0.12669310909E+01  0.90885329771E+01  0.78554201308E+01  0.12079493854E+02  0.51100000000E-03 0. -1.
        -11    1    4    4    0    0  0.12911378638E+02  0.12333340259E+02 -0.50708710364E+01  0.18561484682E+02  0.51100000000E-03 0.  1.
         12    1    4    4    0    0  0.13120083474E+02 -0.32267913829E+01 -0.19503309301E+02  0.23726100537E+02  0.00000000000E+00 0. -1.
</event>
<event>
 8    1  0.2501893E-006  0.9118800E+02  0.7816164E-02  0.1184000E+00
        -11   -1    0    0    0    0  0.00000000000E+00  0.00000000000E+00  0.45593999997E+02  0.45594000000E+02  0.51100000000E-03 0. -1.
         11   -1    0    0    0    0 -0.00000000000E+00 -0.00000000000E+00 -0.45593999997E+02  0.45594000000E+02  0.51100000000E-03 0.  1.
         23    2    1    2    0    0  0.00000000000E+00  0.00000000000E+00  0.00000000000E+00  0.91188000000E+02  0.91188000000E+02 0.  0.
    9900012    2    3    3    0    0 -0.16440671606E+02 -0.20614789523E+02  0.25700458976E+02  0.54367098035E+02  0.40000031590E+02 0.  0.
        -12    1    3    3    0    0  0.16440671606E+02  0.20614789523E+02 -0.25700458976E+02  0.36820901965E+02  0.00000000000E+00 0.  1.
         11    1    4    4    0    0 -0.12840065649E+02 -0.94390678975E+01  0.19949746110E+02  0.25533422386E+02  0.51100000000E-03 0. -1.
        -11    1    4    4    0    0 -0.79121282440E+01  0.13140367018E+01 -0.68708401334E+01  0.10561103645E+02  0.51100000000E-03 0.  1.
        -12    1    4    4    0    0  0.43115222869E+01 -0.12489758327E+02  0.12621553000E+02  0.18272572004E+02  0.00000000000E+00 0.  1.
</event>
<event>
 8    1  0.2501893E-006  0.9118800E+02  0.7816164E-02  0.1184000E+00
        -11   -1    0    0    0    0  0.00000000000E+00  0.00000000000E+00  0.45593999997E+02  0.45594000000E+02  0.51100000000E-03 0.  1.
         11   -1    0    0    0    0 -0.00000000000E+00 -0.00000000000E+00 -0.45593999997E+02  0.45594000000E+02  0.51100000000E-03 0. -1.
         23    2    1    2    0    0 -0.35527136788E-14  0.00000000000E+00 -0.35527136788E-14  0.91188000000E+02  0.91188000000E+02 0.  0.
    9900012    2    3    3    0    0 -0.21427675565E+02  0.16441593212E+02 -0.25026177717E+02  0.54367070645E+02  0.39999969150E+02 0.  0.
        -12    1    3    3    0    0  0.21427675565E+02 -0.16441593212E+02  0.25026177717E+02  0.36820929355E+02  0.00000000000E+00 0.  1.
         11    1    4    4    0    0 -0.16436690641E+02  0.44511875051E+01 -0.18124812490E+02  0.24869392785E+02  0.51100000000E-03 0. -1.
        -11    1    4    4    0    0  0.53966996475E+01  0.15889622516E+02 -0.71978592168E+00  0.16796504482E+02  0.51100000000E-03 0.  1.
         12    1    4    4    0    0 -0.10387684571E+02 -0.38992168094E+01 -0.61815793056E+01  0.12701173378E+02  0.00000000000E+00 0. -1.
</event>
<event>
 8    1  0.2501893E-006  0.9118800E+02  0.7816164E-02  0.1184000E+00
        -11   -1    0    0    0    0  0.00000000000E+00  0.00000000000E+00  0.45593999997E+02  0.45594000000E+02  0.51100000000E-03 0.  1.
         11   -1    0    0    0    0 -0.00000000000E+00 -0.00000000000E+00 -0.45593999997E+02  0.45594000000E+02  0.51100000000E-03 0. -1.
         23    2    1    2    0    0  0.00000000000E+00 -0.13877787808E-14  0.35527136788E-14  0.91188000000E+02  0.91188000000E+02 0.  0.
    9900012    2    3    3    0    0  0.25737892330E+02  0.23329833649E+00 -0.26330303551E+02  0.54367103558E+02  0.40000044181E+02 0.  0.
        -12    1    3    3    0    0 -0.25737892330E+02 -0.23329833649E+00  0.26330303551E+02  0.36820896442E+02  0.00000000000E+00 0.  1.
         11    1    4    4    0    0  0.89518147077E+01 -0.82662575461E+01 -0.43616607278E+01  0.12941796048E+02  0.51100000000E-03 0. -1.
        -11    1    4    4    0    0 -0.32189748537E+01 -0.63066430765E+01  0.14767757992E+01  0.72330085736E+01  0.51100000000E-03 0.  1.
         12    1    4    4    0    0  0.20005052476E+02  0.14806198959E+02 -0.23445418622E+02  0.34192298937E+02  0.00000000000E+00 0. -1.
</event>
<event>
 8    1  0.2501893E-006  0.9118800E+02  0.7816164E-02  0.1184000E+00
        -11   -1    0    0    0    0  0.00000000000E+00  0.00000000000E+00  0.45593999997E+02  0.45594000000E+02  0.51100000000E-03 0.  1.
         11   -1    0    0    0    0 -0.00000000000E+00 -0.00000000000E+00 -0.45593999997E+02  0.45594000000E+02  0.51100000000E-03 0. -1.
         23    2    1    2    0    0  0.00000000000E+00  0.17763568394E-14  0.00000000000E+00  0.91188000000E+02  0.91188000000E+02 0.  0.
    9900012    2    3    3    0    0  0.18444915229E+02 -0.10879647748E+02 -0.29953258681E+02  0.54367091015E+02  0.40000015586E+02 0.  0.
        -12    1    3    3    0    0 -0.18444915229E+02  0.10879647748E+02  0.29953258681E+02  0.36820908985E+02  0.00000000000E+00 0.  1.
         11    1    4    4    0    0  0.18149457678E+02 -0.18957928952E+02 -0.25348359540E+02  0.36487603590E+02  0.51100000000E-03 0. -1.
        -11    1    4    4    0    0  0.69291687295E+01  0.23473106851E+01  0.11316088483E+01  0.74029578941E+01  0.51100000000E-03 0.  1.
         12    1    4    4    0    0 -0.66337111786E+01  0.57309705186E+01 -0.57365079890E+01  0.10476529530E+02  0.00000000000E+00 0. -1.
</event>
<event>
 8    1  0.2501893E-006  0.9118800E+02  0.7816164E-02  0.1184000E+00
        -11   -1    0    0    0    0  0.00000000000E+00  0.00000000000E+00  0.45593999997E+02  0.45594000000E+02  0.51100000000E-03 0.  1.
         11   -1    0    0    0    0 -0.00000000000E+00 -0.00000000000E+00 -0.45593999997E+02  0.45594000000E+02  0.51100000000E-03 0. -1.
         23    2    1    2    0    0  0.35527136788E-14 -0.71054273576E-14  0.35527136788E-14  0.91188000000E+02  0.91188000000E+02 0.  0.
    9900012    2    3    3    0    0  0.10087064310E+02 -0.25423872789E+02  0.24650816195E+02  0.54367015317E+02  0.39999843017E+02 0.  0.
         12    1    3    3    0    0 -0.10087064310E+02  0.25423872789E+02 -0.24650816195E+02  0.36820984683E+02  0.00000000000E+00 0. -1.
         11    1    4    4    0    0 -0.42351544343E+01 -0.55417476425E+01  0.64086857398E+01  0.94719983736E+01  0.51100000000E-03 0. -1.
        -11    1    4    4    0    0  0.14890293719E+02 -0.23100440028E+02  0.25149317048E+02  0.37253715583E+02  0.51100000000E-03 0.  1.
         12    1    4    4    0    0 -0.56807497419E+00  0.32183148815E+01 -0.69071865924E+01  0.76413013601E+01  0.00000000000E+00 0. -1.
</event>
<event>
 8    1  0.2501893E-006  0.9118800E+02  0.7816164E-02  0.1184000E+00
        -11   -1    0    0    0    0  0.00000000000E+00  0.00000000000E+00  0.45593999997E+02  0.45594000000E+02  0.51100000000E-03 0. -1.
         11   -1    0    0    0    0 -0.00000000000E+00 -0.00000000000E+00 -0.45593999997E+02  0.45594000000E+02  0.51100000000E-03 0.  1.
         23    2    1    2    0    0 -0.88817841970E-15  0.35527136788E-14  0.35527136788E-14  0.91188000000E+02  0.91188000000E+02 0.  0.
    9900012    2    3    3    0    0 -0.14257898739E+01 -0.28210394347E+02 -0.23620338887E+02  0.54367086987E+02  0.40000006405E+02 0.  0.
         12    1    3    3    0    0  0.14257898739E+01  0.28210394347E+02  0.23620338887E+02  0.36820913013E+02  0.00000000000E+00 0. -1.
         11    1    4    4    0    0  0.90811189568E+01 -0.17085565500E+02 -0.58512934181E+01  0.20214373720E+02  0.51100000000E-03 0. -1.
        -11    1    4    4    0    0  0.36843450938E+01  0.56202565056E+01 -0.16491585749E+01  0.69196391687E+01  0.51100000000E-03 0.  1.
        -12    1    4    4    0    0 -0.14191253924E+02 -0.16745085352E+02 -0.16119886894E+02  0.27233074099E+02  0.00000000000E+00 0.  1.
</event>
<event>
 8    1  0.2501893E-006  0.9118800E+02  0.7816164E-02  0.1184000E+00
        -11   -1    0    0    0    0  0.00000000000E+00  0.00000000000E+00  0.45593999997E+02  0.45594000000E+02  0.51100000000E-03 0.  1.
         11   -1    0    0    0    0 -0.00000000000E+00 -0.00000000000E+00 -0.45593999997E+02  0.45594000000E+02  0.51100000000E-03 0. -1.
         23    2    1    2    0    0  0.00000000000E+00  0.00000000000E+00  0.35527136788E-14  0.91188000000E+02  0.91188000000E+02 0.  0.
    9900012    2    3    3    0    0 -0.16698016894E+02 -0.23977530340E+02 -0.22406118738E+02  0.54367083576E+02  0.39999998629E+02 0.  0.
        -12    1    3    3    0    0  0.16698016894E+02  0.23977530340E+02  0.22406118738E+02  0.36820916424E+02  0.00000000000E+00 0.  1.
         11    1    4    4    0    0  0.54879987075E+00  0.67179593947E+01 -0.89258222616E+01  0.11184921235E+02  0.51100000000E-03 0. -1.
        -11    1    4    4    0    0 -0.12061784611E+02 -0.75872798047E+01  0.26954834250E+01  0.14502382356E+02  0.51100000000E-03 0.  1.
         12    1    4    4    0    0 -0.51850321533E+01 -0.23108209930E+02 -0.16175779901E+02  0.28679779985E+02  0.00000000000E+00 0. -1.
</event>
<event>
 8    1  0.2501893E-006  0.9118800E+02  0.7816164E-02  0.1184000E+00
        -11   -1    0    0    0    0  0.00000000000E+00  0.00000000000E+00  0.45593999997E+02  0.45594000000E+02  0.51100000000E-03 0. -1.
         11   -1    0    0    0    0 -0.00000000000E+00 -0.00000000000E+00 -0.45593999997E+02  0.45594000000E+02  0.51100000000E-03 0.  1.
         23    2    1    2    0    0  0.88817841970E-15  0.17763568394E-14 -0.71054273576E-14  0.91188000000E+02  0.91188000000E+02 0.  0.
    9900012    2    3    3    0    0  0.67667915634E+01  0.12326307456E+02  0.34030175573E+02  0.54367079681E+02  0.39999989750E+02 0.  0.
        -12    1    3    3    0    0 -0.67667915634E+01 -0.12326307456E+02 -0.34030175573E+02  0.36820920319E+02  0.00000000000E+00 0.  1.
         11    1    4    4    0    0  0.11730627573E+02  0.11318954360E+02  0.12529021494E+02  0.20559735673E+02  0.51100000000E-03 0. -1.
        -11    1    4    4    0    0  0.53440092414E+00  0.11726948700E+02  0.36919452382E+01  0.12305989195E+02  0.51100000000E-03 0.  1.
        -12    1    4    4    0    0 -0.54982369342E+01 -0.10719595604E+02  0.17809208841E+02  0.21501354814E+02  0.00000000000E+00 0.  1.
</event>
<event>
 8    1  0.2501893E-006  0.9118800E+02  0.7816164E-02  0.1184000E+00
        -11   -1    0    0    0    0  0.00000000000E+00  0.00000000000E+00  0.45593999997E+02  0.45594000000E+02  0.51100000000E-03 0. -1.
         11   -1    0    0    0    0 -0.00000000000E+00 -0.00000000000E+00 -0.45593999997E+02  0.45594000000E+02  0.51100000000E-03 0.  1.
         23    2    1    2    0    0 -0.17763568394E-14  0.00000000000E+00  0.71054273576E-14  0.91188000000E+02  0.91188000000E+02 0.  0.
    9900012    2    3    3    0    0  0.81729293644E+01 -0.13345593457E+02  0.33329882363E+02  0.54367045403E+02  0.39999911605E+02 0.  0.
        -12    1    3    3    0    0 -0.81729293644E+01  0.13345593457E+02 -0.33329882363E+02  0.36820954597E+02  0.00000000000E+00 0.  1.
         11    1    4    4    0    0 -0.44098534642E+01 -0.20398925776E+02  0.23762957957E+02  0.31626589312E+02  0.51100000000E-03 0. -1.
        -11    1    4    4    0    0  0.39203805200E+01 -0.11976548010E+01 -0.32327175643E+01  0.52205577821E+01  0.51100000000E-03 0.  1.
        -12    1    4    4    0    0  0.86624023086E+01  0.82509871197E+01  0.12799641970E+02  0.17519898309E+02  0.00000000000E+00 0.  1.
</event>
<event>
 8    1  0.2501893E-006  0.9118800E+02  0.7816164E-02  0.1184000E+00
        -11   -1    0    0    0    0  0.00000000000E+00  0.00000000000E+00  0.45593999997E+02  0.45594000000E+02  0.51100000000E-03 0.  1.
         11   -1    0    0    0    0 -0.00000000000E+00 -0.00000000000E+00 -0.45593999997E+02  0.45594000000E+02  0.51100000000E-03 0. -1.
         23    2    1    2    0    0 -0.35527136788E-14  0.00000000000E+00  0.00000000000E+00  0.91188000000E+02  0.91188000000E+02 0.  0.
    9900012    2    3    3    0    0  0.30054274176E+02 -0.60465097109E+01 -0.20395067064E+02  0.54367103264E+02  0.40000043510E+02 0.  0.
         12    1    3    3    0    0 -0.30054274176E+02  0.60465097109E+01  0.20395067064E+02  0.36820896736E+02  0.00000000000E+00 0. -1.
         11    1    4    4    0    0 -0.40001443659E+01 -0.29836020304E+01 -0.91503167343E+01  0.10422635589E+02  0.51100000000E-03 0. -1.
        -11    1    4    4    0    0  0.11810427057E+02 -0.86121879807E+01  0.54332044940E+01  0.15594091202E+02  0.51100000000E-03 0.  1.
         12    1    4    4    0    0  0.22243991485E+02  0.55492803002E+01 -0.16677954823E+02  0.28350376472E+02  0.00000000000E+00 0. -1.
</event>
<event>
 8    1  0.2501893E-006  0.9118800E+02  0.7816164E-02  0.1184000E+00
        -11   -1    0    0    0    0  0.00000000000E+00  0.00000000000E+00  0.45593999997E+02  0.45594000000E+02  0.51100000000E-03 0.  1.
         11   -1    0    0    0    0 -0.00000000000E+00 -0.00000000000E+00 -0.45593999997E+02  0.45594000000E+02  0.51100000000E-03 0. -1.
         23    2    1    2    0    0  0.17763568394E-14  0.00000000000E+00  0.00000000000E+00  0.91188000000E+02  0.91188000000E+02 0.  0.
    9900012    2    3    3    0    0 -0.12838448528E+02  0.26126333660E+02 -0.22547074273E+02  0.54367059906E+02  0.39999944668E+02 0.  0.
         12    1    3    3    0    0  0.12838448528E+02 -0.26126333660E+02  0.22547074273E+02  0.36820940094E+02  0.00000000000E+00 0. -1.
         11    1    4    4    0    0  0.36935825129E+01  0.10378555364E+02 -0.15148753248E+02  0.18730768496E+02  0.51100000000E-03 0. -1.
        -11    1    4    4    0    0 -0.25139167962E+01 -0.39419748357E+01 -0.10281717451E+02  0.11294806650E+02  0.51100000000E-03 0.  1.
        -12    1    4    4    0    0 -0.14018114245E+02  0.19689753132E+02  0.28833964254E+01  0.24341484760E+02  0.00000000000E+00 0.  1.
</event>
<event>
 8    1  0.2501893E-006  0.9118800E+02  0.7816164E-02  0.1184000E+00
        -11   -1    0    0    0    0  0.00000000000E+00  0.00000000000E+00  0.45593999997E+02  0.45594000000E+02  0.51100000000E-03 0.  1.
         11   -1    0    0    0    0 -0.00000000000E+00 -0.00000000000E+00 -0.45593999997E+02  0.45594000000E+02  0.51100000000E-03 0. -1.
         23    2    1    2    0    0  0.00000000000E+00  0.00000000000E+00  0.00000000000E+00  0.91188000000E+02  0.91188000000E+02 0.  0.
    9900012    2    3    3    0    0 -0.22906782677E+02  0.14340337767E+02  0.25008282426E+02  0.54367079727E+02  0.39999989853E+02 0.  0.
         12    1    3    3    0    0  0.22906782677E+02 -0.14340337767E+02 -0.25008282426E+02  0.36820920273E+02  0.00000000000E+00 0. -1.
         11    1    4    4    0    0 -0.15696123991E+02 -0.45143365008E+01  0.12759386067E+02  0.20725575395E+02  0.51100000000E-03 0.  1.
        -11    1    4    4    0    0 -0.85570864920E+01 -0.25763011717E+00  0.11669612122E+02  0.14473076724E+02  0.51100000000E-03 0. -1.
        -12    1    4    4    0    0  0.13464278059E+01  0.19112304385E+02  0.57928423684E+00  0.19168427608E+02  0.00000000000E+00 0.  1.
</event>
<event>
 8    1  0.2501893E-006  0.9118800E+02  0.7816164E-02  0.1184000E+00
        -11   -1    0    0    0    0  0.00000000000E+00  0.00000000000E+00  0.45593999997E+02  0.45594000000E+02  0.51100000000E-03 0. -1.
         11   -1    0    0    0    0 -0.00000000000E+00 -0.00000000000E+00 -0.45593999997E+02  0.45594000000E+02  0.51100000000E-03 0.  1.
         23    2    1    2    0    0  0.17763568394E-14  0.00000000000E+00  0.00000000000E+00  0.91188000000E+02  0.91188000000E+02 0.  0.
    9900012    2    3    3    0    0  0.95013366842E+01  0.13937742940E+02 -0.32729851141E+02  0.54367092451E+02  0.40000018859E+02 0.  0.
         12    1    3    3    0    0 -0.95013366842E+01 -0.13937742940E+02  0.32729851141E+02  0.36820907549E+02  0.00000000000E+00 0. -1.
         11    1    4    4    0    0  0.12229874025E+02  0.14446980794E+02 -0.10122793022E+02  0.21465227964E+02  0.51100000000E-03 0. -1.
        -11    1    4    4    0    0  0.10306747145E+02  0.54851151490E+00 -0.66843496404E+01  0.12296765102E+02  0.51100000000E-03 0.  1.
         12    1    4    4    0    0 -0.13035284486E+02 -0.10577493683E+01 -0.15922708479E+02  0.20605099385E+02  0.00000000000E+00 0. -1.
</event>
<event>
 8    1  0.2501893E-006  0.9118800E+02  0.7816164E-02  0.1184000E+00
        -11   -1    0    0    0    0  0.00000000000E+00  0.00000000000E+00  0.45593999997E+02  0.45594000000E+02  0.51100000000E-03 0. -1.
         11   -1    0    0    0    0 -0.00000000000E+00 -0.00000000000E+00 -0.45593999997E+02  0.45594000000E+02  0.51100000000E-03 0.  1.
         23    2    1    2    0    0 -0.10658141036E-13 -0.71054273576E-14 -0.35527136788E-14  0.91188000000E+02  0.91188000000E+02 0.  0.
    9900012    2    3    3    0    0 -0.29060212717E+02 -0.12894601118E+02 -0.18574506241E+02  0.54367095839E+02  0.40000026584E+02 0.  0.
         12    1    3    3    0    0  0.29060212717E+02  0.12894601118E+02  0.18574506241E+02  0.36820904161E+02  0.00000000000E+00 0. -1.
         11    1    4    4    0    0 -0.33269085684E+02 -0.19324786845E+02 -0.11994892383E+02  0.40300829922E+02  0.51100000000E-03 0. -1.
        -11    1    4    4    0    0  0.33100406062E+01  0.63891593340E+01  0.22815888274E+00  0.71992904197E+01  0.51100000000E-03 0.  1.
        -12    1    4    4    0    0  0.89883236106E+00  0.41026393828E-01 -0.68077727411E+01  0.68669754967E+01  0.00000000000E+00 0.  1.
</event>
<event>
 8    1  0.2501893E-006  0.9118800E+02  0.7816164E-02  0.1184000E+00
        -11   -1    0    0    0    0  0.00000000000E+00  0.00000000000E+00  0.45593999997E+02  0.45594000000E+02  0.51100000000E-03 0. -1.
         11   -1    0    0    0    0 -0.00000000000E+00 -0.00000000000E+00 -0.45593999997E+02  0.45594000000E+02  0.51100000000E-03 0.  1.
         23    2    1    2    0    0  0.00000000000E+00  0.00000000000E+00  0.35527136788E-14  0.91188000000E+02  0.91188000000E+02 0.  0.
    9900012    2    3    3    0    0  0.31359265654E+01  0.26862631864E+02  0.24986909834E+02  0.54367072674E+02  0.39999973774E+02 0.  0.
        -12    1    3    3    0    0 -0.31359265654E+01 -0.26862631864E+02 -0.24986909834E+02  0.36820927326E+02  0.00000000000E+00 0.  1.
         11    1    4    4    0    0 -0.23468226735E+01 -0.28539081753E+01  0.15039257909E+02  0.15486498870E+02  0.51100000000E-03 0. -1.
        -11    1    4    4    0    0 -0.16476405403E+00  0.19009458750E+02  0.16450112128E+02  0.25139468141E+02  0.51100000000E-03 0.  1.
        -12    1    4    4    0    0  0.56475132930E+01  0.10707081290E+02 -0.65024602026E+01  0.13741105663E+02  0.00000000000E+00 0.  1.
</event>
<event>
 8    1  0.2501893E-006  0.9118800E+02  0.7816164E-02  0.1184000E+00
        -11   -1    0    0    0    0  0.00000000000E+00  0.00000000000E+00  0.45593999997E+02  0.45594000000E+02  0.51100000000E-03 0.  1.
         11   -1    0    0    0    0 -0.00000000000E+00 -0.00000000000E+00 -0.45593999997E+02  0.45594000000E+02  0.51100000000E-03 0. -1.
         23    2    1    2    0    0  0.00000000000E+00  0.88817841970E-15  0.00000000000E+00  0.91188000000E+02  0.91188000000E+02 0.  0.
    9900012    2    3    3    0    0  0.11018342646E+02 -0.28230940834E+01 -0.35020076363E+02  0.54367089048E+02  0.40000011103E+02 0.  0.
        -12    1    3    3    0    0 -0.11018342646E+02  0.28230940834E+01  0.35020076363E+02  0.36820910952E+02  0.00000000000E+00 0.  1.
         11    1    4    4    0    0 -0.70082632675E+00 -0.85520973218E+01 -0.31784407025E+01  0.91505197504E+01  0.51100000000E-03 0. -1.
        -11    1    4    4    0    0 -0.36469062615E+01  0.39419523445E+01 -0.28993855448E+02  0.29486989801E+02  0.51100000000E-03 0.  1.
        -12    1    4    4    0    0  0.15366075234E+02  0.17870508939E+01 -0.28477802126E+01  0.15729579497E+02  0.00000000000E+00 0.  1.
</event>
<event>
 8    1  0.2501893E-006  0.9118800E+02  0.7816164E-02  0.1184000E+00
        -11   -1    0    0    0    0  0.00000000000E+00  0.00000000000E+00  0.45593999997E+02  0.45594000000E+02  0.51100000000E-03 0. -1.
         11   -1    0    0    0    0 -0.00000000000E+00 -0.00000000000E+00 -0.45593999997E+02  0.45594000000E+02  0.51100000000E-03 0.  1.
         23    2    1    2    0    0  0.35527136788E-14  0.35527136788E-14  0.16653345369E-15  0.91188000000E+02  0.91188000000E+02 0.  0.
    9900012    2    3    3    0    0  0.24381308843E+02  0.27589254385E+02 -0.40621597076E+00  0.54367079454E+02  0.39999989232E+02 0.  0.
         12    1    3    3    0    0 -0.24381308843E+02 -0.27589254385E+02  0.40621597076E+00  0.36820920546E+02  0.00000000000E+00 0. -1.
         11    1    4    4    0    0  0.32536805140E+01  0.10933536380E+02  0.88624110336E+00  0.11441769016E+02  0.51100000000E-03 0. -1.
        -11    1    4    4    0    0  0.72630866216E+01 -0.10260401419E+02 -0.13944622964E+01  0.12648035022E+02  0.51100000000E-03 0.  1.
        -12    1    4    4    0    0  0.13864541707E+02  0.26916119424E+02  0.10200522232E+00  0.30277275417E+02  0.00000000000E+00 0.  1.
</event>
<event>
 8    1  0.2501893E-006  0.9118800E+02  0.7816164E-02  0.1184000E+00
        -11   -1    0    0    0    0  0.00000000000E+00  0.00000000000E+00  0.45593999997E+02  0.45594000000E+02  0.51100000000E-03 0. -1.
         11   -1    0    0    0    0 -0.00000000000E+00 -0.00000000000E+00 -0.45593999997E+02  0.45594000000E+02  0.51100000000E-03 0.  1.
         23    2    1    2    0    0  0.00000000000E+00  0.13322676296E-14 -0.88817841970E-15  0.91188000000E+02  0.91188000000E+02 0.  0.
    9900012    2    3    3    0    0 -0.36220076186E+02  0.22159385493E+01  0.62430347828E+01  0.54367084940E+02  0.40000001738E+02 0.  0.
         12    1    3    3    0    0  0.36220076186E+02 -0.22159385493E+01 -0.62430347828E+01  0.36820915060E+02  0.00000000000E+00 0. -1.
         11    1    4    4    0    0 -0.90701631577E+01  0.15001165174E+02  0.13419680367E+02  0.22076925458E+02  0.51100000000E-03 0. -1.
        -11    1    4    4    0    0 -0.11260352923E+02 -0.10553091080E+02 -0.37889527806E+01  0.15890860352E+02  0.51100000000E-03 0.  1.
         12    1    4    4    0    0 -0.15889560105E+02 -0.22321355445E+01 -0.33876928036E+01  0.16399299130E+02  0.00000000000E+00 0. -1.
</event>
<event>
 8    1  0.2501893E-006  0.9118800E+02  0.7816164E-02  0.1184000E+00
        -11   -1    0    0    0    0  0.00000000000E+00  0.00000000000E+00  0.45593999997E+02  0.45594000000E+02  0.51100000000E-03 0.  1.
         11   -1    0    0    0    0 -0.00000000000E+00 -0.00000000000E+00 -0.45593999997E+02  0.45594000000E+02  0.51100000000E-03 0. -1.
         23    2    1    2    0    0  0.00000000000E+00  0.35527136788E-14 -0.35527136788E-14  0.91188000000E+02  0.91188000000E+02 0.  0.
    9900012    2    3    3    0    0  0.10686466239E+02  0.16897994170E+02 -0.30919794858E+02  0.54367129808E+02  0.40000104023E+02 0.  0.
        -12    1    3    3    0    0 -0.10686466239E+02 -0.16897994170E+02  0.30919794858E+02  0.36820870192E+02  0.00000000000E+00 0.  1.
         11    1    4    4    0    0 -0.11804671974E+02 -0.33458849865E+00 -0.11187893646E+02  0.16267488877E+02  0.51100000000E-03 0. -1.
        -11    1    4    4    0    0 -0.64361467762E+00 -0.21476839997E+01 -0.45167915836E+00  0.22870943879E+01  0.51100000000E-03 0.  1.
        -12    1    4    4    0    0  0.23134752890E+02  0.19380266668E+02 -0.19280222054E+02  0.35812546543E+02  0.00000000000E+00 0.  1.
</event>
<event>
 8    1  0.2501893E-006  0.9118800E+02  0.7816164E-02  0.1184000E+00
        -11   -1    0    0    0    0  0.00000000000E+00  0.00000000000E+00  0.45593999997E+02  0.45594000000E+02  0.51100000000E-03 0.  1.
         11   -1    0    0    0    0 -0.00000000000E+00 -0.00000000000E+00 -0.45593999997E+02  0.45594000000E+02  0.51100000000E-03 0. -1.
         23    2    1    2    0    0 -0.35527136788E-14  0.35527136788E-14  0.00000000000E+00  0.91188000000E+02  0.91188000000E+02 0.  0.
    9900012    2    3    3    0    0  0.19842409873E+02  0.30741094080E+02  0.41282508860E+01  0.54367101719E+02  0.40000039989E+02 0.  0.
         12    1    3    3    0    0 -0.19842409873E+02 -0.30741094080E+02 -0.41282508860E+01  0.36820898281E+02  0.00000000000E+00 0. -1.
         11    1    4    4    0    0 -0.74337823096E+01  0.93476123403E+01  0.85463531291E+00  0.11973695239E+02  0.51100000000E-03 0. -1.
        -11    1    4    4    0    0 -0.42614221077E+01  0.53057307307E+01 -0.28466349456E+00  0.68111328377E+01  0.51100000000E-03 0.  1.
        -12    1    4    4    0    0  0.31537614290E+02  0.16087751009E+02  0.35582790677E+01  0.35582273643E+02  0.00000000000E+00 0.  1.
</event>
<event>
 8    1  0.2501893E-006  0.9118800E+02  0.7816164E-02  0.1184000E+00
        -11   -1    0    0    0    0  0.00000000000E+00  0.00000000000E+00  0.45593999997E+02  0.45594000000E+02  0.51100000000E-03 0.  1.
         11   -1    0    0    0    0 -0.00000000000E+00 -0.00000000000E+00 -0.45593999997E+02  0.45594000000E+02  0.51100000000E-03 0. -1.
         23    2    1    2    0    0  0.00000000000E+00  0.00000000000E+00  0.00000000000E+00  0.91188000000E+02  0.91188000000E+02 0.  0.
    9900012    2    3    3    0    0  0.16025534631E+02  0.28675866315E+02  0.16632986946E+02  0.54367091213E+02  0.40000016038E+02 0.  0.
         12    1    3    3    0    0 -0.16025534631E+02 -0.28675866315E+02 -0.16632986946E+02  0.36820908787E+02  0.00000000000E+00 0. -1.
         11    1    4    4    0    0  0.15022106987E+02  0.33371300112E+01  0.10398657438E+02  0.18572350735E+02  0.51100000000E-03 0. -1.
        -11    1    4    4    0    0 -0.51492889162E+01  0.27872144446E+02  0.33446137048E+01  0.28540463442E+02  0.51100000000E-03 0.  1.
        -12    1    4    4    0    0  0.61527165607E+01 -0.25334081422E+01  0.28897158039E+01  0.72542770362E+01  0.00000000000E+00 0.  1.
</event>
<event>
 8    1  0.2501893E-006  0.9118800E+02  0.7816164E-02  0.1184000E+00
        -11   -1    0    0    0    0  0.00000000000E+00  0.00000000000E+00  0.45593999997E+02  0.45594000000E+02  0.51100000000E-03 0. -1.
         11   -1    0    0    0    0 -0.00000000000E+00 -0.00000000000E+00 -0.45593999997E+02  0.45594000000E+02  0.51100000000E-03 0.  1.
         23    2    1    2    0    0  0.00000000000E+00  0.00000000000E+00  0.00000000000E+00  0.91188000000E+02  0.91188000000E+02 0.  0.
    9900012    2    3    3    0    0 -0.76762806426E+01  0.45361755100E+01 -0.35725025916E+02  0.54367086792E+02  0.40000005959E+02 0.  0.
         12    1    3    3    0    0  0.76762806426E+01 -0.45361755100E+01  0.35725025916E+02  0.36820913208E+02  0.00000000000E+00 0. -1.
         11    1    4    4    0    0 -0.23291369324E+01  0.23556810154E+01 -0.19360004490E+00  0.33183720609E+01  0.51100000000E-03 0. -1.
        -11    1    4    4    0    0 -0.14161547636E+02  0.13272034845E+02 -0.99603561524E+01  0.21815247771E+02  0.51100000000E-03 0.  1.
         12    1    4    4    0    0  0.88144039257E+01 -0.11091540350E+02 -0.25571069719E+02  0.29233466960E+02  0.00000000000E+00 0. -1.
</event>
<event>
 8    1  0.2501893E-006  0.9118800E+02  0.7816164E-02  0.1184000E+00
        -11   -1    0    0    0    0  0.00000000000E+00  0.00000000000E+00  0.45593999997E+02  0.45594000000E+02  0.51100000000E-03 0.  1.
         11   -1    0    0    0    0 -0.00000000000E+00 -0.00000000000E+00 -0.45593999997E+02  0.45594000000E+02  0.51100000000E-03 0. -1.
         23    2    1    2    0    0 -0.17763568394E-14  0.35527136788E-14  0.00000000000E+00  0.91188000000E+02  0.91188000000E+02 0.  0.
    9900012    2    3    3    0    0 -0.14907725118E+02  0.27903288533E+02 -0.18839961881E+02  0.54367109967E+02  0.40000058792E+02 0.  0.
        -12    1    3    3    0    0  0.14907725118E+02 -0.27903288533E+02  0.18839961881E+02  0.36820890033E+02  0.00000000000E+00 0.  1.
         11    1    4    4    0    0 -0.85011049035E+01  0.68126399727E+01 -0.85437085396E+01  0.13844703097E+02  0.51100000000E-03 0. -1.
        -11    1    4    4    0    0 -0.86780986481E+01 -0.46103194631E+01 -0.10950207596E+02  0.14712970073E+02  0.51100000000E-03 0.  1.
         12    1    4    4    0    0  0.22714784340E+01  0.25700968023E+02  0.65395425458E+00  0.25809436797E+02  0.00000000000E+00 0. -1.
</event>
<event>
 8    1  0.2501893E-006  0.9118800E+02  0.7816164E-02  0.1184000E+00
        -11   -1    0    0    0    0  0.00000000000E+00  0.00000000000E+00  0.45593999997E+02  0.45594000000E+02  0.51100000000E-03 0.  1.
         11   -1    0    0    0    0 -0.00000000000E+00 -0.00000000000E+00 -0.45593999997E+02  0.45594000000E+02  0.51100000000E-03 0. -1.
         23    2    1    2    0    0  0.00000000000E+00  0.00000000000E+00  0.00000000000E+00  0.91188000000E+02  0.91188000000E+02 0.  0.
    9900012    2    3    3    0    0  0.54327381197E+01  0.49601306174E+01 -0.36078549594E+02  0.54367091809E+02  0.40000017396E+02 0.  0.
        -12    1    3    3    0    0 -0.54327381197E+01 -0.49601306174E+01  0.36078549594E+02  0.36820908191E+02  0.00000000000E+00 0.  1.
         11    1    4    4    0    0 -0.10060235242E+01 -0.41703453087E+01 -0.11446908369E+02  0.12224384434E+02  0.51100000000E-03 0. -1.
        -11    1    4    4    0    0  0.45241775799E+01  0.91651938793E+01  0.57321198000E+01  0.11718624462E+02  0.51100000000E-03 0.  1.
        -12    1    4    4    0    0  0.19145840640E+01 -0.34717953251E-01 -0.30363761025E+02  0.30424082913E+02  0.00000000000E+00 0.  1.
</event>
<event>
 8    1  0.2501893E-006  0.9118800E+02  0.7816164E-02  0.1184000E+00
        -11   -1    0    0    0    0  0.00000000000E+00  0.00000000000E+00  0.45593999997E+02  0.45594000000E+02  0.51100000000E-03 0. -1.
         11   -1    0    0    0    0 -0.00000000000E+00 -0.00000000000E+00 -0.45593999997E+02  0.45594000000E+02  0.51100000000E-03 0.  1.
         23    2    1    2    0    0  0.00000000000E+00  0.00000000000E+00  0.00000000000E+00  0.91188000000E+02  0.91188000000E+02 0.  0.
    9900012    2    3    3    0    0 -0.20350608448E+02 -0.20032341881E+02  0.23245180069E+02  0.54367076846E+02  0.39999983286E+02 0.  0.
        -12    1    3    3    0    0  0.20350608448E+02  0.20032341881E+02 -0.23245180069E+02  0.36820923154E+02  0.00000000000E+00 0.  1.
         11    1    4    4    0    0 -0.12186692707E+01 -0.14029317042E+02  0.59328706758E+01  0.15280898082E+02  0.51100000000E-03 0. -1.
        -11    1    4    4    0    0  0.42526716052E+00  0.14374527746E+01 -0.69138160338E+01  0.70744593466E+01  0.51100000000E-03 0.  1.
         12    1    4    4    0    0 -0.19557206338E+02 -0.74404776131E+01  0.24226125427E+02  0.32011719418E+02  0.00000000000E+00 0. -1.
</event>
<event>
 8    1  0.2501893E-006  0.9118800E+02  0.7816164E-02  0.1184000E+00
        -11   -1    0    0    0    0  0.00000000000E+00  0.00000000000E+00  0.45593999997E+02  0.45594000000E+02  0.51100000000E-03 0.  1.
         11   -1    0    0    0    0 -0.00000000000E+00 -0.00000000000E+00 -0.45593999997E+02  0.45594000000E+02  0.51100000000E-03 0. -1.
         23    2    1    2    0    0  0.99920072216E-15  0.00000000000E+00  0.35527136788E-14  0.91188000000E+02  0.91188000000E+02 0.  0.
    9900012    2    3    3    0    0  0.73930187518E+00  0.21765805020E+02 -0.29689794853E+02  0.54367071795E+02  0.39999971771E+02 0.  0.
        -12    1    3    3    0    0 -0.73930187518E+00 -0.21765805020E+02  0.29689794853E+02  0.36820928205E+02  0.00000000000E+00 0.  1.
         11    1    4    4    0    0  0.42077888448E+01  0.87078117704E+01 -0.17125764829E+02  0.19667823826E+02  0.51100000000E-03 0. -1.
        -11    1    4    4    0    0 -0.11938078914E+02  0.59666861924E+01 -0.17983797634E+02  0.22395000555E+02  0.51100000000E-03 0.  1.
         12    1    4    4    0    0  0.84695919444E+01  0.70913070576E+01  0.54197676097E+01  0.12304247414E+02  0.00000000000E+00 0. -1.
</event>
<event>
 8    1  0.2501893E-006  0.9118800E+02  0.7816164E-02  0.1184000E+00
        -11   -1    0    0    0    0  0.00000000000E+00  0.00000000000E+00  0.45593999997E+02  0.45594000000E+02  0.51100000000E-03 0.  1.
         11   -1    0    0    0    0 -0.00000000000E+00 -0.00000000000E+00 -0.45593999997E+02  0.45594000000E+02  0.51100000000E-03 0. -1.
         23    2    1    2    0    0  0.35527136788E-14 -0.71054273576E-14  0.66613381478E-15  0.91188000000E+02  0.91188000000E+02 0.  0.
    9900012    2    3    3    0    0 -0.14471852486E+02  0.33826716860E+02 -0.14487207151E+01  0.54367080951E+02  0.39999992644E+02 0.  0.
         12    1    3    3    0    0  0.14471852486E+02 -0.33826716860E+02  0.14487207151E+01  0.36820919049E+02  0.00000000000E+00 0. -1.
         11    1    4    4    0    0 -0.15169165308E+02  0.17396122280E+02 -0.95954010343E+01  0.24996007037E+02  0.51100000000E-03 0.  1.
        -11    1    4    4    0    0  0.89564574040E+01  0.17442865747E+02  0.76097166443E+01  0.21032819173E+02  0.51100000000E-03 0. -1.
        -12    1    4    4    0    0 -0.82591445820E+01 -0.10122711671E+01  0.53696367490E+00  0.83382547413E+01  0.00000000000E+00 0.  1.
</event>
<event>
 8    1  0.2501893E-006  0.9118800E+02  0.7816164E-02  0.1184000E+00
        -11   -1    0    0    0    0  0.00000000000E+00  0.00000000000E+00  0.45593999997E+02  0.45594000000E+02  0.51100000000E-03 0.  1.
         11   -1    0    0    0    0 -0.00000000000E+00 -0.00000000000E+00 -0.45593999997E+02  0.45594000000E+02  0.51100000000E-03 0. -1.
         23    2    1    2    0    0 -0.17763568394E-14  0.00000000000E+00  0.35527136788E-14  0.91188000000E+02  0.91188000000E+02 0.  0.
    9900012    2    3    3    0    0 -0.11718682355E+02  0.20482457089E+02  0.28265134809E+02  0.54367130778E+02  0.40000106234E+02 0.  0.
         12    1    3    3    0    0  0.11718682355E+02 -0.20482457089E+02 -0.28265134809E+02  0.36820869222E+02  0.00000000000E+00 0. -1.
         11    1    4    4    0    0  0.85989133873E+01  0.10482825900E+02  0.18392819603E+02  0.22850093293E+02  0.51100000000E-03 0. -1.
        -11    1    4    4    0    0 -0.84383702884E+01  0.64451631643E+01  0.14765403170E+02  0.18186900571E+02  0.51100000000E-03 0.  1.
         12    1    4    4    0    0 -0.11879225453E+02  0.35544680245E+01 -0.48930879647E+01  0.13330136914E+02  0.00000000000E+00 0. -1.
</event>
<event>
 8    1  0.2501893E-006  0.9118800E+02  0.7816164E-02  0.1184000E+00
        -11   -1    0    0    0    0  0.00000000000E+00  0.00000000000E+00  0.45593999997E+02  0.45594000000E+02  0.51100000000E-03 0.  1.
         11   -1    0    0    0    0 -0.00000000000E+00 -0.00000000000E+00 -0.45593999997E+02  0.45594000000E+02  0.51100000000E-03 0. -1.
         23    2    1    2    0    0  0.00000000000E+00  0.00000000000E+00  0.00000000000E+00  0.91188000000E+02  0.91188000000E+02 0.  0.
    9900012    2    3    3    0    0 -0.47754407391E+01  0.35613106258E+02 -0.80425147635E+01  0.54367079108E+02  0.39999988442E+02 0.  0.
        -12    1    3    3    0    0  0.47754407391E+01 -0.35613106258E+02  0.80425147635E+01  0.36820920892E+02  0.00000000000E+00 0.  1.
         11    1    4    4    0    0 -0.12075823448E+02 -0.63444503437E+00 -0.89254092347E+01  0.15029669415E+02  0.51100000000E-03 0. -1.
        -11    1    4    4    0    0  0.20169885259E+01  0.11795673844E+02  0.66142026654E+01  0.13673106498E+02  0.51100000000E-03 0.  1.
         12    1    4    4    0    0  0.52833941829E+01  0.24451877449E+02 -0.57313081942E+01  0.25664303195E+02  0.00000000000E+00 0. -1.
</event>
<event>
 8    1  0.2501893E-006  0.9118800E+02  0.7816164E-02  0.1184000E+00
        -11   -1    0    0    0    0  0.00000000000E+00  0.00000000000E+00  0.45593999997E+02  0.45594000000E+02  0.51100000000E-03 0.  1.
         11   -1    0    0    0    0 -0.00000000000E+00 -0.00000000000E+00 -0.45593999997E+02  0.45594000000E+02  0.51100000000E-03 0. -1.
         23    2    1    2    0    0 -0.35527136788E-14  0.00000000000E+00  0.35527136788E-14  0.91188000000E+02  0.91188000000E+02 0.  0.
    9900012    2    3    3    0    0  0.18961031870E+02 -0.92473611728E+01 -0.30178581274E+02  0.54367065928E+02  0.39999958396E+02 0.  0.
        -12    1    3    3    0    0 -0.18961031870E+02  0.92473611728E+01  0.30178581274E+02  0.36820934072E+02  0.00000000000E+00 0.  1.
         11    1    4    4    0    0 -0.58385517712E+01 -0.95219411174E+01 -0.11549784194E+02  0.16067157951E+02  0.51100000000E-03 0. -1.
        -11    1    4    4    0    0 -0.27501340026E+01 -0.47067553264E+01 -0.25989708277E+01  0.60391582492E+01  0.51100000000E-03 0.  1.
         12    1    4    4    0    0  0.27549717643E+02  0.49813352711E+01 -0.16029826252E+02  0.32260749728E+02  0.00000000000E+00 0. -1.
</event>
<event>
 8    1  0.2501893E-006  0.9118800E+02  0.7816164E-02  0.1184000E+00
        -11   -1    0    0    0    0  0.00000000000E+00  0.00000000000E+00  0.45593999997E+02  0.45594000000E+02  0.51100000000E-03 0. -1.
         11   -1    0    0    0    0 -0.00000000000E+00 -0.00000000000E+00 -0.45593999997E+02  0.45594000000E+02  0.51100000000E-03 0.  1.
         23    2    1    2    0    0  0.00000000000E+00 -0.35527136788E-14 -0.17763568394E-14  0.91188000000E+02  0.91188000000E+02 0.  0.
    9900012    2    3    3    0    0 -0.24035732254E+02  0.24152551920E+02  0.13954140017E+02  0.54367079142E+02  0.39999988520E+02 0.  0.
        -12    1    3    3    0    0  0.24035732254E+02 -0.24152551920E+02 -0.13954140017E+02  0.36820920858E+02  0.00000000000E+00 0.  1.
         11    1    4    4    0    0 -0.41917666421E+01  0.10499229123E+02  0.52365795420E+01  0.12458992147E+02  0.51100000000E-03 0. -1.
        -11    1    4    4    0    0 -0.20666374882E+02 -0.45838608778E+01 -0.10671068071E+01  0.21195507744E+02  0.51100000000E-03 0.  1.
        -12    1    4    4    0    0  0.82240927071E+00  0.18237183675E+02  0.97846672821E+01  0.20712579251E+02  0.00000000000E+00 0.  1.
</event>
<event>
 8    1  0.2501893E-006  0.9118800E+02  0.7816164E-02  0.1184000E+00
        -11   -1    0    0    0    0  0.00000000000E+00  0.00000000000E+00  0.45593999997E+02  0.45594000000E+02  0.51100000000E-03 0. -1.
         11   -1    0    0    0    0 -0.00000000000E+00 -0.00000000000E+00 -0.45593999997E+02  0.45594000000E+02  0.51100000000E-03 0.  1.
         23    2    1    2    0    0 -0.17763568394E-14  0.00000000000E+00  0.00000000000E+00  0.91188000000E+02  0.91188000000E+02 0.  0.
    9900012    2    3    3    0    0  0.15176793156E+02  0.67301736379E+01 -0.32865608492E+02  0.54367102275E+02  0.40000041257E+02 0.  0.
         12    1    3    3    0    0 -0.15176793156E+02 -0.67301736379E+01  0.32865608492E+02  0.36820897725E+02  0.00000000000E+00 0. -1.
         11    1    4    4    0    0 -0.34524405074E+01 -0.59797940306E+01 -0.40197018637E+01  0.79896987077E+01  0.51100000000E-03 0. -1.
        -11    1    4    4    0    0 -0.17492200136E+01  0.35418860782E+01 -0.22921743217E+02  0.23259644022E+02  0.51100000000E-03 0.  1.
         12    1    4    4    0    0  0.20378453677E+02  0.91680815903E+01 -0.59241634116E+01  0.23117759546E+02  0.00000000000E+00 0. -1.
</event>
<event>
 8    1  0.2501893E-006  0.9118800E+02  0.7816164E-02  0.1184000E+00
        -11   -1    0    0    0    0  0.00000000000E+00  0.00000000000E+00  0.45593999997E+02  0.45594000000E+02  0.51100000000E-03 0.  1.
         11   -1    0    0    0    0 -0.00000000000E+00 -0.00000000000E+00 -0.45593999997E+02  0.45594000000E+02  0.51100000000E-03 0. -1.
         23    2    1    2    0    0  0.22204460493E-15  0.00000000000E+00  0.00000000000E+00  0.91188000000E+02  0.91188000000E+02 0.  0.
    9900012    2    3    3    0    0 -0.12874224849E+01  0.22237336026E+02  0.29319323857E+02  0.54367091244E+02  0.40000016108E+02 0.  0.
         12    1    3    3    0    0  0.12874224849E+01 -0.22237336026E+02 -0.29319323857E+02  0.36820908756E+02  0.00000000000E+00 0. -1.
         11    1    4    4    0    0  0.14420737028E+02 -0.17600207583E+01  0.15092451492E+02  0.20948446764E+02  0.51100000000E-03 0. -1.
        -11    1    4    4    0    0 -0.11588370962E+02  0.18972366861E+02  0.15082090565E+02  0.26864670144E+02  0.51100000000E-03 0.  1.
         12    1    4    4    0    0 -0.41197885506E+01  0.50249899233E+01 -0.85521819987E+00  0.65539743363E+01  0.00000000000E+00 0. -1.
</event>
<event>
 8    1  0.2501893E-006  0.9118800E+02  0.7816164E-02  0.1184000E+00
        -11   -1    0    0    0    0  0.00000000000E+00  0.00000000000E+00  0.45593999997E+02  0.45594000000E+02  0.51100000000E-03 0. -1.
         11   -1    0    0    0    0 -0.00000000000E+00 -0.00000000000E+00 -0.45593999997E+02  0.45594000000E+02  0.51100000000E-03 0.  1.
         23    2    1    2    0    0 -0.17763568394E-14  0.00000000000E+00 -0.35527136788E-14  0.91188000000E+02  0.91188000000E+02 0.  0.
    9900012    2    3    3    0    0  0.15302254324E+02 -0.23551665770E+02 -0.23810509101E+02  0.54367078072E+02  0.39999986082E+02 0.  0.
         12    1    3    3    0    0 -0.15302254324E+02  0.23551665770E+02  0.23810509101E+02  0.36820921928E+02  0.00000000000E+00 0. -1.
         11    1    4    4    0    0  0.13116651873E+01 -0.69431339483E+00 -0.11947131155E+02  0.12038956755E+02  0.51100000000E-03 0. -1.
        -11    1    4    4    0    0 -0.51302955078E+01 -0.19572180630E+02 -0.13911318673E+01  0.20281159601E+02  0.51100000000E-03 0.  1.
        -12    1    4    4    0    0  0.19120884645E+02 -0.32851717451E+01 -0.10472246078E+02  0.22046961717E+02  0.00000000000E+00 0.  1.
</event>
<event>
 8    1  0.2501893E-006  0.9118800E+02  0.7816164E-02  0.1184000E+00
        -11   -1    0    0    0    0  0.00000000000E+00  0.00000000000E+00  0.45593999997E+02  0.45594000000E+02  0.51100000000E-03 0. -1.
         11   -1    0    0    0    0 -0.00000000000E+00 -0.00000000000E+00 -0.45593999997E+02  0.45594000000E+02  0.51100000000E-03 0.  1.
         23    2    1    2    0    0  0.00000000000E+00 -0.35527136788E-14  0.35527136788E-14  0.91188000000E+02  0.91188000000E+02 0.  0.
    9900012    2    3    3    0    0 -0.13916780129E+02 -0.28528619124E+02  0.18660548745E+02  0.54367150502E+02  0.40000151199E+02 0.  0.
         12    1    3    3    0    0  0.13916780129E+02  0.28528619124E+02 -0.18660548745E+02  0.36820849498E+02  0.00000000000E+00 0. -1.
         11    1    4    4    0    0 -0.21636770715E+02 -0.14626043457E+02  0.58307377737E+01  0.26759456225E+02  0.51100000000E-03 0. -1.
        -11    1    4    4    0    0  0.34552022967E+01  0.41944821267E+01  0.51639650609E+01  0.74965751270E+01  0.51100000000E-03 0.  1.
         12    1    4    4    0    0  0.42647882900E+01 -0.18097057794E+02  0.76658459105E+01  0.20111119150E+02  0.00000000000E+00 0. -1.
</event>
<event>
 8    1  0.2501893E-006  0.9118800E+02  0.7816164E-02  0.1184000E+00
        -11   -1    0    0    0    0  0.00000000000E+00  0.00000000000E+00  0.45593999997E+02  0.45594000000E+02  0.51100000000E-03 0. -1.
         11   -1    0    0    0    0 -0.00000000000E+00 -0.00000000000E+00 -0.45593999997E+02  0.45594000000E+02  0.51100000000E-03 0.  1.
         23    2    1    2    0    0  0.00000000000E+00  0.00000000000E+00  0.00000000000E+00  0.91188000000E+02  0.91188000000E+02 0.  0.
    9900012    2    3    3    0    0 -0.29195942595E+02  0.20472468131E+02  0.91791721930E+01  0.54367051919E+02  0.39999926460E+02 0.  0.
        -12    1    3    3    0    0  0.29195942595E+02 -0.20472468131E+02 -0.91791721930E+01  0.36820948081E+02  0.00000000000E+00 0.  1.
         11    1    4    4    0    0 -0.17290072709E+02  0.11772122485E+02  0.54615948030E+01  0.21618475898E+02  0.51100000000E-03 0. -1.
        -11    1    4    4    0    0  0.33847793795E+01  0.99550697096E+01 -0.81897719001E+01  0.13327884619E+02  0.51100000000E-03 0.  1.
         12    1    4    4    0    0 -0.15290649266E+02 -0.12547240639E+01  0.11907349290E+02  0.19420691403E+02  0.00000000000E+00 0. -1.
</event>
<event>
 8    1  0.2501893E-006  0.9118800E+02  0.7816164E-02  0.1184000E+00
        -11   -1    0    0    0    0  0.00000000000E+00  0.00000000000E+00  0.45593999997E+02  0.45594000000E+02  0.51100000000E-03 0.  1.
         11   -1    0    0    0    0 -0.00000000000E+00 -0.00000000000E+00 -0.45593999997E+02  0.45594000000E+02  0.51100000000E-03 0. -1.
         23    2    1    2    0    0 -0.88817841970E-15  0.00000000000E+00  0.35527136788E-14  0.91188000000E+02  0.91188000000E+02 0.  0.
    9900012    2    3    3    0    0  0.62041263735E+01 -0.18887831102E+02 -0.30992552859E+02  0.54367086370E+02  0.40000004998E+02 0.  0.
        -12    1    3    3    0    0 -0.62041263735E+01  0.18887831102E+02  0.30992552859E+02  0.36820913630E+02  0.00000000000E+00 0.  1.
         11    1    4    4    0    0  0.18100897122E+02 -0.35296822440E+01 -0.22300588451E+02  0.28938164746E+02  0.51100000000E-03 0. -1.
        -11    1    4    4    0    0  0.70176082122E+00 -0.93709629196E+01 -0.62027882462E+01  0.11259751178E+02  0.51100000000E-03 0.  1.
         12    1    4    4    0    0 -0.12598531570E+02 -0.59871859381E+01 -0.24891761620E+01  0.14169170446E+02  0.00000000000E+00 0. -1.
</event>
<event>
 8    1  0.2501893E-006  0.9118800E+02  0.7816164E-02  0.1184000E+00
        -11   -1    0    0    0    0  0.00000000000E+00  0.00000000000E+00  0.45593999997E+02  0.45594000000E+02  0.51100000000E-03 0. -1.
         11   -1    0    0    0    0 -0.00000000000E+00 -0.00000000000E+00 -0.45593999997E+02  0.45594000000E+02  0.51100000000E-03 0.  1.
         23    2    1    2    0    0 -0.35527136788E-14  0.35527136788E-14  0.00000000000E+00  0.91188000000E+02  0.91188000000E+02 0.  0.
    9900012    2    3    3    0    0 -0.29150192590E+02  0.19463754506E+02  0.11278672674E+02  0.54367083053E+02  0.39999997437E+02 0.  0.
         12    1    3    3    0    0  0.29150192590E+02 -0.19463754506E+02 -0.11278672674E+02  0.36820916947E+02  0.00000000000E+00 0. -1.
         11    1    4    4    0    0 -0.28884616356E+01  0.61284360554E+01  0.18510521988E+02  0.19711427235E+02  0.51100000000E-03 0. -1.
        -11    1    4    4    0    0 -0.19849049323E+01  0.45019093410E+01 -0.73220580354E+01  0.88215400832E+01  0.51100000000E-03 0.  1.
         12    1    4    4    0    0 -0.24276826022E+02  0.88334091092E+01  0.90208721331E-01  0.25834115735E+02  0.00000000000E+00 0. -1.
</event>
<event>
 8    1  0.2501893E-006  0.9118800E+02  0.7816164E-02  0.1184000E+00
        -11   -1    0    0    0    0  0.00000000000E+00  0.00000000000E+00  0.45593999997E+02  0.45594000000E+02  0.51100000000E-03 0.  1.
         11   -1    0    0    0    0 -0.00000000000E+00 -0.00000000000E+00 -0.45593999997E+02  0.45594000000E+02  0.51100000000E-03 0. -1.
         23    2    1    2    0    0  0.00000000000E+00  0.00000000000E+00  0.00000000000E+00  0.91188000000E+02  0.91188000000E+02 0.  0.
    9900012    2    3    3    0    0 -0.85042159065E+01  0.17694089235E+02 -0.31150884355E+02  0.54367080971E+02  0.39999992690E+02 0.  0.
        -12    1    3    3    0    0  0.85042159065E+01 -0.17694089235E+02  0.31150884355E+02  0.36820919029E+02  0.00000000000E+00 0.  1.
         11    1    4    4    0    0 -0.19442343357E+02  0.12674821708E+02 -0.21414135108E+02  0.31578806236E+02  0.51100000000E-03 0. -1.
        -11    1    4    4    0    0  0.10442561228E+02  0.41858297106E+01 -0.14259248468E+02  0.18162995968E+02  0.51100000000E-03 0.  1.
        -12    1    4    4    0    0  0.49556622242E+00  0.83343781574E+00  0.45224992214E+01  0.46252787680E+01  0.00000000000E+00 0.  1.
</event>
<event>
 8    1  0.2501893E-006  0.9118800E+02  0.7816164E-02  0.1184000E+00
        -11   -1    0    0    0    0  0.00000000000E+00  0.00000000000E+00  0.45593999997E+02  0.45594000000E+02  0.51100000000E-03 0.  1.
         11   -1    0    0    0    0 -0.00000000000E+00 -0.00000000000E+00 -0.45593999997E+02  0.45594000000E+02  0.51100000000E-03 0. -1.
         23    2    1    2    0    0  0.00000000000E+00 -0.17763568394E-14  0.00000000000E+00  0.91188000000E+02  0.91188000000E+02 0.  0.
    9900012    2    3    3    0    0  0.43014557305E+01 -0.11665582187E+02 -0.34658209194E+02  0.54367084833E+02  0.40000001494E+02 0.  0.
        -12    1    3    3    0    0 -0.43014557305E+01  0.11665582187E+02  0.34658209194E+02  0.36820915167E+02  0.00000000000E+00 0.  1.
         11    1    4    4    0    0  0.14351069991E+02 -0.32322122704E+01 -0.24421543660E+02  0.28509861470E+02  0.51100000000E-03 0. -1.
        -11    1    4    4    0    0 -0.83916662392E+01 -0.83069777659E+01 -0.15984990100E+02  0.19873244592E+02  0.51100000000E-03 0.  1.
        -12    1    4    4    0    0 -0.16579480211E+01 -0.12639215101E+00  0.57483245656E+01  0.59839787707E+01  0.00000000000E+00 0.  1.
</event>
<event>
 8    1  0.2501893E-006  0.9118800E+02  0.7816164E-02  0.1184000E+00
        -11   -1    0    0    0    0  0.00000000000E+00  0.00000000000E+00  0.45593999997E+02  0.45594000000E+02  0.51100000000E-03 0. -1.
         11   -1    0    0    0    0 -0.00000000000E+00 -0.00000000000E+00 -0.45593999997E+02  0.45594000000E+02  0.51100000000E-03 0.  1.
         23    2    1    2    0    0  0.00000000000E+00  0.00000000000E+00  0.00000000000E+00  0.91188000000E+02  0.91188000000E+02 0.  0.
    9900012    2    3    3    0    0 -0.22600482697E+02  0.51024972947E+01 -0.28617529981E+02  0.54367077700E+02  0.39999985232E+02 0.  0.
         12    1    3    3    0    0  0.22600482697E+02 -0.51024972947E+01  0.28617529981E+02  0.36820922300E+02  0.00000000000E+00 0. -1.
         11    1    4    4    0    0 -0.11934454600E+02  0.20842270384E+02 -0.16407352676E+02  0.29086640635E+02  0.51100000000E-03 0. -1.
        -11    1    4    4    0    0 -0.86472271454E+01 -0.12339575318E+02 -0.14329805492E+02  0.20793820765E+02  0.51100000000E-03 0.  1.
         12    1    4    4    0    0 -0.20188009522E+01 -0.34001977717E+01  0.21196281857E+01  0.44866162993E+01  0.00000000000E+00 0. -1.
</event>
<event>
 8    1  0.2501893E-006  0.9118800E+02  0.7816164E-02  0.1184000E+00
        -11   -1    0    0    0    0  0.00000000000E+00  0.00000000000E+00  0.45593999997E+02  0.45594000000E+02  0.51100000000E-03 0. -1.
         11   -1    0    0    0    0 -0.00000000000E+00 -0.00000000000E+00 -0.45593999997E+02  0.45594000000E+02  0.51100000000E-03 0.  1.
         23    2    1    2    0    0  0.35527136788E-14  0.00000000000E+00 -0.88817841970E-15  0.91188000000E+02  0.91188000000E+02 0.  0.
    9900012    2    3    3    0    0  0.26220617666E+02 -0.25368556078E+02 -0.49694415399E+01  0.54367085054E+02  0.40000001997E+02 0.  0.
         12    1    3    3    0    0 -0.26220617666E+02  0.25368556078E+02  0.49694415399E+01  0.36820914946E+02  0.00000000000E+00 0. -1.
         11    1    4    4    0    0  0.73418788057E+00  0.37358509087E+01  0.48697135920E+01  0.61814015066E+01  0.51100000000E-03 0. -1.
        -11    1    4    4    0    0  0.27569225714E+02 -0.14494641459E+02 -0.11781224933E+02  0.33300962429E+02  0.51100000000E-03 0.  1.
        -12    1    4    4    0    0 -0.20827959287E+01 -0.14609765528E+02  0.19420698008E+01  0.14884721118E+02  0.00000000000E+00 0.  1.
</event>
<event>
 8    1  0.2501893E-006  0.9118800E+02  0.7816164E-02  0.1184000E+00
        -11   -1    0    0    0    0  0.00000000000E+00  0.00000000000E+00  0.45593999997E+02  0.45594000000E+02  0.51100000000E-03 0. -1.
         11   -1    0    0    0    0 -0.00000000000E+00 -0.00000000000E+00 -0.45593999997E+02  0.45594000000E+02  0.51100000000E-03 0.  1.
         23    2    1    2    0    0 -0.35527136788E-14 -0.22204460493E-15  0.00000000000E+00  0.91188000000E+02  0.91188000000E+02 0.  0.
    9900012    2    3    3    0    0  0.21562309387E+02  0.13391694101E+01 -0.29817020863E+02  0.54367064461E+02  0.39999955051E+02 0.  0.
         12    1    3    3    0    0 -0.21562309387E+02 -0.13391694101E+01  0.29817020863E+02  0.36820935539E+02  0.00000000000E+00 0. -1.
         11    1    4    4    0    0  0.12537788197E+02 -0.55831967588E+01  0.10191838958E+01  0.13762519937E+02  0.51100000000E-03 0. -1.
        -11    1    4    4    0    0 -0.63061151940E+01 -0.36633442628E+01 -0.12453864094E+02  0.14432113884E+02  0.51100000000E-03 0.  1.
        -12    1    4    4    0    0  0.15330636384E+02  0.10585710432E+02 -0.18382340665E+02  0.26172430640E+02  0.00000000000E+00 0.  1.
</event>
<event>
 8    1  0.2501893E-006  0.9118800E+02  0.7816164E-02  0.1184000E+00
        -11   -1    0    0    0    0  0.00000000000E+00  0.00000000000E+00  0.45593999997E+02  0.45594000000E+02  0.51100000000E-03 0.  1.
         11   -1    0    0    0    0 -0.00000000000E+00 -0.00000000000E+00 -0.45593999997E+02  0.45594000000E+02  0.51100000000E-03 0. -1.
         23    2    1    2    0    0 -0.71054273576E-14  0.17763568394E-14  0.00000000000E+00  0.91188000000E+02  0.91188000000E+02 0.  0.
    9900012    2    3    3    0    0  0.15919735386E+02  0.14661168786E+02 -0.29789103337E+02  0.54367102095E+02  0.40000040845E+02 0.  0.
        -12    1    3    3    0    0 -0.15919735386E+02 -0.14661168786E+02  0.29789103337E+02  0.36820897905E+02  0.00000000000E+00 0.  1.
         11    1    4    4    0    0 -0.64173755910E+00  0.36445253431E+01 -0.34663293301E+01  0.50704863037E+01  0.51100000000E-03 0. -1.
        -11    1    4    4    0    0 -0.19836442197E+01  0.18092740781E+02 -0.22739151370E+02  0.29126467665E+02  0.51100000000E-03 0.  1.
        -12    1    4    4    0    0  0.18545117165E+02 -0.70760973385E+01 -0.35836226375E+01  0.20170148126E+02  0.00000000000E+00 0.  1.
</event>
<event>
 8    1  0.2501893E-006  0.9118800E+02  0.7816164E-02  0.1184000E+00
        -11   -1    0    0    0    0  0.00000000000E+00  0.00000000000E+00  0.45593999997E+02  0.45594000000E+02  0.51100000000E-03 0.  1.
         11   -1    0    0    0    0 -0.00000000000E+00 -0.00000000000E+00 -0.45593999997E+02  0.45594000000E+02  0.51100000000E-03 0. -1.
         23    2    1    2    0    0  0.00000000000E+00  0.35527136788E-14  0.00000000000E+00  0.91188000000E+02  0.91188000000E+02 0.  0.
    9900012    2    3    3    0    0  0.10082020383E+02  0.23983970104E+02  0.26055749825E+02  0.54367081273E+02  0.39999993378E+02 0.  0.
         12    1    3    3    0    0 -0.10082020383E+02 -0.23983970104E+02 -0.26055749825E+02  0.36820918727E+02  0.00000000000E+00 0. -1.
         11    1    4    4    0    0  0.59048903616E+01  0.13817749520E+02  0.71321156322E+00  0.15043490386E+02  0.51100000000E-03 0. -1.
        -11    1    4    4    0    0 -0.17066621137E+01  0.18676194258E+02  0.11348368210E+02  0.21920273466E+02  0.51100000000E-03 0.  1.
        -12    1    4    4    0    0  0.58837921352E+01 -0.85099736743E+01  0.13994170052E+02  0.17403317421E+02  0.00000000000E+00 0.  1.
</event>
<event>
 8    1  0.2501893E-006  0.9118800E+02  0.7816164E-02  0.1184000E+00
        -11   -1    0    0    0    0  0.00000000000E+00  0.00000000000E+00  0.45593999997E+02  0.45594000000E+02  0.51100000000E-03 0. -1.
         11   -1    0    0    0    0 -0.00000000000E+00 -0.00000000000E+00 -0.45593999997E+02  0.45594000000E+02  0.51100000000E-03 0.  1.
         23    2    1    2    0    0  0.00000000000E+00 -0.35527136788E-14  0.88817841970E-15  0.91188000000E+02  0.91188000000E+02 0.  0.
    9900012    2    3    3    0    0 -0.19066597311E+02  0.31220254301E+02  0.41880035126E+01  0.54367098530E+02  0.40000032718E+02 0.  0.
        -12    1    3    3    0    0  0.19066597311E+02 -0.31220254301E+02 -0.41880035126E+01  0.36820901470E+02  0.00000000000E+00 0.  1.
         11    1    4    4    0    0 -0.86208347674E+01  0.22774837367E+02  0.12818597994E+02  0.27519601451E+02  0.51100000000E-03 0. -1.
        -11    1    4    4    0    0  0.15384265606E+01 -0.37916914963E+01  0.38784994564E+01  0.56379463442E+01  0.51100000000E-03 0.  1.
        -12    1    4    4    0    0 -0.11984189105E+02  0.12237108430E+02 -0.12509093938E+02  0.21209550735E+02  0.00000000000E+00 0.  1.
</event>
<event>
 8    1  0.2501893E-006  0.9118800E+02  0.7816164E-02  0.1184000E+00
        -11   -1    0    0    0    0  0.00000000000E+00  0.00000000000E+00  0.45593999997E+02  0.45594000000E+02  0.51100000000E-03 0.  1.
         11   -1    0    0    0    0 -0.00000000000E+00 -0.00000000000E+00 -0.45593999997E+02  0.45594000000E+02  0.51100000000E-03 0. -1.
         23    2    1    2    0    0  0.00000000000E+00  0.00000000000E+00  0.00000000000E+00  0.91188000000E+02  0.91188000000E+02 0.  0.
    9900012    2    3    3    0    0  0.93003924601E+01  0.21411154393E+02 -0.28475332943E+02  0.54367089927E+02  0.40000013107E+02 0.  0.
        -12    1    3    3    0    0 -0.93003924601E+01 -0.21411154393E+02  0.28475332943E+02  0.36820910073E+02  0.00000000000E+00 0.  1.
         11    1    4    4    0    0 -0.20246403554E+01  0.11913446784E+02 -0.20038969831E+02  0.23400634500E+02  0.51100000000E-03 0. -1.
        -11    1    4    4    0    0 -0.83791233638E+01  0.33193212607E+01 -0.39201316430E+01  0.98282772822E+01  0.51100000000E-03 0.  1.
        -12    1    4    4    0    0  0.19704156179E+02  0.61783863482E+01 -0.45162314689E+01  0.21138178145E+02  0.00000000000E+00 0.  1.
</event>
<event>
 8    1  0.2501893E-006  0.9118800E+02  0.7816164E-02  0.1184000E+00
        -11   -1    0    0    0    0  0.00000000000E+00  0.00000000000E+00  0.45593999997E+02  0.45594000000E+02  0.51100000000E-03 0.  1.
         11   -1    0    0    0    0 -0.00000000000E+00 -0.00000000000E+00 -0.45593999997E+02  0.45594000000E+02  0.51100000000E-03 0. -1.
         23    2    1    2    0    0 -0.35527136788E-14  0.00000000000E+00  0.00000000000E+00  0.91188000000E+02  0.91188000000E+02 0.  0.
    9900012    2    3    3    0    0  0.16801042256E+02  0.64855146785E+01  0.32116067424E+02  0.54367099572E+02  0.40000035094E+02 0.  0.
         12    1    3    3    0    0 -0.16801042256E+02 -0.64855146785E+01 -0.32116067424E+02  0.36820900428E+02  0.00000000000E+00 0. -1.
         11    1    4    4    0    0  0.48086835267E+01  0.54686044546E+01  0.28577327551E+02  0.29490553100E+02  0.51100000000E-03 0. -1.
        -11    1    4    4    0    0  0.12756905434E+01  0.96046714945E+01  0.52787759996E+01  0.11033701881E+02  0.51100000000E-03 0.  1.
         12    1    4    4    0    0  0.10716668186E+02 -0.85877612706E+01 -0.17400361261E+01  0.13842844591E+02  0.00000000000E+00 0. -1.
</event>
<event>
 8    1  0.2501893E-006  0.9118800E+02  0.7816164E-02  0.1184000E+00
        -11   -1    0    0    0    0  0.00000000000E+00  0.00000000000E+00  0.45593999997E+02  0.45594000000E+02  0.51100000000E-03 0.  1.
         11   -1    0    0    0    0 -0.00000000000E+00 -0.00000000000E+00 -0.45593999997E+02  0.45594000000E+02  0.51100000000E-03 0. -1.
         23    2    1    2    0    0  0.00000000000E+00  0.71054273576E-14  0.00000000000E+00  0.91188000000E+02  0.91188000000E+02 0.  0.
    9900012    2    3    3    0    0  0.46043913348E+01 -0.35331693365E+02 -0.92870853625E+01  0.54367096560E+02  0.40000028228E+02 0.  0.
        -12    1    3    3    0    0 -0.46043913348E+01  0.35331693365E+02  0.92870853625E+01  0.36820903440E+02  0.00000000000E+00 0.  1.
         11    1    4    4    0    0 -0.94719294927E+01 -0.16353401946E+02 -0.82531020784E+01  0.20621951840E+02  0.51100000000E-03 0. -1.
        -11    1    4    4    0    0  0.87903671554E+01  0.40549317252E+01 -0.27131859155E+01  0.10053576682E+02  0.51100000000E-03 0.  1.
        -12    1    4    4    0    0  0.52859536722E+01 -0.23033223144E+02  0.16792026314E+01  0.23691568038E+02  0.00000000000E+00 0.  1.
</event>
<event>
 8    1  0.2501893E-006  0.9118800E+02  0.7816164E-02  0.1184000E+00
        -11   -1    0    0    0    0  0.00000000000E+00  0.00000000000E+00  0.45593999997E+02  0.45594000000E+02  0.51100000000E-03 0.  1.
         11   -1    0    0    0    0 -0.00000000000E+00 -0.00000000000E+00 -0.45593999997E+02  0.45594000000E+02  0.51100000000E-03 0. -1.
         23    2    1    2    0    0 -0.44408920985E-15  0.00000000000E+00  0.00000000000E+00  0.91188000000E+02  0.91188000000E+02 0.  0.
    9900012    2    3    3    0    0  0.22027052212E+01  0.30924235102E+02  0.19865107824E+02  0.54367044883E+02  0.39999910419E+02 0.  0.
         12    1    3    3    0    0 -0.22027052212E+01 -0.30924235102E+02 -0.19865107824E+02  0.36820955117E+02  0.00000000000E+00 0. -1.
         11    1    4    4    0    0  0.41498779291E+01  0.35203070648E+01  0.92558733261E+01  0.10737096439E+02  0.51100000000E-03 0.  1.
        -11    1    4    4    0    0 -0.81112848015E+01 -0.45120278368E+01 -0.45459676898E+00  0.92929002370E+01  0.51100000000E-03 0. -1.
         12    1    4    4    0    0  0.61641120936E+01  0.31915955873E+02  0.11063831267E+02  0.34337048206E+02  0.00000000000E+00 0. -1.
</event>
<event>
 8    1  0.2501893E-006  0.9118800E+02  0.7816164E-02  0.1184000E+00
        -11   -1    0    0    0    0  0.00000000000E+00  0.00000000000E+00  0.45593999997E+02  0.45594000000E+02  0.51100000000E-03 0.  1.
         11   -1    0    0    0    0 -0.00000000000E+00 -0.00000000000E+00 -0.45593999997E+02  0.45594000000E+02  0.51100000000E-03 0. -1.
         23    2    1    2    0    0 -0.88817841970E-15 -0.35527136788E-14  0.00000000000E+00  0.91188000000E+02  0.91188000000E+02 0.  0.
    9900012    2    3    3    0    0  0.31307336676E+01 -0.21723783570E+02  0.29564404465E+02  0.54367105425E+02  0.40000048438E+02 0.  0.
         12    1    3    3    0    0 -0.31307336676E+01  0.21723783570E+02 -0.29564404465E+02  0.36820894575E+02  0.00000000000E+00 0. -1.
         11    1    4    4    0    0 -0.16493784103E+02 -0.98726983724E+01  0.10817565891E+02  0.22057534296E+02  0.51100000000E-03 0. -1.
        -11    1    4    4    0    0  0.11620606925E+02 -0.52397208493E+01  0.24401310480E+01  0.12978729509E+02  0.51100000000E-03 0.  1.
        -12    1    4    4    0    0  0.80039108454E+01 -0.66113643480E+01  0.16306707527E+02  0.19330841620E+02  0.00000000000E+00 0.  1.
</event>
<event>
 8    1  0.2501893E-006  0.9118800E+02  0.7816164E-02  0.1184000E+00
        -11   -1    0    0    0    0  0.00000000000E+00  0.00000000000E+00  0.45593999997E+02  0.45594000000E+02  0.51100000000E-03 0. -1.
         11   -1    0    0    0    0 -0.00000000000E+00 -0.00000000000E+00 -0.45593999997E+02  0.45594000000E+02  0.51100000000E-03 0.  1.
         23    2    1    2    0    0  0.00000000000E+00  0.00000000000E+00  0.88817841970E-15  0.91188000000E+02  0.91188000000E+02 0.  0.
    9900012    2    3    3    0    0 -0.24991749032E+02 -0.25995442922E+02  0.74450298141E+01  0.54367095051E+02  0.40000024787E+02 0.  0.
         12    1    3    3    0    0  0.24991749032E+02  0.25995442922E+02 -0.74450298141E+01  0.36820904949E+02  0.00000000000E+00 0. -1.
         11    1    4    4    0    0 -0.77858156469E+01 -0.22705855363E+02  0.42929260422E+01  0.24384503426E+02  0.51100000000E-03 0.  1.
        -11    1    4    4    0    0  0.31665063732E+01 -0.76691715483E+01  0.38193770662E+01  0.91340350494E+01  0.51100000000E-03 0. -1.
         12    1    4    4    0    0 -0.20372439758E+02  0.43795839899E+01 -0.66727329434E+00  0.20848556575E+02  0.00000000000E+00 0. -1.
</event>
<event>
 8    1  0.2501893E-006  0.9118800E+02  0.7816164E-02  0.1184000E+00
        -11   -1    0    0    0    0  0.00000000000E+00  0.00000000000E+00  0.45593999997E+02  0.45594000000E+02  0.51100000000E-03 0.  1.
         11   -1    0    0    0    0 -0.00000000000E+00 -0.00000000000E+00 -0.45593999997E+02  0.45594000000E+02  0.51100000000E-03 0. -1.
         23    2    1    2    0    0 -0.17763568394E-14  0.00000000000E+00  0.00000000000E+00  0.91188000000E+02  0.91188000000E+02 0.  0.
    9900012    2    3    3    0    0  0.14613528772E+02  0.97214222918E+01 -0.32368489008E+02  0.54367077209E+02  0.39999984112E+02 0.  0.
        -12    1    3    3    0    0 -0.14613528772E+02 -0.97214222918E+01  0.32368489008E+02  0.36820922791E+02  0.00000000000E+00 0.  1.
         11    1    4    4    0    0 -0.53207840521E+01  0.74027558247E+01 -0.17706130622E+02  0.19915285551E+02  0.51100000000E-03 0. -1.
        -11    1    4    4    0    0 -0.18444691864E+01  0.29784939576E+01  0.43144361904E+01  0.55576841164E+01  0.51100000000E-03 0.  1.
         12    1    4    4    0    0  0.21778782011E+02 -0.65982749047E+00 -0.18976794577E+02  0.28894107541E+02  0.00000000000E+00 0. -1.
</event>
<event>
 8    1  0.2501893E-006  0.9118800E+02  0.7816164E-02  0.1184000E+00
        -11   -1    0    0    0    0  0.00000000000E+00  0.00000000000E+00  0.45593999997E+02  0.45594000000E+02  0.51100000000E-03 0. -1.
         11   -1    0    0    0    0 -0.00000000000E+00 -0.00000000000E+00 -0.45593999997E+02  0.45594000000E+02  0.51100000000E-03 0.  1.
         23    2    1    2    0    0  0.00000000000E+00  0.35527136788E-14 -0.10658141036E-13  0.91188000000E+02  0.91188000000E+02 0.  0.
    9900012    2    3    3    0    0 -0.79127495687E+01  0.23680028863E+02 -0.27063317282E+02  0.54367102197E+02  0.40000041079E+02 0.  0.
         12    1    3    3    0    0  0.79127495687E+01 -0.23680028863E+02  0.27063317282E+02  0.36820897803E+02  0.00000000000E+00 0. -1.
         11    1    4    4    0    0  0.28212858427E+00  0.11681104193E+02  0.34822637762E+01  0.12192372738E+02  0.51100000000E-03 0. -1.
        -11    1    4    4    0    0 -0.12699362197E+02 -0.24514262164E+01 -0.86614476761E+01  0.15566115983E+02  0.51100000000E-03 0.  1.
        -12    1    4    4    0    0  0.45044840440E+01  0.14450350886E+02 -0.21884133382E+02  0.26608613476E+02  0.00000000000E+00 0.  1.
</event>
<event>
 8    1  0.2501893E-006  0.9118800E+02  0.7816164E-02  0.1184000E+00
        -11   -1    0    0    0    0  0.00000000000E+00  0.00000000000E+00  0.45593999997E+02  0.45594000000E+02  0.51100000000E-03 0.  1.
         11   -1    0    0    0    0 -0.00000000000E+00 -0.00000000000E+00 -0.45593999997E+02  0.45594000000E+02  0.51100000000E-03 0. -1.
         23    2    1    2    0    0 -0.22204460493E-15  0.00000000000E+00  0.00000000000E+00  0.91188000000E+02  0.91188000000E+02 0.  0.
    9900012    2    3    3    0    0 -0.12840531437E+01 -0.34166878794E+02  0.13665797069E+02  0.54367103643E+02  0.40000044375E+02 0.  0.
         12    1    3    3    0    0  0.12840531437E+01  0.34166878794E+02 -0.13665797069E+02  0.36820896357E+02  0.00000000000E+00 0. -1.
         11    1    4    4    0    0 -0.12496012336E+02 -0.65745199510E+01  0.15391611072E+02  0.20887228838E+02  0.51100000000E-03 0. -1.
        -11    1    4    4    0    0  0.13198372531E+02 -0.17948653904E+02 -0.54787852918E+01  0.22942717864E+02  0.51100000000E-03 0.  1.
        -12    1    4    4    0    0 -0.19864133389E+01 -0.96437049394E+01  0.37529712888E+01  0.10537156941E+02  0.00000000000E+00 0.  1.
</event>
<event>
 8    1  0.2501893E-006  0.9118800E+02  0.7816164E-02  0.1184000E+00
        -11   -1    0    0    0    0  0.00000000000E+00  0.00000000000E+00  0.45593999997E+02  0.45594000000E+02  0.51100000000E-03 0. -1.
         11   -1    0    0    0    0 -0.00000000000E+00 -0.00000000000E+00 -0.45593999997E+02  0.45594000000E+02  0.51100000000E-03 0.  1.
         23    2    1    2    0    0  0.00000000000E+00 -0.17763568394E-14  0.00000000000E+00  0.91188000000E+02  0.91188000000E+02 0.  0.
    9900012    2    3    3    0    0 -0.21160113990E+02 -0.13607958633E+02 -0.26885871776E+02  0.54367121909E+02  0.40000086016E+02 0.  0.
         12    1    3    3    0    0  0.21160113990E+02  0.13607958633E+02  0.26885871776E+02  0.36820878091E+02  0.00000000000E+00 0. -1.
         11    1    4    4    0    0  0.12836264506E+01 -0.74831959579E+00 -0.15204085398E+02  0.15276514397E+02  0.51100000000E-03 0. -1.
        -11    1    4    4    0    0 -0.14516426214E+02 -0.80607761683E+01 -0.20443890636E+02  0.26337338648E+02  0.51100000000E-03 0.  1.
         12    1    4    4    0    0 -0.79273142265E+01 -0.47988628690E+01  0.87621042577E+01  0.12753268863E+02  0.00000000000E+00 0. -1.
</event>
<event>
 8    1  0.2501893E-006  0.9118800E+02  0.7816164E-02  0.1184000E+00
        -11   -1    0    0    0    0  0.00000000000E+00  0.00000000000E+00  0.45593999997E+02  0.45594000000E+02  0.51100000000E-03 0.  1.
         11   -1    0    0    0    0 -0.00000000000E+00 -0.00000000000E+00 -0.45593999997E+02  0.45594000000E+02  0.51100000000E-03 0. -1.
         23    2    1    2    0    0  0.35527136788E-14 -0.35527136788E-14  0.00000000000E+00  0.91188000000E+02  0.91188000000E+02 0.  0.
    9900012    2    3    3    0    0 -0.19326458071E+02  0.26948315211E+02 -0.16001728310E+02  0.54367095840E+02  0.40000026586E+02 0.  0.
        -12    1    3    3    0    0  0.19326458071E+02 -0.26948315211E+02  0.16001728310E+02  0.36820904160E+02  0.00000000000E+00 0.  1.
         11    1    4    4    0    0 -0.10437694795E+02  0.19323025966E+02 -0.16163905385E+02  0.27268968493E+02  0.51100000000E-03 0. -1.
        -11    1    4    4    0    0  0.37468260352E+01 -0.42521865630E+01 -0.64070296065E+01  0.85539362018E+01  0.51100000000E-03 0.  1.
        -12    1    4    4    0    0 -0.12635589311E+02  0.11877475808E+02  0.65692066818E+01  0.18544191145E+02  0.00000000000E+00 0.  1.
</event>
<event>
 8    1  0.2501893E-006  0.9118800E+02  0.7816164E-02  0.1184000E+00
        -11   -1    0    0    0    0  0.00000000000E+00  0.00000000000E+00  0.45593999997E+02  0.45594000000E+02  0.51100000000E-03 0.  1.
         11   -1    0    0    0    0 -0.00000000000E+00 -0.00000000000E+00 -0.45593999997E+02  0.45594000000E+02  0.51100000000E-03 0. -1.
         23    2    1    2    0    0 -0.35527136788E-14  0.00000000000E+00  0.00000000000E+00  0.91188000000E+02  0.91188000000E+02 0.  0.
    9900012    2    3    3    0    0  0.30676684858E+02  0.17425466924E+02 -0.10539193055E+02  0.54367075491E+02  0.39999980197E+02 0.  0.
         12    1    3    3    0    0 -0.30676684858E+02 -0.17425466924E+02  0.10539193055E+02  0.36820924509E+02  0.00000000000E+00 0. -1.
         11    1    4    4    0    0  0.14385121577E+02  0.19615911549E+01  0.81986794424E+01  0.16673269250E+02  0.51100000000E-03 0. -1.
        -11    1    4    4    0    0  0.12242455765E+02  0.97525175013E+00  0.16124832550E+01  0.12386643680E+02  0.51100000000E-03 0.  1.
         12    1    4    4    0    0  0.40491075166E+01  0.14488624019E+02 -0.20350355753E+02  0.25307162561E+02  0.00000000000E+00 0. -1.
</event>
<event>
 8    1  0.2501893E-006  0.9118800E+02  0.7816164E-02  0.1184000E+00
        -11   -1    0    0    0    0  0.00000000000E+00  0.00000000000E+00  0.45593999997E+02  0.45594000000E+02  0.51100000000E-03 0. -1.
         11   -1    0    0    0    0 -0.00000000000E+00 -0.00000000000E+00 -0.45593999997E+02  0.45594000000E+02  0.51100000000E-03 0.  1.
         23    2    1    2    0    0 -0.17763568394E-14  0.71054273576E-14  0.00000000000E+00  0.91188000000E+02  0.91188000000E+02 0.  0.
    9900012    2    3    3    0    0  0.12229169278E+02  0.34130103781E+02  0.64315151648E+01  0.54367069096E+02  0.39999965618E+02 0.  0.
        -12    1    3    3    0    0 -0.12229169278E+02 -0.34130103781E+02 -0.64315151648E+01  0.36820930904E+02  0.00000000000E+00 0.  1.
         11    1    4    4    0    0  0.18047349367E+02  0.30449598854E+02  0.18383473920E+02  0.39885298082E+02  0.51100000000E-03 0. -1.
        -11    1    4    4    0    0 -0.20419424703E+01 -0.69749330307E+00 -0.18497107307E+01  0.28420865589E+01  0.51100000000E-03 0.  1.
         12    1    4    4    0    0 -0.37762376181E+01  0.43779982304E+01 -0.10102248024E+02  0.11639684455E+02  0.00000000000E+00 0. -1.
</event>
<event>
 8    1  0.2501893E-006  0.9118800E+02  0.7816164E-02  0.1184000E+00
        -11   -1    0    0    0    0  0.00000000000E+00  0.00000000000E+00  0.45593999997E+02  0.45594000000E+02  0.51100000000E-03 0. -1.
         11   -1    0    0    0    0 -0.00000000000E+00 -0.00000000000E+00 -0.45593999997E+02  0.45594000000E+02  0.51100000000E-03 0.  1.
         23    2    1    2    0    0  0.17763568394E-14 -0.71054273576E-14  0.88817841970E-15  0.91188000000E+02  0.91188000000E+02 0.  0.
    9900012    2    3    3    0    0  0.14834232366E+02  0.33585305964E+02 -0.27843882748E+01  0.54367081426E+02  0.39999993727E+02 0.  0.
         12    1    3    3    0    0 -0.14834232366E+02 -0.33585305964E+02  0.27843882748E+01  0.36820918574E+02  0.00000000000E+00 0. -1.
         11    1    4    4    0    0  0.50740295202E+01  0.17284216817E+02 -0.12073774140E+02  0.21685616173E+02  0.51100000000E-03 0. -1.
        -11    1    4    4    0    0  0.45105757640E+01  0.45228316745E+00 -0.76532090571E+01  0.88950246160E+01  0.51100000000E-03 0.  1.
         12    1    4    4    0    0  0.52496270813E+01  0.15848805980E+02  0.16942594922E+02  0.23786440637E+02  0.00000000000E+00 0. -1.
</event>
<event>
 8    1  0.2501893E-006  0.9118800E+02  0.7816164E-02  0.1184000E+00
        -11   -1    0    0    0    0  0.00000000000E+00  0.00000000000E+00  0.45593999997E+02  0.45594000000E+02  0.51100000000E-03 0.  1.
         11   -1    0    0    0    0 -0.00000000000E+00 -0.00000000000E+00 -0.45593999997E+02  0.45594000000E+02  0.51100000000E-03 0. -1.
         23    2    1    2    0    0 -0.35527136788E-14  0.00000000000E+00  0.00000000000E+00  0.91188000000E+02  0.91188000000E+02 0.  0.
    9900012    2    3    3    0    0 -0.16251233012E+02  0.20497628156E+02 -0.25913872715E+02  0.54367025902E+02  0.39999867150E+02 0.  0.
        -12    1    3    3    0    0  0.16251233012E+02 -0.20497628156E+02  0.25913872715E+02  0.36820974098E+02  0.00000000000E+00 0.  1.
         11    1    4    4    0    0 -0.17240177301E+02  0.26100384101E+02 -0.98807269476E+01  0.32803696878E+02  0.51100000000E-03 0. -1.
        -11    1    4    4    0    0  0.17742824560E+01  0.10202284199E+01 -0.14598646022E+02  0.14741418188E+02  0.51100000000E-03 0.  1.
        -12    1    4    4    0    0 -0.78533816765E+00 -0.66229843655E+01 -0.14344997451E+01  0.68219108365E+01  0.00000000000E+00 0.  1.
</event>
<event>
 8    1  0.2501893E-006  0.9118800E+02  0.7816164E-02  0.1184000E+00
        -11   -1    0    0    0    0  0.00000000000E+00  0.00000000000E+00  0.45593999997E+02  0.45594000000E+02  0.51100000000E-03 0. -1.
         11   -1    0    0    0    0 -0.00000000000E+00 -0.00000000000E+00 -0.45593999997E+02  0.45594000000E+02  0.51100000000E-03 0.  1.
         23    2    1    2    0    0  0.35527136788E-14  0.35527136788E-14  0.00000000000E+00  0.91188000000E+02  0.91188000000E+02 0.  0.
    9900012    2    3    3    0    0  0.19435181067E+02  0.17539718935E+02 -0.25892308573E+02  0.54367086830E+02  0.40000006047E+02 0.  0.
         12    1    3    3    0    0 -0.19435181067E+02 -0.17539718935E+02  0.25892308573E+02  0.36820913170E+02  0.00000000000E+00 0. -1.
         11    1    4    4    0    0  0.47757785697E+01 -0.15549489201E+01 -0.45459326013E+00  0.50430727126E+01  0.51100000000E-03 0. -1.
        -11    1    4    4    0    0 -0.13164826964E+01 -0.81505019758E+00 -0.23686500214E+02  0.23737053865E+02  0.51100000000E-03 0.  1.
        -12    1    4    4    0    0  0.15975885194E+02  0.19909718053E+02 -0.17512150987E+01  0.25586960253E+02  0.00000000000E+00 0.  1.
</event>
<event>
 8    1  0.2501893E-006  0.9118800E+02  0.7816164E-02  0.1184000E+00
        -11   -1    0    0    0    0  0.00000000000E+00  0.00000000000E+00  0.45593999997E+02  0.45594000000E+02  0.51100000000E-03 0. -1.
         11   -1    0    0    0    0 -0.00000000000E+00 -0.00000000000E+00 -0.45593999997E+02  0.45594000000E+02  0.51100000000E-03 0.  1.
         23    2    1    2    0    0 -0.17763568394E-14  0.35527136788E-14  0.35527136788E-14  0.91188000000E+02  0.91188000000E+02 0.  0.
    9900012    2    3    3    0    0  0.64706956756E+01 -0.31127562903E+02 -0.18573783272E+02  0.54367075245E+02  0.39999979635E+02 0.  0.
         12    1    3    3    0    0 -0.64706956756E+01  0.31127562903E+02  0.18573783272E+02  0.36820924755E+02  0.00000000000E+00 0. -1.
         11    1    4    4    0    0 -0.72481778491E+01 -0.80828912063E+01 -0.13355812131E+02  0.17211825305E+02  0.51100000000E-03 0. -1.
        -11    1    4    4    0    0  0.48676846385E+01  0.10499604003E+01  0.71092274907E+01  0.86797399936E+01  0.51100000000E-03 0.  1.
        -12    1    4    4    0    0  0.88511888862E+01 -0.24094632097E+02 -0.12327198632E+02  0.28475509946E+02  0.00000000000E+00 0.  1.
</event>
<event>
 8    1  0.2501893E-006  0.9118800E+02  0.7816164E-02  0.1184000E+00
        -11   -1    0    0    0    0  0.00000000000E+00  0.00000000000E+00  0.45593999997E+02  0.45594000000E+02  0.51100000000E-03 0.  1.
         11   -1    0    0    0    0 -0.00000000000E+00 -0.00000000000E+00 -0.45593999997E+02  0.45594000000E+02  0.51100000000E-03 0. -1.
         23    2    1    2    0    0  0.00000000000E+00  0.35527136788E-14  0.00000000000E+00  0.91188000000E+02  0.91188000000E+02 0.  0.
    9900012    2    3    3    0    0 -0.31010522638E+02 -0.19748992596E+02 -0.20260351738E+01  0.54367081471E+02  0.39999993829E+02 0.  0.
        -12    1    3    3    0    0  0.31010522638E+02  0.19748992596E+02  0.20260351738E+01  0.36820918529E+02  0.00000000000E+00 0.  1.
         11    1    4    4    0    0 -0.13674581086E+02 -0.10354457896E+02  0.45627062621E+01  0.17749007152E+02  0.51100000000E-03 0. -1.
        -11    1    4    4    0    0 -0.25280339889E+02 -0.11064861087E+02 -0.30554982683E+01  0.27764416178E+02  0.51100000000E-03 0.  1.
        -12    1    4    4    0    0  0.79443983377E+01  0.16703263865E+01 -0.35332431677E+01  0.88536581404E+01  0.00000000000E+00 0.  1.
</event>
<event>
 8    1  0.2501893E-006  0.9118800E+02  0.7816164E-02  0.1184000E+00
        -11   -1    0    0    0    0  0.00000000000E+00  0.00000000000E+00  0.45593999997E+02  0.45594000000E+02  0.51100000000E-03 0. -1.
         11   -1    0    0    0    0 -0.00000000000E+00 -0.00000000000E+00 -0.45593999997E+02  0.45594000000E+02  0.51100000000E-03 0.  1.
         23    2    1    2    0    0  0.35527136788E-14  0.00000000000E+00  0.35527136788E-14  0.91188000000E+02  0.91188000000E+02 0.  0.
    9900012    2    3    3    0    0 -0.15778705107E+02  0.29160961972E+02 -0.16014115900E+02  0.54367066470E+02  0.39999959631E+02 0.  0.
         12    1    3    3    0    0  0.15778705107E+02 -0.29160961972E+02  0.16014115900E+02  0.36820933530E+02  0.00000000000E+00 0. -1.
         11    1    4    4    0    0  0.55090219795E+01  0.18037766491E+02 -0.18287652301E+02  0.26270678905E+02  0.51100000000E-03 0. -1.
        -11    1    4    4    0    0 -0.16914119012E+02  0.13992999563E+02 -0.91330270671E+00  0.21971016836E+02  0.51100000000E-03 0.  1.
         12    1    4    4    0    0 -0.43736080740E+01 -0.28698040822E+01  0.31868391085E+01  0.61253707283E+01  0.00000000000E+00 0. -1.
</event>
<event>
 8    1  0.2501893E-006  0.9118800E+02  0.7816164E-02  0.1184000E+00
        -11   -1    0    0    0    0  0.00000000000E+00  0.00000000000E+00  0.45593999997E+02  0.45594000000E+02  0.51100000000E-03 0.  1.
         11   -1    0    0    0    0 -0.00000000000E+00 -0.00000000000E+00 -0.45593999997E+02  0.45594000000E+02  0.51100000000E-03 0. -1.
         23    2    1    2    0    0 -0.35527136788E-14  0.00000000000E+00 -0.88817841970E-15  0.91188000000E+02  0.91188000000E+02 0.  0.
    9900012    2    3    3    0    0  0.22536035839E+02 -0.28357905638E+02  0.66133372842E+01  0.54367082663E+02  0.39999996548E+02 0.  0.
        -12    1    3    3    0    0 -0.22536035839E+02  0.28357905638E+02 -0.66133372842E+01  0.36820917337E+02  0.00000000000E+00 0.  1.
         11    1    4    4    0    0 -0.36224741838E+01 -0.32577511434E+01  0.83485720996E+00  0.49428988000E+01  0.51100000000E-03 0. -1.
        -11    1    4    4    0    0  0.18144708870E+02 -0.11503364668E+02  0.19118568543E+02  0.28758955511E+02  0.51100000000E-03 0.  1.
        -12    1    4    4    0    0  0.80138011519E+01 -0.13596789826E+02 -0.13340088469E+02  0.20665228352E+02  0.00000000000E+00 0.  1.
</event>
<event>
 8    1  0.2501893E-006  0.9118800E+02  0.7816164E-02  0.1184000E+00
        -11   -1    0    0    0    0  0.00000000000E+00  0.00000000000E+00  0.45593999997E+02  0.45594000000E+02  0.51100000000E-03 0.  1.
         11   -1    0    0    0    0 -0.00000000000E+00 -0.00000000000E+00 -0.45593999997E+02  0.45594000000E+02  0.51100000000E-03 0. -1.
         23    2    1    2    0    0  0.00000000000E+00 -0.88817841970E-15  0.35527136788E-14  0.91188000000E+02  0.91188000000E+02 0.  0.
    9900012    2    3    3    0    0 -0.19851946659E+02  0.49527771543E+01 -0.30613092241E+02  0.54366929887E+02  0.39999648262E+02 0.  0.
        -12    1    3    3    0    0  0.19851946659E+02 -0.49527771543E+01  0.30613092241E+02  0.36821070113E+02  0.00000000000E+00 0.  1.
         11    1    4    4    0    0 -0.21711534289E+02  0.49124833020E+01 -0.25234040518E+02  0.33649368709E+02  0.51100000000E-03 0. -1.
        -11    1    4    4    0    0 -0.50036826270E+01 -0.72910881285E+01 -0.59507404918E+01  0.10658710925E+02  0.51100000000E-03 0.  1.
         12    1    4    4    0    0  0.68632702561E+01  0.73313819808E+01  0.57168876896E+00  0.10058850253E+02  0.00000000000E+00 0. -1.
</event>
<event>
 8    1  0.2501893E-006  0.9118800E+02  0.7816164E-02  0.1184000E+00
        -11   -1    0    0    0    0  0.00000000000E+00  0.00000000000E+00  0.45593999997E+02  0.45594000000E+02  0.51100000000E-03 0. -1.
         11   -1    0    0    0    0 -0.00000000000E+00 -0.00000000000E+00 -0.45593999997E+02  0.45594000000E+02  0.51100000000E-03 0.  1.
         23    2    1    2    0    0  0.35527136788E-14 -0.35527136788E-14 -0.88817841970E-15  0.91188000000E+02  0.91188000000E+02 0.  0.
    9900012    2    3    3    0    0 -0.28148188377E+02 -0.22941188441E+02  0.60956660521E+01  0.54367139328E+02  0.40000125725E+02 0.  0.
         12    1    3    3    0    0  0.28148188377E+02  0.22941188441E+02 -0.60956660521E+01  0.36820860672E+02  0.00000000000E+00 0. -1.
         11    1    4    4    0    0 -0.11229941591E+02 -0.58789999832E+01  0.17739250690E+02  0.21802643056E+02  0.51100000000E-03 0. -1.
        -11    1    4    4    0    0 -0.45184176186E+01 -0.13179975167E+02 -0.13546129510E+02  0.19432587788E+02  0.51100000000E-03 0.  1.
         12    1    4    4    0    0 -0.12399829168E+02 -0.38822132913E+01  0.19025448727E+01  0.13131908484E+02  0.00000000000E+00 0. -1.
</event>
<event>
 8    1  0.2501893E-006  0.9118800E+02  0.7816164E-02  0.1184000E+00
        -11   -1    0    0    0    0  0.00000000000E+00  0.00000000000E+00  0.45593999997E+02  0.45594000000E+02  0.51100000000E-03 0. -1.
         11   -1    0    0    0    0 -0.00000000000E+00 -0.00000000000E+00 -0.45593999997E+02  0.45594000000E+02  0.51100000000E-03 0.  1.
         23    2    1    2    0    0  0.00000000000E+00  0.00000000000E+00  0.00000000000E+00  0.91188000000E+02  0.91188000000E+02 0.  0.
    9900012    2    3    3    0    0 -0.17963286069E+02  0.18227720673E+02  0.26473541436E+02  0.54367111316E+02  0.40000061867E+02 0.  0.
        -12    1    3    3    0    0  0.17963286069E+02 -0.18227720673E+02 -0.26473541436E+02  0.36820888684E+02  0.00000000000E+00 0.  1.
         11    1    4    4    0    0 -0.12175499322E+02  0.39754764499E+01  0.11937977911E+02  0.17508926684E+02  0.51100000000E-03 0. -1.
        -11    1    4    4    0    0 -0.51358826818E+01  0.16924850525E+02 -0.39884070534E+01  0.18131057534E+02  0.51100000000E-03 0.  1.
         12    1    4    4    0    0 -0.65190406519E+00 -0.26726063020E+01  0.18523970578E+02  0.18727127098E+02  0.00000000000E+00 0. -1.
</event>
<event>
 8    1  0.2501893E-006  0.9118800E+02  0.7816164E-02  0.1184000E+00
        -11   -1    0    0    0    0  0.00000000000E+00  0.00000000000E+00  0.45593999997E+02  0.45594000000E+02  0.51100000000E-03 0. -1.
         11   -1    0    0    0    0 -0.00000000000E+00 -0.00000000000E+00 -0.45593999997E+02  0.45594000000E+02  0.51100000000E-03 0.  1.
         23    2    1    2    0    0 -0.88817841970E-15  0.17763568394E-14  0.00000000000E+00  0.91188000000E+02  0.91188000000E+02 0.  0.
    9900012    2    3    3    0    0  0.71258960250E+01 -0.15512983515E+02 -0.32624383554E+02  0.54367062288E+02  0.39999950098E+02 0.  0.
         12    1    3    3    0    0 -0.71258960250E+01  0.15512983515E+02  0.32624383554E+02  0.36820937712E+02  0.00000000000E+00 0. -1.
         11    1    4    4    0    0 -0.13508127063E+02 -0.69966869648E+01 -0.15187129968E+02  0.21495861047E+02  0.51100000000E-03 0. -1.
        -11    1    4    4    0    0  0.18456860227E+02 -0.12229876796E+02 -0.10036622151E+02  0.24309655702E+02  0.51100000000E-03 0.  1.
        -12    1    4    4    0    0  0.21771628605E+01  0.37135802464E+01 -0.74006314359E+01  0.85615455391E+01  0.00000000000E+00 0.  1.
</event>
<event>
 8    1  0.2501893E-006  0.9118800E+02  0.7816164E-02  0.1184000E+00
        -11   -1    0    0    0    0  0.00000000000E+00  0.00000000000E+00  0.45593999997E+02  0.45594000000E+02  0.51100000000E-03 0.  1.
         11   -1    0    0    0    0 -0.00000000000E+00 -0.00000000000E+00 -0.45593999997E+02  0.45594000000E+02  0.51100000000E-03 0. -1.
         23    2    1    2    0    0  0.17763568394E-14  0.71054273576E-14  0.55511151231E-16  0.91188000000E+02  0.91188000000E+02 0.  0.
    9900012    2    3    3    0    0  0.15738438695E+02 -0.33286561764E+02  0.29386428831E+00  0.54367081994E+02  0.39999995021E+02 0.  0.
        -12    1    3    3    0    0 -0.15738438695E+02  0.33286561764E+02 -0.29386428831E+00  0.36820918006E+02  0.00000000000E+00 0.  1.
         11    1    4    4    0    0  0.12176348298E+02  0.18658901736E+01 -0.27801586140E+01  0.12628312880E+02  0.51100000000E-03 0. -1.
        -11    1    4    4    0    0  0.52821192980E+01 -0.11771706950E+02  0.11037318979E+02  0.16979289718E+02  0.51100000000E-03 0.  1.
         12    1    4    4    0    0 -0.17200289010E+01 -0.23380744987E+02 -0.79632960768E+01  0.24759479396E+02  0.00000000000E+00 0. -1.
</event>
<event>
 8    1  0.2501893E-006  0.9118800E+02  0.7816164E-02  0.1184000E+00
        -11   -1    0    0    0    0  0.00000000000E+00  0.00000000000E+00  0.45593999997E+02  0.45594000000E+02  0.51100000000E-03 0. -1.
         11   -1    0    0    0    0 -0.00000000000E+00 -0.00000000000E+00 -0.45593999997E+02  0.45594000000E+02  0.51100000000E-03 0.  1.
         23    2    1    2    0    0  0.00000000000E+00  0.00000000000E+00  0.00000000000E+00  0.91188000000E+02  0.91188000000E+02 0.  0.
    9900012    2    3    3    0    0  0.14658139240E+02  0.32130064301E+02  0.10420098816E+02  0.54367074736E+02  0.39999978475E+02 0.  0.
        -12    1    3    3    0    0 -0.14658139240E+02 -0.32130064301E+02 -0.10420098816E+02  0.36820925264E+02  0.00000000000E+00 0.  1.
         11    1    4    4    0    0  0.99349356025E+01  0.19509148244E+02  0.12238737711E+02  0.25081796420E+02  0.51100000000E-03 0. -1.
        -11    1    4    4    0    0 -0.90956681412E+01  0.12193179815E+02  0.71834214234E+00  0.15228947062E+02  0.51100000000E-03 0.  1.
        -12    1    4    4    0    0  0.13818871779E+02  0.42773624280E+00 -0.25369810368E+01  0.14056331254E+02  0.00000000000E+00 0.  1.
</event>
<event>
 8    1  0.2501893E-006  0.9118800E+02  0.7816164E-02  0.1184000E+00
        -11   -1    0    0    0    0  0.00000000000E+00  0.00000000000E+00  0.45593999997E+02  0.45594000000E+02  0.51100000000E-03 0. -1.
         11   -1    0    0    0    0 -0.00000000000E+00 -0.00000000000E+00 -0.45593999997E+02  0.45594000000E+02  0.51100000000E-03 0.  1.
         23    2    1    2    0    0  0.17763568394E-14 -0.35527136788E-14  0.35527136788E-14  0.91188000000E+02  0.91188000000E+02 0.  0.
    9900012    2    3    3    0    0 -0.92847062991E+01  0.21435725704E+02 -0.28461944596E+02  0.54367103790E+02  0.40000044711E+02 0.  0.
         12    1    3    3    0    0  0.92847062991E+01 -0.21435725704E+02  0.28461944596E+02  0.36820896210E+02  0.00000000000E+00 0. -1.
         11    1    4    4    0    0 -0.97648563088E+01  0.15620320600E+01 -0.31369389224E+01  0.10374620425E+02  0.51100000000E-03 0. -1.
        -11    1    4    4    0    0  0.53250637053E+01  0.24348303639E+02 -0.91942447671E+01  0.26565585456E+02  0.51100000000E-03 0.  1.
        -12    1    4    4    0    0 -0.48449136956E+01 -0.44746099947E+01 -0.16130760906E+02  0.17426897909E+02  0.00000000000E+00 0.  1.
</event>
<event>
 8    1  0.2501893E-006  0.9118800E+02  0.7816164E-02  0.1184000E+00
        -11   -1    0    0    0    0  0.00000000000E+00  0.00000000000E+00  0.45593999997E+02  0.45594000000E+02  0.51100000000E-03 0.  1.
         11   -1    0    0    0    0 -0.00000000000E+00 -0.00000000000E+00 -0.45593999997E+02  0.45594000000E+02  0.51100000000E-03 0. -1.
         23    2    1    2    0    0  0.00000000000E+00  0.00000000000E+00  0.00000000000E+00  0.91188000000E+02  0.91188000000E+02 0.  0.
    9900012    2    3    3    0    0 -0.23869648354E+01 -0.33600201689E+02  0.14869762745E+02  0.54367068470E+02  0.39999964191E+02 0.  0.
         12    1    3    3    0    0  0.23869648354E+01  0.33600201689E+02 -0.14869762745E+02  0.36820931530E+02  0.00000000000E+00 0. -1.
         11    1    4    4    0    0 -0.18463501887E+02 -0.27121070874E+02  0.50117095799E+01  0.33189917451E+02  0.51100000000E-03 0. -1.
        -11    1    4    4    0    0  0.13165743300E+02 -0.65070529477E+01  0.50001375797E+01  0.15513861891E+02  0.51100000000E-03 0.  1.
         12    1    4    4    0    0  0.29107937516E+01  0.27922132457E-01  0.48579155852E+01  0.56632891276E+01  0.00000000000E+00 0. -1.
</event>
<event>
 8    1  0.2501893E-006  0.9118800E+02  0.7816164E-02  0.1184000E+00
        -11   -1    0    0    0    0  0.00000000000E+00  0.00000000000E+00  0.45593999997E+02  0.45594000000E+02  0.51100000000E-03 0.  1.
         11   -1    0    0    0    0 -0.00000000000E+00 -0.00000000000E+00 -0.45593999997E+02  0.45594000000E+02  0.51100000000E-03 0. -1.
         23    2    1    2    0    0  0.00000000000E+00  0.00000000000E+00  0.00000000000E+00  0.91188000000E+02  0.91188000000E+02 0.  0.
    9900012    2    3    3    0    0 -0.24422072029E+02  0.15457241210E+02  0.22812631180E+02  0.54367081361E+02  0.39999993579E+02 0.  0.
         12    1    3    3    0    0  0.24422072029E+02 -0.15457241210E+02 -0.22812631180E+02  0.36820918639E+02  0.00000000000E+00 0. -1.
         11    1    4    4    0    0  0.35931518699E+01 -0.27495396040E+01  0.62570598834E+00  0.45675175576E+01  0.51100000000E-03 0. -1.
        -11    1    4    4    0    0 -0.33550512360E+02  0.12167897383E+02  0.14359786919E+02  0.38469443549E+02  0.51100000000E-03 0.  1.
        -12    1    4    4    0    0  0.55352884608E+01  0.60388834317E+01  0.78271382731E+01  0.11330120255E+02  0.00000000000E+00 0.  1.
</event>
<event>
 8    1  0.2501893E-006  0.9118800E+02  0.7816164E-02  0.1184000E+00
        -11   -1    0    0    0    0  0.00000000000E+00  0.00000000000E+00  0.45593999997E+02  0.45594000000E+02  0.51100000000E-03 0. -1.
         11   -1    0    0    0    0 -0.00000000000E+00 -0.00000000000E+00 -0.45593999997E+02  0.45594000000E+02  0.51100000000E-03 0.  1.
         23    2    1    2    0    0  0.00000000000E+00 -0.71054273576E-14 -0.17763568394E-14  0.91188000000E+02  0.91188000000E+02 0.  0.
    9900012    2    3    3    0    0 -0.57539457647E+01 -0.35635785712E+02 -0.72638640147E+01  0.54367070685E+02  0.39999969241E+02 0.  0.
        -12    1    3    3    0    0  0.57539457647E+01  0.35635785712E+02  0.72638640147E+01  0.36820929315E+02  0.00000000000E+00 0.  1.
         11    1    4    4    0    0 -0.10666006222E+02 -0.51112431757E+01 -0.12953046219E+02  0.17540521718E+02  0.51100000000E-03 0. -1.
        -11    1    4    4    0    0  0.58371938368E+01 -0.56542939837E+01 -0.52139727017E+01  0.96555364397E+01  0.51100000000E-03 0.  1.
         12    1    4    4    0    0 -0.92513337911E+00 -0.24870248553E+02  0.10903154906E+02  0.27171012527E+02  0.00000000000E+00 0. -1.
</event>
<event>
 8    1  0.2501893E-006  0.9118800E+02  0.7816164E-02  0.1184000E+00
        -11   -1    0    0    0    0  0.00000000000E+00  0.00000000000E+00  0.45593999997E+02  0.45594000000E+02  0.51100000000E-03 0.  1.
         11   -1    0    0    0    0 -0.00000000000E+00 -0.00000000000E+00 -0.45593999997E+02  0.45594000000E+02  0.51100000000E-03 0. -1.
         23    2    1    2    0    0  0.00000000000E+00 -0.88817841970E-15  0.00000000000E+00  0.91188000000E+02  0.91188000000E+02 0.  0.
    9900012    2    3    3    0    0  0.13756451780E+02 -0.61959490622E+01  0.33587951716E+02  0.54367078626E+02  0.39999987343E+02 0.  0.
         12    1    3    3    0    0 -0.13756451780E+02  0.61959490622E+01 -0.33587951716E+02  0.36820921374E+02  0.00000000000E+00 0. -1.
         11    1    4    4    0    0 -0.92625233996E+01 -0.59978477689E+01  0.16268085512E+02  0.19657546237E+02  0.51100000000E-03 0. -1.
        -11    1    4    4    0    0 -0.13935095479E+01 -0.27172430361E+01  0.78162189855E+01  0.83915766139E+01  0.51100000000E-03 0.  1.
         12    1    4    4    0    0  0.24412484728E+02  0.25191417427E+01  0.95036472186E+01  0.26317955775E+02  0.00000000000E+00 0. -1.
</event>
<event>
 8    1  0.2501893E-006  0.9118800E+02  0.7816164E-02  0.1184000E+00
        -11   -1    0    0    0    0  0.00000000000E+00  0.00000000000E+00  0.45593999997E+02  0.45594000000E+02  0.51100000000E-03 0. -1.
         11   -1    0    0    0    0 -0.00000000000E+00 -0.00000000000E+00 -0.45593999997E+02  0.45594000000E+02  0.51100000000E-03 0.  1.
         23    2    1    2    0    0  0.17763568394E-14  0.35527136788E-14 -0.71054273576E-14  0.91188000000E+02  0.91188000000E+02 0.  0.
    9900012    2    3    3    0    0 -0.12942152319E+02 -0.21125096972E+02  0.27239972136E+02  0.54367012632E+02  0.39999836898E+02 0.  0.
         12    1    3    3    0    0  0.12942152319E+02  0.21125096972E+02 -0.27239972136E+02  0.36820987368E+02  0.00000000000E+00 0. -1.
         11    1    4    4    0    0  0.10408290660E+02 -0.57218693188E+01  0.85103595481E+01  0.14611588650E+02  0.51100000000E-03 0. -1.
        -11    1    4    4    0    0 -0.74097552388E+00  0.47325200701E+01  0.26529567154E+01  0.54757620963E+01  0.51100000000E-03 0.  1.
        -12    1    4    4    0    0 -0.22609467455E+02 -0.20135747723E+02  0.16076655873E+02  0.34279661886E+02  0.00000000000E+00 0.  1.
</event>
<event>
 8    1  0.2501893E-006  0.9118800E+02  0.7816164E-02  0.1184000E+00
        -11   -1    0    0    0    0  0.00000000000E+00  0.00000000000E+00  0.45593999997E+02  0.45594000000E+02  0.51100000000E-03 0.  1.
         11   -1    0    0    0    0 -0.00000000000E+00 -0.00000000000E+00 -0.45593999997E+02  0.45594000000E+02  0.51100000000E-03 0. -1.
         23    2    1    2    0    0 -0.66613381478E-15  0.00000000000E+00  0.00000000000E+00  0.91188000000E+02  0.91188000000E+02 0.  0.
    9900012    2    3    3    0    0  0.13636069907E+01 -0.23963309390E+02 -0.27922741336E+02  0.54367094190E+02  0.40000022825E+02 0.  0.
        -12    1    3    3    0    0 -0.13636069907E+01  0.23963309390E+02  0.27922741336E+02  0.36820905810E+02  0.00000000000E+00 0.  1.
         11    1    4    4    0    0 -0.69652071261E+01 -0.26538040244E+02 -0.16949215241E+02  0.32249923842E+02  0.51100000000E-03 0. -1.
        -11    1    4    4    0    0  0.46044188959E+01 -0.32220411269E+00  0.41916397551E+01  0.62349284645E+01  0.51100000000E-03 0.  1.
         12    1    4    4    0    0  0.37243952209E+01  0.28969349667E+01 -0.15165165851E+02  0.15882241883E+02  0.00000000000E+00 0. -1.
</event>
<event>
 8    1  0.2501893E-006  0.9118800E+02  0.7816164E-02  0.1184000E+00
        -11   -1    0    0    0    0  0.00000000000E+00  0.00000000000E+00  0.45593999997E+02  0.45594000000E+02  0.51100000000E-03 0. -1.
         11   -1    0    0    0    0 -0.00000000000E+00 -0.00000000000E+00 -0.45593999997E+02  0.45594000000E+02  0.51100000000E-03 0.  1.
         23    2    1    2    0    0  0.17763568394E-14  0.88817841970E-15  0.00000000000E+00  0.91188000000E+02  0.91188000000E+02 0.  0.
    9900012    2    3    3    0    0  0.14627679823E+02  0.74585784219E+01 -0.32957276628E+02  0.54367061775E+02  0.39999948928E+02 0.  0.
         12    1    3    3    0    0 -0.14627679823E+02 -0.74585784219E+01  0.32957276628E+02  0.36820938225E+02  0.00000000000E+00 0. -1.
         11    1    4    4    0    0  0.20685946723E+02  0.10292519572E+02 -0.12434434047E+02  0.26238511796E+02  0.51100000000E-03 0. -1.
        -11    1    4    4    0    0 -0.89218508038E+00  0.50705823916E+01  0.40958626746E+00  0.51647421213E+01  0.51100000000E-03 0.  1.
        -12    1    4    4    0    0 -0.51660818198E+01 -0.79045235419E+01 -0.20932428849E+02  0.22963807857E+02  0.00000000000E+00 0.  1.
</event>
<event>
 8    1  0.2501893E-006  0.9118800E+02  0.7816164E-02  0.1184000E+00
        -11   -1    0    0    0    0  0.00000000000E+00  0.00000000000E+00  0.45593999997E+02  0.45594000000E+02  0.51100000000E-03 0.  1.
         11   -1    0    0    0    0 -0.00000000000E+00 -0.00000000000E+00 -0.45593999997E+02  0.45594000000E+02  0.51100000000E-03 0. -1.
         23    2    1    2    0    0  0.00000000000E+00 -0.17763568394E-14  0.00000000000E+00  0.91188000000E+02  0.91188000000E+02 0.  0.
    9900012    2    3    3    0    0 -0.17459481628E+02 -0.63197433708E+01 -0.31796336649E+02  0.54367086388E+02  0.40000005038E+02 0.  0.
        -12    1    3    3    0    0  0.17459481628E+02  0.63197433708E+01  0.31796336649E+02  0.36820913612E+02  0.00000000000E+00 0.  1.
         11    1    4    4    0    0 -0.85178084059E+01 -0.63782444683E+00 -0.34034647115E+02  0.35090128021E+02  0.51100000000E-03 0. -1.
        -11    1    4    4    0    0 -0.57127063497E+01  0.69986252118E+00  0.81641149321E+01  0.99888735237E+01  0.51100000000E-03 0.  1.
         12    1    4    4    0    0 -0.32289668723E+01 -0.63817814452E+01 -0.59258044658E+01  0.92880848426E+01  0.00000000000E+00 0. -1.
</event>
<event>
 8    1  0.2501893E-006  0.9118800E+02  0.7816164E-02  0.1184000E+00
        -11   -1    0    0    0    0  0.00000000000E+00  0.00000000000E+00  0.45593999997E+02  0.45594000000E+02  0.51100000000E-03 0.  1.
         11   -1    0    0    0    0 -0.00000000000E+00 -0.00000000000E+00 -0.45593999997E+02  0.45594000000E+02  0.51100000000E-03 0. -1.
         23    2    1    2    0    0  0.00000000000E+00  0.35527136788E-14  0.00000000000E+00  0.91188000000E+02  0.91188000000E+02 0.  0.
    9900012    2    3    3    0    0 -0.97960335706E+01  0.16051932004E+02 -0.31656803320E+02  0.54367082151E+02  0.39999995380E+02 0.  0.
        -12    1    3    3    0    0  0.97960335706E+01 -0.16051932004E+02  0.31656803320E+02  0.36820917849E+02  0.00000000000E+00 0.  1.
         11    1    4    4    0    0 -0.13546236988E+02  0.80096818663E+01 -0.32605976158E+02  0.36205044146E+02  0.51100000000E-03 0. -1.
        -11    1    4    4    0    0  0.37444074668E+01 -0.41553380771E+01  0.19494719705E+01  0.59235009105E+01  0.51100000000E-03 0.  1.
         12    1    4    4    0    0  0.57959505025E-02  0.12197588215E+02 -0.10002991320E+01  0.12238537094E+02  0.00000000000E+00 0. -1.
</event>
<event>
 8    1  0.2501893E-006  0.9118800E+02  0.7816164E-02  0.1184000E+00
        -11   -1    0    0    0    0  0.00000000000E+00  0.00000000000E+00  0.45593999997E+02  0.45594000000E+02  0.51100000000E-03 0. -1.
         11   -1    0    0    0    0 -0.00000000000E+00 -0.00000000000E+00 -0.45593999997E+02  0.45594000000E+02  0.51100000000E-03 0.  1.
         23    2    1    2    0    0  0.00000000000E+00  0.00000000000E+00  0.00000000000E+00  0.91188000000E+02  0.91188000000E+02 0.  0.
    9900012    2    3    3    0    0  0.18120636426E+02 -0.14681980323E+02 -0.28493192666E+02  0.54367081502E+02  0.39999993901E+02 0.  0.
         12    1    3    3    0    0 -0.18120636426E+02  0.14681980323E+02  0.28493192666E+02  0.36820918498E+02  0.00000000000E+00 0. -1.
         11    1    4    4    0    0  0.14959692597E+02 -0.33148146993E+01 -0.21914973741E+02  0.26740352904E+02  0.51100000000E-03 0. -1.
        -11    1    4    4    0    0  0.10488447915E+02 -0.83341016487E+00 -0.98196788490E+01  0.14391949317E+02  0.51100000000E-03 0.  1.
         12    1    4    4    0    0 -0.73275040857E+01 -0.10533755459E+02  0.32414599243E+01  0.13234779282E+02  0.00000000000E+00 0. -1.
</event>
<event>
 8    1  0.2501893E-006  0.9118800E+02  0.7816164E-02  0.1184000E+00
        -11   -1    0    0    0    0  0.00000000000E+00  0.00000000000E+00  0.45593999997E+02  0.45594000000E+02  0.51100000000E-03 0. -1.
         11   -1    0    0    0    0 -0.00000000000E+00 -0.00000000000E+00 -0.45593999997E+02  0.45594000000E+02  0.51100000000E-03 0.  1.
         23    2    1    2    0    0 -0.35527136788E-14  0.88817841970E-15  0.00000000000E+00  0.91188000000E+02  0.91188000000E+02 0.  0.
    9900012    2    3    3    0    0 -0.27468605524E+02  0.52400735904E+01 -0.23954064189E+02  0.54367084044E+02  0.39999999695E+02 0.  0.
         12    1    3    3    0    0  0.27468605524E+02 -0.52400735904E+01  0.23954064189E+02  0.36820915956E+02  0.00000000000E+00 0. -1.
         11    1    4    4    0    0  0.54473649924E+01 -0.30503957052E+01  0.21276660314E+01  0.65958822246E+01  0.51100000000E-03 0. -1.
        -11    1    4    4    0    0  0.30716884035E+01  0.12902663481E+01 -0.26921301643E+01  0.42834124224E+01  0.51100000000E-03 0.  1.
        -12    1    4    4    0    0 -0.35987658920E+02  0.70002029475E+01 -0.23389600056E+02  0.43487789397E+02  0.00000000000E+00 0.  1.
</event>
<event>
 8    1  0.2501893E-006  0.9118800E+02  0.7816164E-02  0.1184000E+00
        -11   -1    0    0    0    0  0.00000000000E+00  0.00000000000E+00  0.45593999997E+02  0.45594000000E+02  0.51100000000E-03 0. -1.
         11   -1    0    0    0    0 -0.00000000000E+00 -0.00000000000E+00 -0.45593999997E+02  0.45594000000E+02  0.51100000000E-03 0.  1.
         23    2    1    2    0    0 -0.35527136788E-14  0.35527136788E-14  0.00000000000E+00  0.91188000000E+02  0.91188000000E+02 0.  0.
    9900012    2    3    3    0    0 -0.23567301169E+02 -0.20806904237E+02  0.19168506733E+02  0.54367128219E+02  0.40000100402E+02 0.  0.
        -12    1    3    3    0    0  0.23567301169E+02  0.20806904237E+02 -0.19168506733E+02  0.36820871781E+02  0.00000000000E+00 0.  1.
         11    1    4    4    0    0  0.23767582137E+01 -0.16646334212E+02  0.10379046821E+02  0.19760415873E+02  0.51100000000E-03 0. -1.
        -11    1    4    4    0    0 -0.31750855745E+01  0.16379122513E+01  0.10458409484E+02  0.11051798684E+02  0.51100000000E-03 0.  1.
        -12    1    4    4    0    0 -0.22768973808E+02 -0.57984822762E+01 -0.16689495722E+01  0.23554913663E+02  0.00000000000E+00 0.  1.
</event>
<event>
 8    1  0.2501893E-006  0.9118800E+02  0.7816164E-02  0.1184000E+00
        -11   -1    0    0    0    0  0.00000000000E+00  0.00000000000E+00  0.45593999997E+02  0.45594000000E+02  0.51100000000E-03 0. -1.
         11   -1    0    0    0    0 -0.00000000000E+00 -0.00000000000E+00 -0.45593999997E+02  0.45594000000E+02  0.51100000000E-03 0.  1.
         23    2    1    2    0    0 -0.35527136788E-14  0.35527136788E-14 -0.17763568394E-14  0.91188000000E+02  0.91188000000E+02 0.  0.
    9900012    2    3    3    0    0  0.27704576817E+02 -0.18684002142E+02 -0.15464296412E+02  0.54367082356E+02  0.39999995847E+02 0.  0.
        -12    1    3    3    0    0 -0.27704576817E+02  0.18684002142E+02  0.15464296412E+02  0.36820917644E+02  0.00000000000E+00 0.  1.
         11    1    4    4    0    0 -0.35746480436E+00 -0.29094408969E+01  0.15759899527E+01  0.33281183890E+01  0.51100000000E-03 0. -1.
        -11    1    4    4    0    0  0.89661335648E+01  0.42196400007E+01 -0.20892760542E+02  0.23123675231E+02  0.51100000000E-03 0.  1.
        -12    1    4    4    0    0  0.19095908056E+02 -0.19994201246E+02  0.38524741778E+01  0.27915288736E+02  0.00000000000E+00 0.  1.
</event>
<event>
 8    1  0.2501893E-006  0.9118800E+02  0.7816164E-02  0.1184000E+00
        -11   -1    0    0    0    0  0.00000000000E+00  0.00000000000E+00  0.45593999997E+02  0.45594000000E+02  0.51100000000E-03 0.  1.
         11   -1    0    0    0    0 -0.00000000000E+00 -0.00000000000E+00 -0.45593999997E+02  0.45594000000E+02  0.51100000000E-03 0. -1.
         23    2    1    2    0    0  0.00000000000E+00  0.00000000000E+00  0.17763568394E-14  0.91188000000E+02  0.91188000000E+02 0.  0.
    9900012    2    3    3    0    0 -0.28905095468E+02  0.18901902752E+02 -0.12766926370E+02  0.54367070075E+02  0.39999967849E+02 0.  0.
        -12    1    3    3    0    0  0.28905095468E+02 -0.18901902752E+02  0.12766926370E+02  0.36820929925E+02  0.00000000000E+00 0.  1.
         11    1    4    4    0    0 -0.22594027477E+02  0.20213792627E+02 -0.15384609187E+02  0.33996671750E+02  0.51100000000E-03 0.  1.
        -11    1    4    4    0    0  0.13133125536E+01  0.50891183419E+01 -0.54390650124E+01  0.75635536510E+01  0.51100000000E-03 0. -1.
        -12    1    4    4    0    0 -0.76243805446E+01 -0.64010082170E+01  0.80567478304E+01  0.12806844673E+02  0.00000000000E+00 0.  1.
</event>
<event>
 8    1  0.2501893E-006  0.9118800E+02  0.7816164E-02  0.1184000E+00
        -11   -1    0    0    0    0  0.00000000000E+00  0.00000000000E+00  0.45593999997E+02  0.45594000000E+02  0.51100000000E-03 0. -1.
         11   -1    0    0    0    0 -0.00000000000E+00 -0.00000000000E+00 -0.45593999997E+02  0.45594000000E+02  0.51100000000E-03 0.  1.
         23    2    1    2    0    0  0.00000000000E+00  0.00000000000E+00 -0.35527136788E-14  0.91188000000E+02  0.91188000000E+02 0.  0.
    9900012    2    3    3    0    0  0.10932652725E+02 -0.27518345610E+02  0.21886021697E+02  0.54367079500E+02  0.39999989336E+02 0.  0.
        -12    1    3    3    0    0 -0.10932652725E+02  0.27518345610E+02 -0.21886021697E+02  0.36820920500E+02  0.00000000000E+00 0.  1.
         11    1    4    4    0    0 -0.94293517064E+00 -0.27490781792E+02  0.14343612646E+02  0.31022112022E+02  0.51100000000E-03 0. -1.
        -11    1    4    4    0    0  0.73888908537E+01 -0.74516500940E+01 -0.17433561338E+01  0.10637767061E+02  0.51100000000E-03 0.  1.
         12    1    4    4    0    0  0.44866970420E+01  0.74240862760E+01  0.92857651848E+01  0.12707200417E+02  0.00000000000E+00 0. -1.
</event>
<event>
 8    1  0.2501893E-006  0.9118800E+02  0.7816164E-02  0.1184000E+00
        -11   -1    0    0    0    0  0.00000000000E+00  0.00000000000E+00  0.45593999997E+02  0.45594000000E+02  0.51100000000E-03 0.  1.
         11   -1    0    0    0    0 -0.00000000000E+00 -0.00000000000E+00 -0.45593999997E+02  0.45594000000E+02  0.51100000000E-03 0. -1.
         23    2    1    2    0    0  0.35527136788E-14 -0.17763568394E-14 -0.35527136788E-14  0.91188000000E+02  0.91188000000E+02 0.  0.
    9900012    2    3    3    0    0 -0.19707839661E+02  0.14301282540E+02  0.27619819988E+02  0.54367080911E+02  0.39999992552E+02 0.  0.
         12    1    3    3    0    0  0.19707839661E+02 -0.14301282540E+02 -0.27619819988E+02  0.36820919089E+02  0.00000000000E+00 0. -1.
         11    1    4    4    0    0 -0.14210066341E+02  0.13193307199E+02  0.13321077373E+02  0.23525314937E+02  0.51100000000E-03 0. -1.
        -11    1    4    4    0    0 -0.40901880532E+01  0.62206241754E+01  0.21009003480E+02  0.22289101169E+02  0.51100000000E-03 0.  1.
         12    1    4    4    0    0 -0.14075852664E+01 -0.51126488343E+01 -0.67102608646E+01  0.85526648044E+01  0.00000000000E+00 0. -1.
</event>
<event>
 8    1  0.2501893E-006  0.9118800E+02  0.7816164E-02  0.1184000E+00
        -11   -1    0    0    0    0  0.00000000000E+00  0.00000000000E+00  0.45593999997E+02  0.45594000000E+02  0.51100000000E-03 0.  1.
         11   -1    0    0    0    0 -0.00000000000E+00 -0.00000000000E+00 -0.45593999997E+02  0.45594000000E+02  0.51100000000E-03 0. -1.
         23    2    1    2    0    0  0.17763568394E-14  0.00000000000E+00  0.00000000000E+00  0.91188000000E+02  0.91188000000E+02 0.  0.
    9900012    2    3    3    0    0  0.12091346876E+02 -0.30494924131E+02  0.16722438172E+02  0.54367068379E+02  0.39999963984E+02 0.  0.
         12    1    3    3    0    0 -0.12091346876E+02  0.30494924131E+02 -0.16722438172E+02  0.36820931621E+02  0.00000000000E+00 0. -1.
         11    1    4    4    0    0  0.83440365762E+01 -0.14594783769E+02  0.10762660925E+02  0.19961601391E+02  0.51100000000E-03 0. -1.
        -11    1    4    4    0    0  0.90752026336E+01 -0.18491876951E+02  0.13640050014E+02  0.24705460543E+02  0.51100000000E-03 0.  1.
         12    1    4    4    0    0 -0.53278923337E+01  0.25917365886E+01 -0.76802727669E+01  0.97000064453E+01  0.00000000000E+00 0. -1.
</event>
<event>
 8    1  0.2501893E-006  0.9118800E+02  0.7816164E-02  0.1184000E+00
        -11   -1    0    0    0    0  0.00000000000E+00  0.00000000000E+00  0.45593999997E+02  0.45594000000E+02  0.51100000000E-03 0.  1.
         11   -1    0    0    0    0 -0.00000000000E+00 -0.00000000000E+00 -0.45593999997E+02  0.45594000000E+02  0.51100000000E-03 0. -1.
         23    2    1    2    0    0  0.35527136788E-14  0.35527136788E-14  0.35527136788E-14  0.91188000000E+02  0.91188000000E+02 0.  0.
    9900012    2    3    3    0    0  0.24702148839E+02  0.17970073918E+02  0.20558742904E+02  0.54367059984E+02  0.39999944845E+02 0.  0.
         12    1    3    3    0    0 -0.24702148839E+02 -0.17970073918E+02 -0.20558742904E+02  0.36820940016E+02  0.00000000000E+00 0. -1.
         11    1    4    4    0    0  0.10340314585E+02  0.41726149399E+01 -0.94729736668E+01  0.14631132954E+02  0.51100000000E-03 0. -1.
        -11    1    4    4    0    0  0.55729529384E+01  0.89003969868E+01  0.30435011403E+01  0.10933332997E+02  0.51100000000E-03 0.  1.
        -12    1    4    4    0    0  0.87888813152E+01  0.48970619916E+01  0.26988215430E+02  0.28802594033E+02  0.00000000000E+00 0.  1.
</event>
<event>
 8    1  0.2501893E-006  0.9118800E+02  0.7816164E-02  0.1184000E+00
        -11   -1    0    0    0    0  0.00000000000E+00  0.00000000000E+00  0.45593999997E+02  0.45594000000E+02  0.51100000000E-03 0. -1.
         11   -1    0    0    0    0 -0.00000000000E+00 -0.00000000000E+00 -0.45593999997E+02  0.45594000000E+02  0.51100000000E-03 0.  1.
         23    2    1    2    0    0  0.00000000000E+00  0.35527136788E-14  0.00000000000E+00  0.91188000000E+02  0.91188000000E+02 0.  0.
    9900012    2    3    3    0    0  0.25624016022E+02 -0.17524764688E+02  0.19800720096E+02  0.54367135116E+02  0.40000116124E+02 0.  0.
        -12    1    3    3    0    0 -0.25624016022E+02  0.17524764688E+02 -0.19800720096E+02  0.36820864884E+02  0.00000000000E+00 0.  1.
         11    1    4    4    0    0  0.27033209286E+02 -0.16666075772E+02  0.18050194253E+02  0.36528920032E+02  0.51100000000E-03 0. -1.
        -11    1    4    4    0    0 -0.56283430027E+01 -0.24506222330E+01 -0.61828776235E+01  0.87127360945E+01  0.51100000000E-03 0.  1.
        -12    1    4    4    0    0  0.42191497394E+01  0.15919333170E+01  0.79334034670E+01  0.91254789890E+01  0.00000000000E+00 0.  1.
</event>
<event>
 8    1  0.2501893E-006  0.9118800E+02  0.7816164E-02  0.1184000E+00
        -11   -1    0    0    0    0  0.00000000000E+00  0.00000000000E+00  0.45593999997E+02  0.45594000000E+02  0.51100000000E-03 0.  1.
         11   -1    0    0    0    0 -0.00000000000E+00 -0.00000000000E+00 -0.45593999997E+02  0.45594000000E+02  0.51100000000E-03 0. -1.
         23    2    1    2    0    0 -0.35527136788E-14  0.35527136788E-14  0.00000000000E+00  0.91188000000E+02  0.91188000000E+02 0.  0.
    9900012    2    3    3    0    0 -0.20075671007E+02  0.18478596938E+02 -0.24724252669E+02  0.54367085003E+02  0.40000001882E+02 0.  0.
        -12    1    3    3    0    0  0.20075671007E+02 -0.18478596938E+02  0.24724252669E+02  0.36820914997E+02  0.00000000000E+00 0.  1.
         11    1    4    4    0    0 -0.31547880868E+01  0.10269250067E+02 -0.52245464644E+01  0.11945964625E+02  0.51100000000E-03 0. -1.
        -11    1    4    4    0    0 -0.20652425731E+01 -0.87934387387E+01 -0.17575614797E+02  0.19760871122E+02  0.51100000000E-03 0.  1.
        -12    1    4    4    0    0 -0.14855640347E+02  0.17002785610E+02 -0.19240914070E+01  0.22660249256E+02  0.00000000000E+00 0.  1.
</event>
<event>
 8    1  0.2501893E-006  0.9118800E+02  0.7816164E-02  0.1184000E+00
        -11   -1    0    0    0    0  0.00000000000E+00  0.00000000000E+00  0.45593999997E+02  0.45594000000E+02  0.51100000000E-03 0.  1.
         11   -1    0    0    0    0 -0.00000000000E+00 -0.00000000000E+00 -0.45593999997E+02  0.45594000000E+02  0.51100000000E-03 0. -1.
         23    2    1    2    0    0  0.17763568394E-14 -0.44408920985E-15  0.00000000000E+00  0.91188000000E+02  0.91188000000E+02 0.  0.
    9900012    2    3    3    0    0 -0.12176790527E+02  0.33521417640E+01 -0.34587122966E+02  0.54367079901E+02  0.39999990249E+02 0.  0.
        -12    1    3    3    0    0  0.12176790527E+02 -0.33521417640E+01  0.34587122966E+02  0.36820920099E+02  0.00000000000E+00 0.  1.
         11    1    4    4    0    0  0.90772863251E+01  0.17843509532E+01 -0.16106946241E+02  0.18574572750E+02  0.51100000000E-03 0. -1.
        -11    1    4    4    0    0  0.50251460681E+00  0.45395332967E+01  0.26818313481E+01  0.52964236162E+01  0.51100000000E-03 0.  1.
         12    1    4    4    0    0 -0.21756591458E+02 -0.29717424859E+01 -0.21162008072E+02  0.30496083535E+02  0.00000000000E+00 0. -1.
</event>
<event>
 8    1  0.2501893E-006  0.9118800E+02  0.7816164E-02  0.1184000E+00
        -11   -1    0    0    0    0  0.00000000000E+00  0.00000000000E+00  0.45593999997E+02  0.45594000000E+02  0.51100000000E-03 0.  1.
         11   -1    0    0    0    0 -0.00000000000E+00 -0.00000000000E+00 -0.45593999997E+02  0.45594000000E+02  0.51100000000E-03 0. -1.
         23    2    1    2    0    0  0.00000000000E+00  0.00000000000E+00  0.00000000000E+00  0.91188000000E+02  0.91188000000E+02 0.  0.
    9900012    2    3    3    0    0 -0.32239176608E+02  0.17706497280E+02 -0.17015673056E+01  0.54367083586E+02  0.39999998651E+02 0.  0.
        -12    1    3    3    0    0  0.32239176608E+02 -0.17706497280E+02  0.17015673056E+01  0.36820916414E+02  0.00000000000E+00 0.  1.
         11    1    4    4    0    0 -0.90584814319E+01  0.13237778430E+02 -0.10024404900E+02  0.18915167392E+02  0.51100000000E-03 0. -1.
        -11    1    4    4    0    0  0.36466135412E+01  0.28522963270E+01 -0.37798084906E+01  0.59766493240E+01  0.51100000000E-03 0.  1.
         12    1    4    4    0    0 -0.26827308717E+02  0.16164225227E+01  0.12102646085E+02  0.29475266870E+02  0.00000000000E+00 0. -1.
</event>
<event>
 8    1  0.2501893E-006  0.9118800E+02  0.7816164E-02  0.1184000E+00
        -11   -1    0    0    0    0  0.00000000000E+00  0.00000000000E+00  0.45593999997E+02  0.45594000000E+02  0.51100000000E-03 0. -1.
         11   -1    0    0    0    0 -0.00000000000E+00 -0.00000000000E+00 -0.45593999997E+02  0.45594000000E+02  0.51100000000E-03 0.  1.
         23    2    1    2    0    0  0.35527136788E-14  0.00000000000E+00 -0.35527136788E-14  0.91188000000E+02  0.91188000000E+02 0.  0.
    9900012    2    3    3    0    0 -0.15322373672E+02  0.31420545745E+02  0.11565181453E+02  0.54367092191E+02  0.40000018268E+02 0.  0.
        -12    1    3    3    0    0  0.15322373672E+02 -0.31420545745E+02 -0.11565181453E+02  0.36820907809E+02  0.00000000000E+00 0.  1.
         11    1    4    4    0    0  0.74185299795E+01  0.74334832625E-01 -0.16696501996E+01  0.76044621621E+01  0.51100000000E-03 0. -1.
        -11    1    4    4    0    0  0.64610546823E+00 -0.31133855353E+01  0.54663071422E+00  0.32263643883E+01  0.51100000000E-03 0.  1.
         12    1    4    4    0    0 -0.23387009120E+02  0.34459596447E+02  0.12688200939E+02  0.43536265641E+02  0.00000000000E+00 0. -1.
</event>
<event>
 8    1  0.2501893E-006  0.9118800E+02  0.7816164E-02  0.1184000E+00
        -11   -1    0    0    0    0  0.00000000000E+00  0.00000000000E+00  0.45593999997E+02  0.45594000000E+02  0.51100000000E-03 0.  1.
         11   -1    0    0    0    0 -0.00000000000E+00 -0.00000000000E+00 -0.45593999997E+02  0.45594000000E+02  0.51100000000E-03 0. -1.
         23    2    1    2    0    0  0.00000000000E+00 -0.35527136788E-14  0.00000000000E+00  0.91188000000E+02  0.91188000000E+02 0.  0.
    9900012    2    3    3    0    0  0.18591757137E+02 -0.30177142902E+02 -0.99732882959E+01  0.54367083844E+02  0.39999999238E+02 0.  0.
        -12    1    3    3    0    0 -0.18591757137E+02  0.30177142902E+02  0.99732882959E+01  0.36820916156E+02  0.00000000000E+00 0.  1.
         11    1    4    4    0    0 -0.57739598455E+01  0.43222394255E+00  0.16970345707E+01  0.60336851450E+01  0.51100000000E-03 0. -1.
        -11    1    4    4    0    0  0.17080977514E+02 -0.24084120944E+02  0.40666585418E+01  0.29805073167E+02  0.51100000000E-03 0.  1.
         12    1    4    4    0    0  0.72847394682E+01 -0.65252459000E+01 -0.15736981408E+02  0.18528325532E+02  0.00000000000E+00 0. -1.
</event>
<event>
 8    1  0.2501893E-006  0.9118800E+02  0.7816164E-02  0.1184000E+00
        -11   -1    0    0    0    0  0.00000000000E+00  0.00000000000E+00  0.45593999997E+02  0.45594000000E+02  0.51100000000E-03 0. -1.
         11   -1    0    0    0    0 -0.00000000000E+00 -0.00000000000E+00 -0.45593999997E+02  0.45594000000E+02  0.51100000000E-03 0.  1.
         23    2    1    2    0    0 -0.44408920985E-15  0.88817841970E-15  0.00000000000E+00  0.91188000000E+02  0.91188000000E+02 0.  0.
    9900012    2    3    3    0    0 -0.36034603233E+01  0.45965261865E+01 -0.36354733276E+02  0.54367087316E+02  0.40000007154E+02 0.  0.
         12    1    3    3    0    0  0.36034603233E+01 -0.45965261865E+01  0.36354733276E+02  0.36820912684E+02  0.00000000000E+00 0. -1.
         11    1    4    4    0    0  0.71402254307E+01 -0.58948627574E+01  0.30974943679E+01  0.97635392021E+01  0.51100000000E-03 0. -1.
        -11    1    4    4    0    0 -0.19114573493E+01  0.10843160709E+02 -0.28345369813E+02  0.30408679574E+02  0.51100000000E-03 0.  1.
        -12    1    4    4    0    0 -0.88322284047E+01 -0.35177176519E+00 -0.11106857831E+02  0.14194868540E+02  0.00000000000E+00 0.  1.
</event>
<event>
 8    1  0.2501893E-006  0.9118800E+02  0.7816164E-02  0.1184000E+00
        -11   -1    0    0    0    0  0.00000000000E+00  0.00000000000E+00  0.45593999997E+02  0.45594000000E+02  0.51100000000E-03 0. -1.
         11   -1    0    0    0    0 -0.00000000000E+00 -0.00000000000E+00 -0.45593999997E+02  0.45594000000E+02  0.51100000000E-03 0.  1.
         23    2    1    2    0    0  0.35527136788E-14 -0.35527136788E-14  0.00000000000E+00  0.91188000000E+02  0.91188000000E+02 0.  0.
    9900012    2    3    3    0    0 -0.25343814416E+02 -0.24497364993E+02 -0.10646556779E+02  0.54367095720E+02  0.40000026314E+02 0.  0.
         12    1    3    3    0    0  0.25343814416E+02  0.24497364993E+02  0.10646556779E+02  0.36820904280E+02  0.00000000000E+00 0. -1.
         11    1    4    4    0    0  0.25555357510E+01  0.53517772740E+01 -0.14329755210E+01  0.61012869192E+01  0.51100000000E-03 0. -1.
        -11    1    4    4    0    0 -0.87860200508E+01 -0.14574877729E+02  0.75389183634E+01  0.18613341976E+02  0.51100000000E-03 0.  1.
         12    1    4    4    0    0 -0.19113330116E+02 -0.15274264538E+02 -0.16752499621E+02  0.29652466826E+02  0.00000000000E+00 0. -1.
</event>
<event>
 8    1  0.2501893E-006  0.9118800E+02  0.7816164E-02  0.1184000E+00
        -11   -1    0    0    0    0  0.00000000000E+00  0.00000000000E+00  0.45593999997E+02  0.45594000000E+02  0.51100000000E-03 0. -1.
         11   -1    0    0    0    0 -0.00000000000E+00 -0.00000000000E+00 -0.45593999997E+02  0.45594000000E+02  0.51100000000E-03 0.  1.
         23    2    1    2    0    0  0.00000000000E+00  0.00000000000E+00  0.26645352591E-14  0.91188000000E+02  0.91188000000E+02 0.  0.
    9900012    2    3    3    0    0 -0.32774741226E+02  0.15383688618E+02  0.67037936906E+01  0.54367049608E+02  0.39999921192E+02 0.  0.
        -12    1    3    3    0    0  0.32774741226E+02 -0.15383688618E+02 -0.67037936906E+01  0.36820950392E+02  0.00000000000E+00 0.  1.
         11    1    4    4    0    0 -0.63220395727E+01 -0.14250774420E+00  0.12651000240E+02  0.14143418969E+02  0.51100000000E-03 0. -1.
        -11    1    4    4    0    0 -0.13063561959E+02  0.77134901114E+01 -0.15761302596E+02  0.21876316887E+02  0.51100000000E-03 0.  1.
        -12    1    4    4    0    0 -0.13389139694E+02  0.78127062512E+01  0.98140960465E+01  0.18347313752E+02  0.00000000000E+00 0.  1.
</event>
<event>
 8    1  0.2501893E-006  0.9118800E+02  0.7816164E-02  0.1184000E+00
        -11   -1    0    0    0    0  0.00000000000E+00  0.00000000000E+00  0.45593999997E+02  0.45594000000E+02  0.51100000000E-03 0. -1.
         11   -1    0    0    0    0 -0.00000000000E+00 -0.00000000000E+00 -0.45593999997E+02  0.45594000000E+02  0.51100000000E-03 0.  1.
         23    2    1    2    0    0  0.71054273576E-14  0.00000000000E+00  0.17763568394E-14  0.91188000000E+02  0.91188000000E+02 0.  0.
    9900012    2    3    3    0    0 -0.21495292948E+02 -0.28087128240E+02 -0.10239359504E+02  0.54367097312E+02  0.40000029942E+02 0.  0.
         12    1    3    3    0    0  0.21495292948E+02  0.28087128240E+02  0.10239359504E+02  0.36820902688E+02  0.00000000000E+00 0. -1.
         11    1    4    4    0    0  0.91532791231E+01 -0.54976112928E+01  0.65661091517E+00  0.10697541156E+02  0.51100000000E-03 0.  1.
        -11    1    4    4    0    0 -0.32621972414E+01 -0.59373931254E+01  0.44787123641E+01  0.81211718778E+01  0.51100000000E-03 0. -1.
        -12    1    4    4    0    0 -0.27386374830E+02 -0.16652123822E+02 -0.15374682783E+02  0.35548384278E+02  0.00000000000E+00 0.  1.
</event>
<event>
 8    1  0.2501893E-006  0.9118800E+02  0.7816164E-02  0.1184000E+00
        -11   -1    0    0    0    0  0.00000000000E+00  0.00000000000E+00  0.45593999997E+02  0.45594000000E+02  0.51100000000E-03 0. -1.
         11   -1    0    0    0    0 -0.00000000000E+00 -0.00000000000E+00 -0.45593999997E+02  0.45594000000E+02  0.51100000000E-03 0.  1.
         23    2    1    2    0    0  0.00000000000E+00 -0.35527136788E-14  0.22204460493E-15  0.91188000000E+02  0.91188000000E+02 0.  0.
    9900012    2    3    3    0    0 -0.32650728818E+02 -0.16996917669E+02  0.89345240056E+00  0.54367305279E+02  0.40000504041E+02 0.  0.
         12    1    3    3    0    0  0.32650728818E+02  0.16996917669E+02 -0.89345240056E+00  0.36820694721E+02  0.00000000000E+00 0. -1.
         11    1    4    4    0    0 -0.24978187217E+01 -0.13376412972E+02  0.88985023012E+00  0.13636691536E+02  0.51100000000E-03 0. -1.
        -11    1    4    4    0    0 -0.22894039465E+02  0.82803971279E+01 -0.67171081898E+01  0.25255129426E+02  0.51100000000E-03 0.  1.
        -12    1    4    4    0    0 -0.72588706308E+01 -0.11900901825E+02  0.67207103602E+01  0.15475484316E+02  0.00000000000E+00 0.  1.
</event>
<event>
 8    1  0.2501893E-006  0.9118800E+02  0.7816164E-02  0.1184000E+00
        -11   -1    0    0    0    0  0.00000000000E+00  0.00000000000E+00  0.45593999997E+02  0.45594000000E+02  0.51100000000E-03 0.  1.
         11   -1    0    0    0    0 -0.00000000000E+00 -0.00000000000E+00 -0.45593999997E+02  0.45594000000E+02  0.51100000000E-03 0. -1.
         23    2    1    2    0    0  0.17763568394E-14  0.00000000000E+00  0.00000000000E+00  0.91188000000E+02  0.91188000000E+02 0.  0.
    9900012    2    3    3    0    0 -0.15386248947E+02  0.32716101538E+02 -0.69784730474E+01  0.54367095033E+02  0.40000024747E+02 0.  0.
        -12    1    3    3    0    0  0.15386248947E+02 -0.32716101538E+02  0.69784730474E+01  0.36820904967E+02  0.00000000000E+00 0.  1.
         11    1    4    4    0    0 -0.16444094762E+02  0.28303081544E+02 -0.58333928346E+01  0.33249077426E+02  0.51100000000E-03 0. -1.
        -11    1    4    4    0    0 -0.97158966736E+01  0.27684201439E+01 -0.15018567933E+01  0.10213636588E+02  0.51100000000E-03 0.  1.
         12    1    4    4    0    0  0.10773742489E+02  0.16445998499E+01  0.35677658054E+00  0.10904381019E+02  0.00000000000E+00 0. -1.
</event>
<event>
 8    1  0.2501893E-006  0.9118800E+02  0.7816164E-02  0.1184000E+00
        -11   -1    0    0    0    0  0.00000000000E+00  0.00000000000E+00  0.45593999997E+02  0.45594000000E+02  0.51100000000E-03 0. -1.
         11   -1    0    0    0    0 -0.00000000000E+00 -0.00000000000E+00 -0.45593999997E+02  0.45594000000E+02  0.51100000000E-03 0.  1.
         23    2    1    2    0    0  0.88817841970E-15 -0.17763568394E-14  0.71054273576E-14  0.91188000000E+02  0.91188000000E+02 0.  0.
    9900012    2    3    3    0    0  0.50955984537E+01  0.14128954790E+02 -0.33618264833E+02  0.54367079079E+02  0.39999988377E+02 0.  0.
         12    1    3    3    0    0 -0.50955984537E+01 -0.14128954790E+02  0.33618264833E+02  0.36820920921E+02  0.00000000000E+00 0. -1.
         11    1    4    4    0    0  0.36944098989E+01  0.91380715662E+01  0.24282468656E+01  0.10151325015E+02  0.51100000000E-03 0. -1.
        -11    1    4    4    0    0  0.96190713822E+01  0.11072250573E+02 -0.15951087913E+02  0.21669297932E+02  0.51100000000E-03 0.  1.
        -12    1    4    4    0    0 -0.82178828273E+01 -0.60813673491E+01 -0.20095423786E+02  0.22546456132E+02  0.00000000000E+00 0.  1.
</event>
<event>
 8    1  0.2501893E-006  0.9118800E+02  0.7816164E-02  0.1184000E+00
        -11   -1    0    0    0    0  0.00000000000E+00  0.00000000000E+00  0.45593999997E+02  0.45594000000E+02  0.51100000000E-03 0. -1.
         11   -1    0    0    0    0 -0.00000000000E+00 -0.00000000000E+00 -0.45593999997E+02  0.45594000000E+02  0.51100000000E-03 0.  1.
         23    2    1    2    0    0  0.00000000000E+00  0.17763568394E-14  0.71054273576E-14  0.91188000000E+02  0.91188000000E+02 0.  0.
    9900012    2    3    3    0    0 -0.17165452921E+02  0.14631303020E+02  0.29104155886E+02  0.54367086216E+02  0.40000004647E+02 0.  0.
        -12    1    3    3    0    0  0.17165452921E+02 -0.14631303020E+02 -0.29104155886E+02  0.36820913784E+02  0.00000000000E+00 0.  1.
         11    1    4    4    0    0 -0.13035103821E+02 -0.14102689148E+01  0.26566389239E+01  0.13377612667E+02  0.51100000000E-03 0. -1.
        -11    1    4    4    0    0 -0.20432413579E+01 -0.34212196399E+01 -0.34387401324E+01  0.52635076736E+01  0.51100000000E-03 0.  1.
         12    1    4    4    0    0 -0.20871077422E+01  0.19462791574E+02  0.29886257095E+02  0.35725965875E+02  0.00000000000E+00 0. -1.
</event>
<event>
 8    1  0.2501893E-006  0.9118800E+02  0.7816164E-02  0.1184000E+00
        -11   -1    0    0    0    0  0.00000000000E+00  0.00000000000E+00  0.45593999997E+02  0.45594000000E+02  0.51100000000E-03 0.  1.
         11   -1    0    0    0    0 -0.00000000000E+00 -0.00000000000E+00 -0.45593999997E+02  0.45594000000E+02  0.51100000000E-03 0. -1.
         23    2    1    2    0    0  0.00000000000E+00  0.00000000000E+00 -0.35527136788E-14  0.91188000000E+02  0.91188000000E+02 0.  0.
    9900012    2    3    3    0    0  0.22674692904E+02  0.20285596842E+02 -0.20739634416E+02  0.54367087828E+02  0.40000008321E+02 0.  0.
        -12    1    3    3    0    0 -0.22674692904E+02 -0.20285596842E+02  0.20739634416E+02  0.36820912172E+02  0.00000000000E+00 0.  1.
         11    1    4    4    0    0  0.50840125201E+01  0.57808920342E+01 -0.25616759927E+02  0.26748538005E+02  0.51100000000E-03 0. -1.
        -11    1    4    4    0    0  0.71012268981E+01  0.14684709133E+02  0.70019601040E+00  0.16326615709E+02  0.51100000000E-03 0.  1.
         12    1    4    4    0    0  0.10489453485E+02 -0.18000432525E+00  0.41769295006E+01  0.11291934114E+02  0.00000000000E+00 0. -1.
</event>
<event>
 8    1  0.2501893E-006  0.9118800E+02  0.7816164E-02  0.1184000E+00
        -11   -1    0    0    0    0  0.00000000000E+00  0.00000000000E+00  0.45593999997E+02  0.45594000000E+02  0.51100000000E-03 0. -1.
         11   -1    0    0    0    0 -0.00000000000E+00 -0.00000000000E+00 -0.45593999997E+02  0.45594000000E+02  0.51100000000E-03 0.  1.
         23    2    1    2    0    0  0.00000000000E+00  0.00000000000E+00 -0.35527136788E-14  0.91188000000E+02  0.91188000000E+02 0.  0.
    9900012    2    3    3    0    0 -0.28952907736E+02 -0.15722079983E+02  0.16441608951E+02  0.54367066141E+02  0.39999958881E+02 0.  0.
        -12    1    3    3    0    0  0.28952907736E+02  0.15722079983E+02 -0.16441608951E+02  0.36820933859E+02  0.00000000000E+00 0.  1.
         11    1    4    4    0    0 -0.17247098339E+02 -0.15884245509E+02  0.23371292401E+02  0.33105724056E+02  0.51100000000E-03 0. -1.
        -11    1    4    4    0    0 -0.58284768674E+01 -0.79474732293E+01 -0.50386031389E+01  0.11068920235E+02  0.51100000000E-03 0.  1.
        -12    1    4    4    0    0 -0.58773325298E+01  0.81096387553E+01 -0.18910803113E+01  0.10192421849E+02  0.00000000000E+00 0.  1.
</event>
<event>
 8    1  0.2501893E-006  0.9118800E+02  0.7816164E-02  0.1184000E+00
        -11   -1    0    0    0    0  0.00000000000E+00  0.00000000000E+00  0.45593999997E+02  0.45594000000E+02  0.51100000000E-03 0.  1.
         11   -1    0    0    0    0 -0.00000000000E+00 -0.00000000000E+00 -0.45593999997E+02  0.45594000000E+02  0.51100000000E-03 0. -1.
         23    2    1    2    0    0  0.00000000000E+00  0.35527136788E-14  0.00000000000E+00  0.91188000000E+02  0.91188000000E+02 0.  0.
    9900012    2    3    3    0    0  0.20955087074E+02 -0.16540583006E+02 -0.25358874157E+02  0.54367094810E+02  0.40000024239E+02 0.  0.
        -12    1    3    3    0    0 -0.20955087074E+02  0.16540583006E+02  0.25358874157E+02  0.36820905190E+02  0.00000000000E+00 0.  1.
         11    1    4    4    0    0  0.25019870517E+01 -0.59024014091E+01 -0.24587294699E+02  0.25409316057E+02  0.51100000000E-03 0. -1.
        -11    1    4    4    0    0  0.22297311201E+02 -0.65589572042E+01 -0.15751011024E+01  0.23295298885E+02  0.51100000000E-03 0.  1.
         12    1    4    4    0    0 -0.38442111784E+01 -0.40792243927E+01  0.80352164378E+00  0.56624798686E+01  0.00000000000E+00 0. -1.
</event>
<event>
 8    1  0.2501893E-006  0.9118800E+02  0.7816164E-02  0.1184000E+00
        -11   -1    0    0    0    0  0.00000000000E+00  0.00000000000E+00  0.45593999997E+02  0.45594000000E+02  0.51100000000E-03 0. -1.
         11   -1    0    0    0    0 -0.00000000000E+00 -0.00000000000E+00 -0.45593999997E+02  0.45594000000E+02  0.51100000000E-03 0.  1.
         23    2    1    2    0    0  0.44408920985E-15  0.00000000000E+00  0.00000000000E+00  0.91188000000E+02  0.91188000000E+02 0.  0.
    9900012    2    3    3    0    0 -0.25742716292E+01 -0.25182156720E+02  0.26739813717E+02  0.54367006951E+02  0.39999823945E+02 0.  0.
        -12    1    3    3    0    0  0.25742716292E+01  0.25182156720E+02 -0.26739813717E+02  0.36820993049E+02  0.00000000000E+00 0.  1.
         11    1    4    4    0    0  0.17219945202E+00 -0.74725644014E+00 -0.86018553961E+01  0.86359690455E+01  0.51100000000E-03 0. -1.
        -11    1    4    4    0    0 -0.44362814368E+01 -0.10307175147E+00  0.36848303407E+01  0.57679451864E+01  0.51100000000E-03 0.  1.
         12    1    4    4    0    0  0.16898103556E+01 -0.24331828529E+02  0.31656838772E+02  0.39963092719E+02  0.00000000000E+00 0. -1.
</event>
<event>
 8    1  0.2501893E-006  0.9118800E+02  0.7816164E-02  0.1184000E+00
        -11   -1    0    0    0    0  0.00000000000E+00  0.00000000000E+00  0.45593999997E+02  0.45594000000E+02  0.51100000000E-03 0.  1.
         11   -1    0    0    0    0 -0.00000000000E+00 -0.00000000000E+00 -0.45593999997E+02  0.45594000000E+02  0.51100000000E-03 0. -1.
         23    2    1    2    0    0  0.00000000000E+00 -0.35527136788E-14 -0.35527136788E-14  0.91188000000E+02  0.91188000000E+02 0.  0.
    9900012    2    3    3    0    0  0.10725891751E+02 -0.28417286450E+02 -0.20813258923E+02  0.54367100092E+02  0.40000036280E+02 0.  0.
        -12    1    3    3    0    0 -0.10725891751E+02  0.28417286450E+02  0.20813258923E+02  0.36820899908E+02  0.00000000000E+00 0.  1.
         11    1    4    4    0    0  0.25070870123E+01 -0.11754970786E+02  0.57348525370E+01  0.13317408056E+02  0.51100000000E-03 0.  1.
        -11    1    4    4    0    0 -0.63012767003E+01 -0.15325150204E+02 -0.16166664777E+02  0.23150105121E+02  0.51100000000E-03 0. -1.
         12    1    4    4    0    0  0.14520081439E+02 -0.13371654597E+01 -0.10381446684E+02  0.17899586915E+02  0.00000000000E+00 0. -1.
</event>
<event>
 8    1  0.2501893E-006  0.9118800E+02  0.7816164E-02  0.1184000E+00
        -11   -1    0    0    0    0  0.00000000000E+00  0.00000000000E+00  0.45593999997E+02  0.45594000000E+02  0.51100000000E-03 0. -1.
         11   -1    0    0    0    0 -0.00000000000E+00 -0.00000000000E+00 -0.45593999997E+02  0.45594000000E+02  0.51100000000E-03 0.  1.
         23    2    1    2    0    0  0.35527136788E-14  0.19428902931E-15  0.00000000000E+00  0.91188000000E+02  0.91188000000E+02 0.  0.
    9900012    2    3    3    0    0 -0.30742994464E+02  0.16661477367E+00  0.20263764879E+02  0.54367086973E+02  0.40000006372E+02 0.  0.
        -12    1    3    3    0    0  0.30742994464E+02 -0.16661477367E+00 -0.20263764879E+02  0.36820913027E+02  0.00000000000E+00 0.  1.
         11    1    4    4    0    0 -0.36707550397E+01  0.76319670070E+01  0.81614743288E+01  0.11761421106E+02  0.51100000000E-03 0. -1.
        -11    1    4    4    0    0 -0.16951774573E+02  0.99508761659E+01  0.10781354804E+02  0.22419192879E+02  0.51100000000E-03 0.  1.
        -12    1    4    4    0    0 -0.10120464851E+02 -0.17416228399E+02  0.13209357457E+01  0.20186472988E+02  0.00000000000E+00 0.  1.
</event>
<event>
 8    1  0.2501893E-006  0.9118800E+02  0.7816164E-02  0.1184000E+00
        -11   -1    0    0    0    0  0.00000000000E+00  0.00000000000E+00  0.45593999997E+02  0.45594000000E+02  0.51100000000E-03 0. -1.
         11   -1    0    0    0    0 -0.00000000000E+00 -0.00000000000E+00 -0.45593999997E+02  0.45594000000E+02  0.51100000000E-03 0.  1.
         23    2    1    2    0    0  0.35527136788E-14 -0.35527136788E-14 -0.13322676296E-14  0.91188000000E+02  0.91188000000E+02 0.  0.
    9900012    2    3    3    0    0 -0.27375668616E+02  0.24476036708E+02  0.26974141346E+01  0.54367086810E+02  0.40000006001E+02 0.  0.
         12    1    3    3    0    0  0.27375668616E+02 -0.24476036708E+02 -0.26974141346E+01  0.36820913190E+02  0.00000000000E+00 0. -1.
         11    1    4    4    0    0 -0.87637243862E+01  0.58281989605E+01  0.15444536207E+02  0.18689688792E+02  0.51100000000E-03 0. -1.
        -11    1    4    4    0    0 -0.19572417405E+02  0.99205096569E+01 -0.23492573981E+01  0.22068417377E+02  0.51100000000E-03 0.  1.
        -12    1    4    4    0    0  0.96047317499E+00  0.87273280903E+01 -0.10397864674E+02  0.13608980641E+02  0.00000000000E+00 0.  1.
</event>
<event>
 8    1  0.2501893E-006  0.9118800E+02  0.7816164E-02  0.1184000E+00
        -11   -1    0    0    0    0  0.00000000000E+00  0.00000000000E+00  0.45593999997E+02  0.45594000000E+02  0.51100000000E-03 0.  1.
         11   -1    0    0    0    0 -0.00000000000E+00 -0.00000000000E+00 -0.45593999997E+02  0.45594000000E+02  0.51100000000E-03 0. -1.
         23    2    1    2    0    0  0.00000000000E+00  0.00000000000E+00  0.10658141036E-13  0.91188000000E+02  0.91188000000E+02 0.  0.
    9900012    2    3    3    0    0 -0.10622071606E+02 -0.16408053485E+02 -0.31204596683E+02  0.54367089114E+02  0.40000011253E+02 0.  0.
        -12    1    3    3    0    0  0.10622071606E+02  0.16408053485E+02  0.31204596683E+02  0.36820910886E+02  0.00000000000E+00 0.  1.
         11    1    4    4    0    0 -0.18841352898E+01  0.71681896603E+01  0.48942962096E+01  0.88818378979E+01  0.51100000000E-03 0. -1.
        -11    1    4    4    0    0  0.18274116207E+01 -0.51989047567E+01 -0.32718832200E+01  0.64088426387E+01  0.51100000000E-03 0.  1.
         12    1    4    4    0    0 -0.10565347937E+02 -0.18377338388E+02 -0.32827009672E+02  0.39076408577E+02  0.00000000000E+00 0. -1.
</event>
<event>
 8    1  0.2501893E-006  0.9118800E+02  0.7816164E-02  0.1184000E+00
        -11   -1    0    0    0    0  0.00000000000E+00  0.00000000000E+00  0.45593999997E+02  0.45594000000E+02  0.51100000000E-03 0.  1.
         11   -1    0    0    0    0 -0.00000000000E+00 -0.00000000000E+00 -0.45593999997E+02  0.45594000000E+02  0.51100000000E-03 0. -1.
         23    2    1    2    0    0 -0.26645352591E-14  0.00000000000E+00  0.00000000000E+00  0.91188000000E+02  0.91188000000E+02 0.  0.
    9900012    2    3    3    0    0 -0.77812001653E+01 -0.31657055524E+02 -0.17119061698E+02  0.54367102213E+02  0.40000041114E+02 0.  0.
        -12    1    3    3    0    0  0.77812001653E+01  0.31657055524E+02  0.17119061698E+02  0.36820897787E+02  0.00000000000E+00 0.  1.
         11    1    4    4    0    0 -0.46714111521E+01 -0.11814391437E+02 -0.58813416744E+01  0.13999718116E+02  0.51100000000E-03 0. -1.
        -11    1    4    4    0    0  0.13838046632E+02 -0.16166386649E+02 -0.44255896850E+01  0.21735441937E+02  0.51100000000E-03 0.  1.
        -12    1    4    4    0    0 -0.16947835646E+02 -0.36762774369E+01 -0.68121303387E+01  0.18631942159E+02  0.00000000000E+00 0.  1.
</event>
<event>
 8    1  0.2501893E-006  0.9118800E+02  0.7816164E-02  0.1184000E+00
        -11   -1    0    0    0    0  0.00000000000E+00  0.00000000000E+00  0.45593999997E+02  0.45594000000E+02  0.51100000000E-03 0. -1.
         11   -1    0    0    0    0 -0.00000000000E+00 -0.00000000000E+00 -0.45593999997E+02  0.45594000000E+02  0.51100000000E-03 0.  1.
         23    2    1    2    0    0 -0.35527136788E-14 -0.35527136788E-14  0.00000000000E+00  0.91188000000E+02  0.91188000000E+02 0.  0.
    9900012    2    3    3    0    0  0.20000485131E+02  0.30459247368E+02 -0.52915904566E+01  0.54366999399E+02  0.39999806729E+02 0.  0.
        -12    1    3    3    0    0 -0.20000485131E+02 -0.30459247368E+02  0.52915904566E+01  0.36821000601E+02  0.00000000000E+00 0.  1.
         11    1    4    4    0    0  0.24691187590E+02  0.13585846638E+02  0.37828083312E+01  0.28434830975E+02  0.51100000000E-03 0. -1.
        -11    1    4    4    0    0  0.46981194171E+01  0.93044188312E+01 -0.91536903605E+01  0.13872079272E+02  0.51100000000E-03 0.  1.
        -12    1    4    4    0    0 -0.93888218758E+01  0.75689818988E+01  0.79291572734E-01  0.12060089152E+02  0.00000000000E+00 0.  1.
</event>
<event>
 8    1  0.2501893E-006  0.9118800E+02  0.7816164E-02  0.1184000E+00
        -11   -1    0    0    0    0  0.00000000000E+00  0.00000000000E+00  0.45593999997E+02  0.45594000000E+02  0.51100000000E-03 0.  1.
         11   -1    0    0    0    0 -0.00000000000E+00 -0.00000000000E+00 -0.45593999997E+02  0.45594000000E+02  0.51100000000E-03 0. -1.
         23    2    1    2    0    0 -0.35527136788E-14  0.00000000000E+00  0.00000000000E+00  0.91188000000E+02  0.91188000000E+02 0.  0.
    9900012    2    3    3    0    0  0.20794328226E+02  0.26374580769E+02  0.15091583293E+02  0.54367102626E+02  0.40000042057E+02 0.  0.
         12    1    3    3    0    0 -0.20794328226E+02 -0.26374580769E+02 -0.15091583293E+02  0.36820897374E+02  0.00000000000E+00 0. -1.
         11    1    4    4    0    0  0.11318384986E+02 -0.48179723371E+01  0.58427443589E+01  0.13618236230E+02  0.51100000000E-03 0. -1.
        -11    1    4    4    0    0  0.58833271976E+01  0.30750179861E+02  0.53434316187E+00  0.31312499474E+02  0.51100000000E-03 0.  1.
        -12    1    4    4    0    0  0.35926160428E+01  0.44237324437E+00  0.87144957725E+01  0.94363669220E+01  0.00000000000E+00 0.  1.
</event>
<event>
 8    1  0.2501893E-006  0.9118800E+02  0.7816164E-02  0.1184000E+00
        -11   -1    0    0    0    0  0.00000000000E+00  0.00000000000E+00  0.45593999997E+02  0.45594000000E+02  0.51100000000E-03 0.  1.
         11   -1    0    0    0    0 -0.00000000000E+00 -0.00000000000E+00 -0.45593999997E+02  0.45594000000E+02  0.51100000000E-03 0. -1.
         23    2    1    2    0    0  0.00000000000E+00  0.17763568394E-14 -0.17763568394E-14  0.91188000000E+02  0.91188000000E+02 0.  0.
    9900012    2    3    3    0    0  0.31637769024E+02 -0.15431726564E+02  0.10802474136E+02  0.54367081203E+02  0.39999993219E+02 0.  0.
         12    1    3    3    0    0 -0.31637769024E+02  0.15431726564E+02 -0.10802474136E+02  0.36820918797E+02  0.00000000000E+00 0. -1.
         11    1    4    4    0    0  0.63022130390E+00 -0.15058357928E+02 -0.12214070298E+01  0.15120950955E+02  0.51100000000E-03 0. -1.
        -11    1    4    4    0    0  0.26043132429E+02 -0.66098586762E+01  0.27376758596E+01  0.27007958971E+02  0.51100000000E-03 0.  1.
        -12    1    4    4    0    0  0.49644152914E+01  0.62364900404E+01  0.92862053066E+01  0.12238171277E+02  0.00000000000E+00 0.  1.
</event>
<event>
 8    1  0.2501893E-006  0.9118800E+02  0.7816164E-02  0.1184000E+00
        -11   -1    0    0    0    0  0.00000000000E+00  0.00000000000E+00  0.45593999997E+02  0.45594000000E+02  0.51100000000E-03 0. -1.
         11   -1    0    0    0    0 -0.00000000000E+00 -0.00000000000E+00 -0.45593999997E+02  0.45594000000E+02  0.51100000000E-03 0.  1.
         23    2    1    2    0    0 -0.35527136788E-14  0.26645352591E-14 -0.71054273576E-14  0.91188000000E+02  0.91188000000E+02 0.  0.
    9900012    2    3    3    0    0  0.25329456916E+02 -0.65810100048E+01  0.25901530373E+02  0.54367077198E+02  0.39999984089E+02 0.  0.
        -12    1    3    3    0    0 -0.25329456916E+02  0.65810100048E+01 -0.25901530373E+02  0.36820922802E+02  0.00000000000E+00 0.  1.
         11    1    4    4    0    0  0.24071387837E+02  0.59213091178E+01  0.16972143967E+02  0.30042424756E+02  0.51100000000E-03 0. -1.
        -11    1    4    4    0    0  0.53923582841E+01  0.17070172015E+01 -0.19221780658E+01  0.59737931307E+01  0.51100000000E-03 0.  1.
        -12    1    4    4    0    0 -0.41342892060E+01 -0.14209336324E+02  0.10851564471E+02  0.18350859312E+02  0.00000000000E+00 0.  1.
</event>
<event>
 8    1  0.2501893E-006  0.9118800E+02  0.7816164E-02  0.1184000E+00
        -11   -1    0    0    0    0  0.00000000000E+00  0.00000000000E+00  0.45593999997E+02  0.45594000000E+02  0.51100000000E-03 0. -1.
         11   -1    0    0    0    0 -0.00000000000E+00 -0.00000000000E+00 -0.45593999997E+02  0.45594000000E+02  0.51100000000E-03 0.  1.
         23    2    1    2    0    0  0.00000000000E+00  0.00000000000E+00 -0.17763568394E-14  0.91188000000E+02  0.91188000000E+02 0.  0.
    9900012    2    3    3    0    0 -0.29038556065E+02  0.18313976546E+02  0.13309415680E+02  0.54367081747E+02  0.39999994459E+02 0.  0.
        -12    1    3    3    0    0  0.29038556065E+02 -0.18313976546E+02 -0.13309415680E+02  0.36820918253E+02  0.00000000000E+00 0.  1.
         11    1    4    4    0    0 -0.40656417866E+01  0.11647307036E+01  0.10010616736E+01  0.43460517121E+01  0.51100000000E-03 0. -1.
        -11    1    4    4    0    0 -0.22826634406E+02  0.10926557431E+02 -0.96597725097E+01  0.27087932752E+02  0.51100000000E-03 0.  1.
        -12    1    4    4    0    0 -0.21462798720E+01  0.62226884111E+01  0.21968126516E+02  0.22933097283E+02  0.00000000000E+00 0.  1.
</event>
<event>
 8    1  0.2501893E-006  0.9118800E+02  0.7816164E-02  0.1184000E+00
        -11   -1    0    0    0    0  0.00000000000E+00  0.00000000000E+00  0.45593999997E+02  0.45594000000E+02  0.51100000000E-03 0.  1.
         11   -1    0    0    0    0 -0.00000000000E+00 -0.00000000000E+00 -0.45593999997E+02  0.45594000000E+02  0.51100000000E-03 0. -1.
         23    2    1    2    0    0 -0.71054273576E-14  0.00000000000E+00 -0.17763568394E-14  0.91188000000E+02  0.91188000000E+02 0.  0.
    9900012    2    3    3    0    0  0.31912333340E+02  0.10652167385E+02  0.14963782990E+02  0.54367075371E+02  0.39999979922E+02 0.  0.
         12    1    3    3    0    0 -0.31912333340E+02 -0.10652167385E+02 -0.14963782990E+02  0.36820924629E+02  0.00000000000E+00 0. -1.
         11    1    4    4    0    0  0.36650104143E+02  0.70564523024E+01  0.53892099347E+01  0.37710306771E+02  0.51100000000E-03 0. -1.
        -11    1    4    4    0    0 -0.92015264081E+00 -0.21121862747E+01  0.95146387430E+01  0.97896048139E+01  0.51100000000E-03 0.  1.
        -12    1    4    4    0    0 -0.38176181623E+01  0.57079013571E+01  0.59934311939E-01  0.68671637855E+01  0.00000000000E+00 0.  1.
</event>
<event>
 8    1  0.2501893E-006  0.9118800E+02  0.7816164E-02  0.1184000E+00
        -11   -1    0    0    0    0  0.00000000000E+00  0.00000000000E+00  0.45593999997E+02  0.45594000000E+02  0.51100000000E-03 0. -1.
         11   -1    0    0    0    0 -0.00000000000E+00 -0.00000000000E+00 -0.45593999997E+02  0.45594000000E+02  0.51100000000E-03 0.  1.
         23    2    1    2    0    0  0.00000000000E+00  0.00000000000E+00  0.88817841970E-15  0.91188000000E+02  0.91188000000E+02 0.  0.
    9900012    2    3    3    0    0  0.11209408126E+02  0.34287566320E+02 -0.73818179990E+01  0.54367091923E+02  0.40000017657E+02 0.  0.
        -12    1    3    3    0    0 -0.11209408126E+02 -0.34287566320E+02  0.73818179990E+01  0.36820908077E+02  0.00000000000E+00 0.  1.
         11    1    4    4    0    0  0.11614260710E+02  0.66343658592E+01  0.10686766674E+02  0.17120538671E+02  0.51100000000E-03 0. -1.
        -11    1    4    4    0    0  0.38515760399E+01  0.11038333603E+01 -0.72097978663E+01  0.82482890112E+01  0.51100000000E-03 0.  1.
         12    1    4    4    0    0 -0.42564286241E+01  0.26549367100E+02 -0.10858786806E+02  0.28998264241E+02  0.00000000000E+00 0. -1.
</event>
<event>
 8    1  0.2501893E-006  0.9118800E+02  0.7816164E-02  0.1184000E+00
        -11   -1    0    0    0    0  0.00000000000E+00  0.00000000000E+00  0.45593999997E+02  0.45594000000E+02  0.51100000000E-03 0.  1.
         11   -1    0    0    0    0 -0.00000000000E+00 -0.00000000000E+00 -0.45593999997E+02  0.45594000000E+02  0.51100000000E-03 0. -1.
         23    2    1    2    0    0 -0.17763568394E-14 -0.71054273576E-14  0.35527136788E-14  0.91188000000E+02  0.91188000000E+02 0.  0.
    9900012    2    3    3    0    0 -0.15766097646E+02 -0.28164134225E+02 -0.17719799828E+02  0.54367087496E+02  0.40000007566E+02 0.  0.
        -12    1    3    3    0    0  0.15766097646E+02  0.28164134225E+02  0.17719799828E+02  0.36820912504E+02  0.00000000000E+00 0.  1.
         11    1    4    4    0    0  0.75657979761E+01 -0.21261080386E+02  0.75779302155E+00  0.22579838102E+02  0.51100000000E-03 0. -1.
        -11    1    4    4    0    0 -0.24033798979E+02 -0.70672995160E+01 -0.18355041482E+02  0.31056042308E+02  0.51100000000E-03 0.  1.
        -12    1    4    4    0    0  0.70190335667E+00  0.16424567699E+00 -0.12255136787E+00  0.73120708577E+00  0.00000000000E+00 0.  1.
</event>
<event>
 8    1  0.2501893E-006  0.9118800E+02  0.7816164E-02  0.1184000E+00
        -11   -1    0    0    0    0  0.00000000000E+00  0.00000000000E+00  0.45593999997E+02  0.45594000000E+02  0.51100000000E-03 0.  1.
         11   -1    0    0    0    0 -0.00000000000E+00 -0.00000000000E+00 -0.45593999997E+02  0.45594000000E+02  0.51100000000E-03 0. -1.
         23    2    1    2    0    0  0.00000000000E+00  0.00000000000E+00  0.00000000000E+00  0.91188000000E+02  0.91188000000E+02 0.  0.
    9900012    2    3    3    0    0 -0.54851625092E+01  0.30679059923E+02  0.19608371157E+02  0.54367082780E+02  0.39999996814E+02 0.  0.
         12    1    3    3    0    0  0.54851625092E+01 -0.30679059923E+02 -0.19608371157E+02  0.36820917220E+02  0.00000000000E+00 0. -1.
         11    1    4    4    0    0 -0.55355801840E+01  0.17355817050E+02 -0.62102014706E+01  0.19246652593E+02  0.51100000000E-03 0. -1.
        -11    1    4    4    0    0 -0.85539409713E+01  0.12524956034E+02  0.16447124707E+02  0.22373027090E+02  0.51100000000E-03 0.  1.
         12    1    4    4    0    0  0.86043586461E+01  0.79828683799E+00  0.93714479207E+01  0.12747403097E+02  0.00000000000E+00 0. -1.
</event>
<event>
 8    1  0.2501893E-006  0.9118800E+02  0.7816164E-02  0.1184000E+00
        -11   -1    0    0    0    0  0.00000000000E+00  0.00000000000E+00  0.45593999997E+02  0.45594000000E+02  0.51100000000E-03 0.  1.
         11   -1    0    0    0    0 -0.00000000000E+00 -0.00000000000E+00 -0.45593999997E+02  0.45594000000E+02  0.51100000000E-03 0. -1.
         23    2    1    2    0    0  0.00000000000E+00  0.00000000000E+00  0.00000000000E+00  0.91188000000E+02  0.91188000000E+02 0.  0.
    9900012    2    3    3    0    0  0.20543775257E+02  0.14142949936E+02 -0.27087062495E+02  0.54367099830E+02  0.40000035684E+02 0.  0.
        -12    1    3    3    0    0 -0.20543775257E+02 -0.14142949936E+02  0.27087062495E+02  0.36820900170E+02  0.00000000000E+00 0.  1.
         11    1    4    4    0    0  0.90598092272E+01  0.86481116976E+01 -0.22523431251E+02  0.25771591622E+02  0.51100000000E-03 0. -1.
        -11    1    4    4    0    0  0.20876998509E+01  0.11579669433E+02  0.59964334622E+01  0.13206227674E+02  0.51100000000E-03 0.  1.
        -12    1    4    4    0    0  0.93962661788E+01 -0.60848311948E+01 -0.10560064706E+02  0.15389280534E+02  0.00000000000E+00 0.  1.
</event>
<event>
 8    1  0.2501893E-006  0.9118800E+02  0.7816164E-02  0.1184000E+00
        -11   -1    0    0    0    0  0.00000000000E+00  0.00000000000E+00  0.45593999997E+02  0.45594000000E+02  0.51100000000E-03 0. -1.
         11   -1    0    0    0    0 -0.00000000000E+00 -0.00000000000E+00 -0.45593999997E+02  0.45594000000E+02  0.51100000000E-03 0.  1.
         23    2    1    2    0    0  0.17763568394E-14  0.00000000000E+00 -0.35527136788E-14  0.91188000000E+02  0.91188000000E+02 0.  0.
    9900012    2    3    3    0    0 -0.87402554200E+01  0.27519773597E+02  0.22848392662E+02  0.54367094920E+02  0.40000024489E+02 0.  0.
        -12    1    3    3    0    0  0.87402554200E+01 -0.27519773597E+02 -0.22848392662E+02  0.36820905080E+02  0.00000000000E+00 0.  1.
         11    1    4    4    0    0 -0.18974857037E+01 -0.83499737525E+00  0.17565170257E+02  0.17687082265E+02  0.51100000000E-03 0. -1.
        -11    1    4    4    0    0 -0.84160289868E+01  0.83161249161E+00 -0.64552978304E+00  0.84816173107E+01  0.51100000000E-03 0.  1.
         12    1    4    4    0    0  0.15732592705E+01  0.27523158481E+02  0.59287521878E+01  0.28198395345E+02  0.00000000000E+00 0. -1.
</event>
<event>
 8    1  0.2501893E-006  0.9118800E+02  0.7816164E-02  0.1184000E+00
        -11   -1    0    0    0    0  0.00000000000E+00  0.00000000000E+00  0.45593999997E+02  0.45594000000E+02  0.51100000000E-03 0.  1.
         11   -1    0    0    0    0 -0.00000000000E+00 -0.00000000000E+00 -0.45593999997E+02  0.45594000000E+02  0.51100000000E-03 0. -1.
         23    2    1    2    0    0  0.35527136788E-14  0.00000000000E+00  0.00000000000E+00  0.91188000000E+02  0.91188000000E+02 0.  0.
    9900012    2    3    3    0    0  0.17178425029E+02 -0.46363682662E+01  0.32236460109E+02  0.54367033723E+02  0.39999884979E+02 0.  0.
         12    1    3    3    0    0 -0.17178425029E+02  0.46363682662E+01 -0.32236460109E+02  0.36820966277E+02  0.00000000000E+00 0. -1.
         11    1    4    4    0    0  0.16994965405E+02  0.67680097383E+01  0.12379541233E+02  0.22088183409E+02  0.51100000000E-03 0. -1.
        -11    1    4    4    0    0  0.10139340764E+02 -0.30858054374E+01  0.15125767720E+02  0.18469360458E+02  0.51100000000E-03 0.  1.
        -12    1    4    4    0    0 -0.99558811399E+01 -0.83185725671E+01  0.47311511557E+01  0.13809489856E+02  0.00000000000E+00 0.  1.
</event>
<event>
 8    1  0.2501893E-006  0.9118800E+02  0.7816164E-02  0.1184000E+00
        -11   -1    0    0    0    0  0.00000000000E+00  0.00000000000E+00  0.45593999997E+02  0.45594000000E+02  0.51100000000E-03 0. -1.
         11   -1    0    0    0    0 -0.00000000000E+00 -0.00000000000E+00 -0.45593999997E+02  0.45594000000E+02  0.51100000000E-03 0.  1.
         23    2    1    2    0    0  0.44408920985E-15  0.00000000000E+00  0.00000000000E+00  0.91188000000E+02  0.91188000000E+02 0.  0.
    9900012    2    3    3    0    0 -0.31980447140E+01 -0.65263361386E+01 -0.36096539486E+02  0.54367072306E+02  0.39999972935E+02 0.  0.
         12    1    3    3    0    0  0.31980447140E+01  0.65263361386E+01  0.36096539486E+02  0.36820927694E+02  0.00000000000E+00 0. -1.
         11    1    4    4    0    0 -0.15808619465E+02  0.20465675342E+00 -0.23071903629E+01  0.15977404715E+02  0.51100000000E-03 0. -1.
        -11    1    4    4    0    0  0.87590897979E+01 -0.72242948053E+01 -0.13084493560E+02  0.17323858158E+02  0.51100000000E-03 0.  1.
         12    1    4    4    0    0  0.38514849534E+01  0.49330191326E+00 -0.20704855564E+02  0.21065809433E+02  0.00000000000E+00 0. -1.
</event>
<event>
 8    1  0.2501893E-006  0.9118800E+02  0.7816164E-02  0.1184000E+00
        -11   -1    0    0    0    0  0.00000000000E+00  0.00000000000E+00  0.45593999997E+02  0.45594000000E+02  0.51100000000E-03 0.  1.
         11   -1    0    0    0    0 -0.00000000000E+00 -0.00000000000E+00 -0.45593999997E+02  0.45594000000E+02  0.51100000000E-03 0. -1.
         23    2    1    2    0    0  0.17763568394E-14  0.00000000000E+00  0.00000000000E+00  0.91188000000E+02  0.91188000000E+02 0.  0.
    9900012    2    3    3    0    0  0.10893841109E+02  0.22392117519E+02  0.27123737074E+02  0.54367084558E+02  0.40000000868E+02 0.  0.
         12    1    3    3    0    0 -0.10893841109E+02 -0.22392117519E+02 -0.27123737074E+02  0.36820915442E+02  0.00000000000E+00 0. -1.
         11    1    4    4    0    0  0.83420054807E+01  0.13173279810E+02  0.97953642001E+01  0.18413948964E+02  0.51100000000E-03 0. -1.
        -11    1    4    4    0    0  0.13954175475E+02 -0.28181391478E+01  0.43137549194E+01  0.14875126998E+02  0.51100000000E-03 0.  1.
         12    1    4    4    0    0 -0.11402339848E+02  0.12036976857E+02  0.13014617955E+02  0.21078008596E+02  0.00000000000E+00 0. -1.
</event>
<event>
 8    1  0.2501893E-006  0.9118800E+02  0.7816164E-02  0.1184000E+00
        -11   -1    0    0    0    0  0.00000000000E+00  0.00000000000E+00  0.45593999997E+02  0.45594000000E+02  0.51100000000E-03 0.  1.
         11   -1    0    0    0    0 -0.00000000000E+00 -0.00000000000E+00 -0.45593999997E+02  0.45594000000E+02  0.51100000000E-03 0. -1.
         23    2    1    2    0    0  0.00000000000E+00  0.00000000000E+00 -0.88817841970E-15  0.91188000000E+02  0.91188000000E+02 0.  0.
    9900012    2    3    3    0    0 -0.44975878559E+01 -0.35757714208E+02  0.75454861855E+01  0.54367125707E+02  0.40000094674E+02 0.  0.
         12    1    3    3    0    0  0.44975878559E+01  0.35757714208E+02 -0.75454861855E+01  0.36820874293E+02  0.00000000000E+00 0. -1.
         11    1    4    4    0    0  0.40179853883E+01 -0.59800385090E+00  0.65352089388E+00  0.41144750584E+01  0.51100000000E-03 0. -1.
        -11    1    4    4    0    0 -0.30350203475E+01  0.65846683342E+01 -0.12847112184E+01  0.73634019826E+01  0.51100000000E-03 0.  1.
        -12    1    4    4    0    0 -0.54805528966E+01 -0.41744378692E+02  0.81766765101E+01  0.42889248666E+02  0.00000000000E+00 0.  1.
</event>
<event>
 8    1  0.2501893E-006  0.9118800E+02  0.7816164E-02  0.1184000E+00
        -11   -1    0    0    0    0  0.00000000000E+00  0.00000000000E+00  0.45593999997E+02  0.45594000000E+02  0.51100000000E-03 0.  1.
         11   -1    0    0    0    0 -0.00000000000E+00 -0.00000000000E+00 -0.45593999997E+02  0.45594000000E+02  0.51100000000E-03 0. -1.
         23    2    1    2    0    0 -0.88817841970E-15 -0.71054273576E-14  0.00000000000E+00  0.91188000000E+02  0.91188000000E+02 0.  0.
    9900012    2    3    3    0    0  0.69136756611E+01  0.33688125135E+02  0.13156410692E+02  0.54367084360E+02  0.40000000416E+02 0.  0.
         12    1    3    3    0    0 -0.69136756611E+01 -0.33688125135E+02 -0.13156410692E+02  0.36820915640E+02  0.00000000000E+00 0. -1.
         11    1    4    4    0    0 -0.80873497586E+01  0.18425819456E+02  0.73424557699E+00  0.20135917301E+02  0.51100000000E-03 0. -1.
        -11    1    4    4    0    0  0.11398404534E+02  0.21517861915E+02  0.11579276922E+02  0.26963339215E+02  0.51100000000E-03 0.  1.
         12    1    4    4    0    0  0.36026208856E+01 -0.62555562357E+01  0.84288819306E+00  0.72678278439E+01  0.00000000000E+00 0. -1.
</event>
<event>
 8    1  0.2501893E-006  0.9118800E+02  0.7816164E-02  0.1184000E+00
        -11   -1    0    0    0    0  0.00000000000E+00  0.00000000000E+00  0.45593999997E+02  0.45594000000E+02  0.51100000000E-03 0.  1.
         11   -1    0    0    0    0 -0.00000000000E+00 -0.00000000000E+00 -0.45593999997E+02  0.45594000000E+02  0.51100000000E-03 0. -1.
         23    2    1    2    0    0  0.00000000000E+00 -0.13322676296E-14  0.00000000000E+00  0.91188000000E+02  0.91188000000E+02 0.  0.
    9900012    2    3    3    0    0 -0.32562256220E+02 -0.22502109313E+01  0.17041506287E+02  0.54367123911E+02  0.40000090580E+02 0.  0.
         12    1    3    3    0    0  0.32562256220E+02  0.22502109313E+01 -0.17041506287E+02  0.36820876089E+02  0.00000000000E+00 0. -1.
         11    1    4    4    0    0 -0.82960695944E+01  0.21995991824E+00  0.11408967184E+01  0.83770399703E+01  0.51100000000E-03 0. -1.
        -11    1    4    4    0    0 -0.18248023515E+02 -0.11643952585E+02 -0.51509931370E+01  0.22250948846E+02  0.51100000000E-03 0.  1.
        -12    1    4    4    0    0 -0.60181631110E+01  0.91737817350E+01  0.21051602706E+02  0.23739135095E+02  0.00000000000E+00 0.  1.
</event>
<event>
 8    1  0.2501893E-006  0.9118800E+02  0.7816164E-02  0.1184000E+00
        -11   -1    0    0    0    0  0.00000000000E+00  0.00000000000E+00  0.45593999997E+02  0.45594000000E+02  0.51100000000E-03 0.  1.
         11   -1    0    0    0    0 -0.00000000000E+00 -0.00000000000E+00 -0.45593999997E+02  0.45594000000E+02  0.51100000000E-03 0. -1.
         23    2    1    2    0    0  0.22204460493E-14  0.00000000000E+00  0.00000000000E+00  0.91188000000E+02  0.91188000000E+02 0.  0.
    9900012    2    3    3    0    0 -0.26110761068E+01 -0.35199678486E+02  0.10485440774E+02  0.54367088113E+02  0.40000008972E+02 0.  0.
         12    1    3    3    0    0  0.26110761068E+01  0.35199678486E+02 -0.10485440774E+02  0.36820911887E+02  0.00000000000E+00 0. -1.
         11    1    4    4    0    0  0.48439762161E+01 -0.77884395958E+01 -0.98929503618E+01  0.13490528679E+02  0.51100000000E-03 0. -1.
        -11    1    4    4    0    0 -0.12856138495E+02 -0.10359146869E+02  0.14710154009E+02  0.22112911434E+02  0.51100000000E-03 0.  1.
         12    1    4    4    0    0  0.54010861725E+01 -0.17052092021E+02  0.56682371271E+01  0.18763648000E+02  0.00000000000E+00 0. -1.
</event>
<event>
 8    1  0.2501893E-006  0.9118800E+02  0.7816164E-02  0.1184000E+00
        -11   -1    0    0    0    0  0.00000000000E+00  0.00000000000E+00  0.45593999997E+02  0.45594000000E+02  0.51100000000E-03 0.  1.
         11   -1    0    0    0    0 -0.00000000000E+00 -0.00000000000E+00 -0.45593999997E+02  0.45594000000E+02  0.51100000000E-03 0. -1.
         23    2    1    2    0    0  0.00000000000E+00  0.35527136788E-14  0.35527136788E-14  0.91188000000E+02  0.91188000000E+02 0.  0.
    9900012    2    3    3    0    0  0.18477200059E+02  0.20128513937E+02 -0.24682246727E+02  0.54367118712E+02  0.40000078728E+02 0.  0.
        -12    1    3    3    0    0 -0.18477200059E+02 -0.20128513937E+02  0.24682246727E+02  0.36820881288E+02  0.00000000000E+00 0.  1.
         11    1    4    4    0    0  0.12026620213E+02  0.21164456941E+02 -0.23738562274E+02  0.34001370126E+02  0.51100000000E-03 0. -1.
        -11    1    4    4    0    0 -0.60636395555E+01  0.28804432570E+01  0.18403724252E+01  0.69607218692E+01  0.51100000000E-03 0.  1.
        -12    1    4    4    0    0  0.12514219401E+02 -0.39163862613E+01 -0.27840568781E+01  0.13405026717E+02  0.00000000000E+00 0.  1.
</event>
<event>
 8    1  0.2501893E-006  0.9118800E+02  0.7816164E-02  0.1184000E+00
        -11   -1    0    0    0    0  0.00000000000E+00  0.00000000000E+00  0.45593999997E+02  0.45594000000E+02  0.51100000000E-03 0. -1.
         11   -1    0    0    0    0 -0.00000000000E+00 -0.00000000000E+00 -0.45593999997E+02  0.45594000000E+02  0.51100000000E-03 0.  1.
         23    2    1    2    0    0  0.00000000000E+00  0.00000000000E+00  0.22204460493E-14  0.91188000000E+02  0.91188000000E+02 0.  0.
    9900012    2    3    3    0    0 -0.10467032121E+02 -0.35294956956E+02  0.69964729075E+00  0.54367051420E+02  0.39999925323E+02 0.  0.
         12    1    3    3    0    0  0.10467032121E+02  0.35294956956E+02 -0.69964729075E+00  0.36820948580E+02  0.00000000000E+00 0. -1.
         11    1    4    4    0    0 -0.17476501549E+01 -0.66659056343E+01  0.16610431148E+02  0.17983186652E+02  0.51100000000E-03 0.  1.
        -11    1    4    4    0    0 -0.31080962906E+01 -0.71179017734E+01  0.17855425968E+01  0.79695012913E+01  0.51100000000E-03 0. -1.
        -12    1    4    4    0    0 -0.56112856760E+01 -0.21511149549E+02 -0.17696326454E+02  0.28414363477E+02  0.00000000000E+00 0.  1.
</event>
<event>
 8    1  0.2501893E-006  0.9118800E+02  0.7816164E-02  0.1184000E+00
        -11   -1    0    0    0    0  0.00000000000E+00  0.00000000000E+00  0.45593999997E+02  0.45594000000E+02  0.51100000000E-03 0. -1.
         11   -1    0    0    0    0 -0.00000000000E+00 -0.00000000000E+00 -0.45593999997E+02  0.45594000000E+02  0.51100000000E-03 0.  1.
         23    2    1    2    0    0  0.44408920985E-15  0.00000000000E+00  0.00000000000E+00  0.91188000000E+02  0.91188000000E+02 0.  0.
    9900012    2    3    3    0    0  0.24993514992E+01 -0.33154865317E+02 -0.15820508030E+02  0.54367077600E+02  0.39999985004E+02 0.  0.
         12    1    3    3    0    0 -0.24993514992E+01  0.33154865317E+02  0.15820508030E+02  0.36820922400E+02  0.00000000000E+00 0. -1.
         11    1    4    4    0    0 -0.13804412977E+02 -0.16196739346E+02 -0.94698210377E+01  0.23293211325E+02  0.51100000000E-03 0.  1.
        -11    1    4    4    0    0  0.14568005747E+02 -0.92992443545E+01  0.43296953057E+01  0.17817098493E+02  0.51100000000E-03 0. -1.
         12    1    4    4    0    0  0.17357587297E+01 -0.76588816166E+01 -0.10680382298E+02  0.13256767782E+02  0.00000000000E+00 0. -1.
</event>
<event>
 8    1  0.2501893E-006  0.9118800E+02  0.7816164E-02  0.1184000E+00
        -11   -1    0    0    0    0  0.00000000000E+00  0.00000000000E+00  0.45593999997E+02  0.45594000000E+02  0.51100000000E-03 0.  1.
         11   -1    0    0    0    0 -0.00000000000E+00 -0.00000000000E+00 -0.45593999997E+02  0.45594000000E+02  0.51100000000E-03 0. -1.
         23    2    1    2    0    0  0.00000000000E+00  0.35527136788E-14 -0.17763568394E-14  0.91188000000E+02  0.91188000000E+02 0.  0.
    9900012    2    3    3    0    0 -0.26993781730E+02  0.21798402193E+02 -0.12326554917E+02  0.54367101771E+02  0.40000040108E+02 0.  0.
        -12    1    3    3    0    0  0.26993781730E+02 -0.21798402193E+02  0.12326554917E+02  0.36820898229E+02  0.00000000000E+00 0.  1.
         11    1    4    4    0    0 -0.90671517120E+01  0.18987418167E+02 -0.13377617515E+02  0.24933831223E+02  0.51100000000E-03 0. -1.
        -11    1    4    4    0    0 -0.20000903294E+02 -0.44979754380E+01 -0.31665005948E+01  0.20743544583E+02  0.51100000000E-03 0.  1.
        -12    1    4    4    0    0  0.20742732756E+01  0.73089594634E+01  0.42175631927E+01  0.86897259648E+01  0.00000000000E+00 0.  1.
</event>
<event>
 8    1  0.2501893E-006  0.9118800E+02  0.7816164E-02  0.1184000E+00
        -11   -1    0    0    0    0  0.00000000000E+00  0.00000000000E+00  0.45593999997E+02  0.45594000000E+02  0.51100000000E-03 0.  1.
         11   -1    0    0    0    0 -0.00000000000E+00 -0.00000000000E+00 -0.45593999997E+02  0.45594000000E+02  0.51100000000E-03 0. -1.
         23    2    1    2    0    0  0.35527136788E-14  0.00000000000E+00  0.00000000000E+00  0.91188000000E+02  0.91188000000E+02 0.  0.
    9900012    2    3    3    0    0  0.25094513885E+02  0.21638353709E+02  0.16057006991E+02  0.54367075896E+02  0.39999981119E+02 0.  0.
         12    1    3    3    0    0 -0.25094513885E+02 -0.21638353709E+02 -0.16057006991E+02  0.36820924104E+02  0.00000000000E+00 0. -1.
         11    1    4    4    0    0  0.16329443302E+02  0.17198504423E+02  0.16848369208E+02  0.29091352980E+02  0.51100000000E-03 0. -1.
        -11    1    4    4    0    0  0.24653938148E+01  0.14591360417E+01  0.11115750420E+02  0.11478987426E+02  0.51100000000E-03 0.  1.
         12    1    4    4    0    0  0.62996767690E+01  0.29807132440E+01 -0.11907112637E+02  0.13796735491E+02  0.00000000000E+00 0. -1.
</event>
<event>
 8    1  0.2501893E-006  0.9118800E+02  0.7816164E-02  0.1184000E+00
        -11   -1    0    0    0    0  0.00000000000E+00  0.00000000000E+00  0.45593999997E+02  0.45594000000E+02  0.51100000000E-03 0. -1.
         11   -1    0    0    0    0 -0.00000000000E+00 -0.00000000000E+00 -0.45593999997E+02  0.45594000000E+02  0.51100000000E-03 0.  1.
         23    2    1    2    0    0  0.00000000000E+00 -0.35527136788E-14  0.35527136788E-14  0.91188000000E+02  0.91188000000E+02 0.  0.
    9900012    2    3    3    0    0  0.48851163207E+01  0.24955916482E+02 -0.26629306696E+02  0.54367053461E+02  0.39999929974E+02 0.  0.
         12    1    3    3    0    0 -0.48851163207E+01 -0.24955916482E+02  0.26629306696E+02  0.36820946539E+02  0.00000000000E+00 0. -1.
         11    1    4    4    0    0  0.12842176390E+01 -0.36381559260E+01  0.39484224888E+01  0.55204559502E+01  0.51100000000E-03 0. -1.
        -11    1    4    4    0    0 -0.12331680298E+01  0.31481437852E+02 -0.21424108023E+02  0.38099790517E+02  0.51100000000E-03 0.  1.
         12    1    4    4    0    0  0.48340667114E+01 -0.28873654437E+01 -0.91536211617E+01  0.10746806993E+02  0.00000000000E+00 0. -1.
</event>
<event>
 8    1  0.2501893E-006  0.9118800E+02  0.7816164E-02  0.1184000E+00
        -11   -1    0    0    0    0  0.00000000000E+00  0.00000000000E+00  0.45593999997E+02  0.45594000000E+02  0.51100000000E-03 0.  1.
         11   -1    0    0    0    0 -0.00000000000E+00 -0.00000000000E+00 -0.45593999997E+02  0.45594000000E+02  0.51100000000E-03 0. -1.
         23    2    1    2    0    0  0.71054273576E-14  0.00000000000E+00 -0.17763568394E-14  0.91188000000E+02  0.91188000000E+02 0.  0.
    9900012    2    3    3    0    0  0.34813153636E+02 -0.11613235985E+02 -0.29928810446E+01  0.54367078596E+02  0.39999987275E+02 0.  0.
        -12    1    3    3    0    0 -0.34813153636E+02  0.11613235985E+02  0.29928810446E+01  0.36820921404E+02  0.00000000000E+00 0.  1.
         11    1    4    4    0    0  0.12298617099E+02 -0.10356839865E+02  0.10515439176E+02  0.19211834266E+02  0.51100000000E-03 0. -1.
        -11    1    4    4    0    0 -0.17462829558E+01  0.62333022223E+01 -0.17268693062E+00  0.64755989525E+01  0.51100000000E-03 0.  1.
         12    1    4    4    0    0  0.24260819493E+02 -0.74896983420E+01 -0.13335633290E+02  0.28679645377E+02  0.00000000000E+00 0. -1.
</event>
<event>
 8    1  0.2501893E-006  0.9118800E+02  0.7816164E-02  0.1184000E+00
        -11   -1    0    0    0    0  0.00000000000E+00  0.00000000000E+00  0.45593999997E+02  0.45594000000E+02  0.51100000000E-03 0.  1.
         11   -1    0    0    0    0 -0.00000000000E+00 -0.00000000000E+00 -0.45593999997E+02  0.45594000000E+02  0.51100000000E-03 0. -1.
         23    2    1    2    0    0  0.00000000000E+00  0.00000000000E+00  0.00000000000E+00  0.91188000000E+02  0.91188000000E+02 0.  0.
    9900012    2    3    3    0    0  0.16031914672E+02 -0.26991371935E+02 -0.19241047196E+02  0.54367158834E+02  0.40000170193E+02 0.  0.
        -12    1    3    3    0    0 -0.16031914672E+02  0.26991371935E+02  0.19241047196E+02  0.36820841166E+02  0.00000000000E+00 0.  1.
         11    1    4    4    0    0 -0.35946877397E+01 -0.10223700974E+02 -0.33183106922E+01  0.11333888462E+02  0.51100000000E-03 0. -1.
        -11    1    4    4    0    0 -0.50901777148E+01  0.46617975251E+01 -0.50797698338E+01  0.85700832644E+01  0.51100000000E-03 0.  1.
         12    1    4    4    0    0  0.24716780126E+02 -0.21429468486E+02 -0.10842966670E+02  0.34463187107E+02  0.00000000000E+00 0. -1.
</event>
<event>
 8    1  0.2501893E-006  0.9118800E+02  0.7816164E-02  0.1184000E+00
        -11   -1    0    0    0    0  0.00000000000E+00  0.00000000000E+00  0.45593999997E+02  0.45594000000E+02  0.51100000000E-03 0. -1.
         11   -1    0    0    0    0 -0.00000000000E+00 -0.00000000000E+00 -0.45593999997E+02  0.45594000000E+02  0.51100000000E-03 0.  1.
         23    2    1    2    0    0  0.00000000000E+00  0.00000000000E+00  0.00000000000E+00  0.91188000000E+02  0.91188000000E+02 0.  0.
    9900012    2    3    3    0    0  0.48285917795E+01 -0.11230928458E+02  0.34732307785E+02  0.54367051388E+02  0.39999925249E+02 0.  0.
        -12    1    3    3    0    0 -0.48285917795E+01  0.11230928458E+02 -0.34732307785E+02  0.36820948612E+02  0.00000000000E+00 0.  1.
         11    1    4    4    0    0  0.73428615471E+01 -0.38901006118E+01  0.52558616995E+00  0.83262680448E+01  0.51100000000E-03 0.  1.
        -11    1    4    4    0    0  0.69629723258E+01  0.29063654038E+01 -0.15089207136E+01  0.76945945605E+01  0.51100000000E-03 0. -1.
        -12    1    4    4    0    0 -0.94772420935E+01 -0.10247193250E+02  0.35715642329E+02  0.38346188783E+02  0.00000000000E+00 0.  1.
</event>
<event>
 8    1  0.2501893E-006  0.9118800E+02  0.7816164E-02  0.1184000E+00
        -11   -1    0    0    0    0  0.00000000000E+00  0.00000000000E+00  0.45593999997E+02  0.45594000000E+02  0.51100000000E-03 0.  1.
         11   -1    0    0    0    0 -0.00000000000E+00 -0.00000000000E+00 -0.45593999997E+02  0.45594000000E+02  0.51100000000E-03 0. -1.
         23    2    1    2    0    0  0.00000000000E+00  0.35527136788E-14  0.17763568394E-14  0.91188000000E+02  0.91188000000E+02 0.  0.
    9900012    2    3    3    0    0  0.31459541332E+02  0.14837617491E+02  0.12079878415E+02  0.54367067147E+02  0.39999961175E+02 0.  0.
         12    1    3    3    0    0 -0.31459541332E+02 -0.14837617491E+02 -0.12079878415E+02  0.36820932853E+02  0.00000000000E+00 0. -1.
         11    1    4    4    0    0  0.95173981722E+01  0.12898200451E+01  0.20622117612E+02  0.22748983248E+02  0.51100000000E-03 0. -1.
        -11    1    4    4    0    0  0.10183370874E+02 -0.24740246837E+01 -0.41054164753E+01  0.11255055983E+02  0.51100000000E-03 0.  1.
         12    1    4    4    0    0  0.11758772286E+02  0.16021822130E+02 -0.44368227223E+01  0.20363027916E+02  0.00000000000E+00 0. -1.
</event>
<event>
 8    1  0.2501893E-006  0.9118800E+02  0.7816164E-02  0.1184000E+00
        -11   -1    0    0    0    0  0.00000000000E+00  0.00000000000E+00  0.45593999997E+02  0.45594000000E+02  0.51100000000E-03 0. -1.
         11   -1    0    0    0    0 -0.00000000000E+00 -0.00000000000E+00 -0.45593999997E+02  0.45594000000E+02  0.51100000000E-03 0.  1.
         23    2    1    2    0    0 -0.88817841970E-15  0.00000000000E+00  0.00000000000E+00  0.91188000000E+02  0.91188000000E+02 0.  0.
    9900012    2    3    3    0    0  0.38684987604E+01  0.13817555646E+02 -0.33910021334E+02  0.54367086465E+02  0.40000005213E+02 0.  0.
         12    1    3    3    0    0 -0.38684987604E+01 -0.13817555646E+02  0.33910021334E+02  0.36820913535E+02  0.00000000000E+00 0. -1.
         11    1    4    4    0    0  0.58454633890E+01  0.17268504634E+02 -0.33096324262E+01  0.18529014048E+02  0.51100000000E-03 0. -1.
        -11    1    4    4    0    0 -0.45397647017E+01  0.65286630055E+01 -0.97559284482E+01  0.12586144935E+02  0.51100000000E-03 0.  1.
         12    1    4    4    0    0  0.25628000731E+01 -0.99796119933E+01 -0.20844460460E+02  0.23251927482E+02  0.00000000000E+00 0. -1.
</event>
<event>
 8    1  0.2501893E-006  0.9118800E+02  0.7816164E-02  0.1184000E+00
        -11   -1    0    0    0    0  0.00000000000E+00  0.00000000000E+00  0.45593999997E+02  0.45594000000E+02  0.51100000000E-03 0.  1.
         11   -1    0    0    0    0 -0.00000000000E+00 -0.00000000000E+00 -0.45593999997E+02  0.45594000000E+02  0.51100000000E-03 0. -1.
         23    2    1    2    0    0  0.00000000000E+00  0.00000000000E+00  0.00000000000E+00  0.91188000000E+02  0.91188000000E+02 0.  0.
    9900012    2    3    3    0    0  0.11627014770E+02  0.44049039605E+01 -0.34658184798E+02  0.54367076262E+02  0.39999981955E+02 0.  0.
        -12    1    3    3    0    0 -0.11627014770E+02 -0.44049039605E+01  0.34658184798E+02  0.36820923738E+02  0.00000000000E+00 0.  1.
         11    1    4    4    0    0  0.12983926196E+02 -0.31291790073E+01 -0.16115736257E+01  0.13452556283E+02  0.51100000000E-03 0.  1.
        -11    1    4    4    0    0  0.67396317515E+01  0.11599418949E+02 -0.26611963192E+02  0.29802109679E+02  0.51100000000E-03 0. -1.
        -12    1    4    4    0    0 -0.80965431771E+01 -0.40653359817E+01 -0.64346479806E+01  0.11112410301E+02  0.00000000000E+00 0.  1.
</event>
<event>
 8    1  0.2501893E-006  0.9118800E+02  0.7816164E-02  0.1184000E+00
        -11   -1    0    0    0    0  0.00000000000E+00  0.00000000000E+00  0.45593999997E+02  0.45594000000E+02  0.51100000000E-03 0. -1.
         11   -1    0    0    0    0 -0.00000000000E+00 -0.00000000000E+00 -0.45593999997E+02  0.45594000000E+02  0.51100000000E-03 0.  1.
         23    2    1    2    0    0  0.17763568394E-14  0.00000000000E+00  0.00000000000E+00  0.91188000000E+02  0.91188000000E+02 0.  0.
    9900012    2    3    3    0    0 -0.76414841557E+01  0.12768105990E+02  0.33680309499E+02  0.54367081236E+02  0.39999993294E+02 0.  0.
        -12    1    3    3    0    0  0.76414841557E+01 -0.12768105990E+02 -0.33680309499E+02  0.36820918764E+02  0.00000000000E+00 0.  1.
         11    1    4    4    0    0  0.47289643126E+01  0.11226744832E+02  0.41410596701E+01  0.12866673170E+02  0.51100000000E-03 0. -1.
        -11    1    4    4    0    0 -0.55005924473E+01 -0.93371586497E+01  0.18849628577E+01  0.10999642456E+02  0.51100000000E-03 0.  1.
         12    1    4    4    0    0 -0.68698560210E+01  0.10878519808E+02  0.27654286971E+02  0.30500765611E+02  0.00000000000E+00 0. -1.
</event>
<event>
 8    1  0.2501893E-006  0.9118800E+02  0.7816164E-02  0.1184000E+00
        -11   -1    0    0    0    0  0.00000000000E+00  0.00000000000E+00  0.45593999997E+02  0.45594000000E+02  0.51100000000E-03 0. -1.
         11   -1    0    0    0    0 -0.00000000000E+00 -0.00000000000E+00 -0.45593999997E+02  0.45594000000E+02  0.51100000000E-03 0.  1.
         23    2    1    2    0    0  0.00000000000E+00 -0.35527136788E-14 -0.22204460493E-15  0.91188000000E+02  0.91188000000E+02 0.  0.
    9900012    2    3    3    0    0  0.30334326266E+02  0.20871052266E+02  0.94814409394E-01  0.54367066247E+02  0.39999959122E+02 0.  0.
         12    1    3    3    0    0 -0.30334326266E+02 -0.20871052266E+02 -0.94814409394E-01  0.36820933753E+02  0.00000000000E+00 0. -1.
         11    1    4    4    0    0  0.23879982684E+02  0.39639738300E+01 -0.74607708223E+01  0.25330411822E+02  0.51100000000E-03 0.  1.
        -11    1    4    4    0    0 -0.58854115068E+01  0.14111495898E+02  0.29472533025E+01  0.15571084977E+02  0.51100000000E-03 0. -1.
         12    1    4    4    0    0  0.12339755089E+02  0.27955825379E+01  0.46083319293E+01  0.13465569448E+02  0.00000000000E+00 0. -1.
</event>
<event>
 8    1  0.2501893E-006  0.9118800E+02  0.7816164E-02  0.1184000E+00
        -11   -1    0    0    0    0  0.00000000000E+00  0.00000000000E+00  0.45593999997E+02  0.45594000000E+02  0.51100000000E-03 0. -1.
         11   -1    0    0    0    0 -0.00000000000E+00 -0.00000000000E+00 -0.45593999997E+02  0.45594000000E+02  0.51100000000E-03 0.  1.
         23    2    1    2    0    0 -0.35527136788E-14  0.66613381478E-15  0.00000000000E+00  0.91188000000E+02  0.91188000000E+02 0.  0.
    9900012    2    3    3    0    0  0.24041250068E+02  0.70141961875E+00 -0.27880215137E+02  0.54367080804E+02  0.39999992310E+02 0.  0.
         12    1    3    3    0    0 -0.24041250068E+02 -0.70141961875E+00  0.27880215137E+02  0.36820919196E+02  0.00000000000E+00 0. -1.
         11    1    4    4    0    0  0.49799921071E+01  0.12792473578E+02 -0.82501839182E+01  0.16016030612E+02  0.51100000000E-03 0. -1.
        -11    1    4    4    0    0  0.80728530427E+01  0.69889240945E+01 -0.42460108292E+01  0.11491067160E+02  0.51100000000E-03 0.  1.
         12    1    4    4    0    0  0.10988404918E+02 -0.19079978053E+02 -0.15384020390E+02  0.26859983033E+02  0.00000000000E+00 0. -1.
</event>
<event>
 8    1  0.2501893E-006  0.9118800E+02  0.7816164E-02  0.1184000E+00
        -11   -1    0    0    0    0  0.00000000000E+00  0.00000000000E+00  0.45593999997E+02  0.45594000000E+02  0.51100000000E-03 0.  1.
         11   -1    0    0    0    0 -0.00000000000E+00 -0.00000000000E+00 -0.45593999997E+02  0.45594000000E+02  0.51100000000E-03 0. -1.
         23    2    1    2    0    0  0.00000000000E+00  0.00000000000E+00  0.33306690739E-15  0.91188000000E+02  0.91188000000E+02 0.  0.
    9900012    2    3    3    0    0 -0.36484429918E+02 -0.48916231630E+01  0.86070301133E+00  0.54367049262E+02  0.39999920402E+02 0.  0.
         12    1    3    3    0    0  0.36484429918E+02  0.48916231630E+01 -0.86070301133E+00  0.36820950738E+02  0.00000000000E+00 0. -1.
         11    1    4    4    0    0 -0.38389797704E+00  0.13290043165E+01 -0.10366480704E+02  0.10458372367E+02  0.51100000000E-03 0. -1.
        -11    1    4    4    0    0 -0.37244668551E+02 -0.51040119210E+01  0.55372186628E+01  0.37998382386E+02  0.51100000000E-03 0.  1.
         12    1    4    4    0    0  0.11441366099E+01 -0.11166155586E+01  0.56899650523E+01  0.59102945090E+01  0.00000000000E+00 0. -1.
</event>
<event>
 8    1  0.2501893E-006  0.9118800E+02  0.7816164E-02  0.1184000E+00
        -11   -1    0    0    0    0  0.00000000000E+00  0.00000000000E+00  0.45593999997E+02  0.45594000000E+02  0.51100000000E-03 0.  1.
         11   -1    0    0    0    0 -0.00000000000E+00 -0.00000000000E+00 -0.45593999997E+02  0.45594000000E+02  0.51100000000E-03 0. -1.
         23    2    1    2    0    0  0.00000000000E+00 -0.35527136788E-14  0.00000000000E+00  0.91188000000E+02  0.91188000000E+02 0.  0.
    9900012    2    3    3    0    0  0.11601099451E+02 -0.19886677307E+02 -0.28735223048E+02  0.54367102585E+02  0.40000041964E+02 0.  0.
        -12    1    3    3    0    0 -0.11601099451E+02  0.19886677307E+02  0.28735223048E+02  0.36820897415E+02  0.00000000000E+00 0.  1.
         11    1    4    4    0    0  0.16461873782E+02 -0.21901130303E+02 -0.14932140935E+02  0.31202910603E+02  0.51100000000E-03 0. -1.
        -11    1    4    4    0    0 -0.56462750731E+01 -0.73062939114E+01 -0.63920787319E+01  0.11230361690E+02  0.51100000000E-03 0.  1.
        -12    1    4    4    0    0  0.78550074217E+00  0.93207469070E+01 -0.74110033812E+01  0.11933830292E+02  0.00000000000E+00 0.  1.
</event>
<event>
 8    1  0.2501893E-006  0.9118800E+02  0.7816164E-02  0.1184000E+00
        -11   -1    0    0    0    0  0.00000000000E+00  0.00000000000E+00  0.45593999997E+02  0.45594000000E+02  0.51100000000E-03 0. -1.
         11   -1    0    0    0    0 -0.00000000000E+00 -0.00000000000E+00 -0.45593999997E+02  0.45594000000E+02  0.51100000000E-03 0.  1.
         23    2    1    2    0    0  0.10658141036E-13  0.00000000000E+00  0.00000000000E+00  0.91188000000E+02  0.91188000000E+02 0.  0.
    9900012    2    3    3    0    0  0.28598691003E+02 -0.20003137420E+02  0.11737547831E+02  0.54367073031E+02  0.39999974590E+02 0.  0.
        -12    1    3    3    0    0 -0.28598691003E+02  0.20003137420E+02 -0.11737547831E+02  0.36820926969E+02  0.00000000000E+00 0.  1.
         11    1    4    4    0    0  0.39301618760E+01 -0.30026184259E+01  0.19625502281E+01  0.53210425146E+01  0.51100000000E-03 0. -1.
        -11    1    4    4    0    0 -0.57068518116E+01 -0.16662132703E+02  0.22936735949E+01  0.17761074366E+02  0.51100000000E-03 0.  1.
        -12    1    4    4    0    0  0.30375380939E+02 -0.33838629147E+00  0.74813240076E+01  0.31284956151E+02  0.00000000000E+00 0.  1.
</event>
<event>
 8    1  0.2501893E-006  0.9118800E+02  0.7816164E-02  0.1184000E+00
        -11   -1    0    0    0    0  0.00000000000E+00  0.00000000000E+00  0.45593999997E+02  0.45594000000E+02  0.51100000000E-03 0. -1.
         11   -1    0    0    0    0 -0.00000000000E+00 -0.00000000000E+00 -0.45593999997E+02  0.45594000000E+02  0.51100000000E-03 0.  1.
         23    2    1    2    0    0  0.00000000000E+00  0.00000000000E+00 -0.17763568394E-14  0.91188000000E+02  0.91188000000E+02 0.  0.
    9900012    2    3    3    0    0  0.22174708679E+02  0.27660678684E+02  0.99472945945E+01  0.54367088550E+02  0.40000009967E+02 0.  0.
        -12    1    3    3    0    0 -0.22174708679E+02 -0.27660678684E+02 -0.99472945945E+01  0.36820911450E+02  0.00000000000E+00 0.  1.
         11    1    4    4    0    0  0.80441984131E+00  0.11180749309E+02  0.75335786119E+01  0.13505963622E+02  0.51100000000E-03 0. -1.
        -11    1    4    4    0    0  0.12141796869E+02  0.16966023675E+02  0.14674953073E+02  0.25507321273E+02  0.51100000000E-03 0.  1.
        -12    1    4    4    0    0  0.92284919695E+01 -0.48609429983E+00 -0.12261237091E+02  0.15353803655E+02  0.00000000000E+00 0.  1.
</event>
<event>
 8    1  0.2501893E-006  0.9118800E+02  0.7816164E-02  0.1184000E+00
        -11   -1    0    0    0    0  0.00000000000E+00  0.00000000000E+00  0.45593999997E+02  0.45594000000E+02  0.51100000000E-03 0.  1.
         11   -1    0    0    0    0 -0.00000000000E+00 -0.00000000000E+00 -0.45593999997E+02  0.45594000000E+02  0.51100000000E-03 0. -1.
         23    2    1    2    0    0  0.00000000000E+00  0.00000000000E+00  0.71054273576E-14  0.91188000000E+02  0.91188000000E+02 0.  0.
    9900012    2    3    3    0    0  0.16370367111E+01 -0.68961088197E+00  0.36778032864E+02  0.54367093524E+02  0.40000021306E+02 0.  0.
         12    1    3    3    0    0 -0.16370367111E+01  0.68961088197E+00 -0.36778032864E+02  0.36820906476E+02  0.00000000000E+00 0. -1.
         11    1    4    4    0    0  0.13349069134E+02  0.28971898648E+01  0.19108845472E+01  0.13792854522E+02  0.51100000000E-03 0. -1.
        -11    1    4    4    0    0  0.27039631492E+01  0.59839572497E-01  0.39473751752E-01  0.27049132935E+01  0.51100000000E-03 0.  1.
        -12    1    4    4    0    0 -0.14415995572E+02 -0.36466403192E+01  0.34827674565E+02  0.37869325708E+02  0.00000000000E+00 0.  1.
</event>
<event>
 8    1  0.2501893E-006  0.9118800E+02  0.7816164E-02  0.1184000E+00
        -11   -1    0    0    0    0  0.00000000000E+00  0.00000000000E+00  0.45593999997E+02  0.45594000000E+02  0.51100000000E-03 0.  1.
         11   -1    0    0    0    0 -0.00000000000E+00 -0.00000000000E+00 -0.45593999997E+02  0.45594000000E+02  0.51100000000E-03 0. -1.
         23    2    1    2    0    0  0.00000000000E+00  0.00000000000E+00  0.00000000000E+00  0.91188000000E+02  0.91188000000E+02 0.  0.
    9900012    2    3    3    0    0  0.15078597304E+02  0.29670234862E+02 -0.15750981073E+02  0.54367077440E+02  0.39999984639E+02 0.  0.
        -12    1    3    3    0    0 -0.15078597304E+02 -0.29670234862E+02  0.15750981073E+02  0.36820922560E+02  0.00000000000E+00 0.  1.
         11    1    4    4    0    0 -0.25316683895E+01  0.13601139047E+01 -0.99686136660E+01  0.10374609070E+02  0.51100000000E-03 0. -1.
        -11    1    4    4    0    0 -0.55909685998E+01 -0.12103993183E+01 -0.26818029291E+01  0.63179160809E+01  0.51100000000E-03 0.  1.
        -12    1    4    4    0    0  0.23201234293E+02  0.29520520276E+02 -0.31005644782E+01  0.37674552289E+02  0.00000000000E+00 0.  1.
</event>
<event>
 8    1  0.2501893E-006  0.9118800E+02  0.7816164E-02  0.1184000E+00
        -11   -1    0    0    0    0  0.00000000000E+00  0.00000000000E+00  0.45593999997E+02  0.45594000000E+02  0.51100000000E-03 0.  1.
         11   -1    0    0    0    0 -0.00000000000E+00 -0.00000000000E+00 -0.45593999997E+02  0.45594000000E+02  0.51100000000E-03 0. -1.
         23    2    1    2    0    0  0.17763568394E-14  0.00000000000E+00  0.00000000000E+00  0.91188000000E+02  0.91188000000E+02 0.  0.
    9900012    2    3    3    0    0 -0.38195816772E+01 -0.25812554657E+02 -0.25978890787E+02  0.54367082730E+02  0.39999996699E+02 0.  0.
        -12    1    3    3    0    0  0.38195816772E+01  0.25812554657E+02  0.25978890787E+02  0.36820917270E+02  0.00000000000E+00 0.  1.
         11    1    4    4    0    0 -0.54654411803E+01  0.42459681774E+01 -0.83267479675E+01  0.10827466233E+02  0.51100000000E-03 0. -1.
        -11    1    4    4    0    0  0.84837648660E+01 -0.54291371538E+01  0.31826261770E+01  0.10563091696E+02  0.51100000000E-03 0.  1.
         12    1    4    4    0    0 -0.68379053629E+01 -0.24629385681E+02 -0.20834768996E+02  0.32976524800E+02  0.00000000000E+00 0. -1.
</event>
<event>
 8    1  0.2501893E-006  0.9118800E+02  0.7816164E-02  0.1184000E+00
        -11   -1    0    0    0    0  0.00000000000E+00  0.00000000000E+00  0.45593999997E+02  0.45594000000E+02  0.51100000000E-03 0. -1.
         11   -1    0    0    0    0 -0.00000000000E+00 -0.00000000000E+00 -0.45593999997E+02  0.45594000000E+02  0.51100000000E-03 0.  1.
         23    2    1    2    0    0  0.00000000000E+00  0.00000000000E+00 -0.35527136788E-14  0.91188000000E+02  0.91188000000E+02 0.  0.
    9900012    2    3    3    0    0  0.32211949948E+02 -0.19946359851E+01 -0.17725504264E+02  0.54367057676E+02  0.39999939585E+02 0.  0.
        -12    1    3    3    0    0 -0.32211949948E+02  0.19946359851E+01  0.17725504264E+02  0.36820942324E+02  0.00000000000E+00 0.  1.
         11    1    4    4    0    0  0.16937300719E+02  0.58451362634E+01  0.10137581162E+02  0.20586605492E+02  0.51100000000E-03 0. -1.
        -11    1    4    4    0    0 -0.26223424128E+00 -0.27248248083E+01 -0.37480362902E+01  0.46412512674E+01  0.51100000000E-03 0.  1.
         12    1    4    4    0    0  0.15536883470E+02 -0.51149474403E+01 -0.24115049136E+02  0.29139200917E+02  0.00000000000E+00 0. -1.
</event>
<event>
 8    1  0.2501893E-006  0.9118800E+02  0.7816164E-02  0.1184000E+00
        -11   -1    0    0    0    0  0.00000000000E+00  0.00000000000E+00  0.45593999997E+02  0.45594000000E+02  0.51100000000E-03 0.  1.
         11   -1    0    0    0    0 -0.00000000000E+00 -0.00000000000E+00 -0.45593999997E+02  0.45594000000E+02  0.51100000000E-03 0. -1.
         23    2    1    2    0    0  0.00000000000E+00  0.00000000000E+00  0.17763568394E-14  0.91188000000E+02  0.91188000000E+02 0.  0.
    9900012    2    3    3    0    0 -0.20098782021E+02 -0.26861178449E+02 -0.15175508838E+02  0.54367081830E+02  0.39999994648E+02 0.  0.
        -12    1    3    3    0    0  0.20098782021E+02  0.26861178449E+02  0.15175508838E+02  0.36820918170E+02  0.00000000000E+00 0.  1.
         11    1    4    4    0    0 -0.51153770293E+01 -0.17667303216E+02  0.96302891054E+01  0.20761578784E+02  0.51100000000E-03 0. -1.
        -11    1    4    4    0    0 -0.92379360172E+00 -0.73419752992E+00  0.19146930713E+01  0.22491088124E+01  0.51100000000E-03 0.  1.
         12    1    4    4    0    0 -0.14059611390E+02 -0.84596777024E+01 -0.26720491015E+02  0.31356394234E+02  0.00000000000E+00 0. -1.
</event>
<event>
 8    1  0.2501893E-006  0.9118800E+02  0.7816164E-02  0.1184000E+00
        -11   -1    0    0    0    0  0.00000000000E+00  0.00000000000E+00  0.45593999997E+02  0.45594000000E+02  0.51100000000E-03 0. -1.
         11   -1    0    0    0    0 -0.00000000000E+00 -0.00000000000E+00 -0.45593999997E+02  0.45594000000E+02  0.51100000000E-03 0.  1.
         23    2    1    2    0    0  0.17763568394E-14  0.00000000000E+00  0.00000000000E+00  0.91188000000E+02  0.91188000000E+02 0.  0.
    9900012    2    3    3    0    0  0.12731060517E+02 -0.52729984323E+01  0.34145224687E+02  0.54367071396E+02  0.39999970861E+02 0.  0.
        -12    1    3    3    0    0 -0.12731060517E+02  0.52729984323E+01 -0.34145224687E+02  0.36820928604E+02  0.00000000000E+00 0.  1.
         11    1    4    4    0    0  0.76371959810E+00  0.35008527007E+01  0.49080222935E+01  0.60768347312E+01  0.51100000000E-03 0. -1.
        -11    1    4    4    0    0  0.61772305700E+01 -0.33371384826E+01  0.36715723077E+02  0.37380997740E+02  0.51100000000E-03 0.  1.
        -12    1    4    4    0    0  0.57901103490E+01 -0.54367126504E+01 -0.74785206830E+01  0.10909238924E+02  0.00000000000E+00 0.  1.
</event>
<event>
 8    1  0.2501893E-006  0.9118800E+02  0.7816164E-02  0.1184000E+00
        -11   -1    0    0    0    0  0.00000000000E+00  0.00000000000E+00  0.45593999997E+02  0.45594000000E+02  0.51100000000E-03 0. -1.
         11   -1    0    0    0    0 -0.00000000000E+00 -0.00000000000E+00 -0.45593999997E+02  0.45594000000E+02  0.51100000000E-03 0.  1.
         23    2    1    2    0    0  0.44408920985E-15  0.88817841970E-15  0.71054273576E-14  0.91188000000E+02  0.91188000000E+02 0.  0.
    9900012    2    3    3    0    0  0.22591341839E+01  0.27649278614E+01  0.36647589450E+02  0.54366887499E+02  0.39999551628E+02 0.  0.
        -12    1    3    3    0    0 -0.22591341839E+01 -0.27649278614E+01 -0.36647589450E+02  0.36821112501E+02  0.00000000000E+00 0.  1.
         11    1    4    4    0    0  0.20713977151E+01 -0.53420437663E+01  0.31358930103E+02  0.31878058561E+02  0.51100000000E-03 0.  1.
        -11    1    4    4    0    0  0.82672686826E+01  0.10440728813E+02  0.20377416357E+01  0.13472525407E+02  0.51100000000E-03 0. -1.
        -12    1    4    4    0    0 -0.80795322137E+01 -0.23337571852E+01  0.32509177110E+01  0.90163035306E+01  0.00000000000E+00 0.  1.
</event>
<event>
 8    1  0.2501893E-006  0.9118800E+02  0.7816164E-02  0.1184000E+00
        -11   -1    0    0    0    0  0.00000000000E+00  0.00000000000E+00  0.45593999997E+02  0.45594000000E+02  0.51100000000E-03 0.  1.
         11   -1    0    0    0    0 -0.00000000000E+00 -0.00000000000E+00 -0.45593999997E+02  0.45594000000E+02  0.51100000000E-03 0. -1.
         23    2    1    2    0    0  0.71054273576E-14  0.00000000000E+00  0.17763568394E-14  0.91188000000E+02  0.91188000000E+02 0.  0.
    9900012    2    3    3    0    0 -0.35832792937E+02  0.27014712592E+01 -0.80307011842E+01  0.54367093464E+02  0.40000021170E+02 0.  0.
        -12    1    3    3    0    0  0.35832792937E+02 -0.27014712592E+01  0.80307011842E+01  0.36820906536E+02  0.00000000000E+00 0.  1.
         11    1    4    4    0    0 -0.32200468783E+02  0.21677150415E+01 -0.20941035628E+02  0.38472017776E+02  0.51100000000E-03 0. -1.
        -11    1    4    4    0    0  0.71813171872E+00  0.37328824106E+01  0.43840935351E+01  0.58026201532E+01  0.51100000000E-03 0.  1.
         12    1    4    4    0    0 -0.43504558727E+01 -0.31991261929E+01  0.85262409085E+01  0.10092455535E+02  0.00000000000E+00 0. -1.
</event>
<event>
 8    1  0.2501893E-006  0.9118800E+02  0.7816164E-02  0.1184000E+00
        -11   -1    0    0    0    0  0.00000000000E+00  0.00000000000E+00  0.45593999997E+02  0.45594000000E+02  0.51100000000E-03 0.  1.
         11   -1    0    0    0    0 -0.00000000000E+00 -0.00000000000E+00 -0.45593999997E+02  0.45594000000E+02  0.51100000000E-03 0. -1.
         23    2    1    2    0    0  0.00000000000E+00  0.13322676296E-14  0.17763568394E-14  0.91188000000E+02  0.91188000000E+02 0.  0.
    9900012    2    3    3    0    0 -0.34850891173E+02 -0.23164261564E+01  0.11654593756E+02  0.54367082015E+02  0.39999995068E+02 0.  0.
        -12    1    3    3    0    0  0.34850891173E+02  0.23164261564E+01 -0.11654593756E+02  0.36820917985E+02  0.00000000000E+00 0.  1.
         11    1    4    4    0    0 -0.43605499628E+01 -0.84573281034E+01  0.11100651958E+02  0.14620713689E+02  0.51100000000E-03 0. -1.
        -11    1    4    4    0    0  0.87055690489E-01 -0.24222065203E+01  0.69449963101E+01  0.73557893613E+01  0.51100000000E-03 0.  1.
         12    1    4    4    0    0 -0.30577396901E+02  0.85631084673E+01 -0.63910545125E+01  0.32390578964E+02  0.00000000000E+00 0. -1.
</event>
<event>
 8    1  0.2501893E-006  0.9118800E+02  0.7816164E-02  0.1184000E+00
        -11   -1    0    0    0    0  0.00000000000E+00  0.00000000000E+00  0.45593999997E+02  0.45594000000E+02  0.51100000000E-03 0. -1.
         11   -1    0    0    0    0 -0.00000000000E+00 -0.00000000000E+00 -0.45593999997E+02  0.45594000000E+02  0.51100000000E-03 0.  1.
         23    2    1    2    0    0  0.17763568394E-14 -0.35527136788E-14 -0.35527136788E-14  0.91188000000E+02  0.91188000000E+02 0.  0.
    9900012    2    3    3    0    0  0.13914075492E+02  0.27559955307E+02  0.20065522497E+02  0.54367111548E+02  0.40000062395E+02 0.  0.
        -12    1    3    3    0    0 -0.13914075492E+02 -0.27559955307E+02 -0.20065522497E+02  0.36820888452E+02  0.00000000000E+00 0.  1.
         11    1    4    4    0    0 -0.13464098483E+01 -0.23049421643E+01 -0.23521666946E+01  0.35578457360E+01  0.51100000000E-03 0. -1.
        -11    1    4    4    0    0  0.24525943466E+02  0.19914954030E+02  0.12480751383E+02  0.33969051389E+02  0.51100000000E-03 0.  1.
         12    1    4    4    0    0 -0.92654581262E+01  0.99499434419E+01  0.99369378091E+01  0.16840214423E+02  0.00000000000E+00 0. -1.
</event>
<event>
 8    1  0.2501893E-006  0.9118800E+02  0.7816164E-02  0.1184000E+00
        -11   -1    0    0    0    0  0.00000000000E+00  0.00000000000E+00  0.45593999997E+02  0.45594000000E+02  0.51100000000E-03 0. -1.
         11   -1    0    0    0    0 -0.00000000000E+00 -0.00000000000E+00 -0.45593999997E+02  0.45594000000E+02  0.51100000000E-03 0.  1.
         23    2    1    2    0    0  0.00000000000E+00  0.00000000000E+00  0.00000000000E+00  0.91188000000E+02  0.91188000000E+02 0.  0.
    9900012    2    3    3    0    0  0.23784575723E+02  0.19668637348E+02 -0.20080319262E+02  0.54367074439E+02  0.39999977800E+02 0.  0.
         12    1    3    3    0    0 -0.23784575723E+02 -0.19668637348E+02  0.20080319262E+02  0.36820925561E+02  0.00000000000E+00 0. -1.
         11    1    4    4    0    0  0.76708972273E+01 -0.72850189388E+00 -0.95843844683E+01  0.12297715446E+02  0.51100000000E-03 0.  1.
        -11    1    4    4    0    0  0.17439626150E+02  0.36759923771E+01  0.57406247380E+01  0.18724536119E+02  0.51100000000E-03 0. -1.
         12    1    4    4    0    0 -0.13259476540E+01  0.16721146865E+02 -0.16236559532E+02  0.23344822875E+02  0.00000000000E+00 0. -1.
</event>
<event>
 8    1  0.2501893E-006  0.9118800E+02  0.7816164E-02  0.1184000E+00
        -11   -1    0    0    0    0  0.00000000000E+00  0.00000000000E+00  0.45593999997E+02  0.45594000000E+02  0.51100000000E-03 0.  1.
         11   -1    0    0    0    0 -0.00000000000E+00 -0.00000000000E+00 -0.45593999997E+02  0.45594000000E+02  0.51100000000E-03 0. -1.
         23    2    1    2    0    0  0.26645352591E-14  0.00000000000E+00  0.00000000000E+00  0.91188000000E+02  0.91188000000E+02 0.  0.
    9900012    2    3    3    0    0  0.78783431105E+01  0.12486333090E+02  0.33731342223E+02  0.54367078605E+02  0.39999987296E+02 0.  0.
         12    1    3    3    0    0 -0.78783431105E+01 -0.12486333090E+02 -0.33731342223E+02  0.36820921395E+02  0.00000000000E+00 0. -1.
         11    1    4    4    0    0  0.67205135357E+01  0.15700080391E+02  0.22936102423E+02  0.28595849718E+02  0.51100000000E-03 0. -1.
        -11    1    4    4    0    0 -0.92354610797E+01  0.44384819165E+01  0.66499961091E+01  0.12215412870E+02  0.51100000000E-03 0.  1.
         12    1    4    4    0    0  0.10393290654E+02 -0.76522292177E+01  0.41452436911E+01  0.13555816017E+02  0.00000000000E+00 0. -1.
</event>
<event>
 8    1  0.2501893E-006  0.9118800E+02  0.7816164E-02  0.1184000E+00
        -11   -1    0    0    0    0  0.00000000000E+00  0.00000000000E+00  0.45593999997E+02  0.45594000000E+02  0.51100000000E-03 0. -1.
         11   -1    0    0    0    0 -0.00000000000E+00 -0.00000000000E+00 -0.45593999997E+02  0.45594000000E+02  0.51100000000E-03 0.  1.
         23    2    1    2    0    0  0.00000000000E+00  0.88817841970E-15 -0.17763568394E-14  0.91188000000E+02  0.91188000000E+02 0.  0.
    9900012    2    3    3    0    0 -0.35806826279E+02 -0.28485156228E+01 -0.80954456410E+01  0.54367094396E+02  0.40000023294E+02 0.  0.
         12    1    3    3    0    0  0.35806826279E+02  0.28485156228E+01  0.80954456410E+01  0.36820905604E+02  0.00000000000E+00 0. -1.
         11    1    4    4    0    0 -0.19842939536E+02 -0.58193021661E+01  0.99082670155E+01  0.22929899316E+02  0.51100000000E-03 0. -1.
        -11    1    4    4    0    0 -0.12603836350E+02  0.40533556505E+01 -0.22264773394E+02  0.25903793493E+02  0.51100000000E-03 0.  1.
        -12    1    4    4    0    0 -0.33600503928E+01 -0.10825691072E+01  0.42610607374E+01  0.55334015869E+01  0.00000000000E+00 0.  1.
</event>
<event>
 8    1  0.2501893E-006  0.9118800E+02  0.7816164E-02  0.1184000E+00
        -11   -1    0    0    0    0  0.00000000000E+00  0.00000000000E+00  0.45593999997E+02  0.45594000000E+02  0.51100000000E-03 0.  1.
         11   -1    0    0    0    0 -0.00000000000E+00 -0.00000000000E+00 -0.45593999997E+02  0.45594000000E+02  0.51100000000E-03 0. -1.
         23    2    1    2    0    0  0.00000000000E+00  0.00000000000E+00  0.17763568394E-14  0.91188000000E+02  0.91188000000E+02 0.  0.
    9900012    2    3    3    0    0 -0.30081162066E+02  0.19184514325E+02 -0.91025660307E+01  0.54367100914E+02  0.40000038155E+02 0.  0.
        -12    1    3    3    0    0  0.30081162066E+02 -0.19184514325E+02  0.91025660307E+01  0.36820899086E+02  0.00000000000E+00 0.  1.
         11    1    4    4    0    0 -0.33155633175E+02  0.64205887543E+01 -0.21983782553E+01  0.33843061894E+02  0.51100000000E-03 0. -1.
        -11    1    4    4    0    0  0.14279455381E+01  0.13797703834E+02 -0.55350698627E+00  0.13882436018E+02  0.51100000000E-03 0.  1.
         12    1    4    4    0    0  0.16465255702E+01 -0.10337782638E+01 -0.63506807891E+01  0.66416030021E+01  0.00000000000E+00 0. -1.
</event>
<event>
 8    1  0.2501893E-006  0.9118800E+02  0.7816164E-02  0.1184000E+00
        -11   -1    0    0    0    0  0.00000000000E+00  0.00000000000E+00  0.45593999997E+02  0.45594000000E+02  0.51100000000E-03 0.  1.
         11   -1    0    0    0    0 -0.00000000000E+00 -0.00000000000E+00 -0.45593999997E+02  0.45594000000E+02  0.51100000000E-03 0. -1.
         23    2    1    2    0    0  0.35527136788E-14  0.00000000000E+00  0.35527136788E-14  0.91188000000E+02  0.91188000000E+02 0.  0.
    9900012    2    3    3    0    0 -0.27043476075E+02 -0.15042530598E+02 -0.19953728016E+02  0.54367101223E+02  0.40000038857E+02 0.  0.
         12    1    3    3    0    0  0.27043476075E+02  0.15042530598E+02  0.19953728016E+02  0.36820898777E+02  0.00000000000E+00 0. -1.
         11    1    4    4    0    0 -0.43599502389E+01 -0.58125745791E+00 -0.16615702168E+02  0.17188036104E+02  0.51100000000E-03 0. -1.
        -11    1    4    4    0    0 -0.17698833954E+02 -0.77470302825E-01 -0.10258217633E+02  0.20456924360E+02  0.51100000000E-03 0.  1.
         12    1    4    4    0    0 -0.49846918821E+01 -0.14383802837E+02  0.69201917846E+01  0.16722140759E+02  0.00000000000E+00 0. -1.
</event>
<event>
 8    1  0.2501893E-006  0.9118800E+02  0.7816164E-02  0.1184000E+00
        -11   -1    0    0    0    0  0.00000000000E+00  0.00000000000E+00  0.45593999997E+02  0.45594000000E+02  0.51100000000E-03 0. -1.
         11   -1    0    0    0    0 -0.00000000000E+00 -0.00000000000E+00 -0.45593999997E+02  0.45594000000E+02  0.51100000000E-03 0.  1.
         23    2    1    2    0    0  0.00000000000E+00  0.00000000000E+00 -0.88817841970E-15  0.91188000000E+02  0.91188000000E+02 0.  0.
    9900012    2    3    3    0    0 -0.16169327570E+02  0.32400808886E+02 -0.66723268707E+01  0.54367088599E+02  0.40000010080E+02 0.  0.
        -12    1    3    3    0    0  0.16169327570E+02 -0.32400808886E+02  0.66723268707E+01  0.36820911401E+02  0.00000000000E+00 0.  1.
         11    1    4    4    0    0 -0.16796561603E+01  0.13531207064E+02  0.82308156890E+01  0.15926742812E+02  0.51100000000E-03 0.  1.
        -11    1    4    4    0    0  0.32013683663E+01  0.17277091605E+02 -0.59679687324E+01  0.18557028447E+02  0.51100000000E-03 0. -1.
        -12    1    4    4    0    0 -0.17691039776E+02  0.15925102170E+01 -0.89351738273E+01  0.19883317341E+02  0.00000000000E+00 0.  1.
</event>
<event>
 8    1  0.2501893E-006  0.9118800E+02  0.7816164E-02  0.1184000E+00
        -11   -1    0    0    0    0  0.00000000000E+00  0.00000000000E+00  0.45593999997E+02  0.45594000000E+02  0.51100000000E-03 0.  1.
         11   -1    0    0    0    0 -0.00000000000E+00 -0.00000000000E+00 -0.45593999997E+02  0.45594000000E+02  0.51100000000E-03 0. -1.
         23    2    1    2    0    0  0.00000000000E+00 -0.13322676296E-14 -0.88817841970E-15  0.91188000000E+02  0.91188000000E+02 0.  0.
    9900012    2    3    3    0    0 -0.36808289532E+02  0.75540277269E+00 -0.59890281432E+00  0.54367088873E+02  0.40000010704E+02 0.  0.
        -12    1    3    3    0    0  0.36808289532E+02 -0.75540277269E+00  0.59890281432E+00  0.36820911127E+02  0.00000000000E+00 0.  1.
         11    1    4    4    0    0  0.57169899832E+00 -0.20479779517E+01 -0.34552568546E+01  0.40570745159E+01  0.51100000000E-03 0. -1.
        -11    1    4    4    0    0 -0.72274126617E+01 -0.12150023350E+02  0.80289894156E+01  0.16258020558E+02  0.51100000000E-03 0.  1.
         12    1    4    4    0    0 -0.30152575869E+02  0.14953404074E+02 -0.51726353753E+01  0.34051993799E+02  0.00000000000E+00 0. -1.
</event>
<event>
 8    1  0.2501893E-006  0.9118800E+02  0.7816164E-02  0.1184000E+00
        -11   -1    0    0    0    0  0.00000000000E+00  0.00000000000E+00  0.45593999997E+02  0.45594000000E+02  0.51100000000E-03 0.  1.
         11   -1    0    0    0    0 -0.00000000000E+00 -0.00000000000E+00 -0.45593999997E+02  0.45594000000E+02  0.51100000000E-03 0. -1.
         23    2    1    2    0    0  0.35527136788E-14  0.17763568394E-14 -0.71054273576E-14  0.91188000000E+02  0.91188000000E+02 0.  0.
    9900012    2    3    3    0    0 -0.16634136987E+02 -0.13160880984E+02  0.30097740026E+02  0.54367119290E+02  0.40000080046E+02 0.  0.
         12    1    3    3    0    0  0.16634136987E+02  0.13160880984E+02 -0.30097740026E+02  0.36820880710E+02  0.00000000000E+00 0. -1.
         11    1    4    4    0    0  0.30860689470E+01 -0.15340905933E+02  0.14975342264E+02  0.21659365009E+02  0.51100000000E-03 0. -1.
        -11    1    4    4    0    0  0.31818977831E+01 -0.34083777604E+01 -0.68256933948E-01  0.46632790748E+01  0.51100000000E-03 0.  1.
        -12    1    4    4    0    0 -0.22902103717E+02  0.55884027099E+01  0.15190654696E+02  0.28044475207E+02  0.00000000000E+00 0.  1.
</event>
<event>
 8    1  0.2501893E-006  0.9118800E+02  0.7816164E-02  0.1184000E+00
        -11   -1    0    0    0    0  0.00000000000E+00  0.00000000000E+00  0.45593999997E+02  0.45594000000E+02  0.51100000000E-03 0.  1.
         11   -1    0    0    0    0 -0.00000000000E+00 -0.00000000000E+00 -0.45593999997E+02  0.45594000000E+02  0.51100000000E-03 0. -1.
         23    2    1    2    0    0 -0.35527136788E-14  0.00000000000E+00 -0.17763568394E-14  0.91188000000E+02  0.91188000000E+02 0.  0.
    9900012    2    3    3    0    0 -0.30883507064E+02 -0.15585699271E+02 -0.12612477730E+02  0.54367087127E+02  0.40000006722E+02 0.  0.
        -12    1    3    3    0    0  0.30883507064E+02  0.15585699271E+02  0.12612477730E+02  0.36820912873E+02  0.00000000000E+00 0.  1.
         11    1    4    4    0    0 -0.87159236905E+01 -0.56781333627E+01 -0.11565436476E+02  0.15555315664E+02  0.51100000000E-03 0. -1.
        -11    1    4    4    0    0 -0.24130270279E+02 -0.97055447833E+01  0.97945545245E+01  0.27792100350E+02  0.51100000000E-03 0.  1.
        -12    1    4    4    0    0  0.19626869049E+01 -0.20202112543E+00 -0.10841595778E+02  0.11019671113E+02  0.00000000000E+00 0.  1.
</event>
<event>
 8    1  0.2501893E-006  0.9118800E+02  0.7816164E-02  0.1184000E+00
        -11   -1    0    0    0    0  0.00000000000E+00  0.00000000000E+00  0.45593999997E+02  0.45594000000E+02  0.51100000000E-03 0. -1.
         11   -1    0    0    0    0 -0.00000000000E+00 -0.00000000000E+00 -0.45593999997E+02  0.45594000000E+02  0.51100000000E-03 0.  1.
         23    2    1    2    0    0  0.35527136788E-14  0.00000000000E+00  0.00000000000E+00  0.91188000000E+02  0.91188000000E+02 0.  0.
    9900012    2    3    3    0    0  0.24908226692E+02  0.15269239023E+01  0.27074494225E+02  0.54367088943E+02  0.40000010864E+02 0.  0.
        -12    1    3    3    0    0 -0.24908226692E+02 -0.15269239023E+01 -0.27074494225E+02  0.36820911057E+02  0.00000000000E+00 0.  1.
         11    1    4    4    0    0  0.14972211767E+02 -0.35396983141E+00  0.13301695947E+02  0.20030664871E+02  0.51100000000E-03 0. -1.
        -11    1    4    4    0    0 -0.24871395376E+01  0.57397485039E+01 -0.72740315929E+01  0.95938580270E+01  0.51100000000E-03 0.  1.
        -12    1    4    4    0    0  0.12423154463E+02 -0.38588547701E+01  0.21046829870E+02  0.24742566046E+02  0.00000000000E+00 0.  1.
</event>
<event>
 8    1  0.2501893E-006  0.9118800E+02  0.7816164E-02  0.1184000E+00
        -11   -1    0    0    0    0  0.00000000000E+00  0.00000000000E+00  0.45593999997E+02  0.45594000000E+02  0.51100000000E-03 0. -1.
         11   -1    0    0    0    0 -0.00000000000E+00 -0.00000000000E+00 -0.45593999997E+02  0.45594000000E+02  0.51100000000E-03 0.  1.
         23    2    1    2    0    0  0.17763568394E-14  0.35527136788E-14 -0.17763568394E-14  0.91188000000E+02  0.91188000000E+02 0.  0.
    9900012    2    3    3    0    0  0.12457906869E+02  0.31790798359E+02 -0.13781362364E+02  0.54367078604E+02  0.39999987292E+02 0.  0.
         12    1    3    3    0    0 -0.12457906869E+02 -0.31790798359E+02  0.13781362364E+02  0.36820921396E+02  0.00000000000E+00 0. -1.
         11    1    4    4    0    0  0.56027853591E+01  0.35366217104E+02 -0.17584900006E+02  0.39892220100E+02  0.51100000000E-03 0. -1.
        -11    1    4    4    0    0  0.12337596327E+01  0.37866117311E+01  0.33446723042E+01  0.52007138276E+01  0.51100000000E-03 0.  1.
         12    1    4    4    0    0  0.56213618773E+01 -0.73620304754E+01  0.45886533772E+00  0.92741446762E+01  0.00000000000E+00 0. -1.
</event>
<event>
 8    1  0.2501893E-006  0.9118800E+02  0.7816164E-02  0.1184000E+00
        -11   -1    0    0    0    0  0.00000000000E+00  0.00000000000E+00  0.45593999997E+02  0.45594000000E+02  0.51100000000E-03 0.  1.
         11   -1    0    0    0    0 -0.00000000000E+00 -0.00000000000E+00 -0.45593999997E+02  0.45594000000E+02  0.51100000000E-03 0. -1.
         23    2    1    2    0    0  0.00000000000E+00  0.35527136788E-14  0.17763568394E-14  0.91188000000E+02  0.91188000000E+02 0.  0.
    9900012    2    3    3    0    0 -0.28660596073E+02 -0.21430209030E+02 -0.86657806026E+01  0.54367090454E+02  0.40000014309E+02 0.  0.
         12    1    3    3    0    0  0.28660596073E+02  0.21430209030E+02  0.86657806026E+01  0.36820909546E+02  0.00000000000E+00 0. -1.
         11    1    4    4    0    0  0.69952948135E+00 -0.11907888837E+02 -0.12994461467E+02  0.17639251320E+02  0.51100000000E-03 0. -1.
        -11    1    4    4    0    0  0.16420308435E+01  0.21254599002E+01  0.23196999740E+01  0.35489228378E+01  0.51100000000E-03 0.  1.
        -12    1    4    4    0    0 -0.31002156398E+02 -0.11647780094E+02  0.20089808905E+01  0.33178916297E+02  0.00000000000E+00 0.  1.
</event>
<event>
 8    1  0.2501893E-006  0.9118800E+02  0.7816164E-02  0.1184000E+00
        -11   -1    0    0    0    0  0.00000000000E+00  0.00000000000E+00  0.45593999997E+02  0.45594000000E+02  0.51100000000E-03 0.  1.
         11   -1    0    0    0    0 -0.00000000000E+00 -0.00000000000E+00 -0.45593999997E+02  0.45594000000E+02  0.51100000000E-03 0. -1.
         23    2    1    2    0    0  0.35527136788E-14  0.88817841970E-15  0.00000000000E+00  0.91188000000E+02  0.91188000000E+02 0.  0.
    9900012    2    3    3    0    0 -0.29882377065E+02  0.54676101680E+01  0.20806938616E+02  0.54367083192E+02  0.39999997753E+02 0.  0.
         12    1    3    3    0    0  0.29882377065E+02 -0.54676101680E+01 -0.20806938616E+02  0.36820916808E+02  0.00000000000E+00 0. -1.
         11    1    4    4    0    0  0.38061826660E+01  0.82065038397E+01 -0.47187150892E+01  0.10202940954E+02  0.51100000000E-03 0. -1.
        -11    1    4    4    0    0 -0.15994113667E+02  0.61060118675E+00  0.48052988580E+01  0.16711535034E+02  0.51100000000E-03 0.  1.
         12    1    4    4    0    0 -0.17694446064E+02 -0.33494948585E+01  0.20720354848E+02  0.27452607204E+02  0.00000000000E+00 0. -1.
</event>
<event>
 8    1  0.2501893E-006  0.9118800E+02  0.7816164E-02  0.1184000E+00
        -11   -1    0    0    0    0  0.00000000000E+00  0.00000000000E+00  0.45593999997E+02  0.45594000000E+02  0.51100000000E-03 0.  1.
         11   -1    0    0    0    0 -0.00000000000E+00 -0.00000000000E+00 -0.45593999997E+02  0.45594000000E+02  0.51100000000E-03 0. -1.
         23    2    1    2    0    0  0.00000000000E+00  0.00000000000E+00  0.17763568394E-14  0.91188000000E+02  0.91188000000E+02 0.  0.
    9900012    2    3    3    0    0  0.27916141651E+02  0.21679662665E+02  0.10317996257E+02  0.54367084956E+02  0.40000001773E+02 0.  0.
         12    1    3    3    0    0 -0.27916141651E+02 -0.21679662665E+02 -0.10317996257E+02  0.36820915044E+02  0.00000000000E+00 0. -1.
         11    1    4    4    0    0  0.32945754536E+01 -0.48806309352E+01 -0.55030974485E+01  0.80597064173E+01  0.51100000000E-03 0. -1.
        -11    1    4    4    0    0  0.22641624664E+02  0.82616985115E+01  0.13847110703E+02  0.27796426116E+02  0.51100000000E-03 0.  1.
         12    1    4    4    0    0  0.19799415331E+01  0.18298595089E+02  0.19739830021E+01  0.18510952422E+02  0.00000000000E+00 0. -1.
</event>
<event>
 8    1  0.2501893E-006  0.9118800E+02  0.7816164E-02  0.1184000E+00
        -11   -1    0    0    0    0  0.00000000000E+00  0.00000000000E+00  0.45593999997E+02  0.45594000000E+02  0.51100000000E-03 0. -1.
         11   -1    0    0    0    0 -0.00000000000E+00 -0.00000000000E+00 -0.45593999997E+02  0.45594000000E+02  0.51100000000E-03 0.  1.
         23    2    1    2    0    0  0.00000000000E+00 -0.88817841970E-15  0.00000000000E+00  0.91188000000E+02  0.91188000000E+02 0.  0.
    9900012    2    3    3    0    0  0.26601361373E+02 -0.25513305501E+01 -0.25330601825E+02  0.54367067051E+02  0.39999960955E+02 0.  0.
         12    1    3    3    0    0 -0.26601361373E+02  0.25513305501E+01  0.25330601825E+02  0.36820932949E+02  0.00000000000E+00 0. -1.
         11    1    4    4    0    0  0.16414785527E+02 -0.54659721873E+01 -0.87343495021E+01  0.19380683614E+02  0.51100000000E-03 0. -1.
        -11    1    4    4    0    0  0.78117162006E+01 -0.12662080887E+02 -0.98698496990E+01  0.17853994952E+02  0.51100000000E-03 0.  1.
         12    1    4    4    0    0  0.23748596449E+01  0.15576722525E+02 -0.67264026239E+01  0.17132388485E+02  0.00000000000E+00 0. -1.
</event>
<event>
 8    1  0.2501893E-006  0.9118800E+02  0.7816164E-02  0.1184000E+00
        -11   -1    0    0    0    0  0.00000000000E+00  0.00000000000E+00  0.45593999997E+02  0.45594000000E+02  0.51100000000E-03 0. -1.
         11   -1    0    0    0    0 -0.00000000000E+00 -0.00000000000E+00 -0.45593999997E+02  0.45594000000E+02  0.51100000000E-03 0.  1.
         23    2    1    2    0    0  0.17763568394E-14  0.00000000000E+00  0.00000000000E+00  0.91188000000E+02  0.91188000000E+02 0.  0.
    9900012    2    3    3    0    0  0.49126625431E+01  0.32603175917E+02  0.16391421810E+02  0.54367081461E+02  0.39999993806E+02 0.  0.
        -12    1    3    3    0    0 -0.49126625431E+01 -0.32603175917E+02 -0.16391421810E+02  0.36820918539E+02  0.00000000000E+00 0.  1.
         11    1    4    4    0    0 -0.30996327902E+01  0.14306406380E+02  0.24992675704E+01  0.14850162477E+02  0.51100000000E-03 0. -1.
        -11    1    4    4    0    0  0.13610957181E+02  0.24170838283E+02  0.63911689781E+01  0.28466377006E+02  0.51100000000E-03 0.  1.
        -12    1    4    4    0    0 -0.55986618482E+01 -0.58740687453E+01  0.75009852613E+01  0.11050541978E+02  0.00000000000E+00 0.  1.
</event>
<event>
 8    1  0.2501893E-006  0.9118800E+02  0.7816164E-02  0.1184000E+00
        -11   -1    0    0    0    0  0.00000000000E+00  0.00000000000E+00  0.45593999997E+02  0.45594000000E+02  0.51100000000E-03 0. -1.
         11   -1    0    0    0    0 -0.00000000000E+00 -0.00000000000E+00 -0.45593999997E+02  0.45594000000E+02  0.51100000000E-03 0.  1.
         23    2    1    2    0    0  0.00000000000E+00  0.00000000000E+00 -0.88817841970E-15  0.91188000000E+02  0.91188000000E+02 0.  0.
    9900012    2    3    3    0    0 -0.17189082956E+02 -0.32221706701E+02  0.46986081693E+01  0.54367083739E+02  0.39999999000E+02 0.  0.
        -12    1    3    3    0    0  0.17189082956E+02  0.32221706701E+02 -0.46986081693E+01  0.36820916261E+02  0.00000000000E+00 0.  1.
         11    1    4    4    0    0 -0.15093126337E+02 -0.16527321786E+02  0.68435766569E+01  0.23404900550E+02  0.51100000000E-03 0. -1.
        -11    1    4    4    0    0  0.54909095120E+01  0.32629297100E+01  0.62019966744E+01  0.89028961901E+01  0.51100000000E-03 0.  1.
        -12    1    4    4    0    0 -0.75868661311E+01 -0.18957314625E+02 -0.83469651620E+01  0.22059286999E+02  0.00000000000E+00 0.  1.
</event>
<event>
 8    1  0.2501893E-006  0.9118800E+02  0.7816164E-02  0.1184000E+00
        -11   -1    0    0    0    0  0.00000000000E+00  0.00000000000E+00  0.45593999997E+02  0.45594000000E+02  0.51100000000E-03 0.  1.
         11   -1    0    0    0    0 -0.00000000000E+00 -0.00000000000E+00 -0.45593999997E+02  0.45594000000E+02  0.51100000000E-03 0. -1.
         23    2    1    2    0    0 -0.88817841970E-15  0.00000000000E+00  0.00000000000E+00  0.91188000000E+02  0.91188000000E+02 0.  0.
    9900012    2    3    3    0    0  0.55249185017E+01  0.36103302954E+02  0.46695335443E+01  0.54367112556E+02  0.40000064695E+02 0.  0.
         12    1    3    3    0    0 -0.55249185017E+01 -0.36103302954E+02 -0.46695335443E+01  0.36820887444E+02  0.00000000000E+00 0. -1.
         11    1    4    4    0    0  0.40796505370E+01  0.12336068497E+02 -0.28003888301E+01  0.13291512793E+02  0.51100000000E-03 0. -1.
        -11    1    4    4    0    0  0.71434533406E+01  0.30516010112E+02  0.40395230017E+01  0.31600214321E+02  0.51100000000E-03 0.  1.
        -12    1    4    4    0    0 -0.56981853759E+01 -0.67487756553E+01  0.34303993727E+01  0.94753854423E+01  0.00000000000E+00 0.  1.
</event>
<event>
 8    1  0.2501893E-006  0.9118800E+02  0.7816164E-02  0.1184000E+00
        -11   -1    0    0    0    0  0.00000000000E+00  0.00000000000E+00  0.45593999997E+02  0.45594000000E+02  0.51100000000E-03 0. -1.
         11   -1    0    0    0    0 -0.00000000000E+00 -0.00000000000E+00 -0.45593999997E+02  0.45594000000E+02  0.51100000000E-03 0.  1.
         23    2    1    2    0    0  0.17763568394E-14  0.00000000000E+00  0.00000000000E+00  0.91188000000E+02  0.91188000000E+02 0.  0.
    9900012    2    3    3    0    0 -0.11632348253E+02 -0.34823165094E+02  0.27955287531E+01  0.54367091075E+02  0.40000015723E+02 0.  0.
         12    1    3    3    0    0  0.11632348253E+02  0.34823165094E+02 -0.27955287531E+01  0.36820908925E+02  0.00000000000E+00 0. -1.
         11    1    4    4    0    0 -0.25629544484E+01 -0.12191740462E+02  0.52723579817E+01  0.13527935169E+02  0.51100000000E-03 0. -1.
        -11    1    4    4    0    0 -0.57697083334E+01 -0.30963026860E+02  0.16565795468E+00  0.31496444393E+02  0.51100000000E-03 0.  1.
         12    1    4    4    0    0 -0.32996854713E+01  0.83316022276E+01 -0.26424871833E+01  0.93427115123E+01  0.00000000000E+00 0. -1.
</event>
<event>
 8    1  0.2501893E-006  0.9118800E+02  0.7816164E-02  0.1184000E+00
        -11   -1    0    0    0    0  0.00000000000E+00  0.00000000000E+00  0.45593999997E+02  0.45594000000E+02  0.51100000000E-03 0.  1.
         11   -1    0    0    0    0 -0.00000000000E+00 -0.00000000000E+00 -0.45593999997E+02  0.45594000000E+02  0.51100000000E-03 0. -1.
         23    2    1    2    0    0  0.35527136788E-14 -0.26645352591E-14 -0.71054273576E-14  0.91188000000E+02  0.91188000000E+02 0.  0.
    9900012    2    3    3    0    0 -0.16934695534E+02  0.36636060940E+01  0.32489573774E+02  0.54367104757E+02  0.40000046914E+02 0.  0.
         12    1    3    3    0    0  0.16934695534E+02 -0.36636060940E+01 -0.32489573774E+02  0.36820895243E+02  0.00000000000E+00 0. -1.
         11    1    4    4    0    0 -0.23966070546E+01 -0.12069057926E+02  0.15064549980E+02  0.19451132382E+02  0.51100000000E-03 0. -1.
        -11    1    4    4    0    0 -0.14278727275E+02  0.17947555897E+02  0.20739420201E+02  0.30921196060E+02  0.51100000000E-03 0.  1.
         12    1    4    4    0    0 -0.25936120460E+00 -0.22148918773E+01 -0.33143964063E+01  0.39947763142E+01  0.00000000000E+00 0. -1.
</event>
<event>
 8    1  0.2501893E-006  0.9118800E+02  0.7816164E-02  0.1184000E+00
        -11   -1    0    0    0    0  0.00000000000E+00  0.00000000000E+00  0.45593999997E+02  0.45594000000E+02  0.51100000000E-03 0.  1.
         11   -1    0    0    0    0 -0.00000000000E+00 -0.00000000000E+00 -0.45593999997E+02  0.45594000000E+02  0.51100000000E-03 0. -1.
         23    2    1    2    0    0  0.00000000000E+00  0.88817841970E-15  0.00000000000E+00  0.91188000000E+02  0.91188000000E+02 0.  0.
    9900012    2    3    3    0    0  0.30619005377E+02  0.74290017202E+01  0.19054309701E+02  0.54367078298E+02  0.39999986595E+02 0.  0.
         12    1    3    3    0    0 -0.30619005377E+02 -0.74290017202E+01 -0.19054309701E+02  0.36820921702E+02  0.00000000000E+00 0. -1.
         11    1    4    4    0    0  0.51688253261E+01 -0.15570035949E+01  0.67910046282E+00  0.54407897539E+01  0.51100000000E-03 0. -1.
        -11    1    4    4    0    0  0.33290311446E+02  0.16684076419E+00  0.15792869937E+02  0.36846810081E+02  0.51100000000E-03 0.  1.
         12    1    4    4    0    0 -0.78401313954E+01  0.88191645509E+01  0.25823393009E+01  0.12079478463E+02  0.00000000000E+00 0. -1.
</event>
<event>
 8    1  0.2501893E-006  0.9118800E+02  0.7816164E-02  0.1184000E+00
        -11   -1    0    0    0    0  0.00000000000E+00  0.00000000000E+00  0.45593999997E+02  0.45594000000E+02  0.51100000000E-03 0. -1.
         11   -1    0    0    0    0 -0.00000000000E+00 -0.00000000000E+00 -0.45593999997E+02  0.45594000000E+02  0.51100000000E-03 0.  1.
         23    2    1    2    0    0  0.00000000000E+00 -0.35527136788E-14  0.35527136788E-14  0.91188000000E+02  0.91188000000E+02 0.  0.
    9900012    2    3    3    0    0  0.71912261110E+01  0.29905698257E+02 -0.20241417778E+02  0.54367088620E+02  0.40000010126E+02 0.  0.
         12    1    3    3    0    0 -0.71912261110E+01 -0.29905698257E+02  0.20241417778E+02  0.36820911380E+02  0.00000000000E+00 0. -1.
         11    1    4    4    0    0 -0.31891242430E+01  0.18177131932E+02  0.31765891287E+01  0.18726167720E+02  0.51100000000E-03 0. -1.
        -11    1    4    4    0    0  0.21014521394E+01 -0.47614927082E+01  0.72439639117E+00  0.52547753803E+01  0.51100000000E-03 0.  1.
        -12    1    4    4    0    0  0.82788982146E+01  0.16490059033E+02 -0.24142403297E+02  0.30386145520E+02  0.00000000000E+00 0.  1.
</event>
<event>
 8    1  0.2501893E-006  0.9118800E+02  0.7816164E-02  0.1184000E+00
        -11   -1    0    0    0    0  0.00000000000E+00  0.00000000000E+00  0.45593999997E+02  0.45594000000E+02  0.51100000000E-03 0. -1.
         11   -1    0    0    0    0 -0.00000000000E+00 -0.00000000000E+00 -0.45593999997E+02  0.45594000000E+02  0.51100000000E-03 0.  1.
         23    2    1    2    0    0  0.17763568394E-14  0.00000000000E+00  0.35527136788E-14  0.91188000000E+02  0.91188000000E+02 0.  0.
    9900012    2    3    3    0    0  0.13358730091E+02 -0.26852731259E+02  0.21360109201E+02  0.54367094107E+02  0.40000022636E+02 0.  0.
        -12    1    3    3    0    0 -0.13358730091E+02  0.26852731259E+02 -0.21360109201E+02  0.36820905893E+02  0.00000000000E+00 0.  1.
         11    1    4    4    0    0  0.11530282973E+02  0.12837720391E+01  0.90785059004E+01  0.14731421036E+02  0.51100000000E-03 0. -1.
        -11    1    4    4    0    0 -0.41067064299E+01 -0.45522599423E+01 -0.64796413462E+01  0.89204181808E+01  0.51100000000E-03 0.  1.
        -12    1    4    4    0    0  0.59351535483E+01 -0.23584243355E+02  0.18761244647E+02  0.30715254891E+02  0.00000000000E+00 0.  1.
</event>
<event>
 8    1  0.2501893E-006  0.9118800E+02  0.7816164E-02  0.1184000E+00
        -11   -1    0    0    0    0  0.00000000000E+00  0.00000000000E+00  0.45593999997E+02  0.45594000000E+02  0.51100000000E-03 0.  1.
         11   -1    0    0    0    0 -0.00000000000E+00 -0.00000000000E+00 -0.45593999997E+02  0.45594000000E+02  0.51100000000E-03 0. -1.
         23    2    1    2    0    0  0.00000000000E+00 -0.88817841970E-15  0.00000000000E+00  0.91188000000E+02  0.91188000000E+02 0.  0.
    9900012    2    3    3    0    0 -0.17362260994E+02 -0.32319950823E+01 -0.32309279958E+02  0.54367034906E+02  0.39999887675E+02 0.  0.
        -12    1    3    3    0    0  0.17362260994E+02  0.32319950823E+01  0.32309279958E+02  0.36820965094E+02  0.00000000000E+00 0.  1.
         11    1    4    4    0    0 -0.70237364420E+01 -0.36638077672E+01 -0.42473764772E+01  0.89886911262E+01  0.51100000000E-03 0. -1.
        -11    1    4    4    0    0  0.45365883111E+00  0.14243614514E+02 -0.23133179180E+02  0.27170394550E+02  0.51100000000E-03 0.  1.
         12    1    4    4    0    0 -0.10792183383E+02 -0.13811801829E+02 -0.49287243005E+01  0.18207949230E+02  0.00000000000E+00 0. -1.
</event>
<event>
 8    1  0.2501893E-006  0.9118800E+02  0.7816164E-02  0.1184000E+00
        -11   -1    0    0    0    0  0.00000000000E+00  0.00000000000E+00  0.45593999997E+02  0.45594000000E+02  0.51100000000E-03 0. -1.
         11   -1    0    0    0    0 -0.00000000000E+00 -0.00000000000E+00 -0.45593999997E+02  0.45594000000E+02  0.51100000000E-03 0.  1.
         23    2    1    2    0    0  0.00000000000E+00 -0.17763568394E-14  0.00000000000E+00  0.91188000000E+02  0.91188000000E+02 0.  0.
    9900012    2    3    3    0    0 -0.35671223040E+02 -0.90437102985E+01  0.12461110205E+01  0.54367114055E+02  0.40000068111E+02 0.  0.
        -12    1    3    3    0    0  0.35671223040E+02  0.90437102985E+01 -0.12461110205E+01  0.36820885945E+02  0.00000000000E+00 0.  1.
         11    1    4    4    0    0 -0.26345668327E+02  0.68789405461E+01 -0.68681195131E+01  0.28081757932E+02  0.51100000000E-03 0. -1.
        -11    1    4    4    0    0  0.45633712005E+01 -0.19967861133E+01  0.34869250451E+01  0.60803090404E+01  0.51100000000E-03 0.  1.
         12    1    4    4    0    0 -0.13888925913E+02 -0.13925864731E+02  0.46273054885E+01  0.20205047083E+02  0.00000000000E+00 0. -1.
</event>
<event>
 8    1  0.2501893E-006  0.9118800E+02  0.7816164E-02  0.1184000E+00
        -11   -1    0    0    0    0  0.00000000000E+00  0.00000000000E+00  0.45593999997E+02  0.45594000000E+02  0.51100000000E-03 0. -1.
         11   -1    0    0    0    0 -0.00000000000E+00 -0.00000000000E+00 -0.45593999997E+02  0.45594000000E+02  0.51100000000E-03 0.  1.
         23    2    1    2    0    0  0.17763568394E-14 -0.71054273576E-14  0.17763568394E-14  0.91188000000E+02  0.91188000000E+02 0.  0.
    9900012    2    3    3    0    0  0.87512335659E+01 -0.33603002676E+02  0.12248842327E+02  0.54367081813E+02  0.39999994609E+02 0.  0.
        -12    1    3    3    0    0 -0.87512335659E+01  0.33603002676E+02 -0.12248842327E+02  0.36820918187E+02  0.00000000000E+00 0.  1.
         11    1    4    4    0    0  0.66607138780E+01 -0.79780345741E+01  0.14585296546E+02  0.17909355674E+02  0.51100000000E-03 0. -1.
        -11    1    4    4    0    0  0.68114866114E+01 -0.12065134102E+01  0.70479308294E+01  0.98754925803E+01  0.51100000000E-03 0.  1.
         12    1    4    4    0    0 -0.47209669235E+01 -0.24418454692E+02 -0.93843850485E+01  0.26582233559E+02  0.00000000000E+00 0. -1.
</event>
<event>
 8    1  0.2501893E-006  0.9118800E+02  0.7816164E-02  0.1184000E+00
        -11   -1    0    0    0    0  0.00000000000E+00  0.00000000000E+00  0.45593999997E+02  0.45594000000E+02  0.51100000000E-03 0.  1.
         11   -1    0    0    0    0 -0.00000000000E+00 -0.00000000000E+00 -0.45593999997E+02  0.45594000000E+02  0.51100000000E-03 0. -1.
         23    2    1    2    0    0  0.00000000000E+00  0.35527136788E-14  0.00000000000E+00  0.91188000000E+02  0.91188000000E+02 0.  0.
    9900012    2    3    3    0    0 -0.17103151710E+02  0.26669906509E+02  0.18761211905E+02  0.54367017072E+02  0.39999847020E+02 0.  0.
         12    1    3    3    0    0  0.17103151710E+02 -0.26669906509E+02 -0.18761211905E+02  0.36820982928E+02  0.00000000000E+00 0. -1.
         11    1    4    4    0    0  0.26445522034E+01  0.47099911781E-01  0.19183676792E+02  0.19365157637E+02  0.51100000000E-03 0. -1.
        -11    1    4    4    0    0 -0.15320024349E+01 -0.23563328403E+00  0.19164657228E+01  0.24648317656E+01  0.51100000000E-03 0.  1.
         12    1    4    4    0    0 -0.18215701479E+02  0.26858439881E+02 -0.23389306104E+01  0.32537027670E+02  0.00000000000E+00 0. -1.
</event>
<event>
 8    1  0.2501893E-006  0.9118800E+02  0.7816164E-02  0.1184000E+00
        -11   -1    0    0    0    0  0.00000000000E+00  0.00000000000E+00  0.45593999997E+02  0.45594000000E+02  0.51100000000E-03 0. -1.
         11   -1    0    0    0    0 -0.00000000000E+00 -0.00000000000E+00 -0.45593999997E+02  0.45594000000E+02  0.51100000000E-03 0.  1.
         23    2    1    2    0    0  0.88817841970E-15  0.00000000000E+00  0.55511151231E-16  0.91188000000E+02  0.91188000000E+02 0.  0.
    9900012    2    3    3    0    0  0.72580548361E+01 -0.36097139223E+02 -0.31162612092E+00  0.54367082970E+02  0.39999997247E+02 0.  0.
        -12    1    3    3    0    0 -0.72580548361E+01  0.36097139223E+02  0.31162612092E+00  0.36820917030E+02  0.00000000000E+00 0.  1.
         11    1    4    4    0    0 -0.69868555860E+01 -0.22913107663E+02  0.22127575540E+01  0.24056661240E+02  0.51100000000E-03 0. -1.
        -11    1    4    4    0    0  0.81435932638E+01  0.22516030035E+01 -0.91362271953E+01  0.12444214517E+02  0.51100000000E-03 0.  1.
        -12    1    4    4    0    0  0.61013171584E+01 -0.15435634563E+02  0.66118435204E+01  0.17866207213E+02  0.00000000000E+00 0.  1.
</event>
<event>
 8    1  0.2501893E-006  0.9118800E+02  0.7816164E-02  0.1184000E+00
        -11   -1    0    0    0    0  0.00000000000E+00  0.00000000000E+00  0.45593999997E+02  0.45594000000E+02  0.51100000000E-03 0. -1.
         11   -1    0    0    0    0 -0.00000000000E+00 -0.00000000000E+00 -0.45593999997E+02  0.45594000000E+02  0.51100000000E-03 0.  1.
         23    2    1    2    0    0  0.00000000000E+00  0.66613381478E-15  0.71054273576E-14  0.91188000000E+02  0.91188000000E+02 0.  0.
    9900012    2    3    3    0    0 -0.85226634763E+01 -0.11763443182E+01  0.35801674675E+02  0.54367088982E+02  0.40000010952E+02 0.  0.
        -12    1    3    3    0    0  0.85226634763E+01  0.11763443182E+01 -0.35801674675E+02  0.36820911018E+02  0.00000000000E+00 0.  1.
         11    1    4    4    0    0  0.12391869222E+02  0.58650030844E+00  0.60776607374E+01  0.13814498389E+02  0.51100000000E-03 0. -1.
        -11    1    4    4    0    0 -0.30243901695E+01  0.26274671800E+01 -0.15179622234E+01  0.42842419693E+01  0.51100000000E-03 0.  1.
         12    1    4    4    0    0 -0.17890142529E+02 -0.43903118065E+01  0.31241976161E+02  0.36268348624E+02  0.00000000000E+00 0. -1.
</event>
<event>
 8    1  0.2501893E-006  0.9118800E+02  0.7816164E-02  0.1184000E+00
        -11   -1    0    0    0    0  0.00000000000E+00  0.00000000000E+00  0.45593999997E+02  0.45594000000E+02  0.51100000000E-03 0. -1.
         11   -1    0    0    0    0 -0.00000000000E+00 -0.00000000000E+00 -0.45593999997E+02  0.45594000000E+02  0.51100000000E-03 0.  1.
         23    2    1    2    0    0 -0.35527136788E-14 -0.35527136788E-14 -0.35527136788E-14  0.91188000000E+02  0.91188000000E+02 0.  0.
    9900012    2    3    3    0    0 -0.17519519029E+02  0.19691741097E+02  0.25711552190E+02  0.54367053102E+02  0.39999929156E+02 0.  0.
        -12    1    3    3    0    0  0.17519519029E+02 -0.19691741097E+02 -0.25711552190E+02  0.36820946898E+02  0.00000000000E+00 0.  1.
         11    1    4    4    0    0 -0.13177597297E+02  0.52041457056E+01  0.14616251472E+00  0.14168753184E+02  0.51100000000E-03 0. -1.
        -11    1    4    4    0    0  0.69448068847E+01 -0.15990415058E+01 -0.95551717050E+00  0.71902913521E+01  0.51100000000E-03 0.  1.
        -12    1    4    4    0    0 -0.11286728617E+02  0.16086636898E+02  0.26520906846E+02  0.33008008565E+02  0.00000000000E+00 0.  1.
</event>
<event>
 8    1  0.2501893E-006  0.9118800E+02  0.7816164E-02  0.1184000E+00
        -11   -1    0    0    0    0  0.00000000000E+00  0.00000000000E+00  0.45593999997E+02  0.45594000000E+02  0.51100000000E-03 0.  1.
         11   -1    0    0    0    0 -0.00000000000E+00 -0.00000000000E+00 -0.45593999997E+02  0.45594000000E+02  0.51100000000E-03 0. -1.
         23    2    1    2    0    0 -0.22204460493E-14  0.35527136788E-14  0.35527136788E-14  0.91188000000E+02  0.91188000000E+02 0.  0.
    9900012    2    3    3    0    0  0.31923271024E+01  0.23000547576E+02  0.28575583338E+02  0.54367080617E+02  0.39999991882E+02 0.  0.
         12    1    3    3    0    0 -0.31923271024E+01 -0.23000547576E+02 -0.28575583338E+02  0.36820919383E+02  0.00000000000E+00 0. -1.
         11    1    4    4    0    0 -0.50921591669E+01  0.18660555498E+02  0.14271974175E+02  0.24038212570E+02  0.51100000000E-03 0. -1.
        -11    1    4    4    0    0  0.53061100722E+01  0.14702881355E+02  0.60945550621E+01  0.16777160841E+02  0.51100000000E-03 0.  1.
         12    1    4    4    0    0  0.29783761971E+01 -0.10362889277E+02  0.82090541015E+01  0.13551707205E+02  0.00000000000E+00 0. -1.
</event>
<event>
 8    1  0.2501893E-006  0.9118800E+02  0.7816164E-02  0.1184000E+00
        -11   -1    0    0    0    0  0.00000000000E+00  0.00000000000E+00  0.45593999997E+02  0.45594000000E+02  0.51100000000E-03 0.  1.
         11   -1    0    0    0    0 -0.00000000000E+00 -0.00000000000E+00 -0.45593999997E+02  0.45594000000E+02  0.51100000000E-03 0. -1.
         23    2    1    2    0    0  0.00000000000E+00  0.00000000000E+00  0.17763568394E-14  0.91188000000E+02  0.91188000000E+02 0.  0.
    9900012    2    3    3    0    0  0.32358154822E+02  0.13280820708E+02  0.11504311532E+02  0.54367087925E+02  0.40000008543E+02 0.  0.
         12    1    3    3    0    0 -0.32358154822E+02 -0.13280820708E+02 -0.11504311532E+02  0.36820912075E+02  0.00000000000E+00 0. -1.
         11    1    4    4    0    0  0.12252153744E+02  0.39838349695E+01  0.95678839510E+01  0.16047760466E+02  0.51100000000E-03 0. -1.
        -11    1    4    4    0    0  0.20543956070E+02 -0.34183756350E+01  0.10157539026E+02  0.23171426851E+02  0.51100000000E-03 0.  1.
         12    1    4    4    0    0 -0.43795499170E+00  0.12715361374E+02 -0.82211114446E+01  0.15147900608E+02  0.00000000000E+00 0. -1.
</event>
<event>
 8    1  0.2501893E-006  0.9118800E+02  0.7816164E-02  0.1184000E+00
        -11   -1    0    0    0    0  0.00000000000E+00  0.00000000000E+00  0.45593999997E+02  0.45594000000E+02  0.51100000000E-03 0.  1.
         11   -1    0    0    0    0 -0.00000000000E+00 -0.00000000000E+00 -0.45593999997E+02  0.45594000000E+02  0.51100000000E-03 0. -1.
         23    2    1    2    0    0  0.00000000000E+00  0.00000000000E+00  0.35527136788E-14  0.91188000000E+02  0.91188000000E+02 0.  0.
    9900012    2    3    3    0    0 -0.19025141370E+02 -0.19330036610E+02 -0.24903367829E+02  0.54367027053E+02  0.39999869773E+02 0.  0.
        -12    1    3    3    0    0  0.19025141370E+02  0.19330036610E+02  0.24903367829E+02  0.36820972947E+02  0.00000000000E+00 0.  1.
         11    1    4    4    0    0 -0.59375772540E+01 -0.19453129156E+02 -0.13538755716E+02  0.24433112045E+02  0.51100000000E-03 0. -1.
        -11    1    4    4    0    0 -0.19773082145E+02  0.35565288531E+01 -0.93086680968E+01  0.22142153847E+02  0.51100000000E-03 0.  1.
        -12    1    4    4    0    0  0.66855180289E+01 -0.34334363073E+01 -0.20559440157E+01  0.77917611608E+01  0.00000000000E+00 0.  1.
</event>
<event>
 8    1  0.2501893E-006  0.9118800E+02  0.7816164E-02  0.1184000E+00
        -11   -1    0    0    0    0  0.00000000000E+00  0.00000000000E+00  0.45593999997E+02  0.45594000000E+02  0.51100000000E-03 0.  1.
         11   -1    0    0    0    0 -0.00000000000E+00 -0.00000000000E+00 -0.45593999997E+02  0.45594000000E+02  0.51100000000E-03 0. -1.
         23    2    1    2    0    0  0.00000000000E+00  0.17763568394E-14  0.00000000000E+00  0.91188000000E+02  0.91188000000E+02 0.  0.
    9900012    2    3    3    0    0 -0.85745973774E+01  0.83885830526E+01 -0.34812217059E+02  0.54367048052E+02  0.39999917643E+02 0.  0.
        -12    1    3    3    0    0  0.85745973774E+01 -0.83885830526E+01  0.34812217059E+02  0.36820951948E+02  0.00000000000E+00 0.  1.
         11    1    4    4    0    0 -0.38853097508E+01  0.13708789612E+01 -0.10664073874E+02  0.11432296919E+02  0.51100000000E-03 0. -1.
        -11    1    4    4    0    0  0.14641806900E+02  0.68124369474E+01 -0.11689744857E+02  0.19935945966E+02  0.51100000000E-03 0.  1.
        -12    1    4    4    0    0 -0.19331094527E+02  0.20526714407E+00 -0.12458398328E+02  0.22998805167E+02  0.00000000000E+00 0.  1.
</event>
<event>
 8    1  0.2501893E-006  0.9118800E+02  0.7816164E-02  0.1184000E+00
        -11   -1    0    0    0    0  0.00000000000E+00  0.00000000000E+00  0.45593999997E+02  0.45594000000E+02  0.51100000000E-03 0.  1.
         11   -1    0    0    0    0 -0.00000000000E+00 -0.00000000000E+00 -0.45593999997E+02  0.45594000000E+02  0.51100000000E-03 0. -1.
         23    2    1    2    0    0  0.17763568394E-14  0.35527136788E-14  0.00000000000E+00  0.91188000000E+02  0.91188000000E+02 0.  0.
    9900012    2    3    3    0    0  0.24095501473E+01 -0.30112686368E+02  0.21052309881E+02  0.54367087959E+02  0.40000008620E+02 0.  0.
        -12    1    3    3    0    0 -0.24095501473E+01  0.30112686368E+02 -0.21052309881E+02  0.36820912041E+02  0.00000000000E+00 0.  1.
         11    1    4    4    0    0  0.86883737822E+01 -0.10103162648E+02  0.15664144164E+02  0.20565192611E+02  0.51100000000E-03 0. -1.
        -11    1    4    4    0    0 -0.77437561823E+01  0.26708277872E+01  0.73290701961E+01  0.10991558173E+02  0.51100000000E-03 0.  1.
         12    1    4    4    0    0  0.14649325474E+01 -0.22680351507E+02 -0.19409044785E+01  0.22810337175E+02  0.00000000000E+00 0. -1.
</event>
<event>
 8    1  0.2501893E-006  0.9118800E+02  0.7816164E-02  0.1184000E+00
        -11   -1    0    0    0    0  0.00000000000E+00  0.00000000000E+00  0.45593999997E+02  0.45594000000E+02  0.51100000000E-03 0.  1.
         11   -1    0    0    0    0 -0.00000000000E+00 -0.00000000000E+00 -0.45593999997E+02  0.45594000000E+02  0.51100000000E-03 0. -1.
         23    2    1    2    0    0  0.00000000000E+00  0.00000000000E+00  0.71054273576E-14  0.91188000000E+02  0.91188000000E+02 0.  0.
    9900012    2    3    3    0    0  0.20397730471E+01  0.11202066631E+02  0.35016223109E+02  0.54367043308E+02  0.39999906830E+02 0.  0.
         12    1    3    3    0    0 -0.20397730471E+01 -0.11202066631E+02 -0.35016223109E+02  0.36820956692E+02  0.00000000000E+00 0. -1.
         11    1    4    4    0    0 -0.56886364566E+01 -0.60026805467E+01  0.64188450493E+00  0.82948643425E+01  0.51100000000E-03 0. -1.
        -11    1    4    4    0    0  0.23339469061E+01  0.40038577319E+01 -0.33657468565E+01  0.57276903775E+01  0.51100000000E-03 0.  1.
        -12    1    4    4    0    0  0.53944625976E+01  0.13200889446E+02  0.37740085460E+02  0.40344488588E+02  0.00000000000E+00 0.  1.
</event>
<event>
 8    1  0.2501893E-006  0.9118800E+02  0.7816164E-02  0.1184000E+00
        -11   -1    0    0    0    0  0.00000000000E+00  0.00000000000E+00  0.45593999997E+02  0.45594000000E+02  0.51100000000E-03 0.  1.
         11   -1    0    0    0    0 -0.00000000000E+00 -0.00000000000E+00 -0.45593999997E+02  0.45594000000E+02  0.51100000000E-03 0. -1.
         23    2    1    2    0    0  0.00000000000E+00  0.00000000000E+00 -0.11102230246E-14  0.91188000000E+02  0.91188000000E+02 0.  0.
    9900012    2    3    3    0    0 -0.25865137281E+02 -0.26194444261E+02 -0.79485027422E+00  0.54367000235E+02  0.39999808635E+02 0.  0.
        -12    1    3    3    0    0  0.25865137281E+02  0.26194444261E+02  0.79485027422E+00  0.36820999765E+02  0.00000000000E+00 0.  1.
         11    1    4    4    0    0 -0.81715889057E+01 -0.14014299703E+02 -0.68513650763E+01  0.17610129616E+02  0.51100000000E-03 0. -1.
        -11    1    4    4    0    0 -0.40190967243E+01 -0.19606287023E+02  0.69084575149E+01  0.21172775321E+02  0.51100000000E-03 0.  1.
         12    1    4    4    0    0 -0.13674451651E+02  0.74261424648E+01 -0.85194271289E+00  0.15584095298E+02  0.00000000000E+00 0. -1.
</event>
<event>
 8    1  0.2501893E-006  0.9118800E+02  0.7816164E-02  0.1184000E+00
        -11   -1    0    0    0    0  0.00000000000E+00  0.00000000000E+00  0.45593999997E+02  0.45594000000E+02  0.51100000000E-03 0. -1.
         11   -1    0    0    0    0 -0.00000000000E+00 -0.00000000000E+00 -0.45593999997E+02  0.45594000000E+02  0.51100000000E-03 0.  1.
         23    2    1    2    0    0  0.00000000000E+00 -0.17763568394E-14  0.35527136788E-14  0.91188000000E+02  0.91188000000E+02 0.  0.
    9900012    2    3    3    0    0 -0.18359306382E+02  0.10965692508E+02 -0.29974398991E+02  0.54367148056E+02  0.40000145622E+02 0.  0.
         12    1    3    3    0    0  0.18359306382E+02 -0.10965692508E+02  0.29974398991E+02  0.36820851944E+02  0.00000000000E+00 0. -1.
         11    1    4    4    0    0 -0.17641989708E+01  0.39223377974E+01  0.72994186398E+01  0.84722278384E+01  0.51100000000E-03 0. -1.
        -11    1    4    4    0    0 -0.19644114341E+02  0.10397276996E+02 -0.31579757568E+02  0.38617038798E+02  0.51100000000E-03 0.  1.
         12    1    4    4    0    0  0.30490069297E+01 -0.33539222859E+01 -0.56940600632E+01  0.72778814198E+01  0.00000000000E+00 0. -1.
</event>
<event>
 8    1  0.2501893E-006  0.9118800E+02  0.7816164E-02  0.1184000E+00
        -11   -1    0    0    0    0  0.00000000000E+00  0.00000000000E+00  0.45593999997E+02  0.45594000000E+02  0.51100000000E-03 0. -1.
         11   -1    0    0    0    0 -0.00000000000E+00 -0.00000000000E+00 -0.45593999997E+02  0.45594000000E+02  0.51100000000E-03 0.  1.
         23    2    1    2    0    0 -0.35527136788E-14 -0.35527136788E-14  0.00000000000E+00  0.91188000000E+02  0.91188000000E+02 0.  0.
    9900012    2    3    3    0    0 -0.23611713696E+02  0.21435418347E+02  0.18406270205E+02  0.54367068911E+02  0.39999965197E+02 0.  0.
        -12    1    3    3    0    0  0.23611713696E+02 -0.21435418347E+02 -0.18406270205E+02  0.36820931089E+02  0.00000000000E+00 0.  1.
         11    1    4    4    0    0 -0.27857175557E+02  0.18118425130E+02  0.22544963701E+02  0.40156879208E+02  0.51100000000E-03 0. -1.
        -11    1    4    4    0    0  0.37452937771E+01 -0.42074001150E+01 -0.52219768739E-01  0.56331313113E+01  0.51100000000E-03 0.  1.
        -12    1    4    4    0    0  0.50016808405E+00  0.75243933324E+01 -0.40864737272E+01  0.85770583918E+01  0.00000000000E+00 0.  1.
</event>
<event>
 8    1  0.2501893E-006  0.9118800E+02  0.7816164E-02  0.1184000E+00
        -11   -1    0    0    0    0  0.00000000000E+00  0.00000000000E+00  0.45593999997E+02  0.45594000000E+02  0.51100000000E-03 0.  1.
         11   -1    0    0    0    0 -0.00000000000E+00 -0.00000000000E+00 -0.45593999997E+02  0.45594000000E+02  0.51100000000E-03 0. -1.
         23    2    1    2    0    0  0.00000000000E+00  0.00000000000E+00  0.00000000000E+00  0.91188000000E+02  0.91188000000E+02 0.  0.
    9900012    2    3    3    0    0  0.10090667731E+02  0.29700339381E+02 -0.19282973312E+02  0.54367288514E+02  0.40000465822E+02 0.  0.
        -12    1    3    3    0    0 -0.10090667731E+02 -0.29700339381E+02  0.19282973312E+02  0.36820711486E+02  0.00000000000E+00 0.  1.
         11    1    4    4    0    0  0.21974073539E+01  0.55250230472E+01 -0.15446918079E+02  0.16551790149E+02  0.51100000000E-03 0. -1.
        -11    1    4    4    0    0  0.12598913244E+02  0.27871644053E+02 -0.64927001330E+01  0.31268455549E+02  0.51100000000E-03 0.  1.
        -12    1    4    4    0    0 -0.47056528663E+01 -0.36963277193E+01  0.26566448999E+01  0.65470428157E+01  0.00000000000E+00 0.  1.
</event>
<event>
 8    1  0.2501893E-006  0.9118800E+02  0.7816164E-02  0.1184000E+00
        -11   -1    0    0    0    0  0.00000000000E+00  0.00000000000E+00  0.45593999997E+02  0.45594000000E+02  0.51100000000E-03 0.  1.
         11   -1    0    0    0    0 -0.00000000000E+00 -0.00000000000E+00 -0.45593999997E+02  0.45594000000E+02  0.51100000000E-03 0. -1.
         23    2    1    2    0    0  0.00000000000E+00  0.00000000000E+00 -0.35527136788E-14  0.91188000000E+02  0.91188000000E+02 0.  0.
    9900012    2    3    3    0    0 -0.19402579379E+02  0.20968406356E+02 -0.23230225748E+02  0.54367115437E+02  0.40000071262E+02 0.  0.
        -12    1    3    3    0    0  0.19402579379E+02 -0.20968406356E+02  0.23230225748E+02  0.36820884563E+02  0.00000000000E+00 0.  1.
         11    1    4    4    0    0 -0.15655036471E+02  0.86214565430E+01 -0.23137650462E+01  0.18021187219E+02  0.51100000000E-03 0. -1.
        -11    1    4    4    0    0 -0.18531978262E+01  0.10459267113E+02  0.39524139455E+01  0.11333674911E+02  0.51100000000E-03 0.  1.
         12    1    4    4    0    0 -0.18943450817E+01  0.18876826999E+01 -0.24868874647E+02  0.25012253307E+02  0.00000000000E+00 0. -1.
</event>
<event>
 8    1  0.2501893E-006  0.9118800E+02  0.7816164E-02  0.1184000E+00
        -11   -1    0    0    0    0  0.00000000000E+00  0.00000000000E+00  0.45593999997E+02  0.45594000000E+02  0.51100000000E-03 0.  1.
         11   -1    0    0    0    0 -0.00000000000E+00 -0.00000000000E+00 -0.45593999997E+02  0.45594000000E+02  0.51100000000E-03 0. -1.
         23    2    1    2    0    0 -0.44408920985E-15  0.00000000000E+00 -0.71054273576E-14  0.91188000000E+02  0.91188000000E+02 0.  0.
    9900012    2    3    3    0    0  0.22228789247E+01 -0.15956686776E+02  0.33109298151E+02  0.54367045807E+02  0.39999912527E+02 0.  0.
         12    1    3    3    0    0 -0.22228789247E+01  0.15956686776E+02 -0.33109298151E+02  0.36820954193E+02  0.00000000000E+00 0. -1.
         11    1    4    4    0    0  0.32890687797E+01 -0.20210965924E+01  0.34095521304E+01  0.51505194752E+01  0.51100000000E-03 0. -1.
        -11    1    4    4    0    0  0.98622123633E+00 -0.76707016764E+01  0.37907861479E+02  0.38688735554E+02  0.51100000000E-03 0.  1.
         12    1    4    4    0    0 -0.20524110913E+01 -0.62648885074E+01 -0.82081154583E+01  0.10527790778E+02  0.00000000000E+00 0. -1.
</event>
<event>
 8    1  0.2501893E-006  0.9118800E+02  0.7816164E-02  0.1184000E+00
        -11   -1    0    0    0    0  0.00000000000E+00  0.00000000000E+00  0.45593999997E+02  0.45594000000E+02  0.51100000000E-03 0. -1.
         11   -1    0    0    0    0 -0.00000000000E+00 -0.00000000000E+00 -0.45593999997E+02  0.45594000000E+02  0.51100000000E-03 0.  1.
         23    2    1    2    0    0  0.35527136788E-14  0.35527136788E-14  0.00000000000E+00  0.91188000000E+02  0.91188000000E+02 0.  0.
    9900012    2    3    3    0    0  0.17460816460E+02  0.31193874435E+02  0.88226733437E+01  0.54367116270E+02  0.40000073161E+02 0.  0.
         12    1    3    3    0    0 -0.17460816460E+02 -0.31193874435E+02 -0.88226733437E+01  0.36820883730E+02  0.00000000000E+00 0. -1.
         11    1    4    4    0    0  0.16671119708E+00  0.95878213011E+01 -0.46200582841E+01  0.10644202588E+02  0.51100000000E-03 0. -1.
        -11    1    4    4    0    0 -0.43928550455E+01  0.18589236527E+02  0.25608344440E+01  0.19272123998E+02  0.51100000000E-03 0.  1.
         12    1    4    4    0    0  0.21686960308E+02  0.30168166073E+01  0.10881897184E+02  0.24450789684E+02  0.00000000000E+00 0. -1.
</event>
<event>
 8    1  0.2501893E-006  0.9118800E+02  0.7816164E-02  0.1184000E+00
        -11   -1    0    0    0    0  0.00000000000E+00  0.00000000000E+00  0.45593999997E+02  0.45594000000E+02  0.51100000000E-03 0. -1.
         11   -1    0    0    0    0 -0.00000000000E+00 -0.00000000000E+00 -0.45593999997E+02  0.45594000000E+02  0.51100000000E-03 0.  1.
         23    2    1    2    0    0  0.00000000000E+00  0.00000000000E+00  0.39412917374E-14  0.91188000000E+02  0.91188000000E+02 0.  0.
    9900012    2    3    3    0    0  0.12641616983E+01 -0.36798685857E+02 -0.20221594664E+00  0.54367051114E+02  0.39999924625E+02 0.  0.
        -12    1    3    3    0    0 -0.12641616983E+01  0.36798685857E+02  0.20221594664E+00  0.36820948886E+02  0.00000000000E+00 0.  1.
         11    1    4    4    0    0  0.55192267614E+00 -0.12674509189E+02  0.15903665425E+02  0.20343902675E+02  0.51100000000E-03 0. -1.
        -11    1    4    4    0    0 -0.71203487880E+01 -0.35604786664E+01 -0.40418538703E+01  0.89282113643E+01  0.51100000000E-03 0.  1.
         12    1    4    4    0    0  0.78325878101E+01 -0.20563698001E+02 -0.12064027501E+02  0.25094937075E+02  0.00000000000E+00 0. -1.
</event>
<event>
 8    1  0.2501893E-006  0.9118800E+02  0.7816164E-02  0.1184000E+00
        -11   -1    0    0    0    0  0.00000000000E+00  0.00000000000E+00  0.45593999997E+02  0.45594000000E+02  0.51100000000E-03 0. -1.
         11   -1    0    0    0    0 -0.00000000000E+00 -0.00000000000E+00 -0.45593999997E+02  0.45594000000E+02  0.51100000000E-03 0.  1.
         23    2    1    2    0    0  0.00000000000E+00  0.35527136788E-14  0.00000000000E+00  0.91188000000E+02  0.91188000000E+02 0.  0.
    9900012    2    3    3    0    0  0.31790179202E+02  0.18449203739E+02  0.21888044332E+01  0.54367089132E+02  0.40000011294E+02 0.  0.
        -12    1    3    3    0    0 -0.31790179202E+02 -0.18449203739E+02 -0.21888044332E+01  0.36820910868E+02  0.00000000000E+00 0.  1.
         11    1    4    4    0    0  0.35479663057E+02  0.56814222338E+01 -0.78918661695E+01  0.36788131253E+02  0.51100000000E-03 0.  1.
        -11    1    4    4    0    0 -0.32402434046E+01  0.32160734972E+01  0.49244395804E+01  0.67150883466E+01  0.51100000000E-03 0. -1.
        -12    1    4    4    0    0 -0.44924044992E+00  0.95517080080E+01  0.51562310223E+01  0.10863869532E+02  0.00000000000E+00 0.  1.
</event>
<event>
 8    1  0.2501893E-006  0.9118800E+02  0.7816164E-02  0.1184000E+00
        -11   -1    0    0    0    0  0.00000000000E+00  0.00000000000E+00  0.45593999997E+02  0.45594000000E+02  0.51100000000E-03 0. -1.
         11   -1    0    0    0    0 -0.00000000000E+00 -0.00000000000E+00 -0.45593999997E+02  0.45594000000E+02  0.51100000000E-03 0.  1.
         23    2    1    2    0    0  0.00000000000E+00 -0.35527136788E-14  0.35527136788E-14  0.91188000000E+02  0.91188000000E+02 0.  0.
    9900012    2    3    3    0    0 -0.95261817233E+01 -0.22200054643E+02  0.27788285837E+02  0.54367090259E+02  0.40000013864E+02 0.  0.
        -12    1    3    3    0    0  0.95261817233E+01  0.22200054643E+02 -0.27788285837E+02  0.36820909741E+02  0.00000000000E+00 0.  1.
         11    1    4    4    0    0 -0.10430858043E+02 -0.82398675461E+00  0.19105983182E+02  0.21783487951E+02  0.51100000000E-03 0. -1.
        -11    1    4    4    0    0 -0.10369109279E+02 -0.78155275928E+01  0.72968366174E+01  0.14894452782E+02  0.51100000000E-03 0.  1.
         12    1    4    4    0    0  0.11273785599E+02 -0.13560540295E+02  0.13854660375E+01  0.17689149526E+02  0.00000000000E+00 0. -1.
</event>
<event>
 8    1  0.2501893E-006  0.9118800E+02  0.7816164E-02  0.1184000E+00
        -11   -1    0    0    0    0  0.00000000000E+00  0.00000000000E+00  0.45593999997E+02  0.45594000000E+02  0.51100000000E-03 0. -1.
         11   -1    0    0    0    0 -0.00000000000E+00 -0.00000000000E+00 -0.45593999997E+02  0.45594000000E+02  0.51100000000E-03 0.  1.
         23    2    1    2    0    0  0.00000000000E+00  0.35527136788E-14  0.00000000000E+00  0.91188000000E+02  0.91188000000E+02 0.  0.
    9900012    2    3    3    0    0 -0.24354718356E+02  0.26053537228E+02  0.91570451444E+01  0.54366938309E+02  0.39999667462E+02 0.  0.
        -12    1    3    3    0    0  0.24354718356E+02 -0.26053537228E+02 -0.91570451444E+01  0.36821061691E+02  0.00000000000E+00 0.  1.
         11    1    4    4    0    0 -0.19216845253E+01  0.15016140475E+02  0.12920765401E+02  0.19902852182E+02  0.51100000000E-03 0. -1.
        -11    1    4    4    0    0 -0.18607054573E+02 -0.20992624957E+01  0.33819725241E+01  0.19028061418E+02  0.51100000000E-03 0.  1.
        -12    1    4    4    0    0 -0.38259792576E+01  0.13136659248E+02 -0.71456927808E+01  0.15436024709E+02  0.00000000000E+00 0.  1.
</event>
<event>
 8    1  0.2501893E-006  0.9118800E+02  0.7816164E-02  0.1184000E+00
        -11   -1    0    0    0    0  0.00000000000E+00  0.00000000000E+00  0.45593999997E+02  0.45594000000E+02  0.51100000000E-03 0.  1.
         11   -1    0    0    0    0 -0.00000000000E+00 -0.00000000000E+00 -0.45593999997E+02  0.45594000000E+02  0.51100000000E-03 0. -1.
         23    2    1    2    0    0  0.17763568394E-14 -0.17763568394E-14  0.00000000000E+00  0.91188000000E+02  0.91188000000E+02 0.  0.
    9900012    2    3    3    0    0 -0.13473134202E+02  0.42449648836E+01 -0.34003447856E+02  0.54367088303E+02  0.40000009404E+02 0.  0.
        -12    1    3    3    0    0  0.13473134202E+02 -0.42449648836E+01  0.34003447856E+02  0.36820911697E+02  0.00000000000E+00 0.  1.
         11    1    4    4    0    0  0.21298639820E+01 -0.11303295688E+01 -0.15093488024E+02  0.15284873127E+02  0.51100000000E-03 0. -1.
        -11    1    4    4    0    0 -0.67667881759E+01  0.15432739117E+02 -0.19385925540E+02  0.25686046177E+02  0.51100000000E-03 0.  1.
        -12    1    4    4    0    0 -0.88362100085E+01 -0.10057444664E+02  0.47596570868E+00  0.13396168999E+02  0.00000000000E+00 0.  1.
</event>
<event>
 8    1  0.2501893E-006  0.9118800E+02  0.7816164E-02  0.1184000E+00
        -11   -1    0    0    0    0  0.00000000000E+00  0.00000000000E+00  0.45593999997E+02  0.45594000000E+02  0.51100000000E-03 0. -1.
         11   -1    0    0    0    0 -0.00000000000E+00 -0.00000000000E+00 -0.45593999997E+02  0.45594000000E+02  0.51100000000E-03 0.  1.
         23    2    1    2    0    0  0.00000000000E+00  0.00000000000E+00  0.35527136788E-14  0.91188000000E+02  0.91188000000E+02 0.  0.
    9900012    2    3    3    0    0 -0.14099591085E+02 -0.33741747024E+02 -0.42980588686E+01  0.54367119089E+02  0.40000079587E+02 0.  0.
        -12    1    3    3    0    0  0.14099591085E+02  0.33741747024E+02  0.42980588686E+01  0.36820880911E+02  0.00000000000E+00 0.  1.
         11    1    4    4    0    0 -0.77802570260E+01 -0.14208248591E+02  0.16325866126E+02  0.22998709364E+02  0.51100000000E-03 0. -1.
        -11    1    4    4    0    0 -0.43573825269E+01 -0.20277232179E+02 -0.15688256916E+02  0.26005275093E+02  0.51100000000E-03 0.  1.
         12    1    4    4    0    0 -0.19619515319E+01  0.74373374540E+00 -0.49356680787E+01  0.53631346319E+01  0.00000000000E+00 0. -1.
</event>
<event>
 8    1  0.2501893E-006  0.9118800E+02  0.7816164E-02  0.1184000E+00
        -11   -1    0    0    0    0  0.00000000000E+00  0.00000000000E+00  0.45593999997E+02  0.45594000000E+02  0.51100000000E-03 0. -1.
         11   -1    0    0    0    0 -0.00000000000E+00 -0.00000000000E+00 -0.45593999997E+02  0.45594000000E+02  0.51100000000E-03 0.  1.
         23    2    1    2    0    0  0.00000000000E+00  0.00000000000E+00  0.00000000000E+00  0.91188000000E+02  0.91188000000E+02 0.  0.
    9900012    2    3    3    0    0  0.21509006629E+02  0.29431768934E+02  0.51883940759E+01  0.54367002976E+02  0.39999814884E+02 0.  0.
         12    1    3    3    0    0 -0.21509006629E+02 -0.29431768934E+02 -0.51883940759E+01  0.36820997024E+02  0.00000000000E+00 0. -1.
         11    1    4    4    0    0 -0.63425538417E+01  0.90048147192E+01 -0.78939206971E+01  0.13550965338E+02  0.51100000000E-03 0. -1.
        -11    1    4    4    0    0  0.10264106804E+02 -0.10475667611E+01  0.47139457064E+00  0.10328189469E+02  0.51100000000E-03 0.  1.
         12    1    4    4    0    0  0.17587453667E+02  0.21474520976E+02  0.12610920202E+02  0.30487848169E+02  0.00000000000E+00 0. -1.
</event>
<event>
 8    1  0.2501893E-006  0.9118800E+02  0.7816164E-02  0.1184000E+00
        -11   -1    0    0    0    0  0.00000000000E+00  0.00000000000E+00  0.45593999997E+02  0.45594000000E+02  0.51100000000E-03 0.  1.
         11   -1    0    0    0    0 -0.00000000000E+00 -0.00000000000E+00 -0.45593999997E+02  0.45594000000E+02  0.51100000000E-03 0. -1.
         23    2    1    2    0    0  0.00000000000E+00  0.35527136788E-14  0.00000000000E+00  0.91188000000E+02  0.91188000000E+02 0.  0.
    9900012    2    3    3    0    0  0.61965901391E+01 -0.31082101782E+02 -0.18742686839E+02  0.54367040066E+02  0.39999899437E+02 0.  0.
         12    1    3    3    0    0 -0.61965901391E+01  0.31082101782E+02  0.18742686839E+02  0.36820959934E+02  0.00000000000E+00 0. -1.
         11    1    4    4    0    0  0.82385801561E+01  0.58651986125E+01 -0.57715214785E+01  0.11644106586E+02  0.51100000000E-03 0. -1.
        -11    1    4    4    0    0  0.22782990739E+01 -0.16993138073E+01 -0.58504199639E+01  0.65042853643E+01  0.51100000000E-03 0.  1.
        -12    1    4    4    0    0 -0.43202890908E+01 -0.35247986587E+02 -0.71207453968E+01  0.36218648115E+02  0.00000000000E+00 0.  1.
</event>
<event>
 8    1  0.2501893E-006  0.9118800E+02  0.7816164E-02  0.1184000E+00
        -11   -1    0    0    0    0  0.00000000000E+00  0.00000000000E+00  0.45593999997E+02  0.45594000000E+02  0.51100000000E-03 0. -1.
         11   -1    0    0    0    0 -0.00000000000E+00 -0.00000000000E+00 -0.45593999997E+02  0.45594000000E+02  0.51100000000E-03 0.  1.
         23    2    1    2    0    0 -0.71054273576E-14  0.17763568394E-14  0.11102230246E-15  0.91188000000E+02  0.91188000000E+02 0.  0.
    9900012    2    3    3    0    0 -0.35026944900E+02 -0.11316613344E+02  0.90730336068E+00  0.54367138984E+02  0.40000124941E+02 0.  0.
         12    1    3    3    0    0  0.35026944900E+02  0.11316613344E+02 -0.90730336068E+00  0.36820861016E+02  0.00000000000E+00 0. -1.
         11    1    4    4    0    0 -0.10402757410E+02 -0.10314828092E+02 -0.90042991929E+00  0.14677323142E+02  0.51100000000E-03 0. -1.
        -11    1    4    4    0    0 -0.16748160002E+02 -0.15593951151E+02 -0.83200679230E+00  0.22899004597E+02  0.51100000000E-03 0.  1.
         12    1    4    4    0    0 -0.78760274879E+01  0.14592165899E+02  0.26397400723E+01  0.16790811245E+02  0.00000000000E+00 0. -1.
</event>
<event>
 8    1  0.2501893E-006  0.9118800E+02  0.7816164E-02  0.1184000E+00
        -11   -1    0    0    0    0  0.00000000000E+00  0.00000000000E+00  0.45593999997E+02  0.45594000000E+02  0.51100000000E-03 0. -1.
         11   -1    0    0    0    0 -0.00000000000E+00 -0.00000000000E+00 -0.45593999997E+02  0.45594000000E+02  0.51100000000E-03 0.  1.
         23    2    1    2    0    0  0.00000000000E+00  0.00000000000E+00  0.00000000000E+00  0.91188000000E+02  0.91188000000E+02 0.  0.
    9900012    2    3    3    0    0  0.60221297352E+01 -0.26934523728E+02 -0.24373047214E+02  0.54367081414E+02  0.39999993700E+02 0.  0.
         12    1    3    3    0    0 -0.60221297352E+01  0.26934523728E+02  0.24373047214E+02  0.36820918586E+02  0.00000000000E+00 0. -1.
         11    1    4    4    0    0  0.57033733520E+01 -0.71968701620E+01  0.18313273385E+01  0.93636086955E+01  0.51100000000E-03 0. -1.
        -11    1    4    4    0    0 -0.57847091905E+01 -0.26679986391E+02 -0.20517240347E+02  0.34150280905E+02  0.51100000000E-03 0.  1.
         12    1    4    4    0    0  0.61034655737E+01  0.69423328247E+01 -0.56871342062E+01  0.10853191813E+02  0.00000000000E+00 0. -1.
</event>
<event>
 8    1  0.2501893E-006  0.9118800E+02  0.7816164E-02  0.1184000E+00
        -11   -1    0    0    0    0  0.00000000000E+00  0.00000000000E+00  0.45593999997E+02  0.45594000000E+02  0.51100000000E-03 0.  1.
         11   -1    0    0    0    0 -0.00000000000E+00 -0.00000000000E+00 -0.45593999997E+02  0.45594000000E+02  0.51100000000E-03 0. -1.
         23    2    1    2    0    0  0.00000000000E+00  0.17763568394E-14 -0.88817841970E-15  0.91188000000E+02  0.91188000000E+02 0.  0.
    9900012    2    3    3    0    0 -0.34045899697E+02  0.12303912627E+02  0.67283345012E+01  0.54367081526E+02  0.39999993955E+02 0.  0.
         12    1    3    3    0    0  0.34045899697E+02 -0.12303912627E+02 -0.67283345012E+01  0.36820918474E+02  0.00000000000E+00 0. -1.
         11    1    4    4    0    0 -0.49021608652E+01  0.94555154356E+01  0.11975413858E+02  0.16026493398E+02  0.51100000000E-03 0. -1.
        -11    1    4    4    0    0 -0.50645422161E+01  0.11276472652E+02 -0.30649276163E+01  0.12735862943E+02  0.51100000000E-03 0.  1.
         12    1    4    4    0    0 -0.24079196615E+02 -0.84280754606E+01 -0.21821517403E+01  0.25604725186E+02  0.00000000000E+00 0. -1.
</event>
<event>
 8    1  0.2501893E-006  0.9118800E+02  0.7816164E-02  0.1184000E+00
        -11   -1    0    0    0    0  0.00000000000E+00  0.00000000000E+00  0.45593999997E+02  0.45594000000E+02  0.51100000000E-03 0.  1.
         11   -1    0    0    0    0 -0.00000000000E+00 -0.00000000000E+00 -0.45593999997E+02  0.45594000000E+02  0.51100000000E-03 0. -1.
         23    2    1    2    0    0  0.71054273576E-14  0.13322676296E-14  0.17763568394E-14  0.91188000000E+02  0.91188000000E+02 0.  0.
    9900012    2    3    3    0    0 -0.33648885044E+02 -0.23136392228E+01 -0.14770903409E+02  0.54367082321E+02  0.39999995768E+02 0.  0.
        -12    1    3    3    0    0  0.33648885044E+02  0.23136392228E+01  0.14770903409E+02  0.36820917679E+02  0.00000000000E+00 0.  1.
         11    1    4    4    0    0  0.16722473963E+01  0.32264653712E+01 -0.13703568730E+01  0.38838599828E+01  0.51100000000E-03 0. -1.
        -11    1    4    4    0    0 -0.27115356899E+02  0.88719001483E+01  0.95918114362E+00  0.28545984318E+02  0.51100000000E-03 0.  1.
        -12    1    4    4    0    0 -0.82057755422E+01 -0.14412004742E+02 -0.14359727679E+02  0.21937238020E+02  0.00000000000E+00 0.  1.
</event>
<event>
 8    1  0.2501893E-006  0.9118800E+02  0.7816164E-02  0.1184000E+00
        -11   -1    0    0    0    0  0.00000000000E+00  0.00000000000E+00  0.45593999997E+02  0.45594000000E+02  0.51100000000E-03 0.  1.
         11   -1    0    0    0    0 -0.00000000000E+00 -0.00000000000E+00 -0.45593999997E+02  0.45594000000E+02  0.51100000000E-03 0. -1.
         23    2    1    2    0    0  0.00000000000E+00  0.00000000000E+00  0.00000000000E+00  0.91188000000E+02  0.91188000000E+02 0.  0.
    9900012    2    3    3    0    0 -0.25427550842E+02  0.20180918932E+02  0.17376549221E+02  0.54367159520E+02  0.40000171758E+02 0.  0.
         12    1    3    3    0    0  0.25427550842E+02 -0.20180918932E+02 -0.17376549221E+02  0.36820840480E+02  0.00000000000E+00 0. -1.
         11    1    4    4    0    0 -0.73305194597E+01 -0.15074974321E+01  0.10002255620E+01  0.75504645878E+01  0.51100000000E-03 0. -1.
        -11    1    4    4    0    0 -0.23445882907E+02  0.34704568388E+01  0.37034171588E+01  0.23988930674E+02  0.51100000000E-03 0.  1.
        -12    1    4    4    0    0  0.53488515240E+01  0.18217959525E+02  0.12672906500E+02  0.22827764259E+02  0.00000000000E+00 0.  1.
</event>
<event>
 8    1  0.2501893E-006  0.9118800E+02  0.7816164E-02  0.1184000E+00
        -11   -1    0    0    0    0  0.00000000000E+00  0.00000000000E+00  0.45593999997E+02  0.45594000000E+02  0.51100000000E-03 0.  1.
         11   -1    0    0    0    0 -0.00000000000E+00 -0.00000000000E+00 -0.45593999997E+02  0.45594000000E+02  0.51100000000E-03 0. -1.
         23    2    1    2    0    0  0.00000000000E+00  0.00000000000E+00  0.71054273576E-14  0.91188000000E+02  0.91188000000E+02 0.  0.
    9900012    2    3    3    0    0 -0.16275261036E+02 -0.27722502825E+01  0.32912155350E+02  0.54367089321E+02  0.40000011725E+02 0.  0.
         12    1    3    3    0    0  0.16275261036E+02  0.27722502825E+01 -0.32912155350E+02  0.36820910679E+02  0.00000000000E+00 0. -1.
         11    1    4    4    0    0 -0.68114000764E+00  0.13264621976E+01  0.11297995138E+02  0.11395970694E+02  0.51100000000E-03 0. -1.
        -11    1    4    4    0    0  0.10609505977E+02 -0.17746270931E+01  0.50428566841E+01  0.11880291334E+02  0.51100000000E-03 0.  1.
         12    1    4    4    0    0 -0.26203627005E+02 -0.23240853871E+01  0.16571303528E+02  0.31090827293E+02  0.00000000000E+00 0. -1.
</event>
<event>
 8    1  0.2501893E-006  0.9118800E+02  0.7816164E-02  0.1184000E+00
        -11   -1    0    0    0    0  0.00000000000E+00  0.00000000000E+00  0.45593999997E+02  0.45594000000E+02  0.51100000000E-03 0. -1.
         11   -1    0    0    0    0 -0.00000000000E+00 -0.00000000000E+00 -0.45593999997E+02  0.45594000000E+02  0.51100000000E-03 0.  1.
         23    2    1    2    0    0  0.71054273576E-14  0.17763568394E-14  0.00000000000E+00  0.91188000000E+02  0.91188000000E+02 0.  0.
    9900012    2    3    3    0    0  0.33970652878E+02  0.13281467211E+02  0.50374522236E+01  0.54367101679E+02  0.40000039898E+02 0.  0.
         12    1    3    3    0    0 -0.33970652878E+02 -0.13281467211E+02 -0.50374522236E+01  0.36820898321E+02  0.00000000000E+00 0. -1.
         11    1    4    4    0    0 -0.72499255103E+01  0.33668866216E+01 -0.34934692622E+01  0.87236272946E+01  0.51100000000E-03 0. -1.
        -11    1    4    4    0    0  0.19548218256E+02  0.82066485107E+01  0.10786550270E+02  0.23787214712E+02  0.51100000000E-03 0.  1.
        -12    1    4    4    0    0  0.21672360132E+02  0.17079320789E+01 -0.22556287837E+01  0.21856259673E+02  0.00000000000E+00 0.  1.
</event>
<event>
 8    1  0.2501893E-006  0.9118800E+02  0.7816164E-02  0.1184000E+00
        -11   -1    0    0    0    0  0.00000000000E+00  0.00000000000E+00  0.45593999997E+02  0.45594000000E+02  0.51100000000E-03 0.  1.
         11   -1    0    0    0    0 -0.00000000000E+00 -0.00000000000E+00 -0.45593999997E+02  0.45594000000E+02  0.51100000000E-03 0. -1.
         23    2    1    2    0    0  0.71054273576E-14 -0.88817841970E-15  0.22204460493E-15  0.91188000000E+02  0.91188000000E+02 0.  0.
    9900012    2    3    3    0    0 -0.36013052372E+02  0.75547384176E+01  0.13291218841E+01  0.54367074174E+02  0.39999977195E+02 0.  0.
         12    1    3    3    0    0  0.36013052372E+02 -0.75547384176E+01 -0.13291218841E+01  0.36820925826E+02  0.00000000000E+00 0. -1.
         11    1    4    4    0    0 -0.27384977770E+02  0.10510848499E+02 -0.69231804763E+00  0.29340999441E+02  0.51100000000E-03 0. -1.
        -11    1    4    4    0    0 -0.34067686141E+01 -0.15048456392E+01  0.12600701598E+02  0.13139570534E+02  0.51100000000E-03 0.  1.
         12    1    4    4    0    0 -0.52213059876E+01 -0.14512644424E+01 -0.10579261666E+02  0.11886504200E+02  0.00000000000E+00 0. -1.
</event>
<event>
 8    1  0.2501893E-006  0.9118800E+02  0.7816164E-02  0.1184000E+00
        -11   -1    0    0    0    0  0.00000000000E+00  0.00000000000E+00  0.45593999997E+02  0.45594000000E+02  0.51100000000E-03 0.  1.
         11   -1    0    0    0    0 -0.00000000000E+00 -0.00000000000E+00 -0.45593999997E+02  0.45594000000E+02  0.51100000000E-03 0. -1.
         23    2    1    2    0    0  0.00000000000E+00  0.00000000000E+00 -0.71054273576E-14  0.91188000000E+02  0.91188000000E+02 0.  0.
    9900012    2    3    3    0    0 -0.21105523267E+02 -0.10047904179E+02 -0.28449543052E+02  0.54367082159E+02  0.39999995398E+02 0.  0.
        -12    1    3    3    0    0  0.21105523267E+02  0.10047904179E+02  0.28449543052E+02  0.36820917841E+02  0.00000000000E+00 0.  1.
         11    1    4    4    0    0 -0.40734383272E+01 -0.15196044965E+02 -0.59288073044E+01  0.16812597619E+02  0.51100000000E-03 0. -1.
        -11    1    4    4    0    0 -0.93209993366E+00 -0.69330256485E+00  0.50035403466E+01  0.51366229172E+01  0.51100000000E-03 0.  1.
        -12    1    4    4    0    0 -0.16099985007E+02  0.58414433511E+01 -0.27524276094E+02  0.32417861622E+02  0.00000000000E+00 0.  1.
</event>
<event>
 8    1  0.2501893E-006  0.9118800E+02  0.7816164E-02  0.1184000E+00
        -11   -1    0    0    0    0  0.00000000000E+00  0.00000000000E+00  0.45593999997E+02  0.45594000000E+02  0.51100000000E-03 0.  1.
         11   -1    0    0    0    0 -0.00000000000E+00 -0.00000000000E+00 -0.45593999997E+02  0.45594000000E+02  0.51100000000E-03 0. -1.
         23    2    1    2    0    0  0.00000000000E+00  0.00000000000E+00  0.00000000000E+00  0.91188000000E+02  0.91188000000E+02 0.  0.
    9900012    2    3    3    0    0 -0.32546962547E+02  0.80315148666E+01 -0.15230585254E+02  0.54367072129E+02  0.39999972533E+02 0.  0.
        -12    1    3    3    0    0  0.32546962547E+02 -0.80315148666E+01  0.15230585254E+02  0.36820927871E+02  0.00000000000E+00 0.  1.
         11    1    4    4    0    0 -0.34725075133E+01 -0.38441291971E+01 -0.10338801318E+02  0.11564015335E+02  0.51100000000E-03 0. -1.
        -11    1    4    4    0    0 -0.84453896614E+01 -0.19757880416E+01  0.10465396197E+02  0.13592382527E+02  0.51100000000E-03 0.  1.
         12    1    4    4    0    0 -0.20629065372E+02  0.13851432105E+02 -0.15357180133E+02  0.29210674267E+02  0.00000000000E+00 0. -1.
</event>
<event>
 8    1  0.2501893E-006  0.9118800E+02  0.7816164E-02  0.1184000E+00
        -11   -1    0    0    0    0  0.00000000000E+00  0.00000000000E+00  0.45593999997E+02  0.45594000000E+02  0.51100000000E-03 0. -1.
         11   -1    0    0    0    0 -0.00000000000E+00 -0.00000000000E+00 -0.45593999997E+02  0.45594000000E+02  0.51100000000E-03 0.  1.
         23    2    1    2    0    0  0.00000000000E+00  0.00000000000E+00 -0.17763568394E-14  0.91188000000E+02  0.91188000000E+02 0.  0.
    9900012    2    3    3    0    0  0.78119277110E+01  0.33536672748E+02  0.13040128418E+02  0.54367087699E+02  0.40000008027E+02 0.  0.
         12    1    3    3    0    0 -0.78119277110E+01 -0.33536672748E+02 -0.13040128418E+02  0.36820912301E+02  0.00000000000E+00 0. -1.
         11    1    4    4    0    0  0.80373333015E+01  0.22399873415E+02  0.81366325895E+01  0.25150702689E+02  0.51100000000E-03 0. -1.
        -11    1    4    4    0    0 -0.41611615637E+01  0.16381435002E+02 -0.47409212730E+01  0.17554002765E+02  0.51100000000E-03 0.  1.
        -12    1    4    4    0    0  0.39357559733E+01 -0.52446356696E+01  0.96444171016E+01  0.11662382245E+02  0.00000000000E+00 0.  1.
</event>
<event>
 8    1  0.2501893E-006  0.9118800E+02  0.7816164E-02  0.1184000E+00
        -11   -1    0    0    0    0  0.00000000000E+00  0.00000000000E+00  0.45593999997E+02  0.45594000000E+02  0.51100000000E-03 0.  1.
         11   -1    0    0    0    0 -0.00000000000E+00 -0.00000000000E+00 -0.45593999997E+02  0.45594000000E+02  0.51100000000E-03 0. -1.
         23    2    1    2    0    0  0.00000000000E+00  0.17763568394E-14  0.88817841970E-15  0.91188000000E+02  0.91188000000E+02 0.  0.
    9900012    2    3    3    0    0  0.34827690264E+02 -0.10458723356E+02 -0.57829089364E+01  0.54366879171E+02  0.39999532642E+02 0.  0.
        -12    1    3    3    0    0 -0.34827690264E+02  0.10458723356E+02  0.57829089364E+01  0.36821120829E+02  0.00000000000E+00 0.  1.
         11    1    4    4    0    0  0.26763847660E+02 -0.12955170903E+02 -0.50560005538E+01  0.30161285393E+02  0.51100000000E-03 0. -1.
        -11    1    4    4    0    0  0.14569107797E+02 -0.10947573673E+01 -0.52286621691E+01  0.15517612704E+02  0.51100000000E-03 0.  1.
         12    1    4    4    0    0 -0.65052651932E+01  0.35912049147E+01  0.45017537865E+01  0.86879810732E+01  0.00000000000E+00 0. -1.
</event>
<event>
 8    1  0.2501893E-006  0.9118800E+02  0.7816164E-02  0.1184000E+00
        -11   -1    0    0    0    0  0.00000000000E+00  0.00000000000E+00  0.45593999997E+02  0.45594000000E+02  0.51100000000E-03 0.  1.
         11   -1    0    0    0    0 -0.00000000000E+00 -0.00000000000E+00 -0.45593999997E+02  0.45594000000E+02  0.51100000000E-03 0. -1.
         23    2    1    2    0    0  0.44408920985E-15 -0.71054273576E-14  0.00000000000E+00  0.91188000000E+02  0.91188000000E+02 0.  0.
    9900012    2    3    3    0    0 -0.30372298911E+01 -0.29486487248E+02  0.21842665818E+02  0.54367085485E+02  0.40000002981E+02 0.  0.
         12    1    3    3    0    0  0.30372298911E+01  0.29486487248E+02 -0.21842665818E+02  0.36820914515E+02  0.00000000000E+00 0. -1.
         11    1    4    4    0    0  0.47717765670E+01  0.29105417766E+01 -0.25136745577E+01  0.61285940542E+01  0.51100000000E-03 0. -1.
        -11    1    4    4    0    0  0.90143564311E+01 -0.97113566573E+01  0.59337299171E+01  0.14518203091E+02  0.51100000000E-03 0.  1.
        -12    1    4    4    0    0 -0.16823362889E+02 -0.22685672367E+02  0.18422610459E+02  0.33720288341E+02  0.00000000000E+00 0.  1.
</event>
<event>
 8    1  0.2501893E-006  0.9118800E+02  0.7816164E-02  0.1184000E+00
        -11   -1    0    0    0    0  0.00000000000E+00  0.00000000000E+00  0.45593999997E+02  0.45594000000E+02  0.51100000000E-03 0.  1.
         11   -1    0    0    0    0 -0.00000000000E+00 -0.00000000000E+00 -0.45593999997E+02  0.45594000000E+02  0.51100000000E-03 0. -1.
         23    2    1    2    0    0  0.00000000000E+00 -0.44408920985E-15 -0.35527136788E-14  0.91188000000E+02  0.91188000000E+02 0.  0.
    9900012    2    3    3    0    0  0.33071246982E+02 -0.39632984006E+01 -0.15696040471E+02  0.54367071201E+02  0.39999970417E+02 0.  0.
        -12    1    3    3    0    0 -0.33071246982E+02  0.39632984006E+01  0.15696040471E+02  0.36820928799E+02  0.00000000000E+00 0.  1.
         11    1    4    4    0    0  0.16265556891E+01  0.74292714989E+00  0.92508592713E+01  0.94221028268E+01  0.51100000000E-03 0.  1.
        -11    1    4    4    0    0  0.25332058981E+02 -0.40002828954E+01 -0.79211135996E+01  0.26841376946E+02  0.51100000000E-03 0. -1.
         12    1    4    4    0    0  0.61126323121E+01 -0.70594265508E+00 -0.17025786142E+02  0.18103591428E+02  0.00000000000E+00 0. -1.
</event>
<event>
 8    1  0.2501893E-006  0.9118800E+02  0.7816164E-02  0.1184000E+00
        -11   -1    0    0    0    0  0.00000000000E+00  0.00000000000E+00  0.45593999997E+02  0.45594000000E+02  0.51100000000E-03 0. -1.
         11   -1    0    0    0    0 -0.00000000000E+00 -0.00000000000E+00 -0.45593999997E+02  0.45594000000E+02  0.51100000000E-03 0.  1.
         23    2    1    2    0    0  0.00000000000E+00  0.00000000000E+00  0.00000000000E+00  0.91188000000E+02  0.91188000000E+02 0.  0.
    9900012    2    3    3    0    0  0.91119957316E+01 -0.35594547493E+01  0.35497627664E+02  0.54367085371E+02  0.40000002720E+02 0.  0.
        -12    1    3    3    0    0 -0.91119957316E+01  0.35594547493E+01 -0.35497627664E+02  0.36820914629E+02  0.00000000000E+00 0.  1.
         11    1    4    4    0    0  0.23069031950E+00 -0.87989000364E+01  0.17285359097E+01  0.89700443993E+01  0.51100000000E-03 0. -1.
        -11    1    4    4    0    0  0.93386758603E+01  0.15760121600E+02  0.14214246466E+02  0.23187002879E+02  0.51100000000E-03 0.  1.
        -12    1    4    4    0    0 -0.45737044820E+00 -0.10520676313E+02  0.19554845289E+02  0.22210038093E+02  0.00000000000E+00 0.  1.
</event>
<event>
 8    1  0.2501893E-006  0.9118800E+02  0.7816164E-02  0.1184000E+00
        -11   -1    0    0    0    0  0.00000000000E+00  0.00000000000E+00  0.45593999997E+02  0.45594000000E+02  0.51100000000E-03 0. -1.
         11   -1    0    0    0    0 -0.00000000000E+00 -0.00000000000E+00 -0.45593999997E+02  0.45594000000E+02  0.51100000000E-03 0.  1.
         23    2    1    2    0    0 -0.35527136788E-14  0.00000000000E+00 -0.17763568394E-14  0.91188000000E+02  0.91188000000E+02 0.  0.
    9900012    2    3    3    0    0  0.28679360764E+02  0.22660189454E+02  0.44486007093E+01  0.54367082464E+02  0.39999996094E+02 0.  0.
         12    1    3    3    0    0 -0.28679360764E+02 -0.22660189454E+02 -0.44486007093E+01  0.36820917536E+02  0.00000000000E+00 0. -1.
         11    1    4    4    0    0 -0.40573373964E+00 -0.29721705841E+01 -0.25995260762E-01  0.29998489734E+01  0.51100000000E-03 0. -1.
        -11    1    4    4    0    0  0.31412710394E+02  0.20070135709E+02  0.14228503511E+02  0.39900113209E+02  0.51100000000E-03 0.  1.
        -12    1    4    4    0    0 -0.23276158909E+01  0.55622243289E+01 -0.97539075414E+01  0.11467120281E+02  0.00000000000E+00 0.  1.
</event>
<event>
 8    1  0.2501893E-006  0.9118800E+02  0.7816164E-02  0.1184000E+00
        -11   -1    0    0    0    0  0.00000000000E+00  0.00000000000E+00  0.45593999997E+02  0.45594000000E+02  0.51100000000E-03 0.  1.
         11   -1    0    0    0    0 -0.00000000000E+00 -0.00000000000E+00 -0.45593999997E+02  0.45594000000E+02  0.51100000000E-03 0. -1.
         23    2    1    2    0    0  0.00000000000E+00 -0.35527136788E-14 -0.35527136788E-14  0.91188000000E+02  0.91188000000E+02 0.  0.
    9900012    2    3    3    0    0 -0.18986410180E+02 -0.26379903009E+02 -0.17303098306E+02  0.54367078430E+02  0.39999986897E+02 0.  0.
        -12    1    3    3    0    0  0.18986410180E+02  0.26379903009E+02  0.17303098306E+02  0.36820921570E+02  0.00000000000E+00 0.  1.
         11    1    4    4    0    0 -0.11929728916E+02 -0.49569887302E+01 -0.23939301361E+02  0.27202579274E+02  0.51100000000E-03 0. -1.
        -11    1    4    4    0    0 -0.11710471657E+01 -0.10789976766E+01  0.57514802179E+01  0.59678398444E+01  0.51100000000E-03 0.  1.
         12    1    4    4    0    0 -0.58856340977E+01 -0.20343916602E+02  0.88472283716E+00  0.21196659311E+02  0.00000000000E+00 0. -1.
</event>
<event>
 8    1  0.2501893E-006  0.9118800E+02  0.7816164E-02  0.1184000E+00
        -11   -1    0    0    0    0  0.00000000000E+00  0.00000000000E+00  0.45593999997E+02  0.45594000000E+02  0.51100000000E-03 0. -1.
         11   -1    0    0    0    0 -0.00000000000E+00 -0.00000000000E+00 -0.45593999997E+02  0.45594000000E+02  0.51100000000E-03 0.  1.
         23    2    1    2    0    0  0.44408920985E-15  0.35527136788E-14  0.35527136788E-14  0.91188000000E+02  0.91188000000E+02 0.  0.
    9900012    2    3    3    0    0 -0.18724864386E+01 -0.30321203626E+02 -0.20806162097E+02  0.54367109517E+02  0.40000057766E+02 0.  0.
         12    1    3    3    0    0  0.18724864386E+01  0.30321203626E+02  0.20806162097E+02  0.36820890483E+02  0.00000000000E+00 0. -1.
         11    1    4    4    0    0  0.29996644654E+01 -0.67046399333E+01 -0.16693882847E+02  0.18238308811E+02  0.51100000000E-03 0.  1.
        -11    1    4    4    0    0 -0.14454904151E+02 -0.11790533931E+02 -0.81876172175E+01  0.20371500199E+02  0.51100000000E-03 0. -1.
         12    1    4    4    0    0  0.95827532470E+01 -0.11826029761E+02  0.40753379676E+01  0.15757300506E+02  0.00000000000E+00 0. -1.
</event>
<event>
 8    1  0.2501893E-006  0.9118800E+02  0.7816164E-02  0.1184000E+00
        -11   -1    0    0    0    0  0.00000000000E+00  0.00000000000E+00  0.45593999997E+02  0.45594000000E+02  0.51100000000E-03 0.  1.
         11   -1    0    0    0    0 -0.00000000000E+00 -0.00000000000E+00 -0.45593999997E+02  0.45594000000E+02  0.51100000000E-03 0. -1.
         23    2    1    2    0    0  0.00000000000E+00  0.44408920985E-15  0.00000000000E+00  0.91188000000E+02  0.91188000000E+02 0.  0.
    9900012    2    3    3    0    0  0.21308396880E+02 -0.39877516789E+01  0.29762910573E+02  0.54367071348E+02  0.39999970752E+02 0.  0.
         12    1    3    3    0    0 -0.21308396880E+02  0.39877516789E+01 -0.29762910573E+02  0.36820928652E+02  0.00000000000E+00 0. -1.
         11    1    4    4    0    0  0.89098503902E+01  0.55125677080E+01  0.33637223337E+01  0.11004020398E+02  0.51100000000E-03 0. -1.
        -11    1    4    4    0    0  0.21762812795E+02 -0.41333310593E+01  0.11482337486E+02  0.24950922243E+02  0.51100000000E-03 0.  1.
         12    1    4    4    0    0 -0.93642663052E+01 -0.53669883275E+01  0.14916850753E+02  0.18412128707E+02  0.00000000000E+00 0. -1.
</event>
<event>
 8    1  0.2501893E-006  0.9118800E+02  0.7816164E-02  0.1184000E+00
        -11   -1    0    0    0    0  0.00000000000E+00  0.00000000000E+00  0.45593999997E+02  0.45594000000E+02  0.51100000000E-03 0.  1.
         11   -1    0    0    0    0 -0.00000000000E+00 -0.00000000000E+00 -0.45593999997E+02  0.45594000000E+02  0.51100000000E-03 0. -1.
         23    2    1    2    0    0 -0.88817841970E-15  0.00000000000E+00  0.17763568394E-14  0.91188000000E+02  0.91188000000E+02 0.  0.
    9900012    2    3    3    0    0 -0.57605872146E+01  0.35204565843E+02  0.91236486034E+01  0.54366989896E+02  0.39999785065E+02 0.  0.
         12    1    3    3    0    0  0.57605872146E+01 -0.35204565843E+02 -0.91236486034E+01  0.36821010104E+02  0.00000000000E+00 0. -1.
         11    1    4    4    0    0  0.13578591950E+02  0.71869999179E+01 -0.66689011212E+01  0.16748294527E+02  0.51100000000E-03 0. -1.
        -11    1    4    4    0    0 -0.14835026289E+02  0.19894918470E+02  0.12277081358E+02  0.27687768290E+02  0.51100000000E-03 0.  1.
         12    1    4    4    0    0 -0.45041528749E+01  0.81226474557E+01  0.35154683663E+01  0.99309270788E+01  0.00000000000E+00 0. -1.
</event>
<event>
 8    1  0.2501893E-006  0.9118800E+02  0.7816164E-02  0.1184000E+00
        -11   -1    0    0    0    0  0.00000000000E+00  0.00000000000E+00  0.45593999997E+02  0.45594000000E+02  0.51100000000E-03 0.  1.
         11   -1    0    0    0    0 -0.00000000000E+00 -0.00000000000E+00 -0.45593999997E+02  0.45594000000E+02  0.51100000000E-03 0. -1.
         23    2    1    2    0    0 -0.17763568394E-14  0.00000000000E+00  0.00000000000E+00  0.91188000000E+02  0.91188000000E+02 0.  0.
    9900012    2    3    3    0    0 -0.13991037756E+02 -0.27099273841E+02 -0.20631498101E+02  0.54367102482E+02  0.40000041727E+02 0.  0.
        -12    1    3    3    0    0  0.13991037756E+02  0.27099273841E+02  0.20631498101E+02  0.36820897518E+02  0.00000000000E+00 0.  1.
         11    1    4    4    0    0 -0.23386515609E+00  0.53090178606E+01 -0.76275803889E+01  0.92962544288E+01  0.51100000000E-03 0. -1.
        -11    1    4    4    0    0 -0.15533883797E+02 -0.24388373911E+02 -0.19262513546E+02  0.34743902432E+02  0.51100000000E-03 0.  1.
        -12    1    4    4    0    0  0.17767111972E+01 -0.80199177897E+01  0.62585958339E+01  0.10326945620E+02  0.00000000000E+00 0.  1.
</event>
<event>
 8    1  0.2501893E-006  0.9118800E+02  0.7816164E-02  0.1184000E+00
        -11   -1    0    0    0    0  0.00000000000E+00  0.00000000000E+00  0.45593999997E+02  0.45594000000E+02  0.51100000000E-03 0. -1.
         11   -1    0    0    0    0 -0.00000000000E+00 -0.00000000000E+00 -0.45593999997E+02  0.45594000000E+02  0.51100000000E-03 0.  1.
         23    2    1    2    0    0  0.00000000000E+00 -0.17763568394E-14  0.00000000000E+00  0.91188000000E+02  0.91188000000E+02 0.  0.
    9900012    2    3    3    0    0 -0.11686603927E+02 -0.11248342410E+02 -0.33055714963E+02  0.54367052022E+02  0.39999926694E+02 0.  0.
         12    1    3    3    0    0  0.11686603927E+02  0.11248342410E+02  0.33055714963E+02  0.36820947978E+02  0.00000000000E+00 0. -1.
         11    1    4    4    0    0  0.46628871901E+01  0.47044843431E+01 -0.10425183642E+02  0.12351483479E+02  0.51100000000E-03 0. -1.
        -11    1    4    4    0    0 -0.13292645211E+01 -0.19220605028E+02 -0.16842438118E+02  0.25590356070E+02  0.51100000000E-03 0.  1.
         12    1    4    4    0    0 -0.15020226596E+02  0.32677782749E+01 -0.57880932024E+01  0.16425212473E+02  0.00000000000E+00 0. -1.
</event>
<event>
 8    1  0.2501893E-006  0.9118800E+02  0.7816164E-02  0.1184000E+00
        -11   -1    0    0    0    0  0.00000000000E+00  0.00000000000E+00  0.45593999997E+02  0.45594000000E+02  0.51100000000E-03 0.  1.
         11   -1    0    0    0    0 -0.00000000000E+00 -0.00000000000E+00 -0.45593999997E+02  0.45594000000E+02  0.51100000000E-03 0. -1.
         23    2    1    2    0    0  0.00000000000E+00  0.17763568394E-14  0.35527136788E-14  0.91188000000E+02  0.91188000000E+02 0.  0.
    9900012    2    3    3    0    0 -0.23062328656E+02 -0.35172799764E+01  0.28487502215E+02  0.54367081435E+02  0.39999993748E+02 0.  0.
         12    1    3    3    0    0  0.23062328656E+02  0.35172799764E+01 -0.28487502215E+02  0.36820918565E+02  0.00000000000E+00 0. -1.
         11    1    4    4    0    0 -0.59189081801E+00  0.11665211745E+02  0.10471874413E+02  0.15687181193E+02  0.51100000000E-03 0. -1.
        -11    1    4    4    0    0 -0.10142587656E+02  0.44254994050E+01  0.56992722715E+01  0.12447442871E+02  0.51100000000E-03 0.  1.
         12    1    4    4    0    0 -0.12327850183E+02 -0.19607991127E+02  0.12316355531E+02  0.26232457371E+02  0.00000000000E+00 0. -1.
</event>
<event>
 8    1  0.2501893E-006  0.9118800E+02  0.7816164E-02  0.1184000E+00
        -11   -1    0    0    0    0  0.00000000000E+00  0.00000000000E+00  0.45593999997E+02  0.45594000000E+02  0.51100000000E-03 0.  1.
         11   -1    0    0    0    0 -0.00000000000E+00 -0.00000000000E+00 -0.45593999997E+02  0.45594000000E+02  0.51100000000E-03 0. -1.
         23    2    1    2    0    0  0.00000000000E+00  0.35527136788E-14  0.00000000000E+00  0.91188000000E+02  0.91188000000E+02 0.  0.
    9900012    2    3    3    0    0  0.17927985467E+02  0.21949815817E+02  0.23506887822E+02  0.54367070457E+02  0.39999968722E+02 0.  0.
         12    1    3    3    0    0 -0.17927985467E+02 -0.21949815817E+02 -0.23506887822E+02  0.36820929543E+02  0.00000000000E+00 0. -1.
         11    1    4    4    0    0  0.19920319475E+02 -0.15219741659E+00  0.41036745432E+01  0.20339184768E+02  0.51100000000E-03 0. -1.
        -11    1    4    4    0    0  0.47761609405E+00  0.20901163232E+02  0.81411701052E+01  0.22435806036E+02  0.51100000000E-03 0.  1.
         12    1    4    4    0    0 -0.24699501013E+01  0.12008500017E+01  0.11262043174E+02  0.11592079653E+02  0.00000000000E+00 0. -1.
</event>
<event>
 8    1  0.2501893E-006  0.9118800E+02  0.7816164E-02  0.1184000E+00
        -11   -1    0    0    0    0  0.00000000000E+00  0.00000000000E+00  0.45593999997E+02  0.45594000000E+02  0.51100000000E-03 0. -1.
         11   -1    0    0    0    0 -0.00000000000E+00 -0.00000000000E+00 -0.45593999997E+02  0.45594000000E+02  0.51100000000E-03 0.  1.
         23    2    1    2    0    0 -0.35527136788E-14 -0.35527136788E-14  0.35527136788E-14  0.91188000000E+02  0.91188000000E+02 0.  0.
    9900012    2    3    3    0    0  0.24295637602E+02 -0.21758972625E+02 -0.17089435638E+02  0.54367086016E+02  0.40000004191E+02 0.  0.
         12    1    3    3    0    0 -0.24295637602E+02  0.21758972625E+02  0.17089435638E+02  0.36820913984E+02  0.00000000000E+00 0. -1.
         11    1    4    4    0    0  0.54532684383E+01  0.19006980783E+01 -0.82224566425E+01  0.10047864616E+02  0.51100000000E-03 0. -1.
        -11    1    4    4    0    0  0.20501083840E+02 -0.13147741424E+01 -0.75061250383E+01  0.21871556484E+02  0.51100000000E-03 0.  1.
         12    1    4    4    0    0 -0.16587146768E+01 -0.22344896561E+02 -0.13608539570E+01  0.22447664917E+02  0.00000000000E+00 0. -1.
</event>
<event>
 8    1  0.2501893E-006  0.9118800E+02  0.7816164E-02  0.1184000E+00
        -11   -1    0    0    0    0  0.00000000000E+00  0.00000000000E+00  0.45593999997E+02  0.45594000000E+02  0.51100000000E-03 0. -1.
         11   -1    0    0    0    0 -0.00000000000E+00 -0.00000000000E+00 -0.45593999997E+02  0.45594000000E+02  0.51100000000E-03 0.  1.
         23    2    1    2    0    0  0.35527136788E-14  0.00000000000E+00  0.00000000000E+00  0.91188000000E+02  0.91188000000E+02 0.  0.
    9900012    2    3    3    0    0 -0.27632216855E+02  0.22785850763E+02 -0.85466896555E+01  0.54367077858E+02  0.39999985593E+02 0.  0.
         12    1    3    3    0    0  0.27632216855E+02 -0.22785850763E+02  0.85466896555E+01  0.36820922142E+02  0.00000000000E+00 0. -1.
         11    1    4    4    0    0  0.43922042289E+01  0.54800865838E+01  0.43391775002E+01  0.82553781618E+01  0.51100000000E-03 0. -1.
        -11    1    4    4    0    0 -0.17925499992E+02  0.12212489520E+02  0.55121169697E+01  0.22379720373E+02  0.51100000000E-03 0.  1.
        -12    1    4    4    0    0 -0.14098921093E+02  0.50932746591E+01 -0.18397984125E+02  0.23731979323E+02  0.00000000000E+00 0.  1.
</event>
<event>
 8    1  0.2501893E-006  0.9118800E+02  0.7816164E-02  0.1184000E+00
        -11   -1    0    0    0    0  0.00000000000E+00  0.00000000000E+00  0.45593999997E+02  0.45594000000E+02  0.51100000000E-03 0. -1.
         11   -1    0    0    0    0 -0.00000000000E+00 -0.00000000000E+00 -0.45593999997E+02  0.45594000000E+02  0.51100000000E-03 0.  1.
         23    2    1    2    0    0 -0.17763568394E-14  0.35527136788E-14  0.00000000000E+00  0.91188000000E+02  0.91188000000E+02 0.  0.
    9900012    2    3    3    0    0 -0.14640112956E+02  0.23024182926E+02 -0.24725146445E+02  0.54367098687E+02  0.40000033077E+02 0.  0.
         12    1    3    3    0    0  0.14640112956E+02 -0.23024182926E+02  0.24725146445E+02  0.36820901313E+02  0.00000000000E+00 0. -1.
         11    1    4    4    0    0  0.24916663701E+01  0.47194384492E+01  0.73238371602E+01  0.90620136607E+01  0.51100000000E-03 0. -1.
        -11    1    4    4    0    0 -0.29870501313E+01 -0.33962140926E+01 -0.11114604246E+02  0.11999631930E+02  0.51100000000E-03 0.  1.
        -12    1    4    4    0    0 -0.14144729195E+02  0.21700958569E+02 -0.20934379359E+02  0.33305453096E+02  0.00000000000E+00 0.  1.
</event>
<event>
 8    1  0.2501893E-006  0.9118800E+02  0.7816164E-02  0.1184000E+00
        -11   -1    0    0    0    0  0.00000000000E+00  0.00000000000E+00  0.45593999997E+02  0.45594000000E+02  0.51100000000E-03 0.  1.
         11   -1    0    0    0    0 -0.00000000000E+00 -0.00000000000E+00 -0.45593999997E+02  0.45594000000E+02  0.51100000000E-03 0. -1.
         23    2    1    2    0    0  0.71054273576E-14 -0.17763568394E-14 -0.88817841970E-15  0.91188000000E+02  0.91188000000E+02 0.  0.
    9900012    2    3    3    0    0  0.35791389895E+02  0.84611383336E+01  0.17793189150E+01  0.54367076215E+02  0.39999981848E+02 0.  0.
        -12    1    3    3    0    0 -0.35791389895E+02 -0.84611383336E+01 -0.17793189150E+01  0.36820923785E+02  0.00000000000E+00 0.  1.
         11    1    4    4    0    0  0.13394062444E+02  0.16734684504E+02  0.91924171209E+01  0.23322759421E+02  0.51100000000E-03 0.  1.
        -11    1    4    4    0    0  0.42628883737E+01  0.74881594401E+00  0.55185194477E+01  0.70133444062E+01  0.51100000000E-03 0. -1.
         12    1    4    4    0    0  0.18134439078E+02 -0.90223621147E+01 -0.12931617654E+02  0.24030972388E+02  0.00000000000E+00 0. -1.
</event>
<event>
 8    1  0.2501893E-006  0.9118800E+02  0.7816164E-02  0.1184000E+00
        -11   -1    0    0    0    0  0.00000000000E+00  0.00000000000E+00  0.45593999997E+02  0.45594000000E+02  0.51100000000E-03 0. -1.
         11   -1    0    0    0    0 -0.00000000000E+00 -0.00000000000E+00 -0.45593999997E+02  0.45594000000E+02  0.51100000000E-03 0.  1.
         23    2    1    2    0    0  0.35527136788E-14  0.00000000000E+00 -0.17763568394E-14  0.91188000000E+02  0.91188000000E+02 0.  0.
    9900012    2    3    3    0    0 -0.30981064482E+02 -0.15358686583E+02  0.12651555696E+02  0.54367116367E+02  0.40000073382E+02 0.  0.
         12    1    3    3    0    0  0.30981064482E+02  0.15358686583E+02 -0.12651555696E+02  0.36820883633E+02  0.00000000000E+00 0. -1.
         11    1    4    4    0    0 -0.85320410846E+01 -0.40822386931E+01  0.14022268365E+02  0.16914029921E+02  0.51100000000E-03 0. -1.
        -11    1    4    4    0    0 -0.13082393558E+02  0.84268422447E+01  0.38425802076E+00  0.15566256644E+02  0.51100000000E-03 0.  1.
         12    1    4    4    0    0 -0.93666298394E+01 -0.19703290135E+02 -0.17549706896E+01  0.21886829802E+02  0.00000000000E+00 0. -1.
</event>
<event>
 8    1  0.2501893E-006  0.9118800E+02  0.7816164E-02  0.1184000E+00
        -11   -1    0    0    0    0  0.00000000000E+00  0.00000000000E+00  0.45593999997E+02  0.45594000000E+02  0.51100000000E-03 0.  1.
         11   -1    0    0    0    0 -0.00000000000E+00 -0.00000000000E+00 -0.45593999997E+02  0.45594000000E+02  0.51100000000E-03 0. -1.
         23    2    1    2    0    0 -0.35527136788E-14  0.00000000000E+00  0.00000000000E+00  0.91188000000E+02  0.91188000000E+02 0.  0.
    9900012    2    3    3    0    0 -0.30023756434E+02  0.51217771372E+01 -0.20691346282E+02  0.54366941319E+02  0.39999674323E+02 0.  0.
        -12    1    3    3    0    0  0.30023756434E+02 -0.51217771372E+01  0.20691346282E+02  0.36821058681E+02  0.00000000000E+00 0.  1.
         11    1    4    4    0    0 -0.25024609058E+01 -0.32527836795E+01 -0.10529060351E+02  0.11300620531E+02  0.51100000000E-03 0. -1.
        -11    1    4    4    0    0  0.31120459464E+00  0.13473597563E+02 -0.20623549358E+01  0.13634074510E+02  0.51100000000E-03 0.  1.
         12    1    4    4    0    0 -0.27832500123E+02 -0.50990367464E+01 -0.80999309946E+01  0.29432246278E+02  0.00000000000E+00 0. -1.
</event>
<event>
 8    1  0.2501893E-006  0.9118800E+02  0.7816164E-02  0.1184000E+00
        -11   -1    0    0    0    0  0.00000000000E+00  0.00000000000E+00  0.45593999997E+02  0.45594000000E+02  0.51100000000E-03 0.  1.
         11   -1    0    0    0    0 -0.00000000000E+00 -0.00000000000E+00 -0.45593999997E+02  0.45594000000E+02  0.51100000000E-03 0. -1.
         23    2    1    2    0    0  0.17763568394E-14 -0.17763568394E-14 -0.71054273576E-14  0.91188000000E+02  0.91188000000E+02 0.  0.
    9900012    2    3    3    0    0  0.10137193354E+02  0.96553363790E+01 -0.34055911072E+02  0.54366901583E+02  0.39999583737E+02 0.  0.
        -12    1    3    3    0    0 -0.10137193354E+02 -0.96553363790E+01  0.34055911072E+02  0.36821098417E+02  0.00000000000E+00 0.  1.
         11    1    4    4    0    0  0.72145222813E+01 -0.88235444710E+01 -0.11697141060E+02  0.16331790411E+02  0.51100000000E-03 0. -1.
        -11    1    4    4    0    0  0.88416829947E-01 -0.49593353123E+01  0.72908505521E+00  0.50134209432E+01  0.51100000000E-03 0.  1.
        -12    1    4    4    0    0  0.28342542430E+01  0.23438216162E+02 -0.23087855067E+02  0.33021690229E+02  0.00000000000E+00 0.  1.
</event>
<event>
 8    1  0.2501893E-006  0.9118800E+02  0.7816164E-02  0.1184000E+00
        -11   -1    0    0    0    0  0.00000000000E+00  0.00000000000E+00  0.45593999997E+02  0.45594000000E+02  0.51100000000E-03 0.  1.
         11   -1    0    0    0    0 -0.00000000000E+00 -0.00000000000E+00 -0.45593999997E+02  0.45594000000E+02  0.51100000000E-03 0. -1.
         23    2    1    2    0    0  0.00000000000E+00  0.17763568394E-14  0.35527136788E-14  0.91188000000E+02  0.91188000000E+02 0.  0.
    9900012    2    3    3    0    0  0.15585666811E+02  0.11856444129E+02  0.31181650218E+02  0.54367033314E+02  0.39999884047E+02 0.  0.
         12    1    3    3    0    0 -0.15585666811E+02 -0.11856444129E+02 -0.31181650218E+02  0.36820966686E+02  0.00000000000E+00 0. -1.
         11    1    4    4    0    0 -0.80181694206E+01  0.35272147612E+00 -0.43585454658E+01  0.91330373992E+01  0.51100000000E-03 0. -1.
        -11    1    4    4    0    0 -0.39905034848E+00  0.70936783959E+00  0.43415562200E+01  0.44171885385E+01  0.51100000000E-03 0.  1.
        -12    1    4    4    0    0  0.24002886580E+02  0.10794354813E+02  0.31198639464E+02  0.40816807377E+02  0.00000000000E+00 0.  1.
</event>
<event>
 8    1  0.2501893E-006  0.9118800E+02  0.7816164E-02  0.1184000E+00
        -11   -1    0    0    0    0  0.00000000000E+00  0.00000000000E+00  0.45593999997E+02  0.45594000000E+02  0.51100000000E-03 0. -1.
         11   -1    0    0    0    0 -0.00000000000E+00 -0.00000000000E+00 -0.45593999997E+02  0.45594000000E+02  0.51100000000E-03 0.  1.
         23    2    1    2    0    0  0.00000000000E+00  0.00000000000E+00  0.00000000000E+00  0.91188000000E+02  0.91188000000E+02 0.  0.
    9900012    2    3    3    0    0  0.41609408206E+01 -0.32071146153E+02 -0.17604153292E+02  0.54367108414E+02  0.40000055250E+02 0.  0.
        -12    1    3    3    0    0 -0.41609408206E+01  0.32071146153E+02  0.17604153292E+02  0.36820891586E+02  0.00000000000E+00 0.  1.
         11    1    4    4    0    0  0.49543624897E+01 -0.17774885753E+02  0.73719995593E+01  0.19870547275E+02  0.51100000000E-03 0. -1.
        -11    1    4    4    0    0  0.58231622780E+01 -0.50125265416E+01 -0.21099885026E+02  0.22455284224E+02  0.51100000000E-03 0.  1.
         12    1    4    4    0    0 -0.66165839470E+01 -0.92837338580E+01 -0.38762678261E+01  0.12041276915E+02  0.00000000000E+00 0. -1.
</event>
<event>
 8    1  0.2501893E-006  0.9118800E+02  0.7816164E-02  0.1184000E+00
        -11   -1    0    0    0    0  0.00000000000E+00  0.00000000000E+00  0.45593999997E+02  0.45594000000E+02  0.51100000000E-03 0.  1.
         11   -1    0    0    0    0 -0.00000000000E+00 -0.00000000000E+00 -0.45593999997E+02  0.45594000000E+02  0.51100000000E-03 0. -1.
         23    2    1    2    0    0  0.00000000000E+00 -0.26645352591E-14  0.35527136788E-14  0.91188000000E+02  0.91188000000E+02 0.  0.
    9900012    2    3    3    0    0  0.19807806528E+02  0.62333693718E+01 -0.30406820109E+02  0.54367098295E+02  0.40000032184E+02 0.  0.
        -12    1    3    3    0    0 -0.19807806528E+02 -0.62333693718E+01  0.30406820109E+02  0.36820901705E+02  0.00000000000E+00 0.  1.
         11    1    4    4    0    0  0.80108338191E+01 -0.75677880104E+01 -0.46618869375E+01  0.11965703654E+02  0.51100000000E-03 0. -1.
        -11    1    4    4    0    0  0.15051765176E+02  0.33282431690E+01 -0.11334066438E+01  0.15456954693E+02  0.51100000000E-03 0.  1.
         12    1    4    4    0    0 -0.32547924665E+01  0.10472914213E+02 -0.24611526528E+02  0.26944439949E+02  0.00000000000E+00 0. -1.
</event>
<event>
 8    1  0.2501893E-006  0.9118800E+02  0.7816164E-02  0.1184000E+00
        -11   -1    0    0    0    0  0.00000000000E+00  0.00000000000E+00  0.45593999997E+02  0.45594000000E+02  0.51100000000E-03 0.  1.
         11   -1    0    0    0    0 -0.00000000000E+00 -0.00000000000E+00 -0.45593999997E+02  0.45594000000E+02  0.51100000000E-03 0. -1.
         23    2    1    2    0    0  0.00000000000E+00  0.35527136788E-14 -0.71054273576E-14  0.91188000000E+02  0.91188000000E+02 0.  0.
    9900012    2    3    3    0    0 -0.62165014556E+01 -0.98629955139E+01  0.34926370256E+02  0.54367151149E+02  0.40000152673E+02 0.  0.
         12    1    3    3    0    0  0.62165014556E+01  0.98629955139E+01 -0.34926370256E+02  0.36820848851E+02  0.00000000000E+00 0. -1.
         11    1    4    4    0    0  0.14590140153E+01  0.78429911444E+01  0.30460940739E+01  0.85393162113E+01  0.51100000000E-03 0. -1.
        -11    1    4    4    0    0  0.58104418549E+01 -0.17911171249E+02  0.14167845009E+02  0.23564785645E+02  0.51100000000E-03 0.  1.
         12    1    4    4    0    0 -0.13485957326E+02  0.20518459035E+00  0.17712431173E+02  0.22263049292E+02  0.00000000000E+00 0. -1.
</event>
<event>
 8    1  0.2501893E-006  0.9118800E+02  0.7816164E-02  0.1184000E+00
        -11   -1    0    0    0    0  0.00000000000E+00  0.00000000000E+00  0.45593999997E+02  0.45594000000E+02  0.51100000000E-03 0.  1.
         11   -1    0    0    0    0 -0.00000000000E+00 -0.00000000000E+00 -0.45593999997E+02  0.45594000000E+02  0.51100000000E-03 0. -1.
         23    2    1    2    0    0  0.35527136788E-14  0.00000000000E+00 -0.35527136788E-14  0.91188000000E+02  0.91188000000E+02 0.  0.
    9900012    2    3    3    0    0  0.22025675896E+02 -0.20970451866E+02  0.20757858800E+02  0.54367096262E+02  0.40000027547E+02 0.  0.
         12    1    3    3    0    0 -0.22025675896E+02  0.20970451866E+02 -0.20757858800E+02  0.36820903738E+02  0.00000000000E+00 0. -1.
         11    1    4    4    0    0  0.57775427956E+01  0.62630976433E+01  0.28919590608E+01  0.89983231946E+01  0.51100000000E-03 0. -1.
        -11    1    4    4    0    0  0.14436460131E+02 -0.42952779721E+00  0.33241766579E+01  0.14820459708E+02  0.51100000000E-03 0.  1.
         12    1    4    4    0    0  0.18116729694E+01 -0.26804021712E+02  0.14541723082E+02  0.30548313359E+02  0.00000000000E+00 0. -1.
</event>
<event>
 8    1  0.2501893E-006  0.9118800E+02  0.7816164E-02  0.1184000E+00
        -11   -1    0    0    0    0  0.00000000000E+00  0.00000000000E+00  0.45593999997E+02  0.45594000000E+02  0.51100000000E-03 0.  1.
         11   -1    0    0    0    0 -0.00000000000E+00 -0.00000000000E+00 -0.45593999997E+02  0.45594000000E+02  0.51100000000E-03 0. -1.
         23    2    1    2    0    0 -0.53290705182E-14  0.00000000000E+00  0.35527136788E-14  0.91188000000E+02  0.91188000000E+02 0.  0.
    9900012    2    3    3    0    0 -0.10836672816E+02 -0.28353172973E+02  0.20843303698E+02  0.54367092836E+02  0.40000019738E+02 0.  0.
        -12    1    3    3    0    0  0.10836672816E+02  0.28353172973E+02 -0.20843303698E+02  0.36820907164E+02  0.00000000000E+00 0.  1.
         11    1    4    4    0    0 -0.62554093541E+01  0.64238258525E+00 -0.31059305434E+01  0.70135302362E+01  0.51100000000E-03 0. -1.
        -11    1    4    4    0    0  0.56564513502E+01 -0.22102322475E+02  0.29618177756E+01  0.23006096268E+02  0.51100000000E-03 0.  1.
        -12    1    4    4    0    0 -0.10237714812E+02 -0.68932330832E+01  0.20987416465E+02  0.24347466332E+02  0.00000000000E+00 0.  1.
</event>
<event>
 8    1  0.2501893E-006  0.9118800E+02  0.7816164E-02  0.1184000E+00
        -11   -1    0    0    0    0  0.00000000000E+00  0.00000000000E+00  0.45593999997E+02  0.45594000000E+02  0.51100000000E-03 0.  1.
         11   -1    0    0    0    0 -0.00000000000E+00 -0.00000000000E+00 -0.45593999997E+02  0.45594000000E+02  0.51100000000E-03 0. -1.
         23    2    1    2    0    0  0.00000000000E+00  0.22204460493E-15  0.00000000000E+00  0.91188000000E+02  0.91188000000E+02 0.  0.
    9900012    2    3    3    0    0 -0.34610570084E+02  0.18318138361E+01  0.12431115307E+02  0.54367085682E+02  0.40000003429E+02 0.  0.
         12    1    3    3    0    0  0.34610570084E+02 -0.18318138361E+01 -0.12431115307E+02  0.36820914318E+02  0.00000000000E+00 0. -1.
         11    1    4    4    0    0  0.22451992829E+01  0.22580326748E+01 -0.49244589821E+01  0.58642926179E+01  0.51100000000E-03 0. -1.
        -11    1    4    4    0    0 -0.60425517411E+01  0.20683602327E+01 -0.67564698078E+01  0.92973345708E+01  0.51100000000E-03 0.  1.
         12    1    4    4    0    0 -0.30813217625E+02 -0.24945790714E+01  0.24112044096E+02  0.39205458493E+02  0.00000000000E+00 0. -1.
</event>
<event>
 8    1  0.2501893E-006  0.9118800E+02  0.7816164E-02  0.1184000E+00
        -11   -1    0    0    0    0  0.00000000000E+00  0.00000000000E+00  0.45593999997E+02  0.45594000000E+02  0.51100000000E-03 0. -1.
         11   -1    0    0    0    0 -0.00000000000E+00 -0.00000000000E+00 -0.45593999997E+02  0.45594000000E+02  0.51100000000E-03 0.  1.
         23    2    1    2    0    0  0.00000000000E+00  0.17763568394E-14  0.00000000000E+00  0.91188000000E+02  0.91188000000E+02 0.  0.
    9900012    2    3    3    0    0 -0.28594287205E+02  0.10105169725E+02 -0.20881435633E+02  0.54367053922E+02  0.39999931027E+02 0.  0.
         12    1    3    3    0    0  0.28594287205E+02 -0.10105169725E+02  0.20881435633E+02  0.36820946078E+02  0.00000000000E+00 0. -1.
         11    1    4    4    0    0 -0.69386589500E+01  0.51731171374E+01 -0.19892716674E+02  0.21693923248E+02  0.51100000000E-03 0. -1.
        -11    1    4    4    0    0 -0.75499412986E+01  0.37409229783E+01 -0.12053092825E+02  0.14706228791E+02  0.51100000000E-03 0.  1.
         12    1    4    4    0    0 -0.14105686956E+02  0.11911296092E+01  0.11064373866E+02  0.17966901884E+02  0.00000000000E+00 0. -1.
</event>
<event>
 8    1  0.2501893E-006  0.9118800E+02  0.7816164E-02  0.1184000E+00
        -11   -1    0    0    0    0  0.00000000000E+00  0.00000000000E+00  0.45593999997E+02  0.45594000000E+02  0.51100000000E-03 0.  1.
         11   -1    0    0    0    0 -0.00000000000E+00 -0.00000000000E+00 -0.45593999997E+02  0.45594000000E+02  0.51100000000E-03 0. -1.
         23    2    1    2    0    0  0.00000000000E+00 -0.35527136788E-14 -0.35527136788E-14  0.91188000000E+02  0.91188000000E+02 0.  0.
    9900012    2    3    3    0    0 -0.43352967371E+01  0.25146874451E+02  0.26544671752E+02  0.54367086230E+02  0.40000004678E+02 0.  0.
        -12    1    3    3    0    0  0.43352967371E+01 -0.25146874451E+02 -0.26544671752E+02  0.36820913770E+02  0.00000000000E+00 0.  1.
         11    1    4    4    0    0 -0.38807121116E+01  0.19155017345E+02  0.40063180134E+01  0.19950568921E+02  0.51100000000E-03 0. -1.
        -11    1    4    4    0    0  0.63424768025E+00  0.15789149795E+02  0.16550869674E+02  0.22882980763E+02  0.51100000000E-03 0.  1.
        -12    1    4    4    0    0 -0.10888323057E+01 -0.97972926891E+01  0.59874840648E+01  0.11533536546E+02  0.00000000000E+00 0.  1.
</event>
<event>
 8    1  0.2501893E-006  0.9118800E+02  0.7816164E-02  0.1184000E+00
        -11   -1    0    0    0    0  0.00000000000E+00  0.00000000000E+00  0.45593999997E+02  0.45594000000E+02  0.51100000000E-03 0.  1.
         11   -1    0    0    0    0 -0.00000000000E+00 -0.00000000000E+00 -0.45593999997E+02  0.45594000000E+02  0.51100000000E-03 0. -1.
         23    2    1    2    0    0  0.00000000000E+00  0.00000000000E+00  0.88817841970E-15  0.91188000000E+02  0.91188000000E+02 0.  0.
    9900012    2    3    3    0    0  0.56537788906E+01  0.36290109362E+02 -0.26156670804E+01  0.54367096052E+02  0.40000027069E+02 0.  0.
         12    1    3    3    0    0 -0.56537788906E+01 -0.36290109362E+02  0.26156670804E+01  0.36820903948E+02  0.00000000000E+00 0. -1.
         11    1    4    4    0    0  0.65475188751E+01 -0.92229382137E+00  0.53099028054E+01  0.84803123396E+01  0.51100000000E-03 0. -1.
        -11    1    4    4    0    0  0.56749653202E+01  0.31466773722E+02 -0.14353199003E+02  0.35048215386E+02  0.51100000000E-03 0.  1.
         12    1    4    4    0    0 -0.65687053047E+01  0.57456294616E+01  0.64276291173E+01  0.10838568326E+02  0.00000000000E+00 0. -1.
</event>
<event>
 8    1  0.2501893E-006  0.9118800E+02  0.7816164E-02  0.1184000E+00
        -11   -1    0    0    0    0  0.00000000000E+00  0.00000000000E+00  0.45593999997E+02  0.45594000000E+02  0.51100000000E-03 0. -1.
         11   -1    0    0    0    0 -0.00000000000E+00 -0.00000000000E+00 -0.45593999997E+02  0.45594000000E+02  0.51100000000E-03 0.  1.
         23    2    1    2    0    0 -0.35527136788E-14  0.00000000000E+00  0.17763568394E-14  0.91188000000E+02  0.91188000000E+02 0.  0.
    9900012    2    3    3    0    0 -0.31369977214E+02 -0.19008364923E+02 -0.32227409474E+01  0.54367089274E+02  0.40000011618E+02 0.  0.
         12    1    3    3    0    0  0.31369977214E+02  0.19008364923E+02  0.32227409474E+01  0.36820910726E+02  0.00000000000E+00 0. -1.
         11    1    4    4    0    0 -0.16299101454E+01 -0.46418410465E+01  0.29129196903E+01  0.57173767382E+01  0.51100000000E-03 0. -1.
        -11    1    4    4    0    0 -0.27193841266E+01 -0.17824407142E+02 -0.10791957692E+02  0.21013588249E+02  0.51100000000E-03 0.  1.
        -12    1    4    4    0    0 -0.27020682942E+02  0.34578832656E+01  0.46562970538E+01  0.27636124287E+02  0.00000000000E+00 0.  1.
</event>
<event>
 8    1  0.2501893E-006  0.9118800E+02  0.7816164E-02  0.1184000E+00
        -11   -1    0    0    0    0  0.00000000000E+00  0.00000000000E+00  0.45593999997E+02  0.45594000000E+02  0.51100000000E-03 0.  1.
         11   -1    0    0    0    0 -0.00000000000E+00 -0.00000000000E+00 -0.45593999997E+02  0.45594000000E+02  0.51100000000E-03 0. -1.
         23    2    1    2    0    0  0.17763568394E-14  0.00000000000E+00  0.00000000000E+00  0.91188000000E+02  0.91188000000E+02 0.  0.
    9900012    2    3    3    0    0 -0.68011296741E+01 -0.31460092973E+02 -0.17882617135E+02  0.54367071029E+02  0.39999970024E+02 0.  0.
         12    1    3    3    0    0  0.68011296741E+01  0.31460092973E+02  0.17882617135E+02  0.36820928971E+02  0.00000000000E+00 0. -1.
         11    1    4    4    0    0  0.94995569297E+01 -0.11477446222E+02 -0.12980716315E+02  0.19760373224E+02  0.51100000000E-03 0. -1.
        -11    1    4    4    0    0  0.63563356416E+00 -0.15671772735E+02  0.20104813800E+01  0.15812986003E+02  0.51100000000E-03 0.  1.
        -12    1    4    4    0    0 -0.16936320168E+02 -0.43108740163E+01 -0.69123821995E+01  0.18793711802E+02  0.00000000000E+00 0.  1.
</event>
<event>
 8    1  0.2501893E-006  0.9118800E+02  0.7816164E-02  0.1184000E+00
        -11   -1    0    0    0    0  0.00000000000E+00  0.00000000000E+00  0.45593999997E+02  0.45594000000E+02  0.51100000000E-03 0. -1.
         11   -1    0    0    0    0 -0.00000000000E+00 -0.00000000000E+00 -0.45593999997E+02  0.45594000000E+02  0.51100000000E-03 0.  1.
         23    2    1    2    0    0  0.00000000000E+00  0.00000000000E+00 -0.35527136788E-14  0.91188000000E+02  0.91188000000E+02 0.  0.
    9900012    2    3    3    0    0  0.14338619283E+02  0.16795681615E+02  0.29463330909E+02  0.54367098435E+02  0.40000032502E+02 0.  0.
        -12    1    3    3    0    0 -0.14338619283E+02 -0.16795681615E+02 -0.29463330909E+02  0.36820901565E+02  0.00000000000E+00 0.  1.
         11    1    4    4    0    0  0.15799202722E+02  0.38916229268E+01  0.79166561225E+01  0.18095109286E+02  0.51100000000E-03 0. -1.
        -11    1    4    4    0    0 -0.12733377495E+02  0.15050707179E+01  0.12284783400E+02  0.17757253271E+02  0.51100000000E-03 0.  1.
         12    1    4    4    0    0  0.11272794056E+02  0.11398987970E+02  0.92618913866E+01  0.18514735878E+02  0.00000000000E+00 0. -1.
</event>
<event>
 8    1  0.2501893E-006  0.9118800E+02  0.7816164E-02  0.1184000E+00
        -11   -1    0    0    0    0  0.00000000000E+00  0.00000000000E+00  0.45593999997E+02  0.45594000000E+02  0.51100000000E-03 0.  1.
         11   -1    0    0    0    0 -0.00000000000E+00 -0.00000000000E+00 -0.45593999997E+02  0.45594000000E+02  0.51100000000E-03 0. -1.
         23    2    1    2    0    0 -0.88817841970E-15  0.35527136788E-14  0.00000000000E+00  0.91188000000E+02  0.91188000000E+02 0.  0.
    9900012    2    3    3    0    0  0.21134545503E+01  0.31682666791E+02 -0.18641962251E+02  0.54367070874E+02  0.39999969672E+02 0.  0.
        -12    1    3    3    0    0 -0.21134545503E+01 -0.31682666791E+02  0.18641962251E+02  0.36820929126E+02  0.00000000000E+00 0.  1.
         11    1    4    4    0    0 -0.46713268234E+01 -0.31096770485E+01 -0.13397508215E+02  0.14525309369E+02  0.51100000000E-03 0. -1.
        -11    1    4    4    0    0  0.11525198110E+01  0.31310663851E+01  0.50703924470E+01  0.60696588413E+01  0.51100000000E-03 0.  1.
         12    1    4    4    0    0  0.56322615627E+01  0.31661277455E+02 -0.10314846482E+02  0.33772102664E+02  0.00000000000E+00 0. -1.
</event>
<event>
 8    1  0.2501893E-006  0.9118800E+02  0.7816164E-02  0.1184000E+00
        -11   -1    0    0    0    0  0.00000000000E+00  0.00000000000E+00  0.45593999997E+02  0.45594000000E+02  0.51100000000E-03 0.  1.
         11   -1    0    0    0    0 -0.00000000000E+00 -0.00000000000E+00 -0.45593999997E+02  0.45594000000E+02  0.51100000000E-03 0. -1.
         23    2    1    2    0    0  0.71054273576E-14  0.00000000000E+00  0.00000000000E+00  0.91188000000E+02  0.91188000000E+02 0.  0.
    9900012    2    3    3    0    0 -0.30086045301E+02 -0.20624756823E+02  0.50229402963E+01  0.54367073273E+02  0.39999975140E+02 0.  0.
         12    1    3    3    0    0  0.30086045301E+02  0.20624756823E+02 -0.50229402963E+01  0.36820926727E+02  0.00000000000E+00 0. -1.
         11    1    4    4    0    0 -0.13165079644E+02 -0.12926052189E+02  0.14781994053E+02  0.23641266795E+02  0.51100000000E-03 0. -1.
        -11    1    4    4    0    0 -0.18419184758E+02 -0.13462352324E+02 -0.56904076776E+01  0.23513443751E+02  0.51100000000E-03 0.  1.
         12    1    4    4    0    0  0.14982191014E+01  0.57636476910E+01 -0.40686460792E+01  0.72123627265E+01  0.00000000000E+00 0. -1.
</event>
<event>
 8    1  0.2501893E-006  0.9118800E+02  0.7816164E-02  0.1184000E+00
        -11   -1    0    0    0    0  0.00000000000E+00  0.00000000000E+00  0.45593999997E+02  0.45594000000E+02  0.51100000000E-03 0.  1.
         11   -1    0    0    0    0 -0.00000000000E+00 -0.00000000000E+00 -0.45593999997E+02  0.45594000000E+02  0.51100000000E-03 0. -1.
         23    2    1    2    0    0  0.17763568394E-14  0.00000000000E+00  0.00000000000E+00  0.91188000000E+02  0.91188000000E+02 0.  0.
    9900012    2    3    3    0    0 -0.85706507592E+01 -0.26132523982E+02  0.24482944024E+02  0.54367090014E+02  0.40000013306E+02 0.  0.
         12    1    3    3    0    0  0.85706507592E+01  0.26132523982E+02 -0.24482944024E+02  0.36820909986E+02  0.00000000000E+00 0. -1.
         11    1    4    4    0    0 -0.57166709336E+01 -0.85705696513E+01 -0.79549990252E+01  0.13016028598E+02  0.51100000000E-03 0. -1.
        -11    1    4    4    0    0  0.22314634822E+01 -0.18786963016E+02  0.30254323095E+02  0.35682677518E+02  0.51100000000E-03 0.  1.
         12    1    4    4    0    0 -0.50854433079E+01  0.12250086858E+01  0.21836199537E+01  0.56683838984E+01  0.00000000000E+00 0. -1.
</event>
<event>
 8    1  0.2501893E-006  0.9118800E+02  0.7816164E-02  0.1184000E+00
        -11   -1    0    0    0    0  0.00000000000E+00  0.00000000000E+00  0.45593999997E+02  0.45594000000E+02  0.51100000000E-03 0. -1.
         11   -1    0    0    0    0 -0.00000000000E+00 -0.00000000000E+00 -0.45593999997E+02  0.45594000000E+02  0.51100000000E-03 0.  1.
         23    2    1    2    0    0  0.00000000000E+00  0.35527136788E-14  0.00000000000E+00  0.91188000000E+02  0.91188000000E+02 0.  0.
    9900012    2    3    3    0    0  0.16009952849E+02  0.31493248977E+02  0.10374791810E+02  0.54367087105E+02  0.40000006672E+02 0.  0.
         12    1    3    3    0    0 -0.16009952849E+02 -0.31493248977E+02 -0.10374791810E+02  0.36820912895E+02  0.00000000000E+00 0. -1.
         11    1    4    4    0    0  0.37836147427E+01  0.17795344746E+02  0.23561630023E+02  0.29768111205E+02  0.51100000000E-03 0. -1.
        -11    1    4    4    0    0  0.67626452965E+01  0.90498848234E+00 -0.37045978216E+01  0.77637890775E+01  0.51100000000E-03 0.  1.
        -12    1    4    4    0    0  0.54636928095E+01  0.12792915749E+02 -0.94822403913E+01  0.16835186822E+02  0.00000000000E+00 0.  1.
</event>
<event>
 8    1  0.2501893E-006  0.9118800E+02  0.7816164E-02  0.1184000E+00
        -11   -1    0    0    0    0  0.00000000000E+00  0.00000000000E+00  0.45593999997E+02  0.45594000000E+02  0.51100000000E-03 0. -1.
         11   -1    0    0    0    0 -0.00000000000E+00 -0.00000000000E+00 -0.45593999997E+02  0.45594000000E+02  0.51100000000E-03 0.  1.
         23    2    1    2    0    0  0.00000000000E+00  0.00000000000E+00  0.15543122345E-14  0.91188000000E+02  0.91188000000E+02 0.  0.
    9900012    2    3    3    0    0  0.34963766739E+02  0.11475512719E+02 -0.12772335861E+01  0.54367031757E+02  0.39999880496E+02 0.  0.
        -12    1    3    3    0    0 -0.34963766739E+02 -0.11475512719E+02  0.12772335861E+01  0.36820968243E+02  0.00000000000E+00 0.  1.
         11    1    4    4    0    0  0.82519108739E+01 -0.89800487223E+00  0.11617836634E+02  0.14278465399E+02  0.51100000000E-03 0. -1.
        -11    1    4    4    0    0  0.33961123260E+01 -0.66505596136E+01 -0.49703651662E+01  0.89703986673E+01  0.51100000000E-03 0.  1.
        -12    1    4    4    0    0  0.23315743539E+02  0.19024077205E+02 -0.79247050541E+01  0.31118167691E+02  0.00000000000E+00 0.  1.
</event>
<event>
 8    1  0.2501893E-006  0.9118800E+02  0.7816164E-02  0.1184000E+00
        -11   -1    0    0    0    0  0.00000000000E+00  0.00000000000E+00  0.45593999997E+02  0.45594000000E+02  0.51100000000E-03 0.  1.
         11   -1    0    0    0    0 -0.00000000000E+00 -0.00000000000E+00 -0.45593999997E+02  0.45594000000E+02  0.51100000000E-03 0. -1.
         23    2    1    2    0    0  0.55511151231E-15  0.00000000000E+00  0.00000000000E+00  0.91188000000E+02  0.91188000000E+02 0.  0.
    9900012    2    3    3    0    0 -0.87886227595E+00 -0.20806037617E+02  0.30366340518E+02  0.54367105977E+02  0.40000049695E+02 0.  0.
         12    1    3    3    0    0  0.87886227595E+00  0.20806037617E+02 -0.30366340518E+02  0.36820894023E+02  0.00000000000E+00 0. -1.
         11    1    4    4    0    0  0.48077071452E+01 -0.90156858759E+01 -0.43356495255E-01  0.10217559388E+02  0.51100000000E-03 0. -1.
        -11    1    4    4    0    0  0.45667612236E+01  0.47029456310E+01  0.22054105158E+02  0.23007750005E+02  0.51100000000E-03 0.  1.
        -12    1    4    4    0    0 -0.10253330645E+02 -0.16493297373E+02  0.83555918547E+01  0.21141796583E+02  0.00000000000E+00 0.  1.
</event>
<event>
 8    1  0.2501893E-006  0.9118800E+02  0.7816164E-02  0.1184000E+00
        -11   -1    0    0    0    0  0.00000000000E+00  0.00000000000E+00  0.45593999997E+02  0.45594000000E+02  0.51100000000E-03 0.  1.
         11   -1    0    0    0    0 -0.00000000000E+00 -0.00000000000E+00 -0.45593999997E+02  0.45594000000E+02  0.51100000000E-03 0. -1.
         23    2    1    2    0    0  0.17763568394E-14  0.00000000000E+00  0.17763568394E-14  0.91188000000E+02  0.91188000000E+02 0.  0.
    9900012    2    3    3    0    0  0.14916700824E+02  0.30934016209E+02  0.13279945558E+02  0.54367105438E+02  0.40000048468E+02 0.  0.
         12    1    3    3    0    0 -0.14916700824E+02 -0.30934016209E+02 -0.13279945558E+02  0.36820894562E+02  0.00000000000E+00 0. -1.
         11    1    4    4    0    0 -0.87440617703E+00  0.60018362603E+00 -0.21442374698E+01  0.23921875210E+01  0.51100000000E-03 0. -1.
        -11    1    4    4    0    0  0.72331669570E+01  0.23731624239E+02 -0.80902877619E+01  0.26095238063E+02  0.51100000000E-03 0.  1.
         12    1    4    4    0    0  0.85579400443E+01  0.66022083436E+01  0.23514470790E+02  0.25879679854E+02  0.00000000000E+00 0. -1.
</event>
<event>
 8    1  0.2501893E-006  0.9118800E+02  0.7816164E-02  0.1184000E+00
        -11   -1    0    0    0    0  0.00000000000E+00  0.00000000000E+00  0.45593999997E+02  0.45594000000E+02  0.51100000000E-03 0. -1.
         11   -1    0    0    0    0 -0.00000000000E+00 -0.00000000000E+00 -0.45593999997E+02  0.45594000000E+02  0.51100000000E-03 0.  1.
         23    2    1    2    0    0  0.00000000000E+00  0.00000000000E+00  0.00000000000E+00  0.91188000000E+02  0.91188000000E+02 0.  0.
    9900012    2    3    3    0    0  0.11619592813E+02  0.33138481637E+02  0.11072816501E+02  0.54367066177E+02  0.39999958964E+02 0.  0.
        -12    1    3    3    0    0 -0.11619592813E+02 -0.33138481637E+02 -0.11072816501E+02  0.36820933823E+02  0.00000000000E+00 0.  1.
         11    1    4    4    0    0  0.14007565577E+02  0.62306553707E+01  0.12642571123E+02  0.19871274861E+02  0.51100000000E-03 0. -1.
        -11    1    4    4    0    0 -0.79748856262E+01  0.39721014717E+01  0.46971483056E+01  0.10071722460E+02  0.51100000000E-03 0.  1.
        -12    1    4    4    0    0  0.55869128619E+01  0.22935724794E+02 -0.62669029274E+01  0.24424068856E+02  0.00000000000E+00 0.  1.
</event>
<event>
 8    1  0.2501893E-006  0.9118800E+02  0.7816164E-02  0.1184000E+00
        -11   -1    0    0    0    0  0.00000000000E+00  0.00000000000E+00  0.45593999997E+02  0.45594000000E+02  0.51100000000E-03 0.  1.
         11   -1    0    0    0    0 -0.00000000000E+00 -0.00000000000E+00 -0.45593999997E+02  0.45594000000E+02  0.51100000000E-03 0. -1.
         23    2    1    2    0    0 -0.13322676296E-14  0.00000000000E+00 -0.35527136788E-14  0.91188000000E+02  0.91188000000E+02 0.  0.
    9900012    2    3    3    0    0 -0.37643834209E+01 -0.24452912425E+02 -0.27270229789E+02  0.54367069249E+02  0.39999965967E+02 0.  0.
        -12    1    3    3    0    0  0.37643834209E+01  0.24452912425E+02  0.27270229789E+02  0.36820930751E+02  0.00000000000E+00 0.  1.
         11    1    4    4    0    0 -0.59563155597E+01  0.53987124539E+01 -0.14823364959E+02  0.16862856821E+02  0.51100000000E-03 0. -1.
        -11    1    4    4    0    0 -0.81951598750E+01 -0.11527580406E+02 -0.32035676511E+01  0.14502020595E+02  0.51100000000E-03 0.  1.
         12    1    4    4    0    0  0.10387092014E+02 -0.18324044474E+02 -0.92432971792E+01  0.23002191833E+02  0.00000000000E+00 0. -1.
</event>
<event>
 8    1  0.2501893E-006  0.9118800E+02  0.7816164E-02  0.1184000E+00
        -11   -1    0    0    0    0  0.00000000000E+00  0.00000000000E+00  0.45593999997E+02  0.45594000000E+02  0.51100000000E-03 0.  1.
         11   -1    0    0    0    0 -0.00000000000E+00 -0.00000000000E+00 -0.45593999997E+02  0.45594000000E+02  0.51100000000E-03 0. -1.
         23    2    1    2    0    0  0.00000000000E+00  0.00000000000E+00  0.35527136788E-14  0.91188000000E+02  0.91188000000E+02 0.  0.
    9900012    2    3    3    0    0  0.19069864811E+02  0.18472837359E+02 -0.25512244103E+02  0.54367081174E+02  0.39999993152E+02 0.  0.
        -12    1    3    3    0    0 -0.19069864811E+02 -0.18472837359E+02  0.25512244103E+02  0.36820918826E+02  0.00000000000E+00 0.  1.
         11    1    4    4    0    0 -0.21513042682E+01  0.17586203834E+02 -0.18317888552E+02  0.25484264098E+02  0.51100000000E-03 0. -1.
        -11    1    4    4    0    0  0.33438021791E+01 -0.70582787709E+01 -0.48154042625E+01  0.91754253685E+01  0.51100000000E-03 0.  1.
        -12    1    4    4    0    0  0.17877366900E+02  0.79449122955E+01 -0.23789512888E+01  0.19707391707E+02  0.00000000000E+00 0.  1.
</event>
<event>
 8    1  0.2501893E-006  0.9118800E+02  0.7816164E-02  0.1184000E+00
        -11   -1    0    0    0    0  0.00000000000E+00  0.00000000000E+00  0.45593999997E+02  0.45594000000E+02  0.51100000000E-03 0.  1.
         11   -1    0    0    0    0 -0.00000000000E+00 -0.00000000000E+00 -0.45593999997E+02  0.45594000000E+02  0.51100000000E-03 0. -1.
         23    2    1    2    0    0  0.00000000000E+00  0.00000000000E+00  0.00000000000E+00  0.91188000000E+02  0.91188000000E+02 0.  0.
    9900012    2    3    3    0    0  0.13604324727E+02 -0.18603355916E+02 -0.28716132116E+02  0.54367099056E+02  0.40000033919E+02 0.  0.
        -12    1    3    3    0    0 -0.13604324727E+02  0.18603355916E+02  0.28716132116E+02  0.36820900944E+02  0.00000000000E+00 0.  1.
         11    1    4    4    0    0  0.90638125122E+00 -0.16863397614E+02 -0.35510744177E+02  0.39321859802E+02  0.51100000000E-03 0. -1.
        -11    1    4    4    0    0  0.64585987389E+01  0.10265774968E+00  0.53351137587E+01  0.83777965697E+01  0.51100000000E-03 0.  1.
         12    1    4    4    0    0  0.62393447365E+01 -0.18426160516E+01  0.14594983024E+01  0.66674426844E+01  0.00000000000E+00 0. -1.
</event>
<event>
 8    1  0.2501893E-006  0.9118800E+02  0.7816164E-02  0.1184000E+00
        -11   -1    0    0    0    0  0.00000000000E+00  0.00000000000E+00  0.45593999997E+02  0.45594000000E+02  0.51100000000E-03 0.  1.
         11   -1    0    0    0    0 -0.00000000000E+00 -0.00000000000E+00 -0.45593999997E+02  0.45594000000E+02  0.51100000000E-03 0. -1.
         23    2    1    2    0    0 -0.88817841970E-15  0.00000000000E+00 -0.14210854715E-13  0.91188000000E+02  0.91188000000E+02 0.  0.
    9900012    2    3    3    0    0 -0.78495706870E+01  0.52293263502E+01 -0.35592377308E+02  0.54367096474E+02  0.40000028032E+02 0.  0.
        -12    1    3    3    0    0  0.78495706870E+01 -0.52293263502E+01  0.35592377308E+02  0.36820903526E+02  0.00000000000E+00 0.  1.
         11    1    4    4    0    0 -0.87225556497E+01  0.25870400062E+01  0.24413637133E+01  0.94199793045E+01  0.51100000000E-03 0.  1.
        -11    1    4    4    0    0  0.74719267729E+01 -0.16051844684E-01 -0.13662301305E+01  0.75958233518E+01  0.51100000000E-03 0. -1.
         12    1    4    4    0    0 -0.65989418102E+01  0.26583381888E+01 -0.36667510891E+02  0.37351293818E+02  0.00000000000E+00 0. -1.
</event>
<event>
 8    1  0.2501893E-006  0.9118800E+02  0.7816164E-02  0.1184000E+00
        -11   -1    0    0    0    0  0.00000000000E+00  0.00000000000E+00  0.45593999997E+02  0.45594000000E+02  0.51100000000E-03 0. -1.
         11   -1    0    0    0    0 -0.00000000000E+00 -0.00000000000E+00 -0.45593999997E+02  0.45594000000E+02  0.51100000000E-03 0.  1.
         23    2    1    2    0    0  0.00000000000E+00 -0.44408920985E-15  0.71054273576E-14  0.91188000000E+02  0.91188000000E+02 0.  0.
    9900012    2    3    3    0    0  0.15956330884E+02 -0.11434136249E+01 -0.33164280688E+02  0.54367062972E+02  0.39999951658E+02 0.  0.
         12    1    3    3    0    0 -0.15956330884E+02  0.11434136249E+01  0.33164280688E+02  0.36820937028E+02  0.00000000000E+00 0. -1.
         11    1    4    4    0    0  0.62602199876E+01 -0.39273281572E+01 -0.22578975593E+02  0.23757617722E+02  0.51100000000E-03 0. -1.
        -11    1    4    4    0    0 -0.35676313888E+00 -0.10403966637E+02  0.88311407136E+00  0.10447473017E+02  0.51100000000E-03 0.  1.
         12    1    4    4    0    0  0.10052874036E+02  0.13187881170E+02 -0.11468419167E+02  0.20161972233E+02  0.00000000000E+00 0. -1.
</event>
<event>
 8    1  0.2501893E-006  0.9118800E+02  0.7816164E-02  0.1184000E+00
        -11   -1    0    0    0    0  0.00000000000E+00  0.00000000000E+00  0.45593999997E+02  0.45594000000E+02  0.51100000000E-03 0.  1.
         11   -1    0    0    0    0 -0.00000000000E+00 -0.00000000000E+00 -0.45593999997E+02  0.45594000000E+02  0.51100000000E-03 0. -1.
         23    2    1    2    0    0  0.35527136788E-14 -0.14210854715E-13  0.88817841970E-15  0.91188000000E+02  0.91188000000E+02 0.  0.
    9900012    2    3    3    0    0  0.18133995171E+02 -0.31680336468E+02  0.48265571486E+01  0.54367066369E+02  0.39999959400E+02 0.  0.
        -12    1    3    3    0    0 -0.18133995171E+02  0.31680336468E+02 -0.48265571486E+01  0.36820933631E+02  0.00000000000E+00 0.  1.
         11    1    4    4    0    0  0.35234515172E+01 -0.24267788633E+00 -0.13839095237E+01  0.37932583594E+01  0.51100000000E-03 0. -1.
        -11    1    4    4    0    0  0.89508312944E+01 -0.39409753147E+02  0.48906907673E+01  0.40708290070E+02  0.51100000000E-03 0.  1.
         12    1    4    4    0    0  0.56597123598E+01  0.79720945660E+01  0.13197759050E+01  0.98655179390E+01  0.00000000000E+00 0. -1.
</event>
<event>
 8    1  0.2501893E-006  0.9118800E+02  0.7816164E-02  0.1184000E+00
        -11   -1    0    0    0    0  0.00000000000E+00  0.00000000000E+00  0.45593999997E+02  0.45594000000E+02  0.51100000000E-03 0. -1.
         11   -1    0    0    0    0 -0.00000000000E+00 -0.00000000000E+00 -0.45593999997E+02  0.45594000000E+02  0.51100000000E-03 0.  1.
         23    2    1    2    0    0  0.71054273576E-14  0.00000000000E+00  0.00000000000E+00  0.91188000000E+02  0.91188000000E+02 0.  0.
    9900012    2    3    3    0    0 -0.32161209593E+02 -0.29626207955E+01 -0.17682196382E+02  0.54367073974E+02  0.39999976739E+02 0.  0.
        -12    1    3    3    0    0  0.32161209593E+02  0.29626207955E+01  0.17682196382E+02  0.36820926026E+02  0.00000000000E+00 0.  1.
         11    1    4    4    0    0 -0.10651512609E+02  0.11940448530E+01  0.25501966365E+01  0.11017439227E+02  0.51100000000E-03 0. -1.
        -11    1    4    4    0    0 -0.15966825196E+02  0.84594028411E+01 -0.23046185967E+02  0.29285281135E+02  0.51100000000E-03 0.  1.
        -12    1    4    4    0    0 -0.55428717885E+01 -0.12616068490E+02  0.28137929478E+01  0.14064353613E+02  0.00000000000E+00 0.  1.
</event>
<event>
 8    1  0.2501893E-006  0.9118800E+02  0.7816164E-02  0.1184000E+00
        -11   -1    0    0    0    0  0.00000000000E+00  0.00000000000E+00  0.45593999997E+02  0.45594000000E+02  0.51100000000E-03 0. -1.
         11   -1    0    0    0    0 -0.00000000000E+00 -0.00000000000E+00 -0.45593999997E+02  0.45594000000E+02  0.51100000000E-03 0.  1.
         23    2    1    2    0    0  0.00000000000E+00  0.44408920985E-15  0.00000000000E+00  0.91188000000E+02  0.91188000000E+02 0.  0.
    9900012    2    3    3    0    0  0.10849015669E+02 -0.21443453021E+01  0.35120926253E+02  0.54367098074E+02  0.40000031680E+02 0.  0.
        -12    1    3    3    0    0 -0.10849015669E+02  0.21443453021E+01 -0.35120926253E+02  0.36820901926E+02  0.00000000000E+00 0.  1.
         11    1    4    4    0    0  0.30273128448E+01  0.13046122432E+01  0.27166456873E+02  0.27365727023E+02  0.51100000000E-03 0. -1.
        -11    1    4    4    0    0 -0.69706712943E+01  0.47211745615E+01  0.23315063231E+00  0.84222388360E+01  0.51100000000E-03 0.  1.
        -12    1    4    4    0    0  0.14792374118E+02 -0.81701321067E+01  0.77213187473E+01  0.18579132216E+02  0.00000000000E+00 0.  1.
</event>
<event>
 8    1  0.2501893E-006  0.9118800E+02  0.7816164E-02  0.1184000E+00
        -11   -1    0    0    0    0  0.00000000000E+00  0.00000000000E+00  0.45593999997E+02  0.45594000000E+02  0.51100000000E-03 0.  1.
         11   -1    0    0    0    0 -0.00000000000E+00 -0.00000000000E+00 -0.45593999997E+02  0.45594000000E+02  0.51100000000E-03 0. -1.
         23    2    1    2    0    0  0.00000000000E+00  0.00000000000E+00 -0.35527136788E-14  0.91188000000E+02  0.91188000000E+02 0.  0.
    9900012    2    3    3    0    0 -0.94536490228E+01 -0.24155931520E+02 -0.26132519315E+02  0.54366958825E+02  0.39999714233E+02 0.  0.
        -12    1    3    3    0    0  0.94536490228E+01  0.24155931520E+02  0.26132519315E+02  0.36821041175E+02  0.00000000000E+00 0.  1.
         11    1    4    4    0    0 -0.85014583389E+01 -0.88850477092E+01  0.90004132635E+01  0.15238973255E+02  0.51100000000E-03 0.  1.
        -11    1    4    4    0    0 -0.30467004780E+01 -0.10705089729E+02 -0.29756831619E+02  0.31770274757E+02  0.51100000000E-03 0. -1.
         12    1    4    4    0    0  0.20945097941E+01 -0.45657940824E+01 -0.53761009596E+01  0.73577108130E+01  0.00000000000E+00 0. -1.
</event>
<event>
 8    1  0.2501893E-006  0.9118800E+02  0.7816164E-02  0.1184000E+00
        -11   -1    0    0    0    0  0.00000000000E+00  0.00000000000E+00  0.45593999997E+02  0.45594000000E+02  0.51100000000E-03 0.  1.
         11   -1    0    0    0    0 -0.00000000000E+00 -0.00000000000E+00 -0.45593999997E+02  0.45594000000E+02  0.51100000000E-03 0. -1.
         23    2    1    2    0    0  0.17763568394E-14  0.26645352591E-14  0.71054273576E-14  0.91188000000E+02  0.91188000000E+02 0.  0.
    9900012    2    3    3    0    0  0.60175687366E+01 -0.39904547570E+01 -0.36106026338E+02  0.54367082024E+02  0.39999995090E+02 0.  0.
        -12    1    3    3    0    0 -0.60175687366E+01  0.39904547570E+01  0.36106026338E+02  0.36820917976E+02  0.00000000000E+00 0.  1.
         11    1    4    4    0    0  0.82381096074E+01  0.74341613086E+01 -0.59531274088E+01  0.12592574418E+02  0.51100000000E-03 0. -1.
        -11    1    4    4    0    0 -0.94309557562E+01  0.28283135406E+01 -0.30368474116E+01  0.10303626858E+02  0.51100000000E-03 0.  1.
         12    1    4    4    0    0  0.72104148854E+01 -0.14252929606E+02 -0.27116051518E+02  0.31470880748E+02  0.00000000000E+00 0. -1.
</event>
<event>
 8    1  0.2501893E-006  0.9118800E+02  0.7816164E-02  0.1184000E+00
        -11   -1    0    0    0    0  0.00000000000E+00  0.00000000000E+00  0.45593999997E+02  0.45594000000E+02  0.51100000000E-03 0.  1.
         11   -1    0    0    0    0 -0.00000000000E+00 -0.00000000000E+00 -0.45593999997E+02  0.45594000000E+02  0.51100000000E-03 0. -1.
         23    2    1    2    0    0  0.00000000000E+00  0.44408920985E-14 -0.35527136788E-14  0.91188000000E+02  0.91188000000E+02 0.  0.
    9900012    2    3    3    0    0  0.32363054470E+02  0.55058112613E+01  0.16676311014E+02  0.54367073867E+02  0.39999976494E+02 0.  0.
         12    1    3    3    0    0 -0.32363054470E+02 -0.55058112613E+01 -0.16676311014E+02  0.36820926133E+02  0.00000000000E+00 0. -1.
         11    1    4    4    0    0 -0.40818710028E+01  0.23705090241E+00 -0.43918806005E+00  0.41122682824E+01  0.51100000000E-03 0. -1.
        -11    1    4    4    0    0  0.23769887937E+02 -0.11352755113E+02  0.91547728369E+01  0.27887317676E+02  0.51100000000E-03 0.  1.
        -12    1    4    4    0    0  0.12675037536E+02  0.16621515472E+02  0.79607262369E+01  0.22367487909E+02  0.00000000000E+00 0.  1.
</event>
<event>
 8    1  0.2501893E-006  0.9118800E+02  0.7816164E-02  0.1184000E+00
        -11   -1    0    0    0    0  0.00000000000E+00  0.00000000000E+00  0.45593999997E+02  0.45594000000E+02  0.51100000000E-03 0. -1.
         11   -1    0    0    0    0 -0.00000000000E+00 -0.00000000000E+00 -0.45593999997E+02  0.45594000000E+02  0.51100000000E-03 0.  1.
         23    2    1    2    0    0 -0.88817841970E-15  0.00000000000E+00  0.00000000000E+00  0.91188000000E+02  0.91188000000E+02 0.  0.
    9900012    2    3    3    0    0  0.59472045051E+01  0.26290826013E+02  0.25083931967E+02  0.54367076372E+02  0.39999982206E+02 0.  0.
        -12    1    3    3    0    0 -0.59472045051E+01 -0.26290826013E+02 -0.25083931967E+02  0.36820923628E+02  0.00000000000E+00 0.  1.
         11    1    4    4    0    0  0.71135451356E+01  0.53238284010E+01  0.16355951610E+02  0.18613511935E+02  0.51100000000E-03 0. -1.
        -11    1    4    4    0    0  0.57345261804E+01  0.54322062354E+01  0.15546766473E+02  0.17438337166E+02  0.51100000000E-03 0.  1.
        -12    1    4    4    0    0 -0.69008668109E+01  0.15534791377E+02 -0.68187861163E+01  0.18315227270E+02  0.00000000000E+00 0.  1.
</event>
<event>
 8    1  0.2501893E-006  0.9118800E+02  0.7816164E-02  0.1184000E+00
        -11   -1    0    0    0    0  0.00000000000E+00  0.00000000000E+00  0.45593999997E+02  0.45594000000E+02  0.51100000000E-03 0.  1.
         11   -1    0    0    0    0 -0.00000000000E+00 -0.00000000000E+00 -0.45593999997E+02  0.45594000000E+02  0.51100000000E-03 0. -1.
         23    2    1    2    0    0  0.00000000000E+00 -0.35527136788E-14  0.00000000000E+00  0.91188000000E+02  0.91188000000E+02 0.  0.
    9900012    2    3    3    0    0  0.13978696979E+02  0.30428586268E+02 -0.15312615095E+02  0.54367095441E+02  0.40000025676E+02 0.  0.
        -12    1    3    3    0    0 -0.13978696979E+02 -0.30428586268E+02  0.15312615095E+02  0.36820904559E+02  0.00000000000E+00 0.  1.
         11    1    4    4    0    0  0.20315240711E+01  0.25239134661E+02 -0.95977324225E+01  0.27078727378E+02  0.51100000000E-03 0. -1.
        -11    1    4    4    0    0  0.15448840059E+01  0.49657971062E+01 -0.13386505422E+02  0.14361209390E+02  0.51100000000E-03 0.  1.
         12    1    4    4    0    0  0.10402288902E+02  0.22365450104E+00  0.76716227494E+01  0.12927158673E+02  0.00000000000E+00 0. -1.
</event>
<event>
 8    1  0.2501893E-006  0.9118800E+02  0.7816164E-02  0.1184000E+00
        -11   -1    0    0    0    0  0.00000000000E+00  0.00000000000E+00  0.45593999997E+02  0.45594000000E+02  0.51100000000E-03 0.  1.
         11   -1    0    0    0    0 -0.00000000000E+00 -0.00000000000E+00 -0.45593999997E+02  0.45594000000E+02  0.51100000000E-03 0. -1.
         23    2    1    2    0    0  0.00000000000E+00  0.00000000000E+00  0.00000000000E+00  0.91188000000E+02  0.91188000000E+02 0.  0.
    9900012    2    3    3    0    0 -0.83440720292E+01  0.41271769106E+01 -0.35624680105E+02  0.54367150474E+02  0.40000151134E+02 0.  0.
        -12    1    3    3    0    0  0.83440720292E+01 -0.41271769106E+01  0.35624680105E+02  0.36820849526E+02  0.00000000000E+00 0.  1.
         11    1    4    4    0    0 -0.29983370068E+01 -0.10708166533E+02 -0.27434471657E+02  0.29602450754E+02  0.51100000000E-03 0. -1.
        -11    1    4    4    0    0  0.48876505840E+01  0.16861425755E+01  0.16335767819E+01  0.54222484616E+01  0.51100000000E-03 0.  1.
         12    1    4    4    0    0 -0.10233385606E+02  0.13149200868E+02 -0.98237852298E+01  0.19342451258E+02  0.00000000000E+00 0. -1.
</event>
<event>
 8    1  0.2501893E-006  0.9118800E+02  0.7816164E-02  0.1184000E+00
        -11   -1    0    0    0    0  0.00000000000E+00  0.00000000000E+00  0.45593999997E+02  0.45594000000E+02  0.51100000000E-03 0.  1.
         11   -1    0    0    0    0 -0.00000000000E+00 -0.00000000000E+00 -0.45593999997E+02  0.45594000000E+02  0.51100000000E-03 0. -1.
         23    2    1    2    0    0  0.00000000000E+00  0.00000000000E+00 -0.35527136788E-14  0.91188000000E+02  0.91188000000E+02 0.  0.
    9900012    2    3    3    0    0  0.12238679689E+02  0.15091246183E+02  0.31276969150E+02  0.54367084868E+02  0.40000001574E+02 0.  0.
         12    1    3    3    0    0 -0.12238679689E+02 -0.15091246183E+02 -0.31276969150E+02  0.36820915132E+02  0.00000000000E+00 0. -1.
         11    1    4    4    0    0  0.13730356995E+02  0.18019068212E+02  0.10564861406E+02  0.24996516141E+02  0.51100000000E-03 0. -1.
        -11    1    4    4    0    0 -0.37969304682E+01 -0.83617091507E+01  0.15415780391E+01  0.93118915379E+01  0.51100000000E-03 0.  1.
         12    1    4    4    0    0  0.23052531625E+01  0.54338871223E+01  0.19170529705E+02  0.20058677189E+02  0.00000000000E+00 0. -1.
</event>
<event>
 8    1  0.2501893E-006  0.9118800E+02  0.7816164E-02  0.1184000E+00
        -11   -1    0    0    0    0  0.00000000000E+00  0.00000000000E+00  0.45593999997E+02  0.45594000000E+02  0.51100000000E-03 0.  1.
         11   -1    0    0    0    0 -0.00000000000E+00 -0.00000000000E+00 -0.45593999997E+02  0.45594000000E+02  0.51100000000E-03 0. -1.
         23    2    1    2    0    0 -0.71054273576E-14 -0.35527136788E-14 -0.15265566589E-15  0.91188000000E+02  0.91188000000E+02 0.  0.
    9900012    2    3    3    0    0 -0.32604407733E+02 -0.17109190697E+02 -0.91539920854E-01  0.54367079459E+02  0.39999989243E+02 0.  0.
        -12    1    3    3    0    0  0.32604407733E+02  0.17109190697E+02  0.91539920854E-01  0.36820920541E+02  0.00000000000E+00 0.  1.
         11    1    4    4    0    0 -0.21551128926E+02 -0.19055929102E+02  0.98122854440E+00  0.28784412477E+02  0.51100000000E-03 0. -1.
        -11    1    4    4    0    0 -0.10300773755E+02 -0.90460877066E+01 -0.38111563731E+01  0.14228933759E+02  0.51100000000E-03 0.  1.
        -12    1    4    4    0    0 -0.75250505262E+00  0.10992826112E+02  0.27383879078E+01  0.11353733224E+02  0.00000000000E+00 0.  1.
</event>
<event>
 8    1  0.2501893E-006  0.9118800E+02  0.7816164E-02  0.1184000E+00
        -11   -1    0    0    0    0  0.00000000000E+00  0.00000000000E+00  0.45593999997E+02  0.45594000000E+02  0.51100000000E-03 0. -1.
         11   -1    0    0    0    0 -0.00000000000E+00 -0.00000000000E+00 -0.45593999997E+02  0.45594000000E+02  0.51100000000E-03 0.  1.
         23    2    1    2    0    0  0.17763568394E-14 -0.35527136788E-14  0.35527136788E-14  0.91188000000E+02  0.91188000000E+02 0.  0.
    9900012    2    3    3    0    0 -0.68433330720E+01  0.20777342279E+02 -0.29618399257E+02  0.54367099220E+02  0.40000034292E+02 0.  0.
         12    1    3    3    0    0  0.68433330720E+01 -0.20777342279E+02  0.29618399257E+02  0.36820900780E+02  0.00000000000E+00 0. -1.
         11    1    4    4    0    0  0.10206044570E+02  0.96017932841E+01 -0.50077993533E+01  0.14880720233E+02  0.51100000000E-03 0. -1.
        -11    1    4    4    0    0 -0.13114850257E+02  0.54819762227E+01 -0.28281193015E+02  0.31652444442E+02  0.51100000000E-03 0.  1.
         12    1    4    4    0    0 -0.39345273848E+01  0.56935727724E+01  0.36705931115E+01  0.78339345445E+01  0.00000000000E+00 0. -1.
</event>
<event>
 8    1  0.2501893E-006  0.9118800E+02  0.7816164E-02  0.1184000E+00
        -11   -1    0    0    0    0  0.00000000000E+00  0.00000000000E+00  0.45593999997E+02  0.45594000000E+02  0.51100000000E-03 0. -1.
         11   -1    0    0    0    0 -0.00000000000E+00 -0.00000000000E+00 -0.45593999997E+02  0.45594000000E+02  0.51100000000E-03 0.  1.
         23    2    1    2    0    0  0.00000000000E+00 -0.17763568394E-14  0.35527136788E-14  0.91188000000E+02  0.91188000000E+02 0.  0.
    9900012    2    3    3    0    0  0.17608620779E+02 -0.15717825478E+02  0.28260744407E+02  0.54367038064E+02  0.39999894874E+02 0.  0.
        -12    1    3    3    0    0 -0.17608620779E+02  0.15717825478E+02 -0.28260744407E+02  0.36820961936E+02  0.00000000000E+00 0.  1.
         11    1    4    4    0    0  0.14531932943E+02  0.10082962302E+02  0.46061335936E+01  0.18277299329E+02  0.51100000000E-03 0. -1.
        -11    1    4    4    0    0  0.53534903748E+01 -0.21440514590E+02  0.17365427108E+02  0.28105401332E+02  0.51100000000E-03 0.  1.
         12    1    4    4    0    0 -0.22768025387E+01 -0.43602731893E+01  0.62891837051E+01  0.79843374028E+01  0.00000000000E+00 0. -1.
</event>
<event>
 8    1  0.2501893E-006  0.9118800E+02  0.7816164E-02  0.1184000E+00
        -11   -1    0    0    0    0  0.00000000000E+00  0.00000000000E+00  0.45593999997E+02  0.45594000000E+02  0.51100000000E-03 0.  1.
         11   -1    0    0    0    0 -0.00000000000E+00 -0.00000000000E+00 -0.45593999997E+02  0.45594000000E+02  0.51100000000E-03 0. -1.
         23    2    1    2    0    0  0.00000000000E+00  0.44408920985E-15  0.00000000000E+00  0.91188000000E+02  0.91188000000E+02 0.  0.
    9900012    2    3    3    0    0 -0.16669939528E+01  0.33402444887E+01 -0.36631175849E+02  0.54367093627E+02  0.40000021541E+02 0.  0.
        -12    1    3    3    0    0  0.16669939528E+01 -0.33402444887E+01  0.36631175849E+02  0.36820906373E+02  0.00000000000E+00 0.  1.
         11    1    4    4    0    0 -0.72040749464E+01 -0.46513157532E+01  0.18561940874E+01  0.87737614978E+01  0.51100000000E-03 0. -1.
        -11    1    4    4    0    0  0.13340675201E+02  0.46658386086E+01 -0.14944833973E+02  0.20569193652E+02  0.51100000000E-03 0.  1.
         12    1    4    4    0    0 -0.78035942075E+01  0.33257216334E+01 -0.23542535964E+02  0.25024138477E+02  0.00000000000E+00 0. -1.
</event>
<event>
 8    1  0.2501893E-006  0.9118800E+02  0.7816164E-02  0.1184000E+00
        -11   -1    0    0    0    0  0.00000000000E+00  0.00000000000E+00  0.45593999997E+02  0.45594000000E+02  0.51100000000E-03 0.  1.
         11   -1    0    0    0    0 -0.00000000000E+00 -0.00000000000E+00 -0.45593999997E+02  0.45594000000E+02  0.51100000000E-03 0. -1.
         23    2    1    2    0    0  0.00000000000E+00  0.71054273576E-14  0.00000000000E+00  0.91188000000E+02  0.91188000000E+02 0.  0.
    9900012    2    3    3    0    0 -0.36525164205E+01  0.32023570605E+02  0.17802527350E+02  0.54367082975E+02  0.39999997258E+02 0.  0.
         12    1    3    3    0    0  0.36525164205E+01 -0.32023570605E+02 -0.17802527350E+02  0.36820917025E+02  0.00000000000E+00 0. -1.
         11    1    4    4    0    0 -0.19111496802E+02  0.90721192068E+01  0.72897965354E+01  0.22376188029E+02  0.51100000000E-03 0. -1.
        -11    1    4    4    0    0  0.70145460709E+00  0.80066861447E+01  0.70762291342E+01  0.10708505059E+02  0.51100000000E-03 0.  1.
        -12    1    4    4    0    0  0.14757525775E+02  0.14944765254E+02  0.34365016804E+01  0.21282389886E+02  0.00000000000E+00 0.  1.
</event>
<event>
 8    1  0.2501893E-006  0.9118800E+02  0.7816164E-02  0.1184000E+00
        -11   -1    0    0    0    0  0.00000000000E+00  0.00000000000E+00  0.45593999997E+02  0.45594000000E+02  0.51100000000E-03 0. -1.
         11   -1    0    0    0    0 -0.00000000000E+00 -0.00000000000E+00 -0.45593999997E+02  0.45594000000E+02  0.51100000000E-03 0.  1.
         23    2    1    2    0    0  0.00000000000E+00  0.17763568394E-14  0.00000000000E+00  0.91188000000E+02  0.91188000000E+02 0.  0.
    9900012    2    3    3    0    0  0.29650837408E+02 -0.11851042687E+02  0.18334710552E+02  0.54367068687E+02  0.39999964685E+02 0.  0.
        -12    1    3    3    0    0 -0.29650837408E+02  0.11851042687E+02 -0.18334710552E+02  0.36820931313E+02  0.00000000000E+00 0.  1.
         11    1    4    4    0    0 -0.32726176028E+01  0.68193673230E+01 -0.30757771301E+01  0.81654272316E+01  0.51100000000E-03 0. -1.
        -11    1    4    4    0    0  0.65536308569E+01 -0.40807705526E+01 -0.20751454089E+01  0.79943101291E+01  0.51100000000E-03 0.  1.
         12    1    4    4    0    0  0.26369824154E+02 -0.14589639457E+02  0.23485633091E+02  0.38207331326E+02  0.00000000000E+00 0. -1.
</event>
<event>
 8    1  0.2501893E-006  0.9118800E+02  0.7816164E-02  0.1184000E+00
        -11   -1    0    0    0    0  0.00000000000E+00  0.00000000000E+00  0.45593999997E+02  0.45594000000E+02  0.51100000000E-03 0.  1.
         11   -1    0    0    0    0 -0.00000000000E+00 -0.00000000000E+00 -0.45593999997E+02  0.45594000000E+02  0.51100000000E-03 0. -1.
         23    2    1    2    0    0  0.00000000000E+00  0.00000000000E+00  0.35527136788E-14  0.91188000000E+02  0.91188000000E+02 0.  0.
    9900012    2    3    3    0    0  0.32916748441E+02  0.11365582224E+01 -0.16461350814E+02  0.54367079817E+02  0.39999990058E+02 0.  0.
        -12    1    3    3    0    0 -0.32916748441E+02 -0.11365582224E+01  0.16461350814E+02  0.36820920183E+02  0.00000000000E+00 0.  1.
         11    1    4    4    0    0  0.12122656740E+02 -0.16062006081E+02 -0.63331461070E+01  0.21096340575E+02  0.51100000000E-03 0.  1.
        -11    1    4    4    0    0  0.94450485959E+01  0.13279582932E+02  0.17398375781E+01  0.16388511247E+02  0.51100000000E-03 0. -1.
        -12    1    4    4    0    0  0.11349043106E+02  0.39189813713E+01 -0.11868042285E+02  0.16882227995E+02  0.00000000000E+00 0.  1.
</event>
<event>
 8    1  0.2501893E-006  0.9118800E+02  0.7816164E-02  0.1184000E+00
        -11   -1    0    0    0    0  0.00000000000E+00  0.00000000000E+00  0.45593999997E+02  0.45594000000E+02  0.51100000000E-03 0.  1.
         11   -1    0    0    0    0 -0.00000000000E+00 -0.00000000000E+00 -0.45593999997E+02  0.45594000000E+02  0.51100000000E-03 0. -1.
         23    2    1    2    0    0  0.00000000000E+00 -0.86042284408E-15 -0.26645352591E-14  0.91188000000E+02  0.91188000000E+02 0.  0.
    9900012    2    3    3    0    0  0.36327890099E+02  0.35344304573E-01 -0.60054143849E+01  0.54367056908E+02  0.39999937833E+02 0.  0.
        -12    1    3    3    0    0 -0.36327890099E+02 -0.35344304573E-01  0.60054143849E+01  0.36820943092E+02  0.00000000000E+00 0.  1.
         11    1    4    4    0    0  0.17622993759E+02 -0.10599372641E+02  0.80800611238E+01  0.22095338817E+02  0.51100000000E-03 0. -1.
        -11    1    4    4    0    0 -0.24751546345E+01  0.55989521515E+00  0.24871535566E+01  0.35532810460E+01  0.51100000000E-03 0.  1.
         12    1    4    4    0    0  0.21180050975E+02  0.10074821730E+02 -0.16572629065E+02  0.28718437045E+02  0.00000000000E+00 0. -1.
</event>
<event>
 8    1  0.2501893E-006  0.9118800E+02  0.7816164E-02  0.1184000E+00
        -11   -1    0    0    0    0  0.00000000000E+00  0.00000000000E+00  0.45593999997E+02  0.45594000000E+02  0.51100000000E-03 0.  1.
         11   -1    0    0    0    0 -0.00000000000E+00 -0.00000000000E+00 -0.45593999997E+02  0.45594000000E+02  0.51100000000E-03 0. -1.
         23    2    1    2    0    0 -0.35527136788E-14  0.35527136788E-14  0.00000000000E+00  0.91188000000E+02  0.91188000000E+02 0.  0.
    9900012    2    3    3    0    0 -0.13905799480E+02  0.24847409012E+02  0.23345513636E+02  0.54367109180E+02  0.40000056999E+02 0.  0.
         12    1    3    3    0    0  0.13905799480E+02 -0.24847409012E+02 -0.23345513636E+02  0.36820890820E+02  0.00000000000E+00 0. -1.
         11    1    4    4    0    0  0.24292310866E+01 -0.34744486175E+00 -0.17837287897E+01  0.30337386606E+01  0.51100000000E-03 0. -1.
        -11    1    4    4    0    0 -0.69997431655E+01  0.21913570345E+02 -0.13717824679E+01  0.23045232849E+02  0.51100000000E-03 0.  1.
         12    1    4    4    0    0 -0.93352874007E+01  0.32812835287E+01  0.26501024894E+02  0.28288137671E+02  0.00000000000E+00 0. -1.
</event>
<event>
 8    1  0.2501893E-006  0.9118800E+02  0.7816164E-02  0.1184000E+00
        -11   -1    0    0    0    0  0.00000000000E+00  0.00000000000E+00  0.45593999997E+02  0.45594000000E+02  0.51100000000E-03 0.  1.
         11   -1    0    0    0    0 -0.00000000000E+00 -0.00000000000E+00 -0.45593999997E+02  0.45594000000E+02  0.51100000000E-03 0. -1.
         23    2    1    2    0    0 -0.35527136788E-14  0.17763568394E-14 -0.35527136788E-14  0.91188000000E+02  0.91188000000E+02 0.  0.
    9900012    2    3    3    0    0 -0.23937615092E+02 -0.98476840883E+01 -0.26187651003E+02  0.54367090679E+02  0.40000014820E+02 0.  0.
         12    1    3    3    0    0  0.23937615092E+02  0.98476840883E+01  0.26187651003E+02  0.36820909321E+02  0.00000000000E+00 0. -1.
         11    1    4    4    0    0 -0.64246382603E+01  0.47555948520E+01 -0.63439904544E+00  0.80183615272E+01  0.51100000000E-03 0. -1.
        -11    1    4    4    0    0 -0.58833534275E+01  0.98645906848E+01 -0.61754518425E+01  0.13040713272E+02  0.51100000000E-03 0.  1.
        -12    1    4    4    0    0 -0.11629623405E+02 -0.24467869625E+02 -0.19377800115E+02  0.33308015879E+02  0.00000000000E+00 0.  1.
</event>
<event>
 8    1  0.2501893E-006  0.9118800E+02  0.7816164E-02  0.1184000E+00
        -11   -1    0    0    0    0  0.00000000000E+00  0.00000000000E+00  0.45593999997E+02  0.45594000000E+02  0.51100000000E-03 0.  1.
         11   -1    0    0    0    0 -0.00000000000E+00 -0.00000000000E+00 -0.45593999997E+02  0.45594000000E+02  0.51100000000E-03 0. -1.
         23    2    1    2    0    0 -0.71054273576E-14  0.17763568394E-14  0.88817841970E-15  0.91188000000E+02  0.91188000000E+02 0.  0.
    9900012    2    3    3    0    0 -0.35382342393E+02 -0.84566726165E+01  0.56887662086E+01  0.54366979836E+02  0.39999762130E+02 0.  0.
        -12    1    3    3    0    0  0.35382342393E+02  0.84566726165E+01 -0.56887662086E+01  0.36821020164E+02  0.00000000000E+00 0.  1.
         11    1    4    4    0    0  0.23324958846E+01  0.35385545437E+01  0.42342289567E+01  0.59908764325E+01  0.51100000000E-03 0. -1.
        -11    1    4    4    0    0 -0.23742574785E+02  0.69826283549E+01 -0.23331815401E+00  0.24749169558E+02  0.51100000000E-03 0.  1.
        -12    1    4    4    0    0 -0.13972263493E+02 -0.18977855515E+02  0.16878554059E+01  0.23626933845E+02  0.00000000000E+00 0.  1.
</event>
<event>
 8    1  0.2501893E-006  0.9118800E+02  0.7816164E-02  0.1184000E+00
        -11   -1    0    0    0    0  0.00000000000E+00  0.00000000000E+00  0.45593999997E+02  0.45594000000E+02  0.51100000000E-03 0. -1.
         11   -1    0    0    0    0 -0.00000000000E+00 -0.00000000000E+00 -0.45593999997E+02  0.45594000000E+02  0.51100000000E-03 0.  1.
         23    2    1    2    0    0  0.35527136788E-14  0.35527136788E-14  0.00000000000E+00  0.91188000000E+02  0.91188000000E+02 0.  0.
    9900012    2    3    3    0    0  0.28891752537E+02  0.20705792954E+02  0.96080520584E+01  0.54367110673E+02  0.40000060400E+02 0.  0.
        -12    1    3    3    0    0 -0.28891752537E+02 -0.20705792954E+02 -0.96080520584E+01  0.36820889327E+02  0.00000000000E+00 0.  1.
         11    1    4    4    0    0  0.10338932699E+02 -0.39165235666E+01 -0.37173838020E+01  0.11664117146E+02  0.51100000000E-03 0. -1.
        -11    1    4    4    0    0  0.19038983197E+02  0.29487947232E+02  0.13955492284E+02  0.37772710762E+02  0.51100000000E-03 0.  1.
         12    1    4    4    0    0 -0.48616335903E+00 -0.48656307122E+01 -0.63005642406E+00  0.49302827643E+01  0.00000000000E+00 0. -1.
</event>
<event>
 8    1  0.2501893E-006  0.9118800E+02  0.7816164E-02  0.1184000E+00
        -11   -1    0    0    0    0  0.00000000000E+00  0.00000000000E+00  0.45593999997E+02  0.45594000000E+02  0.51100000000E-03 0.  1.
         11   -1    0    0    0    0 -0.00000000000E+00 -0.00000000000E+00 -0.45593999997E+02  0.45594000000E+02  0.51100000000E-03 0. -1.
         23    2    1    2    0    0 -0.44408920985E-15  0.71054273576E-14  0.00000000000E+00  0.91188000000E+02  0.91188000000E+02 0.  0.
    9900012    2    3    3    0    0  0.18573505533E+01 -0.35936645319E+02 -0.78028617054E+01  0.54367124418E+02  0.40000091735E+02 0.  0.
        -12    1    3    3    0    0 -0.18573505533E+01  0.35936645319E+02  0.78028617054E+01  0.36820875582E+02  0.00000000000E+00 0.  1.
         11    1    4    4    0    0  0.12342117744E+02 -0.10383238914E+00 -0.30127562836E+01  0.12704934169E+02  0.51100000000E-03 0. -1.
        -11    1    4    4    0    0  0.39010031949E+01 -0.25492171080E+01  0.14268426329E+01  0.48736243137E+01  0.51100000000E-03 0.  1.
        -12    1    4    4    0    0 -0.14385770385E+02 -0.33283595822E+02 -0.62169480547E+01  0.36788565935E+02  0.00000000000E+00 0.  1.
</event>
<event>
 8    1  0.2501893E-006  0.9118800E+02  0.7816164E-02  0.1184000E+00
        -11   -1    0    0    0    0  0.00000000000E+00  0.00000000000E+00  0.45593999997E+02  0.45594000000E+02  0.51100000000E-03 0.  1.
         11   -1    0    0    0    0 -0.00000000000E+00 -0.00000000000E+00 -0.45593999997E+02  0.45594000000E+02  0.51100000000E-03 0. -1.
         23    2    1    2    0    0  0.88817841970E-15  0.00000000000E+00 -0.35527136788E-14  0.91188000000E+02  0.91188000000E+02 0.  0.
    9900012    2    3    3    0    0  0.77094128023E+01 -0.25053977017E+02 -0.25858142292E+02  0.54367077511E+02  0.39999984802E+02 0.  0.
        -12    1    3    3    0    0 -0.77094128023E+01  0.25053977017E+02  0.25858142292E+02  0.36820922489E+02  0.00000000000E+00 0.  1.
         11    1    4    4    0    0  0.37703275875E+01 -0.14541405270E+02 -0.24611966274E+02  0.28834297659E+02  0.51100000000E-03 0. -1.
        -11    1    4    4    0    0  0.46924815523E+01 -0.13629531003E+02 -0.91018654999E+01  0.17047799105E+02  0.51100000000E-03 0.  1.
        -12    1    4    4    0    0 -0.75339633759E+00  0.31169592555E+01  0.78556894824E+01  0.84849807475E+01  0.00000000000E+00 0.  1.
</event>
<event>
 8    1  0.2501893E-006  0.9118800E+02  0.7816164E-02  0.1184000E+00
        -11   -1    0    0    0    0  0.00000000000E+00  0.00000000000E+00  0.45593999997E+02  0.45594000000E+02  0.51100000000E-03 0.  1.
         11   -1    0    0    0    0 -0.00000000000E+00 -0.00000000000E+00 -0.45593999997E+02  0.45594000000E+02  0.51100000000E-03 0. -1.
         23    2    1    2    0    0  0.71054273576E-14  0.00000000000E+00  0.88817841970E-15  0.91188000000E+02  0.91188000000E+02 0.  0.
    9900012    2    3    3    0    0 -0.35715199379E+02  0.64392887351E+01 -0.62241285240E+01  0.54367086351E+02  0.40000004954E+02 0.  0.
        -12    1    3    3    0    0  0.35715199379E+02 -0.64392887351E+01  0.62241285240E+01  0.36820913649E+02  0.00000000000E+00 0.  1.
         11    1    4    4    0    0 -0.34344173477E+02  0.96233196851E+01 -0.11472129430E+02  0.37466522223E+02  0.51100000000E-03 0. -1.
        -11    1    4    4    0    0 -0.52676297806E+01 -0.81605724585E+01  0.26598923240E+01  0.10070645153E+02  0.51100000000E-03 0.  1.
         12    1    4    4    0    0  0.38966038787E+01  0.49765415085E+01  0.25881085821E+01  0.68299189751E+01  0.00000000000E+00 0. -1.
</event>
<event>
 8    1  0.2501893E-006  0.9118800E+02  0.7816164E-02  0.1184000E+00
        -11   -1    0    0    0    0  0.00000000000E+00  0.00000000000E+00  0.45593999997E+02  0.45594000000E+02  0.51100000000E-03 0. -1.
         11   -1    0    0    0    0 -0.00000000000E+00 -0.00000000000E+00 -0.45593999997E+02  0.45594000000E+02  0.51100000000E-03 0.  1.
         23    2    1    2    0    0  0.00000000000E+00  0.00000000000E+00  0.00000000000E+00  0.91188000000E+02  0.91188000000E+02 0.  0.
    9900012    2    3    3    0    0  0.28195525390E+02  0.12060686636E+02 -0.20379695442E+02  0.54367084742E+02  0.40000001286E+02 0.  0.
         12    1    3    3    0    0 -0.28195525390E+02 -0.12060686636E+02  0.20379695442E+02  0.36820915258E+02  0.00000000000E+00 0. -1.
         11    1    4    4    0    0  0.66550203403E+01  0.18508109423E+02 -0.17956819159E+02  0.26632438204E+02  0.51100000000E-03 0. -1.
        -11    1    4    4    0    0  0.84863250006E+01 -0.97133321459E+00  0.67323286022E+01  0.10875911405E+02  0.51100000000E-03 0.  1.
         12    1    4    4    0    0  0.13054180049E+02 -0.54760895725E+01 -0.91552048859E+01  0.16858735132E+02  0.00000000000E+00 0. -1.
</event>
<event>
 8    1  0.2501893E-006  0.9118800E+02  0.7816164E-02  0.1184000E+00
        -11   -1    0    0    0    0  0.00000000000E+00  0.00000000000E+00  0.45593999997E+02  0.45594000000E+02  0.51100000000E-03 0.  1.
         11   -1    0    0    0    0 -0.00000000000E+00 -0.00000000000E+00 -0.45593999997E+02  0.45594000000E+02  0.51100000000E-03 0. -1.
         23    2    1    2    0    0  0.44408920985E-15  0.71054273576E-14  0.35527136788E-14  0.91188000000E+02  0.91188000000E+02 0.  0.
    9900012    2    3    3    0    0 -0.24858992726E+01  0.34055664756E+02  0.13777224504E+02  0.54367083224E+02  0.39999997827E+02 0.  0.
         12    1    3    3    0    0  0.24858992726E+01 -0.34055664756E+02 -0.13777224504E+02  0.36820916776E+02  0.00000000000E+00 0. -1.
         11    1    4    4    0    0 -0.44698903978E+01 -0.50048278452E+01  0.18013051042E+01  0.69478717797E+01  0.51100000000E-03 0. -1.
        -11    1    4    4    0    0  0.79452905763E+01  0.17987351222E+01  0.20983051698E+01  0.84122514958E+01  0.51100000000E-03 0.  1.
        -12    1    4    4    0    0 -0.59612994512E+01  0.37261757479E+02  0.98776142297E+01  0.39006959949E+02  0.00000000000E+00 0.  1.
</event>
<event>
 8    1  0.2501893E-006  0.9118800E+02  0.7816164E-02  0.1184000E+00
        -11   -1    0    0    0    0  0.00000000000E+00  0.00000000000E+00  0.45593999997E+02  0.45594000000E+02  0.51100000000E-03 0.  1.
         11   -1    0    0    0    0 -0.00000000000E+00 -0.00000000000E+00 -0.45593999997E+02  0.45594000000E+02  0.51100000000E-03 0. -1.
         23    2    1    2    0    0  0.00000000000E+00  0.00000000000E+00  0.35527136788E-14  0.91188000000E+02  0.91188000000E+02 0.  0.
    9900012    2    3    3    0    0  0.16097590184E+02  0.16423725228E+02  0.28756006612E+02  0.54367094574E+02  0.40000023700E+02 0.  0.
         12    1    3    3    0    0 -0.16097590184E+02 -0.16423725228E+02 -0.28756006612E+02  0.36820905426E+02  0.00000000000E+00 0. -1.
         11    1    4    4    0    0  0.99743057904E+00 -0.17315986530E+01  0.10211639844E+02  0.10405329895E+02  0.51100000000E-03 0. -1.
        -11    1    4    4    0    0  0.27303109116E+01  0.13264396374E+02  0.25558062597E+02  0.28924269616E+02  0.51100000000E-03 0.  1.
         12    1    4    4    0    0  0.12369848693E+02  0.48909275071E+01 -0.70136958291E+01  0.15037495063E+02  0.00000000000E+00 0. -1.
</event>
<event>
 8    1  0.2501893E-006  0.9118800E+02  0.7816164E-02  0.1184000E+00
        -11   -1    0    0    0    0  0.00000000000E+00  0.00000000000E+00  0.45593999997E+02  0.45594000000E+02  0.51100000000E-03 0.  1.
         11   -1    0    0    0    0 -0.00000000000E+00 -0.00000000000E+00 -0.45593999997E+02  0.45594000000E+02  0.51100000000E-03 0. -1.
         23    2    1    2    0    0  0.00000000000E+00  0.44408920985E-15 -0.88817841970E-15  0.91188000000E+02  0.91188000000E+02 0.  0.
    9900012    2    3    3    0    0 -0.36592302090E+02  0.25448849570E+01 -0.32098922416E+01  0.54367130647E+02  0.40000105936E+02 0.  0.
        -12    1    3    3    0    0  0.36592302090E+02 -0.25448849570E+01  0.32098922416E+01  0.36820869353E+02  0.00000000000E+00 0.  1.
         11    1    4    4    0    0 -0.24262641993E+01  0.83060834465E+01 -0.49459811232E+01  0.99669709399E+01  0.51100000000E-03 0. -1.
        -11    1    4    4    0    0 -0.32069153585E+02  0.45989586819E+01  0.60965076238E+01  0.32965867774E+02  0.51100000000E-03 0.  1.
        -12    1    4    4    0    0 -0.20968843063E+01 -0.10360157171E+02 -0.43604187422E+01  0.11434291933E+02  0.00000000000E+00 0.  1.
</event>
<event>
 8    1  0.2501893E-006  0.9118800E+02  0.7816164E-02  0.1184000E+00
        -11   -1    0    0    0    0  0.00000000000E+00  0.00000000000E+00  0.45593999997E+02  0.45594000000E+02  0.51100000000E-03 0. -1.
         11   -1    0    0    0    0 -0.00000000000E+00 -0.00000000000E+00 -0.45593999997E+02  0.45594000000E+02  0.51100000000E-03 0.  1.
         23    2    1    2    0    0  0.35527136788E-14  0.00000000000E+00  0.35527136788E-14  0.91188000000E+02  0.91188000000E+02 0.  0.
    9900012    2    3    3    0    0  0.23170780215E+02 -0.23213193613E+02  0.16734470031E+02  0.54367083380E+02  0.39999998182E+02 0.  0.
         12    1    3    3    0    0 -0.23170780215E+02  0.23213193613E+02 -0.16734470031E+02  0.36820916620E+02  0.00000000000E+00 0. -1.
         11    1    4    4    0    0 -0.34244536467E+01 -0.11649926063E+02  0.80136676191E-02  0.12142805464E+02  0.51100000000E-03 0.  1.
        -11    1    4    4    0    0  0.29385286122E+02 -0.55921011899E+01  0.74179828784E+01  0.30818713576E+02  0.51100000000E-03 0. -1.
        -12    1    4    4    0    0 -0.27900522606E+01 -0.59711663601E+01  0.93084734852E+01  0.11405564341E+02  0.00000000000E+00 0.  1.
</event>
<event>
 8    1  0.2501893E-006  0.9118800E+02  0.7816164E-02  0.1184000E+00
        -11   -1    0    0    0    0  0.00000000000E+00  0.00000000000E+00  0.45593999997E+02  0.45594000000E+02  0.51100000000E-03 0.  1.
         11   -1    0    0    0    0 -0.00000000000E+00 -0.00000000000E+00 -0.45593999997E+02  0.45594000000E+02  0.51100000000E-03 0. -1.
         23    2    1    2    0    0  0.35527136788E-14  0.00000000000E+00  0.00000000000E+00  0.91188000000E+02  0.91188000000E+02 0.  0.
    9900012    2    3    3    0    0  0.31136603508E+02 -0.14483577262E+02  0.13286001471E+02  0.54367083072E+02  0.39999997480E+02 0.  0.
         12    1    3    3    0    0 -0.31136603508E+02  0.14483577262E+02 -0.13286001471E+02  0.36820916928E+02  0.00000000000E+00 0. -1.
         11    1    4    4    0    0  0.13570494554E+02 -0.19206330367E+02 -0.67037123822E+01  0.24453654299E+02  0.51100000000E-03 0. -1.
        -11    1    4    4    0    0  0.56933273914E+01  0.76404547199E+01  0.56834663370E+01  0.11094697606E+02  0.51100000000E-03 0.  1.
        -12    1    4    4    0    0  0.11872781563E+02 -0.29177016147E+01  0.14306247516E+02  0.18818731167E+02  0.00000000000E+00 0.  1.
</event>
<event>
 8    1  0.2501893E-006  0.9118800E+02  0.7816164E-02  0.1184000E+00
        -11   -1    0    0    0    0  0.00000000000E+00  0.00000000000E+00  0.45593999997E+02  0.45594000000E+02  0.51100000000E-03 0.  1.
         11   -1    0    0    0    0 -0.00000000000E+00 -0.00000000000E+00 -0.45593999997E+02  0.45594000000E+02  0.51100000000E-03 0. -1.
         23    2    1    2    0    0 -0.17763568394E-14  0.00000000000E+00 -0.17763568394E-14  0.91188000000E+02  0.91188000000E+02 0.  0.
    9900012    2    3    3    0    0  0.77306318002E+01  0.33583805897E+02 -0.12967100059E+02  0.54367077001E+02  0.39999983640E+02 0.  0.
        -12    1    3    3    0    0 -0.77306318002E+01 -0.33583805897E+02  0.12967100059E+02  0.36820922999E+02  0.00000000000E+00 0.  1.
         11    1    4    4    0    0 -0.10244505372E+02  0.70294115305E+01 -0.11987536715E+02  0.17264517183E+02  0.51100000000E-03 0. -1.
        -11    1    4    4    0    0  0.10535844592E+02  0.13853031457E+01  0.15352356399E+01  0.10736854046E+02  0.51100000000E-03 0.  1.
         12    1    4    4    0    0  0.74392925804E+01  0.25169091220E+02 -0.25147989841E+01  0.26365705773E+02  0.00000000000E+00 0. -1.
</event>
<event>
 8    1  0.2501893E-006  0.9118800E+02  0.7816164E-02  0.1184000E+00
        -11   -1    0    0    0    0  0.00000000000E+00  0.00000000000E+00  0.45593999997E+02  0.45594000000E+02  0.51100000000E-03 0.  1.
         11   -1    0    0    0    0 -0.00000000000E+00 -0.00000000000E+00 -0.45593999997E+02  0.45594000000E+02  0.51100000000E-03 0. -1.
         23    2    1    2    0    0  0.00000000000E+00 -0.44408920985E-15  0.35527136788E-14  0.91188000000E+02  0.91188000000E+02 0.  0.
    9900012    2    3    3    0    0  0.31962572121E+02  0.20275450048E+01 -0.18167639755E+02  0.54367080815E+02  0.39999992333E+02 0.  0.
        -12    1    3    3    0    0 -0.31962572121E+02 -0.20275450048E+01  0.18167639755E+02  0.36820919185E+02  0.00000000000E+00 0.  1.
         11    1    4    4    0    0  0.64599013226E+01  0.88726415103E+01 -0.40339787590E+01  0.11693035421E+02  0.51100000000E-03 0. -1.
        -11    1    4    4    0    0 -0.52630226963E+01 -0.66726916875E+01 -0.71949015972E+01  0.11135117041E+02  0.51100000000E-03 0.  1.
         12    1    4    4    0    0  0.30765693495E+02 -0.17240481805E+00 -0.69387593993E+01  0.31538928353E+02  0.00000000000E+00 0. -1.
</event>
<event>
 8    1  0.2501893E-006  0.9118800E+02  0.7816164E-02  0.1184000E+00
        -11   -1    0    0    0    0  0.00000000000E+00  0.00000000000E+00  0.45593999997E+02  0.45594000000E+02  0.51100000000E-03 0. -1.
         11   -1    0    0    0    0 -0.00000000000E+00 -0.00000000000E+00 -0.45593999997E+02  0.45594000000E+02  0.51100000000E-03 0.  1.
         23    2    1    2    0    0 -0.17763568394E-14  0.00000000000E+00 -0.35527136788E-14  0.91188000000E+02  0.91188000000E+02 0.  0.
    9900012    2    3    3    0    0 -0.10988301776E+02  0.27506598581E+02  0.21872885808E+02  0.54367097309E+02  0.40000029934E+02 0.  0.
        -12    1    3    3    0    0  0.10988301776E+02 -0.27506598581E+02 -0.21872885808E+02  0.36820902691E+02  0.00000000000E+00 0.  1.
         11    1    4    4    0    0  0.88250214465E+00  0.95805897528E+01  0.29439255989E+01  0.10061471475E+02  0.51100000000E-03 0. -1.
        -11    1    4    4    0    0 -0.79475143661E+01 -0.82001235760E+00 -0.79698734969E+01  0.11285135741E+02  0.51100000000E-03 0.  1.
         12    1    4    4    0    0 -0.39232895546E+01  0.18746021186E+02  0.26898833706E+02  0.33020490093E+02  0.00000000000E+00 0. -1.
</event>
<event>
 8    1  0.2501893E-006  0.9118800E+02  0.7816164E-02  0.1184000E+00
        -11   -1    0    0    0    0  0.00000000000E+00  0.00000000000E+00  0.45593999997E+02  0.45594000000E+02  0.51100000000E-03 0. -1.
         11   -1    0    0    0    0 -0.00000000000E+00 -0.00000000000E+00 -0.45593999997E+02  0.45594000000E+02  0.51100000000E-03 0.  1.
         23    2    1    2    0    0 -0.17763568394E-14  0.35527136788E-14 -0.35527136788E-14  0.91188000000E+02  0.91188000000E+02 0.  0.
    9900012    2    3    3    0    0  0.14258789186E+02 -0.23760236210E+02 -0.24247018251E+02  0.54367084913E+02  0.40000001676E+02 0.  0.
         12    1    3    3    0    0 -0.14258789186E+02  0.23760236210E+02  0.24247018251E+02  0.36820915087E+02  0.00000000000E+00 0. -1.
         11    1    4    4    0    0  0.20424849002E+01 -0.46019404381E+01  0.97633343821E+01  0.10985094396E+02  0.51100000000E-03 0. -1.
        -11    1    4    4    0    0  0.14930923418E+02 -0.18293748960E+02 -0.27321866083E+02  0.36112021429E+02  0.51100000000E-03 0.  1.
         12    1    4    4    0    0 -0.27146191327E+01 -0.86454681265E+00 -0.66884865494E+01  0.72699690885E+01  0.00000000000E+00 0. -1.
</event>
<event>
 8    1  0.2501893E-006  0.9118800E+02  0.7816164E-02  0.1184000E+00
        -11   -1    0    0    0    0  0.00000000000E+00  0.00000000000E+00  0.45593999997E+02  0.45594000000E+02  0.51100000000E-03 0.  1.
         11   -1    0    0    0    0 -0.00000000000E+00 -0.00000000000E+00 -0.45593999997E+02  0.45594000000E+02  0.51100000000E-03 0. -1.
         23    2    1    2    0    0  0.00000000000E+00 -0.71054273576E-14  0.00000000000E+00  0.91188000000E+02  0.91188000000E+02 0.  0.
    9900012    2    3    3    0    0 -0.16341190022E+02  0.30910936936E+02  0.11543786559E+02  0.54367088527E+02  0.40000009916E+02 0.  0.
         12    1    3    3    0    0  0.16341190022E+02 -0.30910936936E+02 -0.11543786559E+02  0.36820911473E+02  0.00000000000E+00 0. -1.
         11    1    4    4    0    0  0.70209332126E+01  0.33619910422E+01 -0.78168970110E+00  0.78235238859E+01  0.51100000000E-03 0. -1.
        -11    1    4    4    0    0 -0.14771241392E+02 -0.10463581718E+01  0.19590652603E+01  0.14937281367E+02  0.51100000000E-03 0.  1.
        -12    1    4    4    0    0 -0.85908818428E+01  0.28595304065E+02  0.10366411000E+02  0.31606283275E+02  0.00000000000E+00 0.  1.
</event>
<event>
 8    1  0.2501893E-006  0.9118800E+02  0.7816164E-02  0.1184000E+00
        -11   -1    0    0    0    0  0.00000000000E+00  0.00000000000E+00  0.45593999997E+02  0.45594000000E+02  0.51100000000E-03 0.  1.
         11   -1    0    0    0    0 -0.00000000000E+00 -0.00000000000E+00 -0.45593999997E+02  0.45594000000E+02  0.51100000000E-03 0. -1.
         23    2    1    2    0    0  0.00000000000E+00  0.00000000000E+00  0.00000000000E+00  0.91188000000E+02  0.91188000000E+02 0.  0.
    9900012    2    3    3    0    0  0.15558737113E+02 -0.24605979952E+02  0.22544284433E+02  0.54367172870E+02  0.40000202191E+02 0.  0.
         12    1    3    3    0    0 -0.15558737113E+02  0.24605979952E+02 -0.22544284433E+02  0.36820827130E+02  0.00000000000E+00 0. -1.
         11    1    4    4    0    0 -0.30041095226E+00  0.24408731159E+01 -0.30260314500E+01  0.38993557039E+01  0.51100000000E-03 0. -1.
        -11    1    4    4    0    0  0.18406627649E+02 -0.29615564999E+02  0.29097418309E+02  0.45415254971E+02  0.51100000000E-03 0.  1.
        -12    1    4    4    0    0 -0.25474795836E+01  0.25687119305E+01 -0.35271024257E+01  0.50525621948E+01  0.00000000000E+00 0.  1.
</event>
<event>
 8    1  0.2501893E-006  0.9118800E+02  0.7816164E-02  0.1184000E+00
        -11   -1    0    0    0    0  0.00000000000E+00  0.00000000000E+00  0.45593999997E+02  0.45594000000E+02  0.51100000000E-03 0.  1.
         11   -1    0    0    0    0 -0.00000000000E+00 -0.00000000000E+00 -0.45593999997E+02  0.45594000000E+02  0.51100000000E-03 0. -1.
         23    2    1    2    0    0  0.00000000000E+00  0.00000000000E+00  0.00000000000E+00  0.91188000000E+02  0.91188000000E+02 0.  0.
    9900012    2    3    3    0    0  0.24528489630E+02  0.17215774265E+02 -0.21395091091E+02  0.54367087330E+02  0.40000007185E+02 0.  0.
        -12    1    3    3    0    0 -0.24528489630E+02 -0.17215774265E+02  0.21395091091E+02  0.36820912670E+02  0.00000000000E+00 0.  1.
         11    1    4    4    0    0  0.17398975100E+02  0.11336177482E+01 -0.20057044174E+02  0.26576200726E+02  0.51100000000E-03 0. -1.
        -11    1    4    4    0    0  0.13095807252E+02  0.32060959486E+01  0.43375380347E+00  0.13489527843E+02  0.51100000000E-03 0.  1.
         12    1    4    4    0    0 -0.59662927221E+01  0.12876060568E+02 -0.17718007200E+01  0.14301358761E+02  0.00000000000E+00 0. -1.
</event>
<event>
 8    1  0.2501893E-006  0.9118800E+02  0.7816164E-02  0.1184000E+00
        -11   -1    0    0    0    0  0.00000000000E+00  0.00000000000E+00  0.45593999997E+02  0.45594000000E+02  0.51100000000E-03 0.  1.
         11   -1    0    0    0    0 -0.00000000000E+00 -0.00000000000E+00 -0.45593999997E+02  0.45594000000E+02  0.51100000000E-03 0. -1.
         23    2    1    2    0    0  0.35527136788E-14  0.44408920985E-15 -0.35527136788E-14  0.91188000000E+02  0.91188000000E+02 0.  0.
    9900012    2    3    3    0    0 -0.27943435309E+02 -0.99658906689E+00  0.23957281928E+02  0.54367080348E+02  0.39999991269E+02 0.  0.
        -12    1    3    3    0    0  0.27943435309E+02  0.99658906689E+00 -0.23957281928E+02  0.36820919652E+02  0.00000000000E+00 0.  1.
         11    1    4    4    0    0  0.32117455853E+01 -0.87957425006E+01  0.14840748697E+02  0.17547883576E+02  0.51100000000E-03 0. -1.
        -11    1    4    4    0    0 -0.15030738096E+02  0.20100669959E+01  0.12136199902E+02  0.19422945332E+02  0.51100000000E-03 0.  1.
         12    1    4    4    0    0 -0.16124442799E+02  0.57890864378E+01 -0.30196666716E+01  0.17396251440E+02  0.00000000000E+00 0. -1.
</event>
<event>
 8    1  0.2501893E-006  0.9118800E+02  0.7816164E-02  0.1184000E+00
        -11   -1    0    0    0    0  0.00000000000E+00  0.00000000000E+00  0.45593999997E+02  0.45594000000E+02  0.51100000000E-03 0. -1.
         11   -1    0    0    0    0 -0.00000000000E+00 -0.00000000000E+00 -0.45593999997E+02  0.45594000000E+02  0.51100000000E-03 0.  1.
         23    2    1    2    0    0  0.00000000000E+00 -0.26645352591E-14  0.00000000000E+00  0.91188000000E+02  0.91188000000E+02 0.  0.
    9900012    2    3    3    0    0  0.28450788270E+02 -0.17288386676E+01 -0.23309712203E+02  0.54367096707E+02  0.40000028563E+02 0.  0.
         12    1    3    3    0    0 -0.28450788270E+02  0.17288386676E+01  0.23309712203E+02  0.36820903293E+02  0.00000000000E+00 0. -1.
         11    1    4    4    0    0 -0.27698021636E+01 -0.10645601856E+02 -0.52276298133E+01  0.12179029380E+02  0.51100000000E-03 0. -1.
        -11    1    4    4    0    0  0.26275137999E+02 -0.15320581832E+01 -0.14684291987E+02  0.30138986555E+02  0.51100000000E-03 0.  1.
         12    1    4    4    0    0  0.49454524350E+01  0.10448821372E+02 -0.33977904024E+01  0.12049080773E+02  0.00000000000E+00 0. -1.
</event>
<event>
 8    1  0.2501893E-006  0.9118800E+02  0.7816164E-02  0.1184000E+00
        -11   -1    0    0    0    0  0.00000000000E+00  0.00000000000E+00  0.45593999997E+02  0.45594000000E+02  0.51100000000E-03 0.  1.
         11   -1    0    0    0    0 -0.00000000000E+00 -0.00000000000E+00 -0.45593999997E+02  0.45594000000E+02  0.51100000000E-03 0. -1.
         23    2    1    2    0    0 -0.35527136788E-14  0.53290705182E-14  0.17763568394E-14  0.91188000000E+02  0.91188000000E+02 0.  0.
    9900012    2    3    3    0    0  0.31959443517E+02 -0.15891747874E+02 -0.90462804280E+01  0.54366961585E+02  0.39999720524E+02 0.  0.
        -12    1    3    3    0    0 -0.31959443517E+02  0.15891747874E+02  0.90462804280E+01  0.36821038415E+02  0.00000000000E+00 0.  1.
         11    1    4    4    0    0 -0.14395760118E+01  0.50934053361E+00 -0.87430368084E+01  0.88753873023E+01  0.51100000000E-03 0. -1.
        -11    1    4    4    0    0  0.29736199226E-01 -0.16671500672E+01  0.79243205557E+01  0.80978472521E+01  0.51100000000E-03 0.  1.
         12    1    4    4    0    0  0.33369283330E+02 -0.14733938340E+02 -0.82275641753E+01  0.37393727030E+02  0.00000000000E+00 0. -1.
</event>
<event>
 8    1  0.2501893E-006  0.9118800E+02  0.7816164E-02  0.1184000E+00
        -11   -1    0    0    0    0  0.00000000000E+00  0.00000000000E+00  0.45593999997E+02  0.45594000000E+02  0.51100000000E-03 0. -1.
         11   -1    0    0    0    0 -0.00000000000E+00 -0.00000000000E+00 -0.45593999997E+02  0.45594000000E+02  0.51100000000E-03 0.  1.
         23    2    1    2    0    0  0.00000000000E+00  0.00000000000E+00  0.00000000000E+00  0.91188000000E+02  0.91188000000E+02 0.  0.
    9900012    2    3    3    0    0  0.24917304928E+02  0.12133347937E+02 -0.24242299414E+02  0.54367091566E+02  0.40000016843E+02 0.  0.
         12    1    3    3    0    0 -0.24917304928E+02 -0.12133347937E+02  0.24242299414E+02  0.36820908434E+02  0.00000000000E+00 0. -1.
         11    1    4    4    0    0  0.15122272806E+02  0.50149475640E+01 -0.26309852341E+02  0.30757782176E+02  0.51100000000E-03 0. -1.
        -11    1    4    4    0    0  0.29815252462E+01  0.32553833504E+01 -0.90153516823E+01  0.10038106384E+02  0.51100000000E-03 0.  1.
         12    1    4    4    0    0  0.68135068757E+01  0.38630170228E+01  0.11082904610E+02  0.13571203007E+02  0.00000000000E+00 0. -1.
</event>
<event>
 8    1  0.2501893E-006  0.9118800E+02  0.7816164E-02  0.1184000E+00
        -11   -1    0    0    0    0  0.00000000000E+00  0.00000000000E+00  0.45593999997E+02  0.45594000000E+02  0.51100000000E-03 0. -1.
         11   -1    0    0    0    0 -0.00000000000E+00 -0.00000000000E+00 -0.45593999997E+02  0.45594000000E+02  0.51100000000E-03 0.  1.
         23    2    1    2    0    0  0.00000000000E+00  0.88817841970E-15  0.00000000000E+00  0.91188000000E+02  0.91188000000E+02 0.  0.
    9900012    2    3    3    0    0  0.35818818737E+02 -0.64330937461E+01  0.56041741111E+01  0.54367092375E+02  0.40000018688E+02 0.  0.
        -12    1    3    3    0    0 -0.35818818737E+02  0.64330937461E+01 -0.56041741111E+01  0.36820907625E+02  0.00000000000E+00 0.  1.
         11    1    4    4    0    0  0.11036597225E+02 -0.55140497208E+01  0.13898889918E+02  0.18584680891E+02  0.51100000000E-03 0. -1.
        -11    1    4    4    0    0  0.14874948897E+02  0.10129934179E+02  0.14081430760E+01  0.18051663036E+02  0.51100000000E-03 0.  1.
        -12    1    4    4    0    0  0.99072726146E+01 -0.11048978205E+02 -0.97028588827E+01  0.17730748448E+02  0.00000000000E+00 0.  1.
</event>
<event>
 8    1  0.2501893E-006  0.9118800E+02  0.7816164E-02  0.1184000E+00
        -11   -1    0    0    0    0  0.00000000000E+00  0.00000000000E+00  0.45593999997E+02  0.45594000000E+02  0.51100000000E-03 0.  1.
         11   -1    0    0    0    0 -0.00000000000E+00 -0.00000000000E+00 -0.45593999997E+02  0.45594000000E+02  0.51100000000E-03 0. -1.
         23    2    1    2    0    0  0.17763568394E-14  0.00000000000E+00  0.71054273576E-14  0.91188000000E+02  0.91188000000E+02 0.  0.
    9900012    2    3    3    0    0 -0.15697259421E+02  0.12029790030E+02 -0.31058973417E+02  0.54367087040E+02  0.40000006525E+02 0.  0.
        -12    1    3    3    0    0  0.15697259421E+02 -0.12029790030E+02  0.31058973417E+02  0.36820912960E+02  0.00000000000E+00 0.  1.
         11    1    4    4    0    0  0.19765512139E+01  0.25196050172E+01  0.28428729476E+01  0.42821829715E+01  0.51100000000E-03 0. -1.
        -11    1    4    4    0    0 -0.96832923001E+01  0.33305701117E+01  0.38993315701E+01  0.10957355246E+02  0.51100000000E-03 0.  1.
         12    1    4    4    0    0 -0.79905183346E+01  0.61796149010E+01 -0.37801177935E+02  0.39127548822E+02  0.00000000000E+00 0. -1.
</event>
<event>
 8    1  0.2501893E-006  0.9118800E+02  0.7816164E-02  0.1184000E+00
        -11   -1    0    0    0    0  0.00000000000E+00  0.00000000000E+00  0.45593999997E+02  0.45594000000E+02  0.51100000000E-03 0.  1.
         11   -1    0    0    0    0 -0.00000000000E+00 -0.00000000000E+00 -0.45593999997E+02  0.45594000000E+02  0.51100000000E-03 0. -1.
         23    2    1    2    0    0 -0.35527136788E-14  0.35527136788E-14 -0.35527136788E-14  0.91188000000E+02  0.91188000000E+02 0.  0.
    9900012    2    3    3    0    0  0.80381542703E+01 -0.23912326109E+02  0.26821029644E+02  0.54367097035E+02  0.40000029311E+02 0.  0.
         12    1    3    3    0    0 -0.80381542703E+01  0.23912326109E+02 -0.26821029644E+02  0.36820902965E+02  0.00000000000E+00 0. -1.
         11    1    4    4    0    0  0.24811173242E+01 -0.28784082117E+01 -0.30103573933E+01  0.48480335092E+01  0.51100000000E-03 0. -1.
        -11    1    4    4    0    0  0.17253457617E+02 -0.12238282351E+02  0.67774560627E+01  0.22212412421E+02  0.51100000000E-03 0.  1.
         12    1    4    4    0    0 -0.11696420671E+02 -0.87956355462E+01  0.23053930974E+02  0.27306651105E+02  0.00000000000E+00 0. -1.
</event>
<event>
 8    1  0.2501893E-006  0.9118800E+02  0.7816164E-02  0.1184000E+00
        -11   -1    0    0    0    0  0.00000000000E+00  0.00000000000E+00  0.45593999997E+02  0.45594000000E+02  0.51100000000E-03 0.  1.
         11   -1    0    0    0    0 -0.00000000000E+00 -0.00000000000E+00 -0.45593999997E+02  0.45594000000E+02  0.51100000000E-03 0. -1.
         23    2    1    2    0    0  0.00000000000E+00 -0.17763568394E-14  0.35527136788E-14  0.91188000000E+02  0.91188000000E+02 0.  0.
    9900012    2    3    3    0    0 -0.32762121614E+02 -0.10255713017E+02  0.13313311343E+02  0.54367074956E+02  0.39999978978E+02 0.  0.
         12    1    3    3    0    0  0.32762121614E+02  0.10255713017E+02 -0.13313311343E+02  0.36820925044E+02  0.00000000000E+00 0. -1.
         11    1    4    4    0    0 -0.72336880014E+01 -0.12232686696E+02  0.18550848035E+02  0.23368757541E+02  0.51100000000E-03 0. -1.
        -11    1    4    4    0    0 -0.58581508135E+01  0.79758854610E+01 -0.58178593169E+00  0.99131808705E+01  0.51100000000E-03 0.  1.
        -12    1    4    4    0    0 -0.19670282799E+02 -0.59989117826E+01 -0.46557507605E+01  0.21085136545E+02  0.00000000000E+00 0.  1.
</event>
<event>
 8    1  0.2501893E-006  0.9118800E+02  0.7816164E-02  0.1184000E+00
        -11   -1    0    0    0    0  0.00000000000E+00  0.00000000000E+00  0.45593999997E+02  0.45594000000E+02  0.51100000000E-03 0. -1.
         11   -1    0    0    0    0 -0.00000000000E+00 -0.00000000000E+00 -0.45593999997E+02  0.45594000000E+02  0.51100000000E-03 0.  1.
         23    2    1    2    0    0  0.35527136788E-14  0.88817841970E-15  0.00000000000E+00  0.91188000000E+02  0.91188000000E+02 0.  0.
    9900012    2    3    3    0    0 -0.31349991173E+02  0.41891513612E+01 -0.18852380021E+02  0.54367039011E+02  0.39999897034E+02 0.  0.
         12    1    3    3    0    0  0.31349991173E+02 -0.41891513612E+01  0.18852380021E+02  0.36820960989E+02  0.00000000000E+00 0. -1.
         11    1    4    4    0    0  0.23100247865E+01  0.27018265908E+01  0.15743540670E+01  0.38877593071E+01  0.51100000000E-03 0. -1.
        -11    1    4    4    0    0 -0.34978445485E+02 -0.42948641720E+01 -0.24815335672E+02  0.43101489436E+02  0.51100000000E-03 0.  1.
        -12    1    4    4    0    0  0.13184295257E+01  0.57821889424E+01  0.43886015838E+01  0.73777902682E+01  0.00000000000E+00 0.  1.
</event>
<event>
 8    1  0.2501893E-006  0.9118800E+02  0.7816164E-02  0.1184000E+00
        -11   -1    0    0    0    0  0.00000000000E+00  0.00000000000E+00  0.45593999997E+02  0.45594000000E+02  0.51100000000E-03 0. -1.
         11   -1    0    0    0    0 -0.00000000000E+00 -0.00000000000E+00 -0.45593999997E+02  0.45594000000E+02  0.51100000000E-03 0.  1.
         23    2    1    2    0    0  0.35527136788E-14 -0.88817841970E-15  0.00000000000E+00  0.91188000000E+02  0.91188000000E+02 0.  0.
    9900012    2    3    3    0    0 -0.15906469205E+02  0.56452547961E+01 -0.32724563302E+02  0.54367058844E+02  0.39999942246E+02 0.  0.
         12    1    3    3    0    0  0.15906469205E+02 -0.56452547961E+01  0.32724563302E+02  0.36820941156E+02  0.00000000000E+00 0. -1.
         11    1    4    4    0    0  0.55085367408E+01  0.31462104073E+01 -0.11937722610E+01  0.64550530148E+01  0.51100000000E-03 0.  1.
        -11    1    4    4    0    0  0.30521947934E+01 -0.77904741651E+00 -0.20727924403E+02  0.20965916585E+02  0.51100000000E-03 0. -1.
         12    1    4    4    0    0 -0.24467200740E+02  0.32780918053E+01 -0.10802866638E+02  0.26946089244E+02  0.00000000000E+00 0. -1.
</event>
<event>
 8    1  0.2501893E-006  0.9118800E+02  0.7816164E-02  0.1184000E+00
        -11   -1    0    0    0    0  0.00000000000E+00  0.00000000000E+00  0.45593999997E+02  0.45594000000E+02  0.51100000000E-03 0.  1.
         11   -1    0    0    0    0 -0.00000000000E+00 -0.00000000000E+00 -0.45593999997E+02  0.45594000000E+02  0.51100000000E-03 0. -1.
         23    2    1    2    0    0  0.00000000000E+00 -0.35527136788E-14  0.00000000000E+00  0.91188000000E+02  0.91188000000E+02 0.  0.
    9900012    2    3    3    0    0 -0.61630718153E+01  0.26335822213E+02  0.24984410444E+02  0.54367085413E+02  0.40000002815E+02 0.  0.
         12    1    3    3    0    0  0.61630718153E+01 -0.26335822213E+02 -0.24984410444E+02  0.36820914587E+02  0.00000000000E+00 0. -1.
         11    1    4    4    0    0  0.87370679352E+01  0.21474779900E+00  0.14710116836E+00  0.87409445563E+01  0.51100000000E-03 0. -1.
        -11    1    4    4    0    0 -0.11973853179E+02  0.20529588741E+02  0.43142921225E+01  0.24154715701E+02  0.51100000000E-03 0.  1.
        -12    1    4    4    0    0 -0.29262865715E+01  0.55914856724E+01  0.20523017153E+02  0.21471425155E+02  0.00000000000E+00 0.  1.
</event>
<event>
 8    1  0.2501893E-006  0.9118800E+02  0.7816164E-02  0.1184000E+00
        -11   -1    0    0    0    0  0.00000000000E+00  0.00000000000E+00  0.45593999997E+02  0.45594000000E+02  0.51100000000E-03 0.  1.
         11   -1    0    0    0    0 -0.00000000000E+00 -0.00000000000E+00 -0.45593999997E+02  0.45594000000E+02  0.51100000000E-03 0. -1.
         23    2    1    2    0    0  0.00000000000E+00 -0.35527136788E-14 -0.17763568394E-14  0.91188000000E+02  0.91188000000E+02 0.  0.
    9900012    2    3    3    0    0 -0.13359132465E+02  0.31515484737E+02  0.13567867210E+02  0.54367092637E+02  0.40000019284E+02 0.  0.
        -12    1    3    3    0    0  0.13359132465E+02 -0.31515484737E+02 -0.13567867210E+02  0.36820907363E+02  0.00000000000E+00 0.  1.
         11    1    4    4    0    0 -0.24936632763E+01  0.20946503273E+02  0.40485979947E+01  0.21479420427E+02  0.51100000000E-03 0. -1.
        -11    1    4    4    0    0 -0.18166537026E+02  0.14391575761E+02  0.79239336631E+01  0.24493453112E+02  0.51100000000E-03 0.  1.
        -12    1    4    4    0    0  0.73010678370E+01 -0.38225942977E+01  0.15953355527E+01  0.83942190971E+01  0.00000000000E+00 0.  1.
</event>
<event>
 8    1  0.2501893E-006  0.9118800E+02  0.7816164E-02  0.1184000E+00
        -11   -1    0    0    0    0  0.00000000000E+00  0.00000000000E+00  0.45593999997E+02  0.45594000000E+02  0.51100000000E-03 0.  1.
         11   -1    0    0    0    0 -0.00000000000E+00 -0.00000000000E+00 -0.45593999997E+02  0.45594000000E+02  0.51100000000E-03 0. -1.
         23    2    1    2    0    0 -0.17763568394E-14 -0.35527136788E-14  0.00000000000E+00  0.91188000000E+02  0.91188000000E+02 0.  0.
    9900012    2    3    3    0    0  0.13705980432E+02 -0.31777138762E+02 -0.12575076745E+02  0.54367177051E+02  0.40000211722E+02 0.  0.
        -12    1    3    3    0    0 -0.13705980432E+02  0.31777138762E+02  0.12575076745E+02  0.36820822949E+02  0.00000000000E+00 0.  1.
         11    1    4    4    0    0 -0.59813013569E+01 -0.74756124478E+00 -0.56583053572E+01  0.82674804816E+01  0.51100000000E-03 0. -1.
        -11    1    4    4    0    0  0.18154573296E+02 -0.45686531500E+01 -0.56892561344E+01  0.19566010293E+02  0.51100000000E-03 0.  1.
        -12    1    4    4    0    0  0.15327084932E+01 -0.26460924367E+02 -0.12275152532E+01  0.26533686276E+02  0.00000000000E+00 0.  1.
</event>
<event>
 8    1  0.2501893E-006  0.9118800E+02  0.7816164E-02  0.1184000E+00
        -11   -1    0    0    0    0  0.00000000000E+00  0.00000000000E+00  0.45593999997E+02  0.45594000000E+02  0.51100000000E-03 0.  1.
         11   -1    0    0    0    0 -0.00000000000E+00 -0.00000000000E+00 -0.45593999997E+02  0.45594000000E+02  0.51100000000E-03 0. -1.
         23    2    1    2    0    0  0.44408920985E-15  0.35527136788E-14  0.00000000000E+00  0.91188000000E+02  0.91188000000E+02 0.  0.
    9900012    2    3    3    0    0 -0.36676174366E+01 -0.30678912999E+02  0.20028288923E+02  0.54367089126E+02  0.40000011280E+02 0.  0.
         12    1    3    3    0    0  0.36676174366E+01  0.30678912999E+02 -0.20028288923E+02  0.36820910874E+02  0.00000000000E+00 0. -1.
         11    1    4    4    0    0 -0.45384365153E+01 -0.14128095149E+01  0.54379223823E+01  0.72224951939E+01  0.51100000000E-03 0. -1.
        -11    1    4    4    0    0 -0.84606707750E+01  0.45786139355E+01  0.18473493205E+01  0.97958846107E+01  0.51100000000E-03 0.  1.
         12    1    4    4    0    0  0.93314898537E+01 -0.33844717419E+02  0.12743017220E+02  0.37348709321E+02  0.00000000000E+00 0. -1.
</event>
<event>
 8    1  0.2501893E-006  0.9118800E+02  0.7816164E-02  0.1184000E+00
        -11   -1    0    0    0    0  0.00000000000E+00  0.00000000000E+00  0.45593999997E+02  0.45594000000E+02  0.51100000000E-03 0.  1.
         11   -1    0    0    0    0 -0.00000000000E+00 -0.00000000000E+00 -0.45593999997E+02  0.45594000000E+02  0.51100000000E-03 0. -1.
         23    2    1    2    0    0  0.00000000000E+00 -0.88817841970E-15  0.00000000000E+00  0.91188000000E+02  0.91188000000E+02 0.  0.
    9900012    2    3    3    0    0 -0.10829750908E+02 -0.43057204250E+01  0.34927924962E+02  0.54367045705E+02  0.39999912293E+02 0.  0.
         12    1    3    3    0    0  0.10829750908E+02  0.43057204250E+01 -0.34927924962E+02  0.36820954295E+02  0.00000000000E+00 0. -1.
         11    1    4    4    0    0  0.66860464285E+01 -0.11995440368E+02  0.41550675660E+01  0.14347766140E+02  0.51100000000E-03 0. -1.
        -11    1    4    4    0    0  0.84772617139E+00 -0.38080594101E+01  0.52396864786E+01  0.65325546907E+01  0.51100000000E-03 0.  1.
        -12    1    4    4    0    0 -0.18363523508E+02  0.11497779353E+02  0.25533170917E+02  0.33486724874E+02  0.00000000000E+00 0.  1.
</event>
<event>
 8    1  0.2501893E-006  0.9118800E+02  0.7816164E-02  0.1184000E+00
        -11   -1    0    0    0    0  0.00000000000E+00  0.00000000000E+00  0.45593999997E+02  0.45594000000E+02  0.51100000000E-03 0.  1.
         11   -1    0    0    0    0 -0.00000000000E+00 -0.00000000000E+00 -0.45593999997E+02  0.45594000000E+02  0.51100000000E-03 0. -1.
         23    2    1    2    0    0  0.35527136788E-14  0.00000000000E+00  0.00000000000E+00  0.91188000000E+02  0.91188000000E+02 0.  0.
    9900012    2    3    3    0    0 -0.28669626028E+02 -0.88445217285E+01  0.21344984317E+02  0.54367063338E+02  0.39999952492E+02 0.  0.
         12    1    3    3    0    0  0.28669626028E+02  0.88445217285E+01 -0.21344984317E+02  0.36820936662E+02  0.00000000000E+00 0. -1.
         11    1    4    4    0    0 -0.76513777602E+01 -0.12917622487E+02  0.14067544749E+02  0.20574361907E+02  0.51100000000E-03 0. -1.
        -11    1    4    4    0    0 -0.26176501328E+02  0.62640393523E+01  0.81466315087E+01  0.28121433391E+02  0.51100000000E-03 0.  1.
         12    1    4    4    0    0  0.51582530604E+01 -0.21909385939E+01 -0.86919194028E+00  0.56712680404E+01  0.00000000000E+00 0. -1.
</event>
<event>
 8    1  0.2501893E-006  0.9118800E+02  0.7816164E-02  0.1184000E+00
        -11   -1    0    0    0    0  0.00000000000E+00  0.00000000000E+00  0.45593999997E+02  0.45594000000E+02  0.51100000000E-03 0.  1.
         11   -1    0    0    0    0 -0.00000000000E+00 -0.00000000000E+00 -0.45593999997E+02  0.45594000000E+02  0.51100000000E-03 0. -1.
         23    2    1    2    0    0  0.36082248300E-15 -0.35527136788E-14  0.00000000000E+00  0.91188000000E+02  0.91188000000E+02 0.  0.
    9900012    2    3    3    0    0 -0.19997940993E-01  0.24739722623E+02  0.27271335261E+02  0.54367082001E+02  0.39999995037E+02 0.  0.
         12    1    3    3    0    0  0.19997940993E-01 -0.24739722623E+02 -0.27271335261E+02  0.36820917999E+02  0.00000000000E+00 0. -1.
         11    1    4    4    0    0 -0.54422540291E+01  0.23050332618E+02  0.12820442960E+02  0.26931389134E+02  0.51100000000E-03 0. -1.
        -11    1    4    4    0    0  0.34191200916E+01  0.10154722368E+02  0.15317892577E+02  0.18693490895E+02  0.51100000000E-03 0.  1.
        -12    1    4    4    0    0  0.20031359965E+01 -0.84653323630E+01 -0.86700027623E+00  0.87422019718E+01  0.00000000000E+00 0.  1.
</event>
<event>
 8    1  0.2501893E-006  0.9118800E+02  0.7816164E-02  0.1184000E+00
        -11   -1    0    0    0    0  0.00000000000E+00  0.00000000000E+00  0.45593999997E+02  0.45594000000E+02  0.51100000000E-03 0. -1.
         11   -1    0    0    0    0 -0.00000000000E+00 -0.00000000000E+00 -0.45593999997E+02  0.45594000000E+02  0.51100000000E-03 0.  1.
         23    2    1    2    0    0  0.35527136788E-14 -0.35527136788E-14 -0.35527136788E-14  0.91188000000E+02  0.91188000000E+02 0.  0.
    9900012    2    3    3    0    0  0.28817416543E+02 -0.15466977303E+02 -0.16915153391E+02  0.54366901465E+02  0.39999583467E+02 0.  0.
         12    1    3    3    0    0 -0.28817416543E+02  0.15466977303E+02  0.16915153391E+02  0.36821098535E+02  0.00000000000E+00 0. -1.
         11    1    4    4    0    0  0.69933708784E+01 -0.84523350912E+01 -0.21563904424E+02  0.24194031888E+02  0.51100000000E-03 0. -1.
        -11    1    4    4    0    0  0.12429967719E+02 -0.13521242471E+02  0.33853004978E+01  0.18675876290E+02  0.51100000000E-03 0.  1.
         12    1    4    4    0    0  0.93940779457E+01  0.65066002593E+01  0.12634505352E+01  0.11496993287E+02  0.00000000000E+00 0. -1.
</event>
<event>
 8    1  0.2501893E-006  0.9118800E+02  0.7816164E-02  0.1184000E+00
        -11   -1    0    0    0    0  0.00000000000E+00  0.00000000000E+00  0.45593999997E+02  0.45594000000E+02  0.51100000000E-03 0.  1.
         11   -1    0    0    0    0 -0.00000000000E+00 -0.00000000000E+00 -0.45593999997E+02  0.45594000000E+02  0.51100000000E-03 0. -1.
         23    2    1    2    0    0  0.00000000000E+00  0.00000000000E+00 -0.88817841970E-15  0.91188000000E+02  0.91188000000E+02 0.  0.
    9900012    2    3    3    0    0 -0.24006213412E+02 -0.27334979918E+02 -0.56816377037E+01  0.54367076377E+02  0.39999982216E+02 0.  0.
        -12    1    3    3    0    0  0.24006213412E+02  0.27334979918E+02  0.56816377037E+01  0.36820923623E+02  0.00000000000E+00 0.  1.
         11    1    4    4    0    0 -0.11413268811E+02  0.46014063551E+01  0.56501610045E+01  0.13541047412E+02  0.51100000000E-03 0. -1.
        -11    1    4    4    0    0 -0.11204165090E+02 -0.29498661192E+02 -0.26082084581E+01  0.31662392189E+02  0.51100000000E-03 0.  1.
        -12    1    4    4    0    0 -0.13887795109E+01 -0.24377250806E+01 -0.87235902502E+01  0.91636367754E+01  0.00000000000E+00 0.  1.
</event>
<event>
 8    1  0.2501893E-006  0.9118800E+02  0.7816164E-02  0.1184000E+00
        -11   -1    0    0    0    0  0.00000000000E+00  0.00000000000E+00  0.45593999997E+02  0.45594000000E+02  0.51100000000E-03 0.  1.
         11   -1    0    0    0    0 -0.00000000000E+00 -0.00000000000E+00 -0.45593999997E+02  0.45594000000E+02  0.51100000000E-03 0. -1.
         23    2    1    2    0    0  0.17763568394E-14  0.44408920985E-15  0.71054273576E-14  0.91188000000E+02  0.91188000000E+02 0.  0.
    9900012    2    3    3    0    0  0.15830052795E+02  0.52871115967E+00  0.33240216392E+02  0.54367053614E+02  0.39999930324E+02 0.  0.
         12    1    3    3    0    0 -0.15830052795E+02 -0.52871115967E+00 -0.33240216392E+02  0.36820946386E+02  0.00000000000E+00 0. -1.
         11    1    4    4    0    0  0.98993212433E+01  0.90030561334E+01  0.35359216126E+02  0.37806424667E+02  0.51100000000E-03 0.  1.
        -11    1    4    4    0    0  0.22861048404E+01 -0.53850057029E+01 -0.74038850011E+01  0.94362108461E+01  0.51100000000E-03 0. -1.
        -12    1    4    4    0    0  0.36446267109E+01 -0.30893392708E+01  0.52848852667E+01  0.71244181008E+01  0.00000000000E+00 0.  1.
</event>
<event>
 8    1  0.2501893E-006  0.9118800E+02  0.7816164E-02  0.1184000E+00
        -11   -1    0    0    0    0  0.00000000000E+00  0.00000000000E+00  0.45593999997E+02  0.45594000000E+02  0.51100000000E-03 0. -1.
         11   -1    0    0    0    0 -0.00000000000E+00 -0.00000000000E+00 -0.45593999997E+02  0.45594000000E+02  0.51100000000E-03 0.  1.
         23    2    1    2    0    0  0.00000000000E+00  0.17763568394E-14  0.17763568394E-14  0.91188000000E+02  0.91188000000E+02 0.  0.
    9900012    2    3    3    0    0 -0.29628434265E+02  0.15127587936E+02  0.15782657095E+02  0.54367077975E+02  0.39999985860E+02 0.  0.
        -12    1    3    3    0    0  0.29628434265E+02 -0.15127587936E+02 -0.15782657095E+02  0.36820922025E+02  0.00000000000E+00 0.  1.
         11    1    4    4    0    0  0.16538262273E+01 -0.32255747120E+01  0.92697643463E+01  0.99532911497E+01  0.51100000000E-03 0. -1.
        -11    1    4    4    0    0 -0.62852978243E+01 -0.53804396825E+01 -0.27549300359E+01  0.87203061690E+01  0.51100000000E-03 0.  1.
         12    1    4    4    0    0 -0.24996962668E+02  0.23733602331E+02  0.92678227842E+01  0.35693480657E+02  0.00000000000E+00 0. -1.
</event>
<event>
 8    1  0.2501893E-006  0.9118800E+02  0.7816164E-02  0.1184000E+00
        -11   -1    0    0    0    0  0.00000000000E+00  0.00000000000E+00  0.45593999997E+02  0.45594000000E+02  0.51100000000E-03 0. -1.
         11   -1    0    0    0    0 -0.00000000000E+00 -0.00000000000E+00 -0.45593999997E+02  0.45594000000E+02  0.51100000000E-03 0.  1.
         23    2    1    2    0    0  0.17763568394E-14  0.53290705182E-14  0.00000000000E+00  0.91188000000E+02  0.91188000000E+02 0.  0.
    9900012    2    3    3    0    0  0.11917476082E+02 -0.15609981059E+02 -0.31146145253E+02  0.54367080553E+02  0.39999991737E+02 0.  0.
         12    1    3    3    0    0 -0.11917476082E+02  0.15609981059E+02  0.31146145253E+02  0.36820919447E+02  0.00000000000E+00 0. -1.
         11    1    4    4    0    0  0.13428265274E+02  0.10275142957E+01  0.44577082844E+01  0.14186093800E+02  0.51100000000E-03 0. -1.
        -11    1    4    4    0    0 -0.36152749908E+01 -0.48032759739E+01 -0.17002321968E+02  0.18033874401E+02  0.51100000000E-03 0.  1.
         12    1    4    4    0    0  0.21044857990E+01 -0.11834219381E+02 -0.18601531569E+02  0.22147112352E+02  0.00000000000E+00 0. -1.
</event>
<event>
 8    1  0.2501893E-006  0.9118800E+02  0.7816164E-02  0.1184000E+00
        -11   -1    0    0    0    0  0.00000000000E+00  0.00000000000E+00  0.45593999997E+02  0.45594000000E+02  0.51100000000E-03 0.  1.
         11   -1    0    0    0    0 -0.00000000000E+00 -0.00000000000E+00 -0.45593999997E+02  0.45594000000E+02  0.51100000000E-03 0. -1.
         23    2    1    2    0    0  0.00000000000E+00  0.00000000000E+00  0.00000000000E+00  0.91188000000E+02  0.91188000000E+02 0.  0.
    9900012    2    3    3    0    0 -0.23341403582E+01  0.35315550258E+02  0.10155945497E+02  0.54367088412E+02  0.40000009653E+02 0.  0.
         12    1    3    3    0    0  0.23341403582E+01 -0.35315550258E+02 -0.10155945497E+02  0.36820911588E+02  0.00000000000E+00 0. -1.
         11    1    4    4    0    0  0.60377580929E+01 -0.15643145735E+01  0.67895531427E+01  0.92195246631E+01  0.51100000000E-03 0. -1.
        -11    1    4    4    0    0  0.84472811871E+01  0.16989052666E+02  0.13918382966E+01  0.19024239381E+02  0.51100000000E-03 0.  1.
         12    1    4    4    0    0 -0.16819179638E+02  0.19890812166E+02  0.19745540578E+01  0.26123324368E+02  0.00000000000E+00 0. -1.
</event>
<event>
 8    1  0.2501893E-006  0.9118800E+02  0.7816164E-02  0.1184000E+00
        -11   -1    0    0    0    0  0.00000000000E+00  0.00000000000E+00  0.45593999997E+02  0.45594000000E+02  0.51100000000E-03 0. -1.
         11   -1    0    0    0    0 -0.00000000000E+00 -0.00000000000E+00 -0.45593999997E+02  0.45594000000E+02  0.51100000000E-03 0.  1.
         23    2    1    2    0    0  0.44408920985E-15 -0.17763568394E-14 -0.71054273576E-14  0.91188000000E+02  0.91188000000E+02 0.  0.
    9900012    2    3    3    0    0 -0.13828697215E+01  0.11186762894E+02  0.35053141533E+02  0.54367099359E+02  0.40000034608E+02 0.  0.
        -12    1    3    3    0    0  0.13828697215E+01 -0.11186762894E+02 -0.35053141533E+02  0.36820900641E+02  0.00000000000E+00 0.  1.
         11    1    4    4    0    0  0.25558653455E+01  0.12358682266E+02  0.33707235306E+02  0.35992321226E+02  0.51100000000E-03 0. -1.
        -11    1    4    4    0    0  0.53758450453E+01  0.20349564824E+01  0.52436619487E+01  0.77805365322E+01  0.51100000000E-03 0.  1.
        -12    1    4    4    0    0 -0.93145801123E+01 -0.32068758542E+01 -0.38977557221E+01  0.10594241600E+02  0.00000000000E+00 0.  1.
</event>
<event>
 8    1  0.2501893E-006  0.9118800E+02  0.7816164E-02  0.1184000E+00
        -11   -1    0    0    0    0  0.00000000000E+00  0.00000000000E+00  0.45593999997E+02  0.45594000000E+02  0.51100000000E-03 0. -1.
         11   -1    0    0    0    0 -0.00000000000E+00 -0.00000000000E+00 -0.45593999997E+02  0.45594000000E+02  0.51100000000E-03 0.  1.
         23    2    1    2    0    0 -0.88817841970E-15  0.88817841970E-15  0.00000000000E+00  0.91188000000E+02  0.91188000000E+02 0.  0.
    9900012    2    3    3    0    0 -0.36012977989E+01  0.32619608163E+01 -0.36498928855E+02  0.54367061096E+02  0.39999947381E+02 0.  0.
         12    1    3    3    0    0  0.36012977989E+01 -0.32619608163E+01  0.36498928855E+02  0.36820938904E+02  0.00000000000E+00 0. -1.
         11    1    4    4    0    0  0.23867171648E+01  0.77554342865E+01 -0.58016058404E+01  0.99750594176E+01  0.51100000000E-03 0. -1.
        -11    1    4    4    0    0 -0.80295296712E+01  0.80584215984E+01 -0.29501790644E+02  0.31619094814E+02  0.51100000000E-03 0.  1.
         12    1    4    4    0    0  0.20415147075E+01 -0.12551895069E+02 -0.11955323705E+01  0.12772906864E+02  0.00000000000E+00 0. -1.
</event>
<event>
 8    1  0.2501893E-006  0.9118800E+02  0.7816164E-02  0.1184000E+00
        -11   -1    0    0    0    0  0.00000000000E+00  0.00000000000E+00  0.45593999997E+02  0.45594000000E+02  0.51100000000E-03 0. -1.
         11   -1    0    0    0    0 -0.00000000000E+00 -0.00000000000E+00 -0.45593999997E+02  0.45594000000E+02  0.51100000000E-03 0.  1.
         23    2    1    2    0    0 -0.21094237468E-14  0.00000000000E+00  0.00000000000E+00  0.91188000000E+02  0.91188000000E+02 0.  0.
    9900012    2    3    3    0    0  0.61934402162E+00  0.68798196903E+01 -0.36167147469E+02  0.54367108348E+02  0.40000055101E+02 0.  0.
         12    1    3    3    0    0 -0.61934402162E+00 -0.68798196903E+01  0.36167147469E+02  0.36820891652E+02  0.00000000000E+00 0. -1.
         11    1    4    4    0    0 -0.38449745580E+01 -0.27737632705E+01  0.48828378590E+01  0.68058576132E+01  0.51100000000E-03 0. -1.
        -11    1    4    4    0    0 -0.81677951931E+01  0.39195445532E+01 -0.96659253600E+01  0.13247861003E+02  0.51100000000E-03 0.  1.
        -12    1    4    4    0    0  0.12632113773E+02  0.57340384077E+01 -0.31384059968E+02  0.34313389732E+02  0.00000000000E+00 0.  1.
</event>
<event>
 8    1  0.2501893E-006  0.9118800E+02  0.7816164E-02  0.1184000E+00
        -11   -1    0    0    0    0  0.00000000000E+00  0.00000000000E+00  0.45593999997E+02  0.45594000000E+02  0.51100000000E-03 0. -1.
         11   -1    0    0    0    0 -0.00000000000E+00 -0.00000000000E+00 -0.45593999997E+02  0.45594000000E+02  0.51100000000E-03 0.  1.
         23    2    1    2    0    0  0.00000000000E+00 -0.71054273576E-14  0.00000000000E+00  0.91188000000E+02  0.91188000000E+02 0.  0.
    9900012    2    3    3    0    0  0.16135658986E+02  0.24519745010E+02 -0.22230639467E+02  0.54367099449E+02  0.40000034815E+02 0.  0.
         12    1    3    3    0    0 -0.16135658986E+02 -0.24519745010E+02  0.22230639467E+02  0.36820900551E+02  0.00000000000E+00 0. -1.
         11    1    4    4    0    0  0.46509579227E+01 -0.38793120683E+01  0.38341657083E+01  0.71680749621E+01  0.51100000000E-03 0. -1.
        -11    1    4    4    0    0 -0.21018534070E+01  0.20629455997E+02 -0.56824694735E+01  0.21500760499E+02  0.51100000000E-03 0.  1.
         12    1    4    4    0    0  0.13586554471E+02  0.77696010811E+01 -0.20382335702E+02  0.25698263988E+02  0.00000000000E+00 0. -1.
</event>
<event>
 8    1  0.2501893E-006  0.9118800E+02  0.7816164E-02  0.1184000E+00
        -11   -1    0    0    0    0  0.00000000000E+00  0.00000000000E+00  0.45593999997E+02  0.45594000000E+02  0.51100000000E-03 0.  1.
         11   -1    0    0    0    0 -0.00000000000E+00 -0.00000000000E+00 -0.45593999997E+02  0.45594000000E+02  0.51100000000E-03 0. -1.
         23    2    1    2    0    0  0.00000000000E+00  0.00000000000E+00  0.71054273576E-14  0.91188000000E+02  0.91188000000E+02 0.  0.
    9900012    2    3    3    0    0 -0.52869842077E+01  0.55538708257E+01 -0.36013679117E+02  0.54367044462E+02  0.39999909460E+02 0.  0.
        -12    1    3    3    0    0  0.52869842077E+01 -0.55538708257E+01  0.36013679117E+02  0.36820955538E+02  0.00000000000E+00 0.  1.
         11    1    4    4    0    0  0.13600564019E+02  0.42414442398E+01 -0.28458471552E+02  0.31825301164E+02  0.51100000000E-03 0. -1.
        -11    1    4    4    0    0 -0.89125676626E+01  0.23982495920E-01  0.14642529960E+01  0.90320803029E+01  0.51100000000E-03 0.  1.
        -12    1    4    4    0    0 -0.99749805635E+01  0.12884440900E+01 -0.90194605618E+01  0.13509662995E+02  0.00000000000E+00 0.  1.
</event>
<event>
 8    1  0.2501893E-006  0.9118800E+02  0.7816164E-02  0.1184000E+00
        -11   -1    0    0    0    0  0.00000000000E+00  0.00000000000E+00  0.45593999997E+02  0.45594000000E+02  0.51100000000E-03 0.  1.
         11   -1    0    0    0    0 -0.00000000000E+00 -0.00000000000E+00 -0.45593999997E+02  0.45594000000E+02  0.51100000000E-03 0. -1.
         23    2    1    2    0    0 -0.17763568394E-14  0.35527136788E-14  0.17763568394E-14  0.91188000000E+02  0.91188000000E+02 0.  0.
    9900012    2    3    3    0    0 -0.14283845232E+02  0.31305233666E+02 -0.13104734479E+02  0.54367082639E+02  0.39999996493E+02 0.  0.
        -12    1    3    3    0    0  0.14283845232E+02 -0.31305233666E+02  0.13104734479E+02  0.36820917361E+02  0.00000000000E+00 0.  1.
         11    1    4    4    0    0 -0.56952212761E+01  0.33408401894E+02 -0.13355749734E+02  0.36427090382E+02  0.51100000000E-03 0. -1.
        -11    1    4    4    0    0 -0.42913389595E+00 -0.23407136429E+01  0.69715212513E+01  0.73664920469E+01  0.51100000000E-03 0.  1.
         12    1    4    4    0    0 -0.81594900594E+01  0.23754541565E+00 -0.67205059964E+01  0.10573500210E+02  0.00000000000E+00 0. -1.
</event>
<event>
 8    1  0.2501893E-006  0.9118800E+02  0.7816164E-02  0.1184000E+00
        -11   -1    0    0    0    0  0.00000000000E+00  0.00000000000E+00  0.45593999997E+02  0.45594000000E+02  0.51100000000E-03 0.  1.
         11   -1    0    0    0    0 -0.00000000000E+00 -0.00000000000E+00 -0.45593999997E+02  0.45594000000E+02  0.51100000000E-03 0. -1.
         23    2    1    2    0    0 -0.13322676296E-14 -0.35527136788E-14  0.71054273576E-14  0.91188000000E+02  0.91188000000E+02 0.  0.
    9900012    2    3    3    0    0  0.19100620331E+01 -0.17746617087E+02  0.32205423502E+02  0.54367081245E+02  0.39999993315E+02 0.  0.
         12    1    3    3    0    0 -0.19100620331E+01  0.17746617087E+02 -0.32205423502E+02  0.36820918755E+02  0.00000000000E+00 0. -1.
         11    1    4    4    0    0  0.12108147687E+02  0.27206777224E+01  0.57568728019E+00  0.12423395018E+02  0.51100000000E-03 0. -1.
        -11    1    4    4    0    0 -0.32096244354E+01 -0.35491212208E+00  0.13798767282E+02  0.14171578261E+02  0.51100000000E-03 0.  1.
         12    1    4    4    0    0 -0.69884612184E+01 -0.20112382688E+02  0.17830968939E+02  0.27772107966E+02  0.00000000000E+00 0. -1.
</event>
<event>
 8    1  0.2501893E-006  0.9118800E+02  0.7816164E-02  0.1184000E+00
        -11   -1    0    0    0    0  0.00000000000E+00  0.00000000000E+00  0.45593999997E+02  0.45594000000E+02  0.51100000000E-03 0. -1.
         11   -1    0    0    0    0 -0.00000000000E+00 -0.00000000000E+00 -0.45593999997E+02  0.45594000000E+02  0.51100000000E-03 0.  1.
         23    2    1    2    0    0  0.66613381478E-15  0.00000000000E+00  0.00000000000E+00  0.91188000000E+02  0.91188000000E+02 0.  0.
    9900012    2    3    3    0    0 -0.10569323367E+01  0.78959271068E+01 -0.35948886989E+02  0.54367010787E+02  0.39999832692E+02 0.  0.
         12    1    3    3    0    0  0.10569323367E+01 -0.78959271068E+01  0.35948886989E+02  0.36820989213E+02  0.00000000000E+00 0. -1.
         11    1    4    4    0    0 -0.69788437217E+01  0.59787309202E+01 -0.94055052599E+00  0.92376468141E+01  0.51100000000E-03 0. -1.
        -11    1    4    4    0    0 -0.57067814722E+01  0.11845114489E+02 -0.14982001150E+02  0.19933249879E+02  0.51100000000E-03 0.  1.
        -12    1    4    4    0    0  0.11628692857E+02 -0.99279183022E+01 -0.20026335313E+02  0.25196114095E+02  0.00000000000E+00 0.  1.
</event>
<event>
 8    1  0.2501893E-006  0.9118800E+02  0.7816164E-02  0.1184000E+00
        -11   -1    0    0    0    0  0.00000000000E+00  0.00000000000E+00  0.45593999997E+02  0.45594000000E+02  0.51100000000E-03 0.  1.
         11   -1    0    0    0    0 -0.00000000000E+00 -0.00000000000E+00 -0.45593999997E+02  0.45594000000E+02  0.51100000000E-03 0. -1.
         23    2    1    2    0    0  0.00000000000E+00  0.17763568394E-14 -0.22204460493E-15  0.91188000000E+02  0.91188000000E+02 0.  0.
    9900012    2    3    3    0    0 -0.34907450124E+02  0.11659409983E+02 -0.11514510497E+01  0.54366840935E+02  0.39999445476E+02 0.  0.
        -12    1    3    3    0    0  0.34907450124E+02 -0.11659409983E+02  0.11514510497E+01  0.36821159065E+02  0.00000000000E+00 0.  1.
         11    1    4    4    0    0 -0.27095296054E+02  0.18129233863E+02 -0.59452609302E+01  0.33138652908E+02  0.51100000000E-03 0. -1.
        -11    1    4    4    0    0  0.24926808663E+01  0.46631812562E+01  0.26265075480E+01  0.59040036831E+01  0.51100000000E-03 0.  1.
         12    1    4    4    0    0 -0.10304834936E+02 -0.11133005136E+02  0.21673023325E+01  0.15324184345E+02  0.00000000000E+00 0. -1.
</event>
<event>
 8    1  0.2501893E-006  0.9118800E+02  0.7816164E-02  0.1184000E+00
        -11   -1    0    0    0    0  0.00000000000E+00  0.00000000000E+00  0.45593999997E+02  0.45594000000E+02  0.51100000000E-03 0. -1.
         11   -1    0    0    0    0 -0.00000000000E+00 -0.00000000000E+00 -0.45593999997E+02  0.45594000000E+02  0.51100000000E-03 0.  1.
         23    2    1    2    0    0  0.00000000000E+00  0.00000000000E+00  0.00000000000E+00  0.91188000000E+02  0.91188000000E+02 0.  0.
    9900012    2    3    3    0    0 -0.16840448585E+02 -0.31432446137E+02  0.91750396560E+01  0.54367072100E+02  0.39999972467E+02 0.  0.
        -12    1    3    3    0    0  0.16840448585E+02  0.31432446137E+02 -0.91750396560E+01  0.36820927900E+02  0.00000000000E+00 0.  1.
         11    1    4    4    0    0 -0.91589735776E+01 -0.67970438215E+01  0.12859399269E+01  0.11477815274E+02  0.51100000000E-03 0. -1.
        -11    1    4    4    0    0 -0.15985267669E+02 -0.10013515985E+01  0.78545106726E+01  0.17838857184E+02  0.51100000000E-03 0.  1.
        -12    1    4    4    0    0  0.83037926610E+01 -0.23634050717E+02  0.34589056515E-01  0.25050399642E+02  0.00000000000E+00 0.  1.
</event>
<event>
 8    1  0.2501893E-006  0.9118800E+02  0.7816164E-02  0.1184000E+00
        -11   -1    0    0    0    0  0.00000000000E+00  0.00000000000E+00  0.45593999997E+02  0.45594000000E+02  0.51100000000E-03 0.  1.
         11   -1    0    0    0    0 -0.00000000000E+00 -0.00000000000E+00 -0.45593999997E+02  0.45594000000E+02  0.51100000000E-03 0. -1.
         23    2    1    2    0    0  0.00000000000E+00  0.00000000000E+00  0.35527136788E-14  0.91188000000E+02  0.91188000000E+02 0.  0.
    9900012    2    3    3    0    0 -0.71443744797E+01  0.29940582180E+02 -0.20206425559E+02  0.54367079563E+02  0.39999989479E+02 0.  0.
        -12    1    3    3    0    0  0.71443744797E+01 -0.29940582180E+02  0.20206425559E+02  0.36820920437E+02  0.00000000000E+00 0.  1.
         11    1    4    4    0    0  0.76429367309E+01  0.86441762127E+01 -0.14952000568E+02  0.18886465670E+02  0.51100000000E-03 0. -1.
        -11    1    4    4    0    0  0.34892966054E+01 -0.23913024627E+01  0.20236095632E+01  0.46891912089E+01  0.51100000000E-03 0.  1.
         12    1    4    4    0    0 -0.18276607816E+02  0.23687708430E+02 -0.72780345550E+01  0.30791422684E+02  0.00000000000E+00 0. -1.
</event>
<event>
 8    1  0.2501893E-006  0.9118800E+02  0.7816164E-02  0.1184000E+00
        -11   -1    0    0    0    0  0.00000000000E+00  0.00000000000E+00  0.45593999997E+02  0.45594000000E+02  0.51100000000E-03 0. -1.
         11   -1    0    0    0    0 -0.00000000000E+00 -0.00000000000E+00 -0.45593999997E+02  0.45594000000E+02  0.51100000000E-03 0.  1.
         23    2    1    2    0    0  0.00000000000E+00  0.00000000000E+00  0.44408920985E-15  0.91188000000E+02  0.91188000000E+02 0.  0.
    9900012    2    3    3    0    0  0.32502680277E+02 -0.17110417179E+02 -0.25668589088E+01  0.54367090643E+02  0.40000014740E+02 0.  0.
         12    1    3    3    0    0 -0.32502680277E+02  0.17110417179E+02  0.25668589088E+01  0.36820909357E+02  0.00000000000E+00 0. -1.
         11    1    4    4    0    0  0.17369168985E+02 -0.24332592916E+02 -0.14268011438E+02  0.33126111451E+02  0.51100000000E-03 0.  1.
        -11    1    4    4    0    0  0.77724971628E-01  0.77737453256E+00  0.21376493756E+01  0.22759388061E+01  0.51100000000E-03 0. -1.
        -12    1    4    4    0    0  0.15055786320E+02  0.64448012046E+01  0.95635031534E+01  0.18965040386E+02  0.00000000000E+00 0.  1.
</event>
<event>
 8    1  0.2501893E-006  0.9118800E+02  0.7816164E-02  0.1184000E+00
        -11   -1    0    0    0    0  0.00000000000E+00  0.00000000000E+00  0.45593999997E+02  0.45594000000E+02  0.51100000000E-03 0.  1.
         11   -1    0    0    0    0 -0.00000000000E+00 -0.00000000000E+00 -0.45593999997E+02  0.45594000000E+02  0.51100000000E-03 0. -1.
         23    2    1    2    0    0  0.35527136788E-14  0.00000000000E+00  0.00000000000E+00  0.91188000000E+02  0.91188000000E+02 0.  0.
    9900012    2    3    3    0    0  0.13149572935E+02 -0.24392744360E+02  0.24245918468E+02  0.54367057479E+02  0.39999939134E+02 0.  0.
         12    1    3    3    0    0 -0.13149572935E+02  0.24392744360E+02 -0.24245918468E+02  0.36820942521E+02  0.00000000000E+00 0. -1.
         11    1    4    4    0    0 -0.10648971054E+02 -0.17800776270E+02  0.78102569112E+01  0.22164573842E+02  0.51100000000E-03 0. -1.
        -11    1    4    4    0    0  0.15282698330E+02 -0.71399073616E+01  0.16601431620E+02  0.23667418056E+02  0.51100000000E-03 0.  1.
         12    1    4    4    0    0  0.85158456596E+01  0.54793927146E+00 -0.16577006311E+00  0.85350655801E+01  0.00000000000E+00 0. -1.
</event>
<event>
 8    1  0.2501893E-006  0.9118800E+02  0.7816164E-02  0.1184000E+00
        -11   -1    0    0    0    0  0.00000000000E+00  0.00000000000E+00  0.45593999997E+02  0.45594000000E+02  0.51100000000E-03 0.  1.
         11   -1    0    0    0    0 -0.00000000000E+00 -0.00000000000E+00 -0.45593999997E+02  0.45594000000E+02  0.51100000000E-03 0. -1.
         23    2    1    2    0    0  0.13322676296E-14  0.17763568394E-14  0.00000000000E+00  0.91188000000E+02  0.91188000000E+02 0.  0.
    9900012    2    3    3    0    0 -0.12721008030E+01 -0.38619125134E+01 -0.36595802153E+02  0.54367009465E+02  0.39999829678E+02 0.  0.
        -12    1    3    3    0    0  0.12721008030E+01  0.38619125134E+01  0.36595802153E+02  0.36820990535E+02  0.00000000000E+00 0.  1.
         11    1    4    4    0    0  0.12809864595E+02  0.28291906607E+01 -0.22468634364E+02  0.26018003020E+02  0.51100000000E-03 0. -1.
        -11    1    4    4    0    0  0.22863327125E+01 -0.72231648093E+01 -0.16332675123E+01  0.77504187089E+01  0.51100000000E-03 0.  1.
         12    1    4    4    0    0 -0.16368298110E+02  0.53206163519E+00 -0.12493900277E+02  0.20598587736E+02  0.00000000000E+00 0. -1.
</event>
<event>
 8    1  0.2501893E-006  0.9118800E+02  0.7816164E-02  0.1184000E+00
        -11   -1    0    0    0    0  0.00000000000E+00  0.00000000000E+00  0.45593999997E+02  0.45594000000E+02  0.51100000000E-03 0. -1.
         11   -1    0    0    0    0 -0.00000000000E+00 -0.00000000000E+00 -0.45593999997E+02  0.45594000000E+02  0.51100000000E-03 0.  1.
         23    2    1    2    0    0  0.00000000000E+00  0.17763568394E-14  0.35527136788E-14  0.91188000000E+02  0.91188000000E+02 0.  0.
    9900012    2    3    3    0    0 -0.29405138297E+02 -0.12028320343E+02  0.18612846717E+02  0.54367072371E+02  0.39999973084E+02 0.  0.
        -12    1    3    3    0    0  0.29405138297E+02  0.12028320343E+02 -0.18612846717E+02  0.36820927629E+02  0.00000000000E+00 0.  1.
         11    1    4    4    0    0 -0.32101958351E+01 -0.49511132513E+01  0.20558376116E+02  0.21388448015E+02  0.51100000000E-03 0. -1.
        -11    1    4    4    0    0 -0.77529587258E+01  0.15640410353E+01 -0.84742141637E+01  0.11591673706E+02  0.51100000000E-03 0.  1.
         12    1    4    4    0    0 -0.18441983736E+02 -0.86412481267E+01  0.65286847654E+01  0.21386950649E+02  0.00000000000E+00 0. -1.
</event>
<event>
 8    1  0.2501893E-006  0.9118800E+02  0.7816164E-02  0.1184000E+00
        -11   -1    0    0    0    0  0.00000000000E+00  0.00000000000E+00  0.45593999997E+02  0.45594000000E+02  0.51100000000E-03 0. -1.
         11   -1    0    0    0    0 -0.00000000000E+00 -0.00000000000E+00 -0.45593999997E+02  0.45594000000E+02  0.51100000000E-03 0.  1.
         23    2    1    2    0    0 -0.17763568394E-14 -0.22204460493E-15  0.00000000000E+00  0.91188000000E+02  0.91188000000E+02 0.  0.
    9900012    2    3    3    0    0 -0.14506086445E+02 -0.16543787060E+01  0.33802834211E+02  0.54366876802E+02  0.39999527244E+02 0.  0.
        -12    1    3    3    0    0  0.14506086445E+02  0.16543787060E+01 -0.33802834211E+02  0.36821123198E+02  0.00000000000E+00 0.  1.
         11    1    4    4    0    0 -0.25145634878E+02  0.33912759080E+01  0.22688172798E+02  0.34037580567E+02  0.51100000000E-03 0. -1.
        -11    1    4    4    0    0  0.89065237789E+00  0.24870066304E+01  0.67675593221E+01  0.72648691026E+01  0.51100000000E-03 0.  1.
        -12    1    4    4    0    0  0.97488960553E+01 -0.75326612444E+01  0.43471020907E+01  0.13064427133E+02  0.00000000000E+00 0.  1.
</event>
<event>
 8    1  0.2501893E-006  0.9118800E+02  0.7816164E-02  0.1184000E+00
        -11   -1    0    0    0    0  0.00000000000E+00  0.00000000000E+00  0.45593999997E+02  0.45594000000E+02  0.51100000000E-03 0. -1.
         11   -1    0    0    0    0 -0.00000000000E+00 -0.00000000000E+00 -0.45593999997E+02  0.45594000000E+02  0.51100000000E-03 0.  1.
         23    2    1    2    0    0  0.44408920985E-15  0.17763568394E-14 -0.71054273576E-14  0.91188000000E+02  0.91188000000E+02 0.  0.
    9900012    2    3    3    0    0 -0.15419436242E+01 -0.99486771971E+01  0.35417967375E+02  0.54366998098E+02  0.39999803763E+02 0.  0.
        -12    1    3    3    0    0  0.15419436242E+01  0.99486771971E+01 -0.35417967375E+02  0.36821001902E+02  0.00000000000E+00 0.  1.
         11    1    4    4    0    0 -0.80127685688E+00  0.21610148145E+01  0.21883862000E+02  0.22004895954E+02  0.51100000000E-03 0. -1.
        -11    1    4    4    0    0 -0.10897833235E+02  0.16923877362E+01  0.99522333890E+01  0.14855096605E+02  0.51100000000E-03 0.  1.
        -12    1    4    4    0    0  0.10157166467E+02 -0.13802079748E+02  0.35818719855E+01  0.17507005539E+02  0.00000000000E+00 0.  1.
</event>
<event>
 8    1  0.2501893E-006  0.9118800E+02  0.7816164E-02  0.1184000E+00
        -11   -1    0    0    0    0  0.00000000000E+00  0.00000000000E+00  0.45593999997E+02  0.45594000000E+02  0.51100000000E-03 0.  1.
         11   -1    0    0    0    0 -0.00000000000E+00 -0.00000000000E+00 -0.45593999997E+02  0.45594000000E+02  0.51100000000E-03 0. -1.
         23    2    1    2    0    0  0.00000000000E+00  0.91593399532E-15  0.00000000000E+00  0.91188000000E+02  0.91188000000E+02 0.  0.
    9900012    2    3    3    0    0 -0.19003531079E+02 -0.24685619690E+00 -0.31537053643E+02  0.54367070029E+02  0.39999967746E+02 0.  0.
        -12    1    3    3    0    0  0.19003531079E+02  0.24685619690E+00  0.31537053643E+02  0.36820929971E+02  0.00000000000E+00 0.  1.
         11    1    4    4    0    0 -0.12347212709E+02  0.59486020206E+00 -0.23314524408E+01  0.12579474993E+02  0.51100000000E-03 0. -1.
        -11    1    4    4    0    0 -0.44302595812E+01 -0.14416812235E+02 -0.20708115931E+02  0.25618308700E+02  0.51100000000E-03 0.  1.
        -12    1    4    4    0    0 -0.22260587888E+01  0.13575095836E+02 -0.84974852705E+01  0.16169286336E+02  0.00000000000E+00 0.  1.
</event>
<event>
 8    1  0.2501893E-006  0.9118800E+02  0.7816164E-02  0.1184000E+00
        -11   -1    0    0    0    0  0.00000000000E+00  0.00000000000E+00  0.45593999997E+02  0.45594000000E+02  0.51100000000E-03 0. -1.
         11   -1    0    0    0    0 -0.00000000000E+00 -0.00000000000E+00 -0.45593999997E+02  0.45594000000E+02  0.51100000000E-03 0.  1.
         23    2    1    2    0    0 -0.35527136788E-14 -0.17763568394E-14  0.00000000000E+00  0.91188000000E+02  0.91188000000E+02 0.  0.
    9900012    2    3    3    0    0  0.24978191702E+02  0.80745993281E+01  0.25820034652E+02  0.54367035803E+02  0.39999889719E+02 0.  0.
        -12    1    3    3    0    0 -0.24978191702E+02 -0.80745993281E+01 -0.25820034652E+02  0.36820964197E+02  0.00000000000E+00 0.  1.
         11    1    4    4    0    0  0.17343476526E+02  0.14718787100E+02  0.82682508734E+01  0.24203364321E+02  0.51100000000E-03 0. -1.
        -11    1    4    4    0    0  0.12576237165E+02 -0.97932825639E+01  0.56743449990E+01  0.16919465596E+02  0.51100000000E-03 0.  1.
        -12    1    4    4    0    0 -0.49415219892E+01  0.31490947918E+01  0.11877438779E+02  0.13244205885E+02  0.00000000000E+00 0.  1.
</event>
<event>
 8    1  0.2501893E-006  0.9118800E+02  0.7816164E-02  0.1184000E+00
        -11   -1    0    0    0    0  0.00000000000E+00  0.00000000000E+00  0.45593999997E+02  0.45594000000E+02  0.51100000000E-03 0.  1.
         11   -1    0    0    0    0 -0.00000000000E+00 -0.00000000000E+00 -0.45593999997E+02  0.45594000000E+02  0.51100000000E-03 0. -1.
         23    2    1    2    0    0  0.00000000000E+00  0.88817841970E-15  0.00000000000E+00  0.91188000000E+02  0.91188000000E+02 0.  0.
    9900012    2    3    3    0    0  0.21147887650E+02 -0.14548771874E+01  0.30107016023E+02  0.54367051703E+02  0.39999925968E+02 0.  0.
         12    1    3    3    0    0 -0.21147887650E+02  0.14548771874E+01 -0.30107016023E+02  0.36820948297E+02  0.00000000000E+00 0. -1.
         11    1    4    4    0    0  0.25781670455E+02  0.30875543489E+01  0.15078731172E+02  0.30026582512E+02  0.51100000000E-03 0. -1.
        -11    1    4    4    0    0  0.36399190237E+01  0.30453283784E+01  0.11708348496E+02  0.12633624190E+02  0.51100000000E-03 0.  1.
         12    1    4    4    0    0 -0.82737018292E+01 -0.75877599147E+01  0.33199363551E+01  0.11706845001E+02  0.00000000000E+00 0. -1.
</event>
<event>
 8    1  0.2501893E-006  0.9118800E+02  0.7816164E-02  0.1184000E+00
        -11   -1    0    0    0    0  0.00000000000E+00  0.00000000000E+00  0.45593999997E+02  0.45594000000E+02  0.51100000000E-03 0.  1.
         11   -1    0    0    0    0 -0.00000000000E+00 -0.00000000000E+00 -0.45593999997E+02  0.45594000000E+02  0.51100000000E-03 0. -1.
         23    2    1    2    0    0  0.00000000000E+00  0.17763568394E-14 -0.35527136788E-14  0.91188000000E+02  0.91188000000E+02 0.  0.
    9900012    2    3    3    0    0 -0.30244128668E+02  0.98446410322E+01 -0.18551456311E+02  0.54367071071E+02  0.39999970120E+02 0.  0.
        -12    1    3    3    0    0  0.30244128668E+02 -0.98446410322E+01  0.18551456311E+02  0.36820928929E+02  0.00000000000E+00 0.  1.
         11    1    4    4    0    0 -0.72617757191E+01  0.88303487906E+01 -0.47678692033E+01  0.12387131361E+02  0.51100000000E-03 0. -1.
        -11    1    4    4    0    0 -0.24222848666E+02 -0.56121144178E+01  0.18716950882E+01  0.24934824413E+02  0.51100000000E-03 0.  1.
        -12    1    4    4    0    0  0.12404957166E+01  0.66264066594E+01 -0.15655282196E+02  0.17045115297E+02  0.00000000000E+00 0.  1.
</event>
<event>
 8    1  0.2501893E-006  0.9118800E+02  0.7816164E-02  0.1184000E+00
        -11   -1    0    0    0    0  0.00000000000E+00  0.00000000000E+00  0.45593999997E+02  0.45594000000E+02  0.51100000000E-03 0. -1.
         11   -1    0    0    0    0 -0.00000000000E+00 -0.00000000000E+00 -0.45593999997E+02  0.45594000000E+02  0.51100000000E-03 0.  1.
         23    2    1    2    0    0 -0.17763568394E-14  0.00000000000E+00 -0.35527136788E-14  0.91188000000E+02  0.91188000000E+02 0.  0.
    9900012    2    3    3    0    0 -0.13761889079E+02  0.26385989310E+02  0.21683398075E+02  0.54367085088E+02  0.40000002075E+02 0.  0.
         12    1    3    3    0    0  0.13761889079E+02 -0.26385989310E+02 -0.21683398075E+02  0.36820914912E+02  0.00000000000E+00 0. -1.
         11    1    4    4    0    0 -0.74802975212E+01  0.11549747767E+02  0.30950658933E+02  0.33871740627E+02  0.51100000000E-03 0. -1.
        -11    1    4    4    0    0 -0.10687148184E+01  0.11002814271E+02 -0.85695696724E+01  0.13987194068E+02  0.51100000000E-03 0.  1.
         12    1    4    4    0    0 -0.52128767396E+01  0.38334272722E+01 -0.69769118541E+00  0.65081503934E+01  0.00000000000E+00 0. -1.
</event>
<event>
 8    1  0.2501893E-006  0.9118800E+02  0.7816164E-02  0.1184000E+00
        -11   -1    0    0    0    0  0.00000000000E+00  0.00000000000E+00  0.45593999997E+02  0.45594000000E+02  0.51100000000E-03 0. -1.
         11   -1    0    0    0    0 -0.00000000000E+00 -0.00000000000E+00 -0.45593999997E+02  0.45594000000E+02  0.51100000000E-03 0.  1.
         23    2    1    2    0    0  0.00000000000E+00 -0.71054273576E-14  0.00000000000E+00  0.91188000000E+02  0.91188000000E+02 0.  0.
    9900012    2    3    3    0    0  0.22664137894E+01  0.36613641349E+02  0.31755452953E+01  0.54367089470E+02  0.40000012066E+02 0.  0.
        -12    1    3    3    0    0 -0.22664137894E+01 -0.36613641349E+02 -0.31755452953E+01  0.36820910530E+02  0.00000000000E+00 0.  1.
         11    1    4    4    0    0  0.99270163170E+01  0.11827587182E+02 -0.35502447561E+01  0.15844295806E+02  0.51100000000E-03 0. -1.
        -11    1    4    4    0    0  0.23176445224E+01  0.97697469277E+00 -0.82864104778E+01  0.86597086874E+01  0.51100000000E-03 0.  1.
         12    1    4    4    0    0 -0.99782470500E+01  0.23809079474E+02  0.15012200529E+02  0.29863084977E+02  0.00000000000E+00 0. -1.
</event>
<event>
 8    1  0.2501893E-006  0.9118800E+02  0.7816164E-02  0.1184000E+00
        -11   -1    0    0    0    0  0.00000000000E+00  0.00000000000E+00  0.45593999997E+02  0.45594000000E+02  0.51100000000E-03 0.  1.
         11   -1    0    0    0    0 -0.00000000000E+00 -0.00000000000E+00 -0.45593999997E+02  0.45594000000E+02  0.51100000000E-03 0. -1.
         23    2    1    2    0    0  0.00000000000E+00  0.00000000000E+00 -0.35527136788E-14  0.91188000000E+02  0.91188000000E+02 0.  0.
    9900012    2    3    3    0    0 -0.19162261450E+02  0.10753191158E+02 -0.29545868640E+02  0.54367058436E+02  0.39999941317E+02 0.  0.
        -12    1    3    3    0    0  0.19162261450E+02 -0.10753191158E+02  0.29545868640E+02  0.36820941564E+02  0.00000000000E+00 0.  1.
         11    1    4    4    0    0 -0.10001003384E+02 -0.57033507249E+01 -0.27783555864E+02  0.30074478464E+02  0.51100000000E-03 0. -1.
        -11    1    4    4    0    0 -0.11436934738E+02  0.92414660955E+01 -0.56921655112E+01  0.15767337133E+02  0.51100000000E-03 0.  1.
        -12    1    4    4    0    0  0.22756766726E+01  0.72150757878E+01  0.39298527354E+01  0.85252428390E+01  0.00000000000E+00 0.  1.
</event>
<event>
 8    1  0.2501893E-006  0.9118800E+02  0.7816164E-02  0.1184000E+00
        -11   -1    0    0    0    0  0.00000000000E+00  0.00000000000E+00  0.45593999997E+02  0.45594000000E+02  0.51100000000E-03 0. -1.
         11   -1    0    0    0    0 -0.00000000000E+00 -0.00000000000E+00 -0.45593999997E+02  0.45594000000E+02  0.51100000000E-03 0.  1.
         23    2    1    2    0    0  0.35527136788E-14 -0.71054273576E-14 -0.88817841970E-15  0.91188000000E+02  0.91188000000E+02 0.  0.
    9900012    2    3    3    0    0 -0.23463402839E+02  0.27860955967E+02  0.53866562258E+01  0.54367079242E+02  0.39999988748E+02 0.  0.
        -12    1    3    3    0    0  0.23463402839E+02 -0.27860955967E+02 -0.53866562258E+01  0.36820920758E+02  0.00000000000E+00 0.  1.
         11    1    4    4    0    0 -0.24877341358E+01  0.14793604662E+02  0.62915804807E+01  0.16267253770E+02  0.51100000000E-03 0. -1.
        -11    1    4    4    0    0  0.70637876075E+01  0.17161581469E+00 -0.15347128236E+01  0.72306217619E+01  0.51100000000E-03 0.  1.
        -12    1    4    4    0    0 -0.28039456311E+02  0.12895735490E+02  0.62978856875E+00  0.30869203710E+02  0.00000000000E+00 0.  1.
</event>
<event>
 8    1  0.2501893E-006  0.9118800E+02  0.7816164E-02  0.1184000E+00
        -11   -1    0    0    0    0  0.00000000000E+00  0.00000000000E+00  0.45593999997E+02  0.45594000000E+02  0.51100000000E-03 0. -1.
         11   -1    0    0    0    0 -0.00000000000E+00 -0.00000000000E+00 -0.45593999997E+02  0.45594000000E+02  0.51100000000E-03 0.  1.
         23    2    1    2    0    0  0.00000000000E+00  0.00000000000E+00  0.71054273576E-14  0.91188000000E+02  0.91188000000E+02 0.  0.
    9900012    2    3    3    0    0  0.92563364919E+01 -0.33943999360E+01 -0.35476530556E+02  0.54367001419E+02  0.39999811335E+02 0.  0.
         12    1    3    3    0    0 -0.92563364919E+01  0.33943999360E+01  0.35476530556E+02  0.36820998581E+02  0.00000000000E+00 0. -1.
         11    1    4    4    0    0  0.76660415231E+01  0.74257322957E+01 -0.11256817091E+02  0.15512112172E+02  0.51100000000E-03 0. -1.
        -11    1    4    4    0    0 -0.34079228644E+01 -0.17264026228E+02 -0.25098220724E+02  0.30652589183E+02  0.51100000000E-03 0.  1.
        -12    1    4    4    0    0  0.49982178331E+01  0.64438939964E+01  0.87850725845E+00  0.82023000645E+01  0.00000000000E+00 0.  1.
</event>
<event>
 8    1  0.2501893E-006  0.9118800E+02  0.7816164E-02  0.1184000E+00
        -11   -1    0    0    0    0  0.00000000000E+00  0.00000000000E+00  0.45593999997E+02  0.45594000000E+02  0.51100000000E-03 0.  1.
         11   -1    0    0    0    0 -0.00000000000E+00 -0.00000000000E+00 -0.45593999997E+02  0.45594000000E+02  0.51100000000E-03 0. -1.
         23    2    1    2    0    0  0.00000000000E+00 -0.27755575616E-15  0.17763568394E-14  0.91188000000E+02  0.91188000000E+02 0.  0.
    9900012    2    3    3    0    0  0.35006369212E+02  0.33878396867E+00 -0.11411412896E+02  0.54367068394E+02  0.39999964019E+02 0.  0.
         12    1    3    3    0    0 -0.35006369212E+02 -0.33878396867E+00  0.11411412896E+02  0.36820931606E+02  0.00000000000E+00 0. -1.
         11    1    4    4    0    0  0.55814592703E+01 -0.83381485934E+00 -0.12039458403E+02  0.13296484261E+02  0.51100000000E-03 0. -1.
        -11    1    4    4    0    0  0.20619749795E+02  0.13840209172E+02  0.43220826144E+01  0.25207258278E+02  0.51100000000E-03 0.  1.
         12    1    4    4    0    0  0.88051601473E+01 -0.12667610344E+02 -0.36940371079E+01  0.15863325855E+02  0.00000000000E+00 0. -1.
</event>
<event>
 8    1  0.2501893E-006  0.9118800E+02  0.7816164E-02  0.1184000E+00
        -11   -1    0    0    0    0  0.00000000000E+00  0.00000000000E+00  0.45593999997E+02  0.45594000000E+02  0.51100000000E-03 0.  1.
         11   -1    0    0    0    0 -0.00000000000E+00 -0.00000000000E+00 -0.45593999997E+02  0.45594000000E+02  0.51100000000E-03 0. -1.
         23    2    1    2    0    0  0.71054273576E-14 -0.88817841970E-15 -0.44408920985E-15  0.91188000000E+02  0.91188000000E+02 0.  0.
    9900012    2    3    3    0    0 -0.36291654722E+02 -0.52627968665E+01  0.33166346133E+01  0.54367064400E+02  0.39999954912E+02 0.  0.
        -12    1    3    3    0    0  0.36291654722E+02  0.52627968665E+01 -0.33166346133E+01  0.36820935600E+02  0.00000000000E+00 0.  1.
         11    1    4    4    0    0 -0.23439781592E+01  0.34541544498E+01  0.47624141372E+00  0.42014548337E+01  0.51100000000E-03 0. -1.
        -11    1    4    4    0    0 -0.33321782528E+01 -0.11629608832E+02 -0.11083026451E+02  0.16406848847E+02  0.51100000000E-03 0.  1.
         12    1    4    4    0    0 -0.30615498310E+02  0.29126575159E+01  0.13923419651E+02  0.33758760720E+02  0.00000000000E+00 0. -1.
</event>
<event>
 8    1  0.2501893E-006  0.9118800E+02  0.7816164E-02  0.1184000E+00
        -11   -1    0    0    0    0  0.00000000000E+00  0.00000000000E+00  0.45593999997E+02  0.45594000000E+02  0.51100000000E-03 0.  1.
         11   -1    0    0    0    0 -0.00000000000E+00 -0.00000000000E+00 -0.45593999997E+02  0.45594000000E+02  0.51100000000E-03 0. -1.
         23    2    1    2    0    0  0.00000000000E+00 -0.17763568394E-14  0.00000000000E+00  0.91188000000E+02  0.91188000000E+02 0.  0.
    9900012    2    3    3    0    0  0.18061242584E+02 -0.10102463990E+02  0.30455084910E+02  0.54367075796E+02  0.39999980892E+02 0.  0.
         12    1    3    3    0    0 -0.18061242584E+02  0.10102463990E+02 -0.30455084910E+02  0.36820924204E+02  0.00000000000E+00 0. -1.
         11    1    4    4    0    0  0.34824905151E+00  0.43448420674E+01 -0.12451914423E+01  0.45331481314E+01  0.51100000000E-03 0. -1.
        -11    1    4    4    0    0  0.21774875880E+01  0.18326090825E+01  0.26610735089E+02  0.26762494848E+02  0.51100000000E-03 0.  1.
         12    1    4    4    0    0  0.15535505945E+02 -0.16279915140E+02  0.50895412634E+01  0.23071432816E+02  0.00000000000E+00 0. -1.
</event>
<event>
 8    1  0.2501893E-006  0.9118800E+02  0.7816164E-02  0.1184000E+00
        -11   -1    0    0    0    0  0.00000000000E+00  0.00000000000E+00  0.45593999997E+02  0.45594000000E+02  0.51100000000E-03 0.  1.
         11   -1    0    0    0    0 -0.00000000000E+00 -0.00000000000E+00 -0.45593999997E+02  0.45594000000E+02  0.51100000000E-03 0. -1.
         23    2    1    2    0    0  0.00000000000E+00  0.00000000000E+00  0.00000000000E+00  0.91188000000E+02  0.91188000000E+02 0.  0.
    9900012    2    3    3    0    0 -0.10817968572E+02 -0.23296508338E+02 -0.26382266699E+02  0.54367085550E+02  0.40000003128E+02 0.  0.
        -12    1    3    3    0    0  0.10817968572E+02  0.23296508338E+02  0.26382266699E+02  0.36820914450E+02  0.00000000000E+00 0.  1.
         11    1    4    4    0    0  0.92683931152E+01 -0.60535312928E+01 -0.57757414701E+01  0.12486294160E+02  0.51100000000E-03 0. -1.
        -11    1    4    4    0    0 -0.61705477548E+01 -0.12455556771E+02  0.28506090120E+01  0.14189521699E+02  0.51100000000E-03 0.  1.
         12    1    4    4    0    0 -0.13915813933E+02 -0.47874202750E+01 -0.23457134241E+02  0.27691269691E+02  0.00000000000E+00 0. -1.
</event>
<event>
 8    1  0.2501893E-006  0.9118800E+02  0.7816164E-02  0.1184000E+00
        -11   -1    0    0    0    0  0.00000000000E+00  0.00000000000E+00  0.45593999997E+02  0.45594000000E+02  0.51100000000E-03 0. -1.
         11   -1    0    0    0    0 -0.00000000000E+00 -0.00000000000E+00 -0.45593999997E+02  0.45594000000E+02  0.51100000000E-03 0.  1.
         23    2    1    2    0    0  0.35527136788E-14  0.00000000000E+00 -0.35527136788E-14  0.91188000000E+02  0.91188000000E+02 0.  0.
    9900012    2    3    3    0    0  0.19106662224E+02  0.98227035786E+01 -0.29903726658E+02  0.54367042449E+02  0.39999904871E+02 0.  0.
         12    1    3    3    0    0 -0.19106662224E+02 -0.98227035786E+01  0.29903726658E+02  0.36820957551E+02  0.00000000000E+00 0. -1.
         11    1    4    4    0    0 -0.75476493797E+01  0.10935800615E+00  0.14735640996E+01  0.76909272360E+01  0.51100000000E-03 0. -1.
        -11    1    4    4    0    0  0.11290358822E+02 -0.55110967392E+01 -0.83601701465E+01  0.15090952082E+02  0.51100000000E-03 0.  1.
        -12    1    4    4    0    0  0.15363952781E+02  0.15224442312E+02 -0.23017120611E+02  0.31585163131E+02  0.00000000000E+00 0.  1.
</event>
<event>
 8    1  0.2501893E-006  0.9118800E+02  0.7816164E-02  0.1184000E+00
        -11   -1    0    0    0    0  0.00000000000E+00  0.00000000000E+00  0.45593999997E+02  0.45594000000E+02  0.51100000000E-03 0.  1.
         11   -1    0    0    0    0 -0.00000000000E+00 -0.00000000000E+00 -0.45593999997E+02  0.45594000000E+02  0.51100000000E-03 0. -1.
         23    2    1    2    0    0  0.00000000000E+00  0.35527136788E-14  0.00000000000E+00  0.91188000000E+02  0.91188000000E+02 0.  0.
    9900012    2    3    3    0    0 -0.27933697983E+02  0.21561413531E+02  0.10516438837E+02  0.54367061360E+02  0.39999947983E+02 0.  0.
         12    1    3    3    0    0  0.27933697983E+02 -0.21561413531E+02 -0.10516438837E+02  0.36820938640E+02  0.00000000000E+00 0. -1.
         11    1    4    4    0    0 -0.63096329339E+01  0.33771783608E+01 -0.13895918802E+02  0.15630526577E+02  0.51100000000E-03 0. -1.
        -11    1    4    4    0    0 -0.93371275460E+01  0.12977454092E+02  0.17516476473E+02  0.23715463601E+02  0.51100000000E-03 0.  1.
         12    1    4    4    0    0 -0.12286937503E+02  0.52067810786E+01  0.68958811665E+01  0.15021071182E+02  0.00000000000E+00 0. -1.
</event>
<event>
 8    1  0.2501893E-006  0.9118800E+02  0.7816164E-02  0.1184000E+00
        -11   -1    0    0    0    0  0.00000000000E+00  0.00000000000E+00  0.45593999997E+02  0.45594000000E+02  0.51100000000E-03 0.  1.
         11   -1    0    0    0    0 -0.00000000000E+00 -0.00000000000E+00 -0.45593999997E+02  0.45594000000E+02  0.51100000000E-03 0. -1.
         23    2    1    2    0    0 -0.35527136788E-14  0.35527136788E-14  0.00000000000E+00  0.91188000000E+02  0.91188000000E+02 0.  0.
    9900012    2    3    3    0    0 -0.18166331362E+02  0.30865296028E+02 -0.85497387493E+01  0.54367080311E+02  0.39999991185E+02 0.  0.
         12    1    3    3    0    0  0.18166331362E+02 -0.30865296028E+02  0.85497387493E+01  0.36820919689E+02  0.00000000000E+00 0. -1.
         11    1    4    4    0    0  0.57850740230E+01  0.10597123105E+02 -0.65986046619E+01  0.13758912868E+02  0.51100000000E-03 0. -1.
        -11    1    4    4    0    0 -0.95275171743E+01 -0.43190265589E+01  0.44901336317E+01  0.11383710916E+02  0.51100000000E-03 0.  1.
        -12    1    4    4    0    0 -0.14423888211E+02  0.24587199482E+02 -0.64412677191E+01  0.29224456527E+02  0.00000000000E+00 0.  1.
</event>
<event>
 8    1  0.2501893E-006  0.9118800E+02  0.7816164E-02  0.1184000E+00
        -11   -1    0    0    0    0  0.00000000000E+00  0.00000000000E+00  0.45593999997E+02  0.45594000000E+02  0.51100000000E-03 0.  1.
         11   -1    0    0    0    0 -0.00000000000E+00 -0.00000000000E+00 -0.45593999997E+02  0.45594000000E+02  0.51100000000E-03 0. -1.
         23    2    1    2    0    0  0.00000000000E+00  0.35527136788E-14 -0.88817841970E-15  0.91188000000E+02  0.91188000000E+02 0.  0.
    9900012    2    3    3    0    0  0.20110795685E+02 -0.30665040403E+02 -0.33153281537E+01  0.54367079225E+02  0.39999988709E+02 0.  0.
         12    1    3    3    0    0 -0.20110795685E+02  0.30665040403E+02  0.33153281537E+01  0.36820920775E+02  0.00000000000E+00 0. -1.
         11    1    4    4    0    0  0.10172745829E+02  0.99257065157E+00 -0.72976352242E+01  0.12558878705E+02  0.51100000000E-03 0. -1.
        -11    1    4    4    0    0  0.75345473050E+01 -0.45591796927E+01 -0.81698891451E+01  0.12012602194E+02  0.51100000000E-03 0.  1.
        -12    1    4    4    0    0  0.24035025511E+01 -0.27098431361E+02  0.12152196216E+02  0.29795598326E+02  0.00000000000E+00 0.  1.
</event>
<event>
 8    1  0.2501893E-006  0.9118800E+02  0.7816164E-02  0.1184000E+00
        -11   -1    0    0    0    0  0.00000000000E+00  0.00000000000E+00  0.45593999997E+02  0.45594000000E+02  0.51100000000E-03 0. -1.
         11   -1    0    0    0    0 -0.00000000000E+00 -0.00000000000E+00 -0.45593999997E+02  0.45594000000E+02  0.51100000000E-03 0.  1.
         23    2    1    2    0    0 -0.17763568394E-14  0.00000000000E+00  0.00000000000E+00  0.91188000000E+02  0.91188000000E+02 0.  0.
    9900012    2    3    3    0    0 -0.89053136868E+01  0.22402168764E+02 -0.27831981153E+02  0.54367069104E+02  0.39999965636E+02 0.  0.
         12    1    3    3    0    0  0.89053136868E+01 -0.22402168764E+02  0.27831981153E+02  0.36820930896E+02  0.00000000000E+00 0. -1.
         11    1    4    4    0    0 -0.14145925589E+02  0.20398821191E+02 -0.19371709259E+02  0.31487810922E+02  0.51100000000E-03 0. -1.
        -11    1    4    4    0    0 -0.66922697927E+01  0.80439821964E+00 -0.85481516096E+01  0.10885973897E+02  0.51100000000E-03 0.  1.
         12    1    4    4    0    0  0.11932881695E+02  0.11989493528E+01  0.87879715667E-01  0.11993284285E+02  0.00000000000E+00 0. -1.
</event>
<event>
 8    1  0.2501893E-006  0.9118800E+02  0.7816164E-02  0.1184000E+00
        -11   -1    0    0    0    0  0.00000000000E+00  0.00000000000E+00  0.45593999997E+02  0.45594000000E+02  0.51100000000E-03 0. -1.
         11   -1    0    0    0    0 -0.00000000000E+00 -0.00000000000E+00 -0.45593999997E+02  0.45594000000E+02  0.51100000000E-03 0.  1.
         23    2    1    2    0    0  0.00000000000E+00 -0.35527136788E-14  0.00000000000E+00  0.91188000000E+02  0.91188000000E+02 0.  0.
    9900012    2    3    3    0    0  0.25775968241E+02  0.26282271900E+02  0.78831140044E+00  0.54367084886E+02  0.40000001614E+02 0.  0.
         12    1    3    3    0    0 -0.25775968241E+02 -0.26282271900E+02 -0.78831140044E+00  0.36820915114E+02  0.00000000000E+00 0. -1.
         11    1    4    4    0    0 -0.14967105832E+01 -0.41164883463E+01 -0.18746099270E+01  0.47644287711E+01  0.51100000000E-03 0. -1.
        -11    1    4    4    0    0  0.20560436023E+02  0.23618212342E+01  0.72402969653E+00  0.20708306263E+02  0.51100000000E-03 0.  1.
        -12    1    4    4    0    0  0.67122428008E+01  0.28036939013E+02  0.19388916309E+01  0.28894349852E+02  0.00000000000E+00 0.  1.
</event>
<event>
 8    1  0.2501893E-006  0.9118800E+02  0.7816164E-02  0.1184000E+00
        -11   -1    0    0    0    0  0.00000000000E+00  0.00000000000E+00  0.45593999997E+02  0.45594000000E+02  0.51100000000E-03 0. -1.
         11   -1    0    0    0    0 -0.00000000000E+00 -0.00000000000E+00 -0.45593999997E+02  0.45594000000E+02  0.51100000000E-03 0.  1.
         23    2    1    2    0    0  0.17763568394E-14  0.00000000000E+00  0.88817841970E-15  0.91188000000E+02  0.91188000000E+02 0.  0.
    9900012    2    3    3    0    0  0.14191261892E+02  0.33405781046E+02  0.62000492679E+01  0.54367099246E+02  0.40000034351E+02 0.  0.
         12    1    3    3    0    0 -0.14191261892E+02 -0.33405781046E+02 -0.62000492679E+01  0.36820900754E+02  0.00000000000E+00 0. -1.
         11    1    4    4    0    0  0.67794357240E+01 -0.49258518934E+00 -0.41784615127E+01  0.79789052995E+01  0.51100000000E-03 0. -1.
        -11    1    4    4    0    0  0.15661744189E+02  0.15882483479E+02 -0.29611603997E+01  0.22501377373E+02  0.51100000000E-03 0.  1.
         12    1    4    4    0    0 -0.82499180203E+01  0.18015882757E+02  0.13339671180E+02  0.23886816574E+02  0.00000000000E+00 0. -1.
</event>
<event>
 8    1  0.2501893E-006  0.9118800E+02  0.7816164E-02  0.1184000E+00
        -11   -1    0    0    0    0  0.00000000000E+00  0.00000000000E+00  0.45593999997E+02  0.45594000000E+02  0.51100000000E-03 0.  1.
         11   -1    0    0    0    0 -0.00000000000E+00 -0.00000000000E+00 -0.45593999997E+02  0.45594000000E+02  0.51100000000E-03 0. -1.
         23    2    1    2    0    0  0.00000000000E+00  0.00000000000E+00 -0.35527136788E-14  0.91188000000E+02  0.91188000000E+02 0.  0.
    9900012    2    3    3    0    0 -0.12619828342E+02 -0.23002151050E+02 -0.25834481282E+02  0.54367089590E+02  0.40000012339E+02 0.  0.
        -12    1    3    3    0    0  0.12619828342E+02  0.23002151050E+02  0.25834481282E+02  0.36820910410E+02  0.00000000000E+00 0.  1.
         11    1    4    4    0    0  0.62797371612E+01 -0.12552974151E+02 -0.11972092066E+02  0.18448394173E+02  0.51100000000E-03 0. -1.
        -11    1    4    4    0    0  0.37953639601E+01 -0.62922082558E+01  0.23555241015E+01  0.77165514563E+01  0.51100000000E-03 0.  1.
         12    1    4    4    0    0 -0.22694929463E+02 -0.41569686426E+01 -0.16217913318E+02  0.28202143961E+02  0.00000000000E+00 0. -1.
</event>
<event>
 8    1  0.2501893E-006  0.9118800E+02  0.7816164E-02  0.1184000E+00
        -11   -1    0    0    0    0  0.00000000000E+00  0.00000000000E+00  0.45593999997E+02  0.45594000000E+02  0.51100000000E-03 0. -1.
         11   -1    0    0    0    0 -0.00000000000E+00 -0.00000000000E+00 -0.45593999997E+02  0.45594000000E+02  0.51100000000E-03 0.  1.
         23    2    1    2    0    0  0.88817841970E-15  0.00000000000E+00  0.88817841970E-15  0.91188000000E+02  0.91188000000E+02 0.  0.
    9900012    2    3    3    0    0  0.42165131282E+01  0.35818206611E+02  0.74202348715E+01  0.54367044100E+02  0.39999908635E+02 0.  0.
        -12    1    3    3    0    0 -0.42165131282E+01 -0.35818206611E+02 -0.74202348715E+01  0.36820955900E+02  0.00000000000E+00 0.  1.
         11    1    4    4    0    0 -0.72518294666E+01  0.17880063529E+02  0.14892839833E+02  0.24373805222E+02  0.51100000000E-03 0. -1.
        -11    1    4    4    0    0 -0.25660640597E+01 -0.20884138492E+01 -0.41600878583E+01  0.53153069915E+01  0.51100000000E-03 0.  1.
         12    1    4    4    0    0  0.14034406654E+02  0.20026556931E+02 -0.33125171033E+01  0.24677931887E+02  0.00000000000E+00 0. -1.
</event>
<event>
 8    1  0.2501893E-006  0.9118800E+02  0.7816164E-02  0.1184000E+00
        -11   -1    0    0    0    0  0.00000000000E+00  0.00000000000E+00  0.45593999997E+02  0.45594000000E+02  0.51100000000E-03 0. -1.
         11   -1    0    0    0    0 -0.00000000000E+00 -0.00000000000E+00 -0.45593999997E+02  0.45594000000E+02  0.51100000000E-03 0.  1.
         23    2    1    2    0    0 -0.22204460493E-15  0.35527136788E-14  0.00000000000E+00  0.91188000000E+02  0.91188000000E+02 0.  0.
    9900012    2    3    3    0    0  0.14907043753E+01  0.24022742117E+02  0.27865153993E+02  0.54367066478E+02  0.39999959650E+02 0.  0.
        -12    1    3    3    0    0 -0.14907043753E+01 -0.24022742117E+02 -0.27865153993E+02  0.36820933522E+02  0.00000000000E+00 0.  1.
         11    1    4    4    0    0  0.47862891786E+01 -0.18453343876E+01  0.13201910529E+02  0.14163483504E+02  0.51100000000E-03 0. -1.
        -11    1    4    4    0    0  0.83468712117E+00 -0.56173052922E+01  0.22505846347E+01  0.61086784819E+01  0.51100000000E-03 0.  1.
         12    1    4    4    0    0 -0.41302719245E+01  0.31485381797E+02  0.12412658830E+02  0.34094904492E+02  0.00000000000E+00 0. -1.
</event>
<event>
 8    1  0.2501893E-006  0.9118800E+02  0.7816164E-02  0.1184000E+00
        -11   -1    0    0    0    0  0.00000000000E+00  0.00000000000E+00  0.45593999997E+02  0.45594000000E+02  0.51100000000E-03 0.  1.
         11   -1    0    0    0    0 -0.00000000000E+00 -0.00000000000E+00 -0.45593999997E+02  0.45594000000E+02  0.51100000000E-03 0. -1.
         23    2    1    2    0    0 -0.35527136788E-14  0.35527136788E-14  0.35527136788E-14  0.91188000000E+02  0.91188000000E+02 0.  0.
    9900012    2    3    3    0    0  0.21079666483E+02 -0.11400130194E+02 -0.27954647209E+02  0.54367114513E+02  0.40000069155E+02 0.  0.
        -12    1    3    3    0    0 -0.21079666483E+02  0.11400130194E+02  0.27954647209E+02  0.36820885487E+02  0.00000000000E+00 0.  1.
         11    1    4    4    0    0 -0.17425556048E+01  0.55949643819E+01 -0.13244246887E+02  0.14482755344E+02  0.51100000000E-03 0. -1.
        -11    1    4    4    0    0  0.42025572674E+01  0.46510874577E+01 -0.86718428142E+01  0.10700231782E+02  0.51100000000E-03 0.  1.
        -12    1    4    4    0    0  0.18619664820E+02 -0.21646182033E+02 -0.60385575077E+01  0.29184127388E+02  0.00000000000E+00 0.  1.
</event>
<event>
 8    1  0.2501893E-006  0.9118800E+02  0.7816164E-02  0.1184000E+00
        -11   -1    0    0    0    0  0.00000000000E+00  0.00000000000E+00  0.45593999997E+02  0.45594000000E+02  0.51100000000E-03 0. -1.
         11   -1    0    0    0    0 -0.00000000000E+00 -0.00000000000E+00 -0.45593999997E+02  0.45594000000E+02  0.51100000000E-03 0.  1.
         23    2    1    2    0    0 -0.44408920985E-15  0.00000000000E+00  0.17763568394E-14  0.91188000000E+02  0.91188000000E+02 0.  0.
    9900012    2    3    3    0    0  0.27719850157E+01 -0.34019781627E+02  0.13811246766E+02  0.54367082302E+02  0.39999995725E+02 0.  0.
        -12    1    3    3    0    0 -0.27719850157E+01  0.34019781627E+02 -0.13811246766E+02  0.36820917698E+02  0.00000000000E+00 0.  1.
         11    1    4    4    0    0 -0.17889995281E+01  0.94513736645E+00  0.94318977891E+01  0.96464760466E+01  0.51100000000E-03 0. -1.
        -11    1    4    4    0    0  0.15777514867E+02 -0.18357316689E+02  0.47931303283E+01  0.24675800899E+02  0.51100000000E-03 0.  1.
         12    1    4    4    0    0 -0.11216530323E+02 -0.16607602304E+02 -0.41378135125E+00  0.20044805357E+02  0.00000000000E+00 0. -1.
</event>
<event>
 8    1  0.2501893E-006  0.9118800E+02  0.7816164E-02  0.1184000E+00
        -11   -1    0    0    0    0  0.00000000000E+00  0.00000000000E+00  0.45593999997E+02  0.45594000000E+02  0.51100000000E-03 0.  1.
         11   -1    0    0    0    0 -0.00000000000E+00 -0.00000000000E+00 -0.45593999997E+02  0.45594000000E+02  0.51100000000E-03 0. -1.
         23    2    1    2    0    0  0.00000000000E+00  0.00000000000E+00 -0.88817841970E-15  0.91188000000E+02  0.91188000000E+02 0.  0.
    9900012    2    3    3    0    0 -0.23365190933E+02 -0.27996967042E+02  0.51008371323E+01  0.54367070485E+02  0.39999968784E+02 0.  0.
         12    1    3    3    0    0  0.23365190933E+02  0.27996967042E+02 -0.51008371323E+01  0.36820929515E+02  0.00000000000E+00 0. -1.
         11    1    4    4    0    0 -0.35527270680E+01  0.66519231073E+01 -0.89664235382E+01  0.11716087315E+02  0.51100000000E-03 0. -1.
        -11    1    4    4    0    0 -0.65996436042E+01 -0.88548296376E+01  0.18398488195E+01  0.11195907625E+02  0.51100000000E-03 0.  1.
        -12    1    4    4    0    0 -0.13212820261E+02 -0.25794060512E+02  0.12227411851E+02  0.31455075545E+02  0.00000000000E+00 0.  1.
</event>
<event>
 8    1  0.2501893E-006  0.9118800E+02  0.7816164E-02  0.1184000E+00
        -11   -1    0    0    0    0  0.00000000000E+00  0.00000000000E+00  0.45593999997E+02  0.45594000000E+02  0.51100000000E-03 0.  1.
         11   -1    0    0    0    0 -0.00000000000E+00 -0.00000000000E+00 -0.45593999997E+02  0.45594000000E+02  0.51100000000E-03 0. -1.
         23    2    1    2    0    0  0.00000000000E+00  0.00000000000E+00  0.00000000000E+00  0.91188000000E+02  0.91188000000E+02 0.  0.
    9900012    2    3    3    0    0  0.12874250820E+02  0.32513674168E+02  0.11528071511E+02  0.54367057931E+02  0.39999940166E+02 0.  0.
        -12    1    3    3    0    0 -0.12874250820E+02 -0.32513674168E+02 -0.11528071511E+02  0.36820942069E+02  0.00000000000E+00 0.  1.
         11    1    4    4    0    0  0.13859113889E+02  0.32781542246E+02  0.29091851737E+01  0.35709493254E+02  0.51100000000E-03 0. -1.
        -11    1    4    4    0    0 -0.57460055413E+01  0.11969304736E+01  0.11494106254E+02  0.12905956032E+02  0.51100000000E-03 0.  1.
         12    1    4    4    0    0  0.47611424729E+01 -0.14647985514E+01 -0.28752199175E+01  0.57516086461E+01  0.00000000000E+00 0. -1.
</event>
<event>
 8    1  0.2501893E-006  0.9118800E+02  0.7816164E-02  0.1184000E+00
        -11   -1    0    0    0    0  0.00000000000E+00  0.00000000000E+00  0.45593999997E+02  0.45594000000E+02  0.51100000000E-03 0.  1.
         11   -1    0    0    0    0 -0.00000000000E+00 -0.00000000000E+00 -0.45593999997E+02  0.45594000000E+02  0.51100000000E-03 0. -1.
         23    2    1    2    0    0  0.00000000000E+00  0.17763568394E-14  0.35527136788E-14  0.91188000000E+02  0.91188000000E+02 0.  0.
    9900012    2    3    3    0    0  0.14998403393E+02  0.14254069863E+02  0.30457378429E+02  0.54367047911E+02  0.39999917322E+02 0.  0.
         12    1    3    3    0    0 -0.14998403393E+02 -0.14254069863E+02 -0.30457378429E+02  0.36820952089E+02  0.00000000000E+00 0. -1.
         11    1    4    4    0    0 -0.43438178022E+01 -0.27684570488E+01 -0.39596523599E+01  0.64970727718E+01  0.51100000000E-03 0. -1.
        -11    1    4    4    0    0  0.46589434962E+01  0.59675316662E+01 -0.13186324711E+01  0.76847889068E+01  0.51100000000E-03 0.  1.
        -12    1    4    4    0    0  0.14683277699E+02  0.11054995246E+02  0.35735663260E+02  0.40185186232E+02  0.00000000000E+00 0.  1.
</event>
<event>
 8    1  0.2501893E-006  0.9118800E+02  0.7816164E-02  0.1184000E+00
        -11   -1    0    0    0    0  0.00000000000E+00  0.00000000000E+00  0.45593999997E+02  0.45594000000E+02  0.51100000000E-03 0.  1.
         11   -1    0    0    0    0 -0.00000000000E+00 -0.00000000000E+00 -0.45593999997E+02  0.45594000000E+02  0.51100000000E-03 0. -1.
         23    2    1    2    0    0  0.71054273576E-14 -0.17763568394E-14  0.00000000000E+00  0.91188000000E+02  0.91188000000E+02 0.  0.
    9900012    2    3    3    0    0  0.33016183012E+02 -0.12743830640E+02 -0.10163777142E+02  0.54367137356E+02  0.40000121230E+02 0.  0.
        -12    1    3    3    0    0 -0.33016183012E+02  0.12743830640E+02  0.10163777142E+02  0.36820862644E+02  0.00000000000E+00 0.  1.
         11    1    4    4    0    0  0.29614637537E+02 -0.88549588946E+01  0.15474247706E+01  0.30948854214E+02  0.51100000000E-03 0. -1.
        -11    1    4    4    0    0 -0.27664976198E+01 -0.51498407726E+00 -0.15277838514E+02  0.15534834007E+02  0.51100000000E-03 0.  1.
        -12    1    4    4    0    0  0.61680430948E+01 -0.33738876678E+01  0.35666366022E+01  0.78834491352E+01  0.00000000000E+00 0.  1.
</event>
<event>
 8    1  0.2501893E-006  0.9118800E+02  0.7816164E-02  0.1184000E+00
        -11   -1    0    0    0    0  0.00000000000E+00  0.00000000000E+00  0.45593999997E+02  0.45594000000E+02  0.51100000000E-03 0.  1.
         11   -1    0    0    0    0 -0.00000000000E+00 -0.00000000000E+00 -0.45593999997E+02  0.45594000000E+02  0.51100000000E-03 0. -1.
         23    2    1    2    0    0 -0.35527136788E-14  0.00000000000E+00 -0.44408920985E-15  0.91188000000E+02  0.91188000000E+02 0.  0.
    9900012    2    3    3    0    0 -0.18819512879E+02  0.31526459023E+02 -0.27726540853E+01  0.54367091616E+02  0.40000016957E+02 0.  0.
        -12    1    3    3    0    0  0.18819512879E+02 -0.31526459023E+02  0.27726540853E+01  0.36820908384E+02  0.00000000000E+00 0.  1.
         11    1    4    4    0    0 -0.12278636734E+02  0.37180342156E+02 -0.75575141196E+01  0.39878048884E+02  0.51100000000E-03 0. -1.
        -11    1    4    4    0    0  0.33466594806E+00 -0.36200421157E+00  0.57393296920E+01  0.57604647313E+01  0.51100000000E-03 0.  1.
         12    1    4    4    0    0 -0.68755420926E+01 -0.52918789213E+01 -0.95446965767E+00  0.87285780006E+01  0.00000000000E+00 0. -1.
</event>
<event>
 8    1  0.2501893E-006  0.9118800E+02  0.7816164E-02  0.1184000E+00
        -11   -1    0    0    0    0  0.00000000000E+00  0.00000000000E+00  0.45593999997E+02  0.45594000000E+02  0.51100000000E-03 0.  1.
         11   -1    0    0    0    0 -0.00000000000E+00 -0.00000000000E+00 -0.45593999997E+02  0.45594000000E+02  0.51100000000E-03 0. -1.
         23    2    1    2    0    0  0.00000000000E+00  0.00000000000E+00  0.17763568394E-14  0.91188000000E+02  0.91188000000E+02 0.  0.
    9900012    2    3    3    0    0  0.26709819089E+02 -0.22736120911E+02  0.11199703732E+02  0.54367095699E+02  0.40000026264E+02 0.  0.
        -12    1    3    3    0    0 -0.26709819089E+02  0.22736120911E+02 -0.11199703732E+02  0.36820904301E+02  0.00000000000E+00 0.  1.
         11    1    4    4    0    0 -0.37628762268E+01 -0.16954850119E+02  0.28450492066E+01  0.17598877388E+02  0.51100000000E-03 0.  1.
        -11    1    4    4    0    0  0.94440180628E+01 -0.71838697772E+01 -0.37746317474E+01  0.12451719047E+02  0.51100000000E-03 0. -1.
        -12    1    4    4    0    0  0.21028677253E+02  0.14025989851E+01  0.12129286273E+02  0.24316499263E+02  0.00000000000E+00 0.  1.
</event>
<event>
 8    1  0.2501893E-006  0.9118800E+02  0.7816164E-02  0.1184000E+00
        -11   -1    0    0    0    0  0.00000000000E+00  0.00000000000E+00  0.45593999997E+02  0.45594000000E+02  0.51100000000E-03 0. -1.
         11   -1    0    0    0    0 -0.00000000000E+00 -0.00000000000E+00 -0.45593999997E+02  0.45594000000E+02  0.51100000000E-03 0.  1.
         23    2    1    2    0    0  0.17763568394E-14  0.00000000000E+00  0.00000000000E+00  0.91188000000E+02  0.91188000000E+02 0.  0.
    9900012    2    3    3    0    0  0.15521977287E+01 -0.31111309109E+02  0.19633086969E+02  0.54367068776E+02  0.39999964889E+02 0.  0.
        -12    1    3    3    0    0 -0.15521977287E+01  0.31111309109E+02 -0.19633086969E+02  0.36820931224E+02  0.00000000000E+00 0.  1.
         11    1    4    4    0    0  0.12194515216E+02 -0.13383323307E+02  0.60298639470E+01  0.19083469380E+02  0.51100000000E-03 0. -1.
        -11    1    4    4    0    0  0.20229503832E+01 -0.11072298726E+02 -0.45752897640E+01  0.12149954898E+02  0.51100000000E-03 0.  1.
         12    1    4    4    0    0 -0.12665267870E+02 -0.66556870761E+01  0.18178512786E+02  0.23133644498E+02  0.00000000000E+00 0. -1.
</event>
<event>
 8    1  0.2501893E-006  0.9118800E+02  0.7816164E-02  0.1184000E+00
        -11   -1    0    0    0    0  0.00000000000E+00  0.00000000000E+00  0.45593999997E+02  0.45594000000E+02  0.51100000000E-03 0.  1.
         11   -1    0    0    0    0 -0.00000000000E+00 -0.00000000000E+00 -0.45593999997E+02  0.45594000000E+02  0.51100000000E-03 0. -1.
         23    2    1    2    0    0  0.35527136788E-14  0.00000000000E+00  0.35527136788E-14  0.91188000000E+02  0.91188000000E+02 0.  0.
    9900012    2    3    3    0    0 -0.29901061557E+02 -0.11773493874E+02  0.17974723169E+02  0.54367091358E+02  0.40000016369E+02 0.  0.
         12    1    3    3    0    0  0.29901061557E+02  0.11773493874E+02 -0.17974723169E+02  0.36820908642E+02  0.00000000000E+00 0. -1.
         11    1    4    4    0    0 -0.99376735064E+01  0.47039844684E+01  0.10361636746E+02  0.15107890022E+02  0.51100000000E-03 0. -1.
        -11    1    4    4    0    0 -0.14861299350E+02 -0.16909121269E+02 -0.71608119006E+01  0.23623162951E+02  0.51100000000E-03 0.  1.
        -12    1    4    4    0    0 -0.51020886999E+01  0.43164292629E+00  0.14773898323E+02  0.15636038385E+02  0.00000000000E+00 0.  1.
</event>
<event>
 8    1  0.2501893E-006  0.9118800E+02  0.7816164E-02  0.1184000E+00
        -11   -1    0    0    0    0  0.00000000000E+00  0.00000000000E+00  0.45593999997E+02  0.45594000000E+02  0.51100000000E-03 0.  1.
         11   -1    0    0    0    0 -0.00000000000E+00 -0.00000000000E+00 -0.45593999997E+02  0.45594000000E+02  0.51100000000E-03 0. -1.
         23    2    1    2    0    0  0.00000000000E+00  0.00000000000E+00  0.00000000000E+00  0.91188000000E+02  0.91188000000E+02 0.  0.
    9900012    2    3    3    0    0  0.20898636020E+02  0.11431266458E+02 -0.28077639256E+02  0.54367072981E+02  0.39999974474E+02 0.  0.
        -12    1    3    3    0    0 -0.20898636020E+02 -0.11431266458E+02  0.28077639256E+02  0.36820927019E+02  0.00000000000E+00 0.  1.
         11    1    4    4    0    0  0.10544829530E+02  0.21665144181E+02 -0.19585489341E+02  0.31050978973E+02  0.51100000000E-03 0. -1.
        -11    1    4    4    0    0  0.93091275435E+00  0.21232855660E+01 -0.73809031764E+01  0.77364508730E+01  0.51100000000E-03 0.  1.
        -12    1    4    4    0    0  0.94228937358E+01 -0.12357163288E+02 -0.11112467387E+01  0.15579643135E+02  0.00000000000E+00 0.  1.
</event>
<event>
 8    1  0.2501893E-006  0.9118800E+02  0.7816164E-02  0.1184000E+00
        -11   -1    0    0    0    0  0.00000000000E+00  0.00000000000E+00  0.45593999997E+02  0.45594000000E+02  0.51100000000E-03 0. -1.
         11   -1    0    0    0    0 -0.00000000000E+00 -0.00000000000E+00 -0.45593999997E+02  0.45594000000E+02  0.51100000000E-03 0.  1.
         23    2    1    2    0    0 -0.17763568394E-14  0.00000000000E+00  0.71054273576E-14  0.91188000000E+02  0.91188000000E+02 0.  0.
    9900012    2    3    3    0    0  0.86714633060E+01 -0.13547612893E+02  0.33121701988E+02  0.54367092440E+02  0.40000018836E+02 0.  0.
        -12    1    3    3    0    0 -0.86714633060E+01  0.13547612893E+02 -0.33121701988E+02  0.36820907560E+02  0.00000000000E+00 0.  1.
         11    1    4    4    0    0 -0.75395470777E+01 -0.20999319125E+02  0.18923763789E+02  0.29256196097E+02  0.51100000000E-03 0. -1.
        -11    1    4    4    0    0  0.74775291968E+01  0.91042798039E+01  0.88786489166E+01  0.14752347626E+02  0.51100000000E-03 0.  1.
         12    1    4    4    0    0  0.87334811870E+01 -0.16525735719E+01  0.53192892818E+01  0.10358548717E+02  0.00000000000E+00 0. -1.
</event>
<event>
 8    1  0.2501893E-006  0.9118800E+02  0.7816164E-02  0.1184000E+00
        -11   -1    0    0    0    0  0.00000000000E+00  0.00000000000E+00  0.45593999997E+02  0.45594000000E+02  0.51100000000E-03 0. -1.
         11   -1    0    0    0    0 -0.00000000000E+00 -0.00000000000E+00 -0.45593999997E+02  0.45594000000E+02  0.51100000000E-03 0.  1.
         23    2    1    2    0    0  0.00000000000E+00  0.00000000000E+00  0.00000000000E+00  0.91188000000E+02  0.91188000000E+02 0.  0.
    9900012    2    3    3    0    0 -0.10038801184E+02 -0.29953995431E+02  0.18914491492E+02  0.54367117883E+02  0.40000076837E+02 0.  0.
         12    1    3    3    0    0  0.10038801184E+02  0.29953995431E+02 -0.18914491492E+02  0.36820882117E+02  0.00000000000E+00 0. -1.
         11    1    4    4    0    0 -0.16451529460E+02 -0.19013516592E+02  0.12539594115E+02  0.28096406453E+02  0.51100000000E-03 0. -1.
        -11    1    4    4    0    0  0.19879533250E+01 -0.17474138660E+02  0.41014687848E+01  0.18058779770E+02  0.51100000000E-03 0.  1.
         12    1    4    4    0    0  0.44247749508E+01  0.65336598204E+01  0.22734285921E+01  0.82119316593E+01  0.00000000000E+00 0. -1.
</event>
<event>
 8    1  0.2501893E-006  0.9118800E+02  0.7816164E-02  0.1184000E+00
        -11   -1    0    0    0    0  0.00000000000E+00  0.00000000000E+00  0.45593999997E+02  0.45594000000E+02  0.51100000000E-03 0. -1.
         11   -1    0    0    0    0 -0.00000000000E+00 -0.00000000000E+00 -0.45593999997E+02  0.45594000000E+02  0.51100000000E-03 0.  1.
         23    2    1    2    0    0  0.00000000000E+00 -0.17763568394E-14  0.00000000000E+00  0.91188000000E+02  0.91188000000E+02 0.  0.
    9900012    2    3    3    0    0  0.35510456166E+02 -0.89227658006E+01 -0.38950795480E+01  0.54367083508E+02  0.39999998473E+02 0.  0.
         12    1    3    3    0    0 -0.35510456166E+02  0.89227658006E+01  0.38950795480E+01  0.36820916492E+02  0.00000000000E+00 0. -1.
         11    1    4    4    0    0  0.24519110342E+02 -0.14597583630E+02 -0.10937980720E+02  0.30560033414E+02  0.51100000000E-03 0. -1.
        -11    1    4    4    0    0  0.14509837073E+02 -0.16595671707E+01  0.46864710524E+01  0.15337944656E+02  0.51100000000E-03 0.  1.
         12    1    4    4    0    0 -0.35184912487E+01  0.73343850005E+01  0.23564301197E+01  0.84691054375E+01  0.00000000000E+00 0. -1.
</event>
<event>
 8    1  0.2501893E-006  0.9118800E+02  0.7816164E-02  0.1184000E+00
        -11   -1    0    0    0    0  0.00000000000E+00  0.00000000000E+00  0.45593999997E+02  0.45594000000E+02  0.51100000000E-03 0. -1.
         11   -1    0    0    0    0 -0.00000000000E+00 -0.00000000000E+00 -0.45593999997E+02  0.45594000000E+02  0.51100000000E-03 0.  1.
         23    2    1    2    0    0  0.00000000000E+00  0.00000000000E+00  0.00000000000E+00  0.91188000000E+02  0.91188000000E+02 0.  0.
    9900012    2    3    3    0    0 -0.11602200317E+02  0.21951401857E+02 -0.27190149999E+02  0.54367090822E+02  0.40000015148E+02 0.  0.
         12    1    3    3    0    0  0.11602200317E+02 -0.21951401857E+02  0.27190149999E+02  0.36820909178E+02  0.00000000000E+00 0. -1.
         11    1    4    4    0    0 -0.10784826809E+02 -0.33814837910E+01 -0.16259789712E+02  0.19802214110E+02  0.51100000000E-03 0. -1.
        -11    1    4    4    0    0  0.19550623535E+01  0.28414563215E+02 -0.10658407557E+02  0.30410710669E+02  0.51100000000E-03 0.  1.
        -12    1    4    4    0    0 -0.27724358614E+01 -0.30816775664E+01 -0.27195273085E+00  0.41541660435E+01  0.00000000000E+00 0.  1.
</event>
<event>
 8    1  0.2501893E-006  0.9118800E+02  0.7816164E-02  0.1184000E+00
        -11   -1    0    0    0    0  0.00000000000E+00  0.00000000000E+00  0.45593999997E+02  0.45594000000E+02  0.51100000000E-03 0.  1.
         11   -1    0    0    0    0 -0.00000000000E+00 -0.00000000000E+00 -0.45593999997E+02  0.45594000000E+02  0.51100000000E-03 0. -1.
         23    2    1    2    0    0  0.00000000000E+00  0.00000000000E+00 -0.17763568394E-14  0.91188000000E+02  0.91188000000E+02 0.  0.
    9900012    2    3    3    0    0 -0.34687332145E+02  0.40124267622E+01 -0.11682158715E+02  0.54367035699E+02  0.39999889482E+02 0.  0.
         12    1    3    3    0    0  0.34687332145E+02 -0.40124267622E+01  0.11682158715E+02  0.36820964301E+02  0.00000000000E+00 0. -1.
         11    1    4    4    0    0 -0.97767324368E+01 -0.92757160578E+01 -0.63340986997E+01  0.14891078273E+02  0.51100000000E-03 0. -1.
        -11    1    4    4    0    0 -0.12302798084E+02  0.17425064369E+02  0.58444519251E+01  0.22116720542E+02  0.51100000000E-03 0.  1.
        -12    1    4    4    0    0 -0.12607801623E+02 -0.41369215486E+01 -0.11192511940E+02  0.17359236884E+02  0.00000000000E+00 0.  1.
</event>
<event>
 8    1  0.2501893E-006  0.9118800E+02  0.7816164E-02  0.1184000E+00
        -11   -1    0    0    0    0  0.00000000000E+00  0.00000000000E+00  0.45593999997E+02  0.45594000000E+02  0.51100000000E-03 0. -1.
         11   -1    0    0    0    0 -0.00000000000E+00 -0.00000000000E+00 -0.45593999997E+02  0.45594000000E+02  0.51100000000E-03 0.  1.
         23    2    1    2    0    0  0.35527136788E-14  0.35527136788E-14 -0.88817841970E-15  0.91188000000E+02  0.91188000000E+02 0.  0.
    9900012    2    3    3    0    0  0.20183272688E+02  0.30071824254E+02  0.66408764472E+01  0.54367077275E+02  0.39999984264E+02 0.  0.
         12    1    3    3    0    0 -0.20183272688E+02 -0.30071824254E+02 -0.66408764472E+01  0.36820922725E+02  0.00000000000E+00 0. -1.
         11    1    4    4    0    0  0.32635972360E+01 -0.39902290713E+01  0.11094267048E+02  0.12233386962E+02  0.51100000000E-03 0.  1.
        -11    1    4    4    0    0  0.35940445204E+00  0.15179988985E+02  0.38797944814E+01  0.15672078439E+02  0.51100000000E-03 0. -1.
        -12    1    4    4    0    0  0.16560271000E+02  0.18882064341E+02 -0.83331850823E+01  0.26461611874E+02  0.00000000000E+00 0.  1.
</event>
<event>
 8    1  0.2501893E-006  0.9118800E+02  0.7816164E-02  0.1184000E+00
        -11   -1    0    0    0    0  0.00000000000E+00  0.00000000000E+00  0.45593999997E+02  0.45594000000E+02  0.51100000000E-03 0. -1.
         11   -1    0    0    0    0 -0.00000000000E+00 -0.00000000000E+00 -0.45593999997E+02  0.45594000000E+02  0.51100000000E-03 0.  1.
         23    2    1    2    0    0  0.35527136788E-14 -0.35527136788E-14  0.11102230246E-14  0.91188000000E+02  0.91188000000E+02 0.  0.
    9900012    2    3    3    0    0 -0.19784288792E+02  0.31001894622E+02  0.18008095638E+01  0.54367102832E+02  0.40000042526E+02 0.  0.
         12    1    3    3    0    0  0.19784288792E+02 -0.31001894622E+02 -0.18008095638E+01  0.36820897168E+02  0.00000000000E+00 0. -1.
         11    1    4    4    0    0 -0.22488083736E+02  0.11752922709E+02 -0.12352668848E+02  0.28221153950E+02  0.51100000000E-03 0.  1.
        -11    1    4    4    0    0 -0.29208069708E+01  0.89472097791E+01  0.99048093125E+01  0.13663415531E+02  0.51100000000E-03 0. -1.
        -12    1    4    4    0    0  0.56246019149E+01  0.10301762134E+02  0.42486690989E+01  0.12482533351E+02  0.00000000000E+00 0.  1.
</event>
<event>
 8    1  0.2501893E-006  0.9118800E+02  0.7816164E-02  0.1184000E+00
        -11   -1    0    0    0    0  0.00000000000E+00  0.00000000000E+00  0.45593999997E+02  0.45594000000E+02  0.51100000000E-03 0. -1.
         11   -1    0    0    0    0 -0.00000000000E+00 -0.00000000000E+00 -0.45593999997E+02  0.45594000000E+02  0.51100000000E-03 0.  1.
         23    2    1    2    0    0  0.00000000000E+00  0.00000000000E+00  0.00000000000E+00  0.91188000000E+02  0.91188000000E+02 0.  0.
    9900012    2    3    3    0    0 -0.23853689674E+02 -0.15873977804E+02  0.23125697989E+02  0.54367087601E+02  0.40000007804E+02 0.  0.
        -12    1    3    3    0    0  0.23853689674E+02  0.15873977804E+02 -0.23125697989E+02  0.36820912399E+02  0.00000000000E+00 0.  1.
         11    1    4    4    0    0 -0.10115555899E+00  0.15594219241E+01 -0.33995228929E+01  0.37414950682E+01  0.51100000000E-03 0.  1.
        -11    1    4    4    0    0  0.14504671884E+01 -0.72323174453E+01 -0.50635193187E+01  0.89470385517E+01  0.51100000000E-03 0. -1.
        -12    1    4    4    0    0 -0.25203001304E+02 -0.10201082283E+02  0.31588740201E+02  0.41678553981E+02  0.00000000000E+00 0.  1.
</event>
<event>
 8    1  0.2501893E-006  0.9118800E+02  0.7816164E-02  0.1184000E+00
        -11   -1    0    0    0    0  0.00000000000E+00  0.00000000000E+00  0.45593999997E+02  0.45594000000E+02  0.51100000000E-03 0.  1.
         11   -1    0    0    0    0 -0.00000000000E+00 -0.00000000000E+00 -0.45593999997E+02  0.45594000000E+02  0.51100000000E-03 0. -1.
         23    2    1    2    0    0  0.00000000000E+00  0.00000000000E+00 -0.35527136788E-14  0.91188000000E+02  0.91188000000E+02 0.  0.
    9900012    2    3    3    0    0  0.13569513177E+02 -0.17880795492E+02  0.29187759861E+02  0.54367083920E+02  0.39999999412E+02 0.  0.
         12    1    3    3    0    0 -0.13569513177E+02  0.17880795492E+02 -0.29187759861E+02  0.36820916080E+02  0.00000000000E+00 0. -1.
         11    1    4    4    0    0  0.48850287724E+01 -0.49159749086E+00 -0.41746471454E+01  0.64445987656E+01  0.51100000000E-03 0. -1.
        -11    1    4    4    0    0  0.16879856339E+02 -0.35720304458E+01  0.11276135679E+02  0.20611651745E+02  0.51100000000E-03 0.  1.
        -12    1    4    4    0    0 -0.81953719342E+01 -0.13817167555E+02  0.22086271327E+02  0.27310833410E+02  0.00000000000E+00 0.  1.
</event>
<event>
 8    1  0.2501893E-006  0.9118800E+02  0.7816164E-02  0.1184000E+00
        -11   -1    0    0    0    0  0.00000000000E+00  0.00000000000E+00  0.45593999997E+02  0.45594000000E+02  0.51100000000E-03 0.  1.
         11   -1    0    0    0    0 -0.00000000000E+00 -0.00000000000E+00 -0.45593999997E+02  0.45594000000E+02  0.51100000000E-03 0. -1.
         23    2    1    2    0    0  0.35527136788E-14  0.17763568394E-14  0.00000000000E+00  0.91188000000E+02  0.91188000000E+02 0.  0.
    9900012    2    3    3    0    0  0.26510030312E+02  0.10000850385E+02 -0.23515550903E+02  0.54367084071E+02  0.39999999758E+02 0.  0.
        -12    1    3    3    0    0 -0.26510030312E+02 -0.10000850385E+02  0.23515550903E+02  0.36820915929E+02  0.00000000000E+00 0.  1.
         11    1    4    4    0    0  0.72295784594E+01  0.17521848382E+02 -0.50308735254E+01  0.19611008748E+02  0.51100000000E-03 0. -1.
        -11    1    4    4    0    0  0.63782354697E+01 -0.44143145947E+01  0.39389664972E+01  0.86996274849E+01  0.51100000000E-03 0.  1.
        -12    1    4    4    0    0  0.12902216383E+02 -0.31066834023E+01 -0.22423643875E+02  0.26056447839E+02  0.00000000000E+00 0.  1.
</event>
<event>
 8    1  0.2501893E-006  0.9118800E+02  0.7816164E-02  0.1184000E+00
        -11   -1    0    0    0    0  0.00000000000E+00  0.00000000000E+00  0.45593999997E+02  0.45594000000E+02  0.51100000000E-03 0.  1.
         11   -1    0    0    0    0 -0.00000000000E+00 -0.00000000000E+00 -0.45593999997E+02  0.45594000000E+02  0.51100000000E-03 0. -1.
         23    2    1    2    0    0  0.00000000000E+00  0.00000000000E+00  0.35527136788E-14  0.91188000000E+02  0.91188000000E+02 0.  0.
    9900012    2    3    3    0    0  0.95978572542E+01  0.30999507147E+02 -0.17398033059E+02  0.54367083912E+02  0.39999999394E+02 0.  0.
        -12    1    3    3    0    0 -0.95978572542E+01 -0.30999507147E+02  0.17398033059E+02  0.36820916088E+02  0.00000000000E+00 0.  1.
         11    1    4    4    0    0  0.11951696037E+02  0.14724457972E+02 -0.11318007620E+02  0.22085062769E+02  0.51100000000E-03 0. -1.
        -11    1    4    4    0    0 -0.11713252662E+02  0.12874712858E+02  0.42675164203E+01  0.17921222497E+02  0.51100000000E-03 0.  1.
        -12    1    4    4    0    0  0.93594138795E+01  0.34003363166E+01 -0.10347541859E+02  0.14360798646E+02  0.00000000000E+00 0.  1.
</event>
<event>
 8    1  0.2501893E-006  0.9118800E+02  0.7816164E-02  0.1184000E+00
        -11   -1    0    0    0    0  0.00000000000E+00  0.00000000000E+00  0.45593999997E+02  0.45594000000E+02  0.51100000000E-03 0. -1.
         11   -1    0    0    0    0 -0.00000000000E+00 -0.00000000000E+00 -0.45593999997E+02  0.45594000000E+02  0.51100000000E-03 0.  1.
         23    2    1    2    0    0 -0.17763568394E-14  0.00000000000E+00  0.00000000000E+00  0.91188000000E+02  0.91188000000E+02 0.  0.
    9900012    2    3    3    0    0 -0.54124325216E+01 -0.98372934435E+01  0.35067274009E+02  0.54367075588E+02  0.39999980418E+02 0.  0.
        -12    1    3    3    0    0  0.54124325216E+01  0.98372934435E+01 -0.35067274009E+02  0.36820924412E+02  0.00000000000E+00 0.  1.
         11    1    4    4    0    0 -0.74289458950E+01 -0.19579465255E+02  0.17011413590E+02  0.26980231455E+02  0.51100000000E-03 0. -1.
        -11    1    4    4    0    0  0.24294946026E+01 -0.46496577699E+01  0.88794848936E+01  0.10313438497E+02  0.51100000000E-03 0.  1.
        -12    1    4    4    0    0 -0.41298122931E+00  0.14391829582E+02  0.91763755263E+01  0.17073405636E+02  0.00000000000E+00 0.  1.
</event>
<event>
 8    1  0.2501893E-006  0.9118800E+02  0.7816164E-02  0.1184000E+00
        -11   -1    0    0    0    0  0.00000000000E+00  0.00000000000E+00  0.45593999997E+02  0.45594000000E+02  0.51100000000E-03 0.  1.
         11   -1    0    0    0    0 -0.00000000000E+00 -0.00000000000E+00 -0.45593999997E+02  0.45594000000E+02  0.51100000000E-03 0. -1.
         23    2    1    2    0    0  0.00000000000E+00  0.00000000000E+00  0.00000000000E+00  0.91188000000E+02  0.91188000000E+02 0.  0.
    9900012    2    3    3    0    0  0.30059539306E+02 -0.87292328754E+01  0.19390783998E+02  0.54367110359E+02  0.40000059686E+02 0.  0.
         12    1    3    3    0    0 -0.30059539306E+02  0.87292328754E+01 -0.19390783998E+02  0.36820889641E+02  0.00000000000E+00 0. -1.
         11    1    4    4    0    0  0.17110681296E+02 -0.13450992739E+02 -0.37423313025E+01  0.22084149608E+02  0.51100000000E-03 0. -1.
        -11    1    4    4    0    0  0.12574247601E+02  0.11852040775E+01  0.46468097267E+01  0.13457683766E+02  0.51100000000E-03 0.  1.
        -12    1    4    4    0    0  0.37461040832E+00  0.35365557861E+01  0.18486305574E+02  0.18825276985E+02  0.00000000000E+00 0.  1.
</event>
<event>
 8    1  0.2501893E-006  0.9118800E+02  0.7816164E-02  0.1184000E+00
        -11   -1    0    0    0    0  0.00000000000E+00  0.00000000000E+00  0.45593999997E+02  0.45594000000E+02  0.51100000000E-03 0. -1.
         11   -1    0    0    0    0 -0.00000000000E+00 -0.00000000000E+00 -0.45593999997E+02  0.45594000000E+02  0.51100000000E-03 0.  1.
         23    2    1    2    0    0  0.00000000000E+00 -0.35527136788E-14  0.00000000000E+00  0.91188000000E+02  0.91188000000E+02 0.  0.
    9900012    2    3    3    0    0 -0.18627377413E+02  0.22242499400E+02 -0.22673128745E+02  0.54367099197E+02  0.40000034239E+02 0.  0.
         12    1    3    3    0    0  0.18627377413E+02 -0.22242499400E+02  0.22673128745E+02  0.36820900803E+02  0.00000000000E+00 0. -1.
         11    1    4    4    0    0  0.21649196526E+01  0.13087880647E+01  0.14676438834E+01  0.29246849626E+01  0.51100000000E-03 0. -1.
        -11    1    4    4    0    0  0.59937160229E+01  0.17216444644E+02 -0.76633453429E+01  0.19775172820E+02  0.51100000000E-03 0.  1.
        -12    1    4    4    0    0 -0.26786013089E+02  0.37172666916E+01 -0.16477427285E+02  0.31667241414E+02  0.00000000000E+00 0.  1.
</event>
<event>
 8    1  0.2501893E-006  0.9118800E+02  0.7816164E-02  0.1184000E+00
        -11   -1    0    0    0    0  0.00000000000E+00  0.00000000000E+00  0.45593999997E+02  0.45594000000E+02  0.51100000000E-03 0. -1.
         11   -1    0    0    0    0 -0.00000000000E+00 -0.00000000000E+00 -0.45593999997E+02  0.45594000000E+02  0.51100000000E-03 0.  1.
         23    2    1    2    0    0 -0.35527136788E-14  0.00000000000E+00  0.00000000000E+00  0.91188000000E+02  0.91188000000E+02 0.  0.
    9900012    2    3    3    0    0 -0.26032135762E+02 -0.19225197801E+02 -0.17564119575E+02  0.54367100781E+02  0.40000037851E+02 0.  0.
         12    1    3    3    0    0  0.26032135762E+02  0.19225197801E+02  0.17564119575E+02  0.36820899219E+02  0.00000000000E+00 0. -1.
         11    1    4    4    0    0 -0.12589181857E+02 -0.92747983466E+01  0.11006256951E+02  0.19121900442E+02  0.51100000000E-03 0. -1.
        -11    1    4    4    0    0 -0.11009934447E+02 -0.32141412858E+01 -0.95629652130E+01  0.14933173295E+02  0.51100000000E-03 0.  1.
        -12    1    4    4    0    0 -0.24330194585E+01 -0.67362581684E+01 -0.19007411313E+02  0.20312027044E+02  0.00000000000E+00 0.  1.
</event>
<event>
 8    1  0.2501893E-006  0.9118800E+02  0.7816164E-02  0.1184000E+00
        -11   -1    0    0    0    0  0.00000000000E+00  0.00000000000E+00  0.45593999997E+02  0.45594000000E+02  0.51100000000E-03 0. -1.
         11   -1    0    0    0    0 -0.00000000000E+00 -0.00000000000E+00 -0.45593999997E+02  0.45594000000E+02  0.51100000000E-03 0.  1.
         23    2    1    2    0    0  0.88817841970E-15  0.00000000000E+00 -0.71054273576E-14  0.91188000000E+02  0.91188000000E+02 0.  0.
    9900012    2    3    3    0    0  0.52894475374E+01  0.50468905414E+01 -0.36087813047E+02  0.54367087329E+02  0.40000007184E+02 0.  0.
         12    1    3    3    0    0 -0.52894475374E+01 -0.50468905414E+01  0.36087813047E+02  0.36820912671E+02  0.00000000000E+00 0. -1.
         11    1    4    4    0    0  0.40747472703E+01 -0.10767734091E+02  0.51495144742E+00  0.11524445238E+02  0.51100000000E-03 0. -1.
        -11    1    4    4    0    0 -0.52581630045E+01  0.11848749480E+00 -0.77824790892E+01  0.93930452199E+01  0.51100000000E-03 0.  1.
        -12    1    4    4    0    0  0.64728632716E+01  0.15696137138E+02 -0.28820285406E+02  0.33449596871E+02  0.00000000000E+00 0.  1.
</event>
<event>
 8    1  0.2501893E-006  0.9118800E+02  0.7816164E-02  0.1184000E+00
        -11   -1    0    0    0    0  0.00000000000E+00  0.00000000000E+00  0.45593999997E+02  0.45594000000E+02  0.51100000000E-03 0. -1.
         11   -1    0    0    0    0 -0.00000000000E+00 -0.00000000000E+00 -0.45593999997E+02  0.45594000000E+02  0.51100000000E-03 0.  1.
         23    2    1    2    0    0  0.35527136788E-14  0.00000000000E+00  0.11102230246E-14  0.91188000000E+02  0.91188000000E+02 0.  0.
    9900012    2    3    3    0    0 -0.23728586554E+02 -0.28109444674E+02  0.16102758388E+01  0.54367086269E+02  0.40000004767E+02 0.  0.
        -12    1    3    3    0    0  0.23728586554E+02  0.28109444674E+02 -0.16102758388E+01  0.36820913731E+02  0.00000000000E+00 0.  1.
         11    1    4    4    0    0 -0.19629204888E+02 -0.89011110265E+01  0.11208111396E+02  0.24293151780E+02  0.51100000000E-03 0. -1.
        -11    1    4    4    0    0 -0.11160655306E+02 -0.18219584562E+02 -0.74381255669E+01  0.22623863522E+02  0.51100000000E-03 0.  1.
         12    1    4    4    0    0  0.70612736396E+01 -0.98874908499E+00 -0.21597099906E+01  0.74500709668E+01  0.00000000000E+00 0. -1.
</event>
<event>
 8    1  0.2501893E-006  0.9118800E+02  0.7816164E-02  0.1184000E+00
        -11   -1    0    0    0    0  0.00000000000E+00  0.00000000000E+00  0.45593999997E+02  0.45594000000E+02  0.51100000000E-03 0.  1.
         11   -1    0    0    0    0 -0.00000000000E+00 -0.00000000000E+00 -0.45593999997E+02  0.45594000000E+02  0.51100000000E-03 0. -1.
         23    2    1    2    0    0  0.00000000000E+00  0.00000000000E+00  0.00000000000E+00  0.91188000000E+02  0.91188000000E+02 0.  0.
    9900012    2    3    3    0    0 -0.20574901388E+02  0.13465406172E+02 -0.27406718953E+02  0.54367191015E+02  0.40000243557E+02 0.  0.
         12    1    3    3    0    0  0.20574901388E+02 -0.13465406172E+02  0.27406718953E+02  0.36820808985E+02  0.00000000000E+00 0. -1.
         11    1    4    4    0    0 -0.21420969269E+01  0.61089533009E+01 -0.11488598523E+01  0.65747828023E+01  0.51100000000E-03 0. -1.
        -11    1    4    4    0    0 -0.75702252301E+01  0.15239872277E+02  0.13754255441E+01  0.17072018415E+02  0.51100000000E-03 0.  1.
         12    1    4    4    0    0 -0.10862579231E+02 -0.78834194065E+01 -0.27633284645E+02  0.30720389798E+02  0.00000000000E+00 0. -1.
</event>
<event>
 8    1  0.2501893E-006  0.9118800E+02  0.7816164E-02  0.1184000E+00
        -11   -1    0    0    0    0  0.00000000000E+00  0.00000000000E+00  0.45593999997E+02  0.45594000000E+02  0.51100000000E-03 0.  1.
         11   -1    0    0    0    0 -0.00000000000E+00 -0.00000000000E+00 -0.45593999997E+02  0.45594000000E+02  0.51100000000E-03 0. -1.
         23    2    1    2    0    0  0.00000000000E+00 -0.71054273576E-14  0.88817841970E-15  0.91188000000E+02  0.91188000000E+02 0.  0.
    9900012    2    3    3    0    0  0.87460525466E+01  0.35091457083E+02  0.69192594363E+01  0.54367082758E+02  0.39999996764E+02 0.  0.
        -12    1    3    3    0    0 -0.87460525466E+01 -0.35091457083E+02 -0.69192594363E+01  0.36820917242E+02  0.00000000000E+00 0.  1.
         11    1    4    4    0    0 -0.31768007949E+01  0.22733422187E+02 -0.12236001565E+02  0.26011925769E+02  0.51100000000E-03 0. -1.
        -11    1    4    4    0    0  0.11159658965E+02  0.14048460129E+02  0.13643767512E+02  0.22539955909E+02  0.51100000000E-03 0.  1.
        -12    1    4    4    0    0  0.76319437638E+00 -0.16904252326E+01  0.55114934894E+01  0.58152010805E+01  0.00000000000E+00 0.  1.
</event>
<event>
 8    1  0.2501893E-006  0.9118800E+02  0.7816164E-02  0.1184000E+00
        -11   -1    0    0    0    0  0.00000000000E+00  0.00000000000E+00  0.45593999997E+02  0.45594000000E+02  0.51100000000E-03 0.  1.
         11   -1    0    0    0    0 -0.00000000000E+00 -0.00000000000E+00 -0.45593999997E+02  0.45594000000E+02  0.51100000000E-03 0. -1.
         23    2    1    2    0    0  0.00000000000E+00  0.00000000000E+00 -0.44408920985E-15  0.91188000000E+02  0.91188000000E+02 0.  0.
    9900012    2    3    3    0    0 -0.33186863876E+02  0.15915907875E+02 -0.10462674908E+01  0.54367099235E+02  0.40000034327E+02 0.  0.
        -12    1    3    3    0    0  0.33186863876E+02 -0.15915907875E+02  0.10462674908E+01  0.36820900765E+02  0.00000000000E+00 0.  1.
         11    1    4    4    0    0 -0.18233476986E+02 -0.36055463734E+01  0.65583714235E+01  0.19709690095E+02  0.51100000000E-03 0.  1.
        -11    1    4    4    0    0  0.89089719294E+00  0.17570153324E+02 -0.18578776171E+01  0.17690553839E+02  0.51100000000E-03 0. -1.
         12    1    4    4    0    0 -0.15844284083E+02  0.19513009249E+01 -0.57467612972E+01  0.16966855301E+02  0.00000000000E+00 0. -1.
</event>
<event>
 8    1  0.2501893E-006  0.9118800E+02  0.7816164E-02  0.1184000E+00
        -11   -1    0    0    0    0  0.00000000000E+00  0.00000000000E+00  0.45593999997E+02  0.45594000000E+02  0.51100000000E-03 0.  1.
         11   -1    0    0    0    0 -0.00000000000E+00 -0.00000000000E+00 -0.45593999997E+02  0.45594000000E+02  0.51100000000E-03 0. -1.
         23    2    1    2    0    0  0.00000000000E+00  0.35527136788E-14  0.00000000000E+00  0.91188000000E+02  0.91188000000E+02 0.  0.
    9900012    2    3    3    0    0 -0.24333390345E+02 -0.17662776647E+02  0.21253274784E+02  0.54366956375E+02  0.39999708647E+02 0.  0.
         12    1    3    3    0    0  0.24333390345E+02  0.17662776647E+02 -0.21253274784E+02  0.36821043625E+02  0.00000000000E+00 0. -1.
         11    1    4    4    0    0 -0.28566352834E+02 -0.25285340215E+02  0.15938776319E+02  0.41345248032E+02  0.51100000000E-03 0. -1.
        -11    1    4    4    0    0 -0.23208448234E+00  0.20208728106E+01  0.54913892414E+01  0.58560350226E+01  0.51100000000E-03 0.  1.
         12    1    4    4    0    0  0.44650469711E+01  0.56016907568E+01 -0.17689077656E+00  0.71656733205E+01  0.00000000000E+00 0. -1.
</event>
<event>
 8    1  0.2501893E-006  0.9118800E+02  0.7816164E-02  0.1184000E+00
        -11   -1    0    0    0    0  0.00000000000E+00  0.00000000000E+00  0.45593999997E+02  0.45594000000E+02  0.51100000000E-03 0. -1.
         11   -1    0    0    0    0 -0.00000000000E+00 -0.00000000000E+00 -0.45593999997E+02  0.45594000000E+02  0.51100000000E-03 0.  1.
         23    2    1    2    0    0  0.00000000000E+00 -0.35527136788E-14 -0.17763568394E-14  0.91188000000E+02  0.91188000000E+02 0.  0.
    9900012    2    3    3    0    0 -0.22117931969E+02  0.25659559155E+02  0.14427815302E+02  0.54367112653E+02  0.40000064916E+02 0.  0.
        -12    1    3    3    0    0  0.22117931969E+02 -0.25659559155E+02 -0.14427815302E+02  0.36820887347E+02  0.00000000000E+00 0.  1.
         11    1    4    4    0    0  0.17218529718E+01 -0.67260209022E+01  0.45091656302E+00  0.69575470420E+01  0.51100000000E-03 0. -1.
        -11    1    4    4    0    0 -0.12031839427E+02  0.75829750330E+01  0.13975785711E+02  0.19939640339E+02  0.51100000000E-03 0.  1.
        -12    1    4    4    0    0 -0.11807945514E+02  0.24802605024E+02  0.11130282615E-02  0.27469925272E+02  0.00000000000E+00 0.  1.
</event>
<event>
 8    1  0.2501893E-006  0.9118800E+02  0.7816164E-02  0.1184000E+00
        -11   -1    0    0    0    0  0.00000000000E+00  0.00000000000E+00  0.45593999997E+02  0.45594000000E+02  0.51100000000E-03 0. -1.
         11   -1    0    0    0    0 -0.00000000000E+00 -0.00000000000E+00 -0.45593999997E+02  0.45594000000E+02  0.51100000000E-03 0.  1.
         23    2    1    2    0    0  0.88817841970E-15  0.11102230246E-14  0.00000000000E+00  0.91188000000E+02  0.91188000000E+02 0.  0.
    9900012    2    3    3    0    0  0.33775734909E+01 -0.60517389382E+00  0.36660629272E+02  0.54367136665E+02  0.40000119655E+02 0.  0.
        -12    1    3    3    0    0 -0.33775734909E+01  0.60517389382E+00 -0.36660629272E+02  0.36820863335E+02  0.00000000000E+00 0.  1.
         11    1    4    4    0    0  0.13288219652E+01  0.84546746490E+01  0.12717258828E+02  0.15328925716E+02  0.51100000000E-03 0. -1.
        -11    1    4    4    0    0 -0.74055550987E+01  0.57455264521E+01  0.38635202884E-01  0.93730898572E+01  0.51100000000E-03 0.  1.
         12    1    4    4    0    0  0.94543066244E+01 -0.14805374995E+02  0.23904735241E+02  0.29665121092E+02  0.00000000000E+00 0. -1.
</event>
<event>
 8    1  0.2501893E-006  0.9118800E+02  0.7816164E-02  0.1184000E+00
        -11   -1    0    0    0    0  0.00000000000E+00  0.00000000000E+00  0.45593999997E+02  0.45594000000E+02  0.51100000000E-03 0. -1.
         11   -1    0    0    0    0 -0.00000000000E+00 -0.00000000000E+00 -0.45593999997E+02  0.45594000000E+02  0.51100000000E-03 0.  1.
         23    2    1    2    0    0  0.00000000000E+00  0.88817841970E-15 -0.35527136788E-14  0.91188000000E+02  0.91188000000E+02 0.  0.
    9900012    2    3    3    0    0 -0.21547079364E+02  0.60501499767E+01  0.29238694097E+02  0.54367052479E+02  0.39999927737E+02 0.  0.
        -12    1    3    3    0    0  0.21547079364E+02 -0.60501499767E+01 -0.29238694097E+02  0.36820947521E+02  0.00000000000E+00 0.  1.
         11    1    4    4    0    0 -0.13437249099E+02  0.78678400067E+00 -0.56760646079E+01  0.14608093719E+02  0.51100000000E-03 0. -1.
        -11    1    4    4    0    0 -0.83933933176E+01  0.17817815988E+01  0.56209648008E+01  0.10257633382E+02  0.51100000000E-03 0.  1.
        -12    1    4    4    0    0  0.28356305262E+00  0.34815843772E+01  0.29293793904E+02  0.29501325378E+02  0.00000000000E+00 0.  1.
</event>
<event>
 8    1  0.2501893E-006  0.9118800E+02  0.7816164E-02  0.1184000E+00
        -11   -1    0    0    0    0  0.00000000000E+00  0.00000000000E+00  0.45593999997E+02  0.45594000000E+02  0.51100000000E-03 0.  1.
         11   -1    0    0    0    0 -0.00000000000E+00 -0.00000000000E+00 -0.45593999997E+02  0.45594000000E+02  0.51100000000E-03 0. -1.
         23    2    1    2    0    0 -0.35527136788E-14  0.00000000000E+00  0.00000000000E+00  0.91188000000E+02  0.91188000000E+02 0.  0.
    9900012    2    3    3    0    0  0.28351818985E+02 -0.10790639111E+02  0.20869106766E+02  0.54367039266E+02  0.39999897614E+02 0.  0.
         12    1    3    3    0    0 -0.28351818985E+02  0.10790639111E+02 -0.20869106766E+02  0.36820960734E+02  0.00000000000E+00 0. -1.
         11    1    4    4    0    0  0.58356944964E+01  0.14306870371E+02  0.49676081850E+01  0.16230187966E+02  0.51100000000E-03 0. -1.
        -11    1    4    4    0    0  0.16892530004E+02 -0.23260118016E+02  0.13119287043E+02  0.31599151141E+02  0.51100000000E-03 0.  1.
         12    1    4    4    0    0  0.56235944840E+01 -0.18373914670E+01  0.27822115376E+01  0.65377001585E+01  0.00000000000E+00 0. -1.
</event>
<event>
 8    1  0.2501893E-006  0.9118800E+02  0.7816164E-02  0.1184000E+00
        -11   -1    0    0    0    0  0.00000000000E+00  0.00000000000E+00  0.45593999997E+02  0.45594000000E+02  0.51100000000E-03 0.  1.
         11   -1    0    0    0    0 -0.00000000000E+00 -0.00000000000E+00 -0.45593999997E+02  0.45594000000E+02  0.51100000000E-03 0. -1.
         23    2    1    2    0    0  0.17763568394E-14 -0.35527136788E-14  0.00000000000E+00  0.91188000000E+02  0.91188000000E+02 0.  0.
    9900012    2    3    3    0    0 -0.15067844871E+02 -0.31989021339E+02 -0.10268508037E+02  0.54367086206E+02  0.40000004624E+02 0.  0.
        -12    1    3    3    0    0  0.15067844871E+02  0.31989021339E+02  0.10268508037E+02  0.36820913794E+02  0.00000000000E+00 0.  1.
         11    1    4    4    0    0 -0.20439125424E+02 -0.29777921006E+02 -0.14679467615E+02  0.38986782340E+02  0.51100000000E-03 0. -1.
        -11    1    4    4    0    0  0.27261663986E+01 -0.16325588964E+01  0.92800500618E+01  0.98090040877E+01  0.51100000000E-03 0.  1.
         12    1    4    4    0    0  0.26451141542E+01 -0.57854143720E+00 -0.48690904838E+01  0.55712997786E+01  0.00000000000E+00 0. -1.
</event>
<event>
 8    1  0.2501893E-006  0.9118800E+02  0.7816164E-02  0.1184000E+00
        -11   -1    0    0    0    0  0.00000000000E+00  0.00000000000E+00  0.45593999997E+02  0.45594000000E+02  0.51100000000E-03 0. -1.
         11   -1    0    0    0    0 -0.00000000000E+00 -0.00000000000E+00 -0.45593999997E+02  0.45594000000E+02  0.51100000000E-03 0.  1.
         23    2    1    2    0    0  0.00000000000E+00  0.88817841970E-15  0.35527136788E-14  0.91188000000E+02  0.91188000000E+02 0.  0.
    9900012    2    3    3    0    0 -0.31425505226E+02 -0.56594606030E+01 -0.18335441300E+02  0.54367078220E+02  0.39999986418E+02 0.  0.
         12    1    3    3    0    0  0.31425505226E+02  0.56594606030E+01  0.18335441300E+02  0.36820921780E+02  0.00000000000E+00 0. -1.
         11    1    4    4    0    0 -0.11044563604E+02  0.85609054559E+01 -0.43537314665E+01  0.14636477218E+02  0.51100000000E-03 0. -1.
        -11    1    4    4    0    0 -0.13705463920E+02  0.42333006201E+01  0.19204787599E+01  0.14472346539E+02  0.51100000000E-03 0.  1.
        -12    1    4    4    0    0 -0.66754777026E+01 -0.18453666679E+02 -0.15902188594E+02  0.25258254463E+02  0.00000000000E+00 0.  1.
</event>
<event>
 8    1  0.2501893E-006  0.9118800E+02  0.7816164E-02  0.1184000E+00
        -11   -1    0    0    0    0  0.00000000000E+00  0.00000000000E+00  0.45593999997E+02  0.45594000000E+02  0.51100000000E-03 0.  1.
         11   -1    0    0    0    0 -0.00000000000E+00 -0.00000000000E+00 -0.45593999997E+02  0.45594000000E+02  0.51100000000E-03 0. -1.
         23    2    1    2    0    0  0.00000000000E+00  0.00000000000E+00  0.17763568394E-14  0.91188000000E+02  0.91188000000E+02 0.  0.
    9900012    2    3    3    0    0 -0.20180041043E+02  0.26772254137E+02 -0.15224652229E+02  0.54367113488E+02  0.40000066818E+02 0.  0.
        -12    1    3    3    0    0  0.20180041043E+02 -0.26772254137E+02  0.15224652229E+02  0.36820886512E+02  0.00000000000E+00 0.  1.
         11    1    4    4    0    0 -0.85520997601E+01  0.73120667765E+01 -0.15702377816E+02  0.19317593023E+02  0.51100000000E-03 0. -1.
        -11    1    4    4    0    0  0.55097348844E+01  0.37930586250E+00 -0.64419060757E+01  0.84852345626E+01  0.51100000000E-03 0.  1.
         12    1    4    4    0    0 -0.17137676167E+02  0.19080881498E+02  0.69196316628E+01  0.26564285902E+02  0.00000000000E+00 0. -1.
</event>
<event>
 8    1  0.2501893E-006  0.9118800E+02  0.7816164E-02  0.1184000E+00
        -11   -1    0    0    0    0  0.00000000000E+00  0.00000000000E+00  0.45593999997E+02  0.45594000000E+02  0.51100000000E-03 0.  1.
         11   -1    0    0    0    0 -0.00000000000E+00 -0.00000000000E+00 -0.45593999997E+02  0.45594000000E+02  0.51100000000E-03 0. -1.
         23    2    1    2    0    0  0.00000000000E+00  0.35527136788E-14  0.00000000000E+00  0.91188000000E+02  0.91188000000E+02 0.  0.
    9900012    2    3    3    0    0  0.25864724283E+02 -0.26077749318E+02  0.25975233563E+01  0.54367080684E+02  0.39999992034E+02 0.  0.
         12    1    3    3    0    0 -0.25864724283E+02  0.26077749318E+02 -0.25975233563E+01  0.36820919316E+02  0.00000000000E+00 0. -1.
         11    1    4    4    0    0  0.19805683849E+02 -0.14033469696E+02  0.12754032686E+02  0.27420224916E+02  0.51100000000E-03 0.  1.
        -11    1    4    4    0    0  0.98335045048E+01 -0.54527911169E+01  0.31042436188E+01  0.11664779060E+02  0.51100000000E-03 0. -1.
         12    1    4    4    0    0 -0.37744640709E+01 -0.65914885051E+01 -0.13260752948E+02  0.15282076707E+02  0.00000000000E+00 0. -1.
</event>
<event>
 8    1  0.2501893E-006  0.9118800E+02  0.7816164E-02  0.1184000E+00
        -11   -1    0    0    0    0  0.00000000000E+00  0.00000000000E+00  0.45593999997E+02  0.45594000000E+02  0.51100000000E-03 0. -1.
         11   -1    0    0    0    0 -0.00000000000E+00 -0.00000000000E+00 -0.45593999997E+02  0.45594000000E+02  0.51100000000E-03 0.  1.
         23    2    1    2    0    0  0.35527136788E-14  0.00000000000E+00  0.00000000000E+00  0.91188000000E+02  0.91188000000E+02 0.  0.
    9900012    2    3    3    0    0  0.30581082657E+02  0.19367999593E+02  0.67423073910E+01  0.54367072069E+02  0.39999972397E+02 0.  0.
        -12    1    3    3    0    0 -0.30581082657E+02 -0.19367999593E+02 -0.67423073910E+01  0.36820927931E+02  0.00000000000E+00 0.  1.
         11    1    4    4    0    0 -0.58682959360E+01 -0.57626849113E+01  0.18298261376E+01  0.84257758416E+01  0.51100000000E-03 0. -1.
        -11    1    4    4    0    0  0.78219004221E+01  0.88396995604E+01 -0.27586056418E+01  0.12121564251E+02  0.51100000000E-03 0.  1.
         12    1    4    4    0    0  0.28627478171E+02  0.16290984944E+02  0.76710868952E+01  0.33819731977E+02  0.00000000000E+00 0. -1.
</event>
<event>
 8    1  0.2501893E-006  0.9118800E+02  0.7816164E-02  0.1184000E+00
        -11   -1    0    0    0    0  0.00000000000E+00  0.00000000000E+00  0.45593999997E+02  0.45594000000E+02  0.51100000000E-03 0. -1.
         11   -1    0    0    0    0 -0.00000000000E+00 -0.00000000000E+00 -0.45593999997E+02  0.45594000000E+02  0.51100000000E-03 0.  1.
         23    2    1    2    0    0 -0.22204460493E-15  0.00000000000E+00  0.00000000000E+00  0.91188000000E+02  0.91188000000E+02 0.  0.
    9900012    2    3    3    0    0 -0.86403370223E+00 -0.22712052434E+02 -0.28968874671E+02  0.54367087740E+02  0.40000008121E+02 0.  0.
         12    1    3    3    0    0  0.86403370223E+00  0.22712052434E+02  0.28968874671E+02  0.36820912260E+02  0.00000000000E+00 0. -1.
         11    1    4    4    0    0  0.14461716591E+02 -0.62630277782E+01 -0.23811707201E+02  0.28554582185E+02  0.51100000000E-03 0. -1.
        -11    1    4    4    0    0 -0.77445997102E+01 -0.81715691495E+01  0.33298279626E+01  0.11740575861E+02  0.51100000000E-03 0.  1.
        -12    1    4    4    0    0 -0.75811505830E+01 -0.82774555060E+01 -0.84869954325E+01  0.14071929693E+02  0.00000000000E+00 0.  1.
</event>
<event>
 8    1  0.2501893E-006  0.9118800E+02  0.7816164E-02  0.1184000E+00
        -11   -1    0    0    0    0  0.00000000000E+00  0.00000000000E+00  0.45593999997E+02  0.45594000000E+02  0.51100000000E-03 0. -1.
         11   -1    0    0    0    0 -0.00000000000E+00 -0.00000000000E+00 -0.45593999997E+02  0.45594000000E+02  0.51100000000E-03 0.  1.
         23    2    1    2    0    0  0.00000000000E+00 -0.35527136788E-14 -0.17763568394E-14  0.91188000000E+02  0.91188000000E+02 0.  0.
    9900012    2    3    3    0    0 -0.18606937849E+02  0.28145566264E+02 -0.14744096853E+02  0.54367089793E+02  0.40000012802E+02 0.  0.
         12    1    3    3    0    0  0.18606937849E+02 -0.28145566264E+02  0.14744096853E+02  0.36820910207E+02  0.00000000000E+00 0. -1.
         11    1    4    4    0    0 -0.18959791183E+02  0.30218412946E+01 -0.46225360840E+01  0.19747735228E+02  0.51100000000E-03 0. -1.
        -11    1    4    4    0    0 -0.96291110269E+01  0.12077485978E+02 -0.95954435783E+01  0.18184003532E+02  0.51100000000E-03 0.  1.
        -12    1    4    4    0    0  0.99819643608E+01  0.13046238991E+02 -0.52611719041E+00  0.16435351034E+02  0.00000000000E+00 0.  1.
</event>
<event>
 8    1  0.2501893E-006  0.9118800E+02  0.7816164E-02  0.1184000E+00
        -11   -1    0    0    0    0  0.00000000000E+00  0.00000000000E+00  0.45593999997E+02  0.45594000000E+02  0.51100000000E-03 0. -1.
         11   -1    0    0    0    0 -0.00000000000E+00 -0.00000000000E+00 -0.45593999997E+02  0.45594000000E+02  0.51100000000E-03 0.  1.
         23    2    1    2    0    0  0.35527136788E-14  0.00000000000E+00  0.00000000000E+00  0.91188000000E+02  0.91188000000E+02 0.  0.
    9900012    2    3    3    0    0  0.19178325598E+02 -0.25659743029E+02  0.18153533198E+02  0.54367063665E+02  0.39999953236E+02 0.  0.
        -12    1    3    3    0    0 -0.19178325598E+02  0.25659743029E+02 -0.18153533198E+02  0.36820936335E+02  0.00000000000E+00 0.  1.
         11    1    4    4    0    0  0.16276984705E+02 -0.82289855029E+01  0.70460977336E+00  0.18252476782E+02  0.51100000000E-03 0. -1.
        -11    1    4    4    0    0 -0.12535193588E+01  0.68609608241E+01  0.37586092594E+01  0.79228301785E+01  0.51100000000E-03 0.  1.
         12    1    4    4    0    0  0.41548602521E+01 -0.24291718350E+02  0.13690314166E+02  0.28191756704E+02  0.00000000000E+00 0. -1.
</event>
<event>
 8    1  0.2501893E-006  0.9118800E+02  0.7816164E-02  0.1184000E+00
        -11   -1    0    0    0    0  0.00000000000E+00  0.00000000000E+00  0.45593999997E+02  0.45594000000E+02  0.51100000000E-03 0.  1.
         11   -1    0    0    0    0 -0.00000000000E+00 -0.00000000000E+00 -0.45593999997E+02  0.45594000000E+02  0.51100000000E-03 0. -1.
         23    2    1    2    0    0  0.88817841970E-15 -0.71054273576E-14 -0.33306690739E-14  0.91188000000E+02  0.91188000000E+02 0.  0.
    9900012    2    3    3    0    0 -0.68223242559E+01  0.36164225691E+02 -0.11765661042E+01  0.54367086977E+02  0.40000006382E+02 0.  0.
        -12    1    3    3    0    0  0.68223242559E+01 -0.36164225691E+02  0.11765661042E+01  0.36820913023E+02  0.00000000000E+00 0.  1.
         11    1    4    4    0    0  0.16267324700E+01  0.14880251205E+01 -0.59060990926E+01  0.63041640239E+01  0.51100000000E-03 0. -1.
        -11    1    4    4    0    0 -0.76866039934E+01  0.33170678737E+02  0.15321043039E+02  0.37337811517E+02  0.51100000000E-03 0.  1.
        -12    1    4    4    0    0 -0.76245273237E+00  0.15055218332E+01 -0.10591510051E+02  0.10725111436E+02  0.00000000000E+00 0.  1.
</event>
<event>
 8    1  0.2501893E-006  0.9118800E+02  0.7816164E-02  0.1184000E+00
        -11   -1    0    0    0    0  0.00000000000E+00  0.00000000000E+00  0.45593999997E+02  0.45594000000E+02  0.51100000000E-03 0.  1.
         11   -1    0    0    0    0 -0.00000000000E+00 -0.00000000000E+00 -0.45593999997E+02  0.45594000000E+02  0.51100000000E-03 0. -1.
         23    2    1    2    0    0  0.00000000000E+00  0.00000000000E+00  0.17763568394E-14  0.91188000000E+02  0.91188000000E+02 0.  0.
    9900012    2    3    3    0    0  0.14134168718E+02 -0.30907652824E+02 -0.14167554762E+02  0.54367118202E+02  0.40000077564E+02 0.  0.
        -12    1    3    3    0    0 -0.14134168718E+02  0.30907652824E+02  0.14167554762E+02  0.36820881798E+02  0.00000000000E+00 0.  1.
         11    1    4    4    0    0  0.15371449324E+01  0.96705499313E+00 -0.14655706804E+02  0.14767794422E+02  0.51100000000E-03 0. -1.
        -11    1    4    4    0    0  0.57082999679E+01 -0.28502899654E+02  0.65804995497E+01  0.29804411617E+02  0.51100000000E-03 0.  1.
         12    1    4    4    0    0  0.68887238176E+01 -0.33718081632E+01 -0.60923475078E+01  0.97949121630E+01  0.00000000000E+00 0. -1.
</event>
<event>
 8    1  0.2501893E-006  0.9118800E+02  0.7816164E-02  0.1184000E+00
        -11   -1    0    0    0    0  0.00000000000E+00  0.00000000000E+00  0.45593999997E+02  0.45594000000E+02  0.51100000000E-03 0.  1.
         11   -1    0    0    0    0 -0.00000000000E+00 -0.00000000000E+00 -0.45593999997E+02  0.45594000000E+02  0.51100000000E-03 0. -1.
         23    2    1    2    0    0  0.00000000000E+00  0.88817841970E-15  0.88817841970E-15  0.91188000000E+02  0.91188000000E+02 0.  0.
    9900012    2    3    3    0    0 -0.36245485089E+02  0.14610530384E+01 -0.63175997444E+01  0.54367055799E+02  0.39999935305E+02 0.  0.
        -12    1    3    3    0    0  0.36245485089E+02 -0.14610530384E+01  0.63175997444E+01  0.36820944201E+02  0.00000000000E+00 0.  1.
         11    1    4    4    0    0 -0.71258161938E+01 -0.12094886352E+01 -0.69379825247E+00  0.72609555475E+01  0.51100000000E-03 0. -1.
        -11    1    4    4    0    0 -0.34810885873E+02  0.93603128722E+01 -0.98359278175E+01  0.37365207194E+02  0.51100000000E-03 0.  1.
         12    1    4    4    0    0  0.56912169781E+01 -0.66897711986E+01  0.42121263256E+01  0.97408930578E+01  0.00000000000E+00 0. -1.
</event>
<event>
 8    1  0.2501893E-006  0.9118800E+02  0.7816164E-02  0.1184000E+00
        -11   -1    0    0    0    0  0.00000000000E+00  0.00000000000E+00  0.45593999997E+02  0.45594000000E+02  0.51100000000E-03 0.  1.
         11   -1    0    0    0    0 -0.00000000000E+00 -0.00000000000E+00 -0.45593999997E+02  0.45594000000E+02  0.51100000000E-03 0. -1.
         23    2    1    2    0    0  0.00000000000E+00  0.88817841970E-15  0.00000000000E+00  0.91188000000E+02  0.91188000000E+02 0.  0.
    9900012    2    3    3    0    0 -0.29187949276E+02 -0.73385229711E+01 -0.21213039981E+02  0.54367036303E+02  0.39999890861E+02 0.  0.
        -12    1    3    3    0    0  0.29187949276E+02  0.73385229711E+01  0.21213039981E+02  0.36820963697E+02  0.00000000000E+00 0.  1.
         11    1    4    4    0    0  0.11079946458E+01  0.97857191474E+00  0.49096631078E+00  0.15576595606E+01  0.51100000000E-03 0. -1.
        -11    1    4    4    0    0 -0.61621282734E+01 -0.15013656696E+02  0.42141337243E+01  0.16767248896E+02  0.51100000000E-03 0.  1.
         12    1    4    4    0    0 -0.24133815648E+02  0.66965618102E+01 -0.25918140016E+02  0.36042127846E+02  0.00000000000E+00 0. -1.
</event>
<event>
 8    1  0.2501893E-006  0.9118800E+02  0.7816164E-02  0.1184000E+00
        -11   -1    0    0    0    0  0.00000000000E+00  0.00000000000E+00  0.45593999997E+02  0.45594000000E+02  0.51100000000E-03 0.  1.
         11   -1    0    0    0    0 -0.00000000000E+00 -0.00000000000E+00 -0.45593999997E+02  0.45594000000E+02  0.51100000000E-03 0. -1.
         23    2    1    2    0    0  0.00000000000E+00  0.17763568394E-14  0.00000000000E+00  0.91188000000E+02  0.91188000000E+02 0.  0.
    9900012    2    3    3    0    0  0.28916530818E+02 -0.11953128363E+02 -0.19409712223E+02  0.54367082565E+02  0.39999996323E+02 0.  0.
        -12    1    3    3    0    0 -0.28916530818E+02  0.11953128363E+02  0.19409712223E+02  0.36820917435E+02  0.00000000000E+00 0.  1.
         11    1    4    4    0    0 -0.72836071296E+00 -0.91829979674E+00 -0.82802172627E+01  0.83627616266E+01  0.51100000000E-03 0. -1.
        -11    1    4    4    0    0  0.26675668574E+01  0.93944748465E+01 -0.67742730220E+01  0.11885404739E+02  0.51100000000E-03 0.  1.
        -12    1    4    4    0    0  0.26977324673E+02 -0.20429303413E+02 -0.43552219381E+01  0.34118916199E+02  0.00000000000E+00 0.  1.
</event>
<event>
 8    1  0.2501893E-006  0.9118800E+02  0.7816164E-02  0.1184000E+00
        -11   -1    0    0    0    0  0.00000000000E+00  0.00000000000E+00  0.45593999997E+02  0.45594000000E+02  0.51100000000E-03 0. -1.
         11   -1    0    0    0    0 -0.00000000000E+00 -0.00000000000E+00 -0.45593999997E+02  0.45594000000E+02  0.51100000000E-03 0.  1.
         23    2    1    2    0    0 -0.35527136788E-14  0.00000000000E+00  0.00000000000E+00  0.91188000000E+02  0.91188000000E+02 0.  0.
    9900012    2    3    3    0    0 -0.74143094509E+00  0.21271618987E+02 -0.30045809663E+02  0.54367052532E+02  0.39999927856E+02 0.  0.
         12    1    3    3    0    0  0.74143094509E+00 -0.21271618987E+02  0.30045809663E+02  0.36820947468E+02  0.00000000000E+00 0. -1.
         11    1    4    4    0    0 -0.37694050430E+01  0.12221563205E+01  0.19836986425E+01  0.44313813891E+01  0.51100000000E-03 0. -1.
        -11    1    4    4    0    0  0.16020459021E+02  0.19578397612E+02 -0.21738117627E+02  0.33354377802E+02  0.51100000000E-03 0.  1.
        -12    1    4    4    0    0 -0.12992484923E+02  0.47106505401E+00 -0.10291390678E+02  0.16581293341E+02  0.00000000000E+00 0.  1.
</event>
<event>
 8    1  0.2501893E-006  0.9118800E+02  0.7816164E-02  0.1184000E+00
        -11   -1    0    0    0    0  0.00000000000E+00  0.00000000000E+00  0.45593999997E+02  0.45594000000E+02  0.51100000000E-03 0. -1.
         11   -1    0    0    0    0 -0.00000000000E+00 -0.00000000000E+00 -0.45593999997E+02  0.45594000000E+02  0.51100000000E-03 0.  1.
         23    2    1    2    0    0  0.11102230246E-14 -0.35527136788E-14 -0.35527136788E-14  0.91188000000E+02  0.91188000000E+02 0.  0.
    9900012    2    3    3    0    0 -0.11557060517E+01  0.29537116591E+02  0.21954561376E+02  0.54367086402E+02  0.40000005070E+02 0.  0.
        -12    1    3    3    0    0  0.11557060517E+01 -0.29537116591E+02 -0.21954561376E+02  0.36820913598E+02  0.00000000000E+00 0.  1.
         11    1    4    4    0    0 -0.63406261089E+01  0.83674919065E+01  0.18725932796E+02  0.21468093059E+02  0.51100000000E-03 0. -1.
        -11    1    4    4    0    0  0.76150530587E+01  0.40328920462E+00  0.84160893609E+01  0.11357034633E+02  0.51100000000E-03 0.  1.
        -12    1    4    4    0    0 -0.24301330015E+01  0.20766335480E+02 -0.51874607813E+01  0.21541958709E+02  0.00000000000E+00 0.  1.
</event>
<event>
 8    1  0.2501893E-006  0.9118800E+02  0.7816164E-02  0.1184000E+00
        -11   -1    0    0    0    0  0.00000000000E+00  0.00000000000E+00  0.45593999997E+02  0.45594000000E+02  0.51100000000E-03 0.  1.
         11   -1    0    0    0    0 -0.00000000000E+00 -0.00000000000E+00 -0.45593999997E+02  0.45594000000E+02  0.51100000000E-03 0. -1.
         23    2    1    2    0    0  0.00000000000E+00  0.17763568394E-14  0.00000000000E+00  0.91188000000E+02  0.91188000000E+02 0.  0.
    9900012    2    3    3    0    0  0.22453069810E+02  0.15421656014E+02  0.24775249423E+02  0.54367071141E+02  0.39999970279E+02 0.  0.
         12    1    3    3    0    0 -0.22453069810E+02 -0.15421656014E+02 -0.24775249423E+02  0.36820928859E+02  0.00000000000E+00 0. -1.
         11    1    4    4    0    0  0.38669981480E+01 -0.19719032542E+00 -0.48100362321E+01  0.61748690283E+01  0.51100000000E-03 0. -1.
        -11    1    4    4    0    0  0.11190836456E+02 -0.72013707955E+01  0.61638613103E+01  0.14665870190E+02  0.51100000000E-03 0.  1.
        -12    1    4    4    0    0  0.73952352061E+01  0.22820217134E+02  0.23421424345E+02  0.33526331923E+02  0.00000000000E+00 0.  1.
</event>
<event>
 8    1  0.2501893E-006  0.9118800E+02  0.7816164E-02  0.1184000E+00
        -11   -1    0    0    0    0  0.00000000000E+00  0.00000000000E+00  0.45593999997E+02  0.45594000000E+02  0.51100000000E-03 0.  1.
         11   -1    0    0    0    0 -0.00000000000E+00 -0.00000000000E+00 -0.45593999997E+02  0.45594000000E+02  0.51100000000E-03 0. -1.
         23    2    1    2    0    0 -0.35527136788E-14 -0.35527136788E-14 -0.35527136788E-14  0.91188000000E+02  0.91188000000E+02 0.  0.
    9900012    2    3    3    0    0 -0.23554343607E+02 -0.22469928534E+02 -0.17206839355E+02  0.54367080515E+02  0.39999991651E+02 0.  0.
         12    1    3    3    0    0  0.23554343607E+02  0.22469928534E+02  0.17206839355E+02  0.36820919485E+02  0.00000000000E+00 0. -1.
         11    1    4    4    0    0 -0.36256984430E+01 -0.53621044058E+01  0.37681346904E+00  0.64838138091E+01  0.51100000000E-03 0. -1.
        -11    1    4    4    0    0 -0.15548424554E+02 -0.58730043578E+01  0.88493501484E+01  0.18829675637E+02  0.51100000000E-03 0.  1.
         12    1    4    4    0    0 -0.43802206102E+01 -0.11234819771E+02 -0.26433002972E+02  0.29053591069E+02  0.00000000000E+00 0. -1.
</event>
<event>
 8    1  0.2501893E-006  0.9118800E+02  0.7816164E-02  0.1184000E+00
        -11   -1    0    0    0    0  0.00000000000E+00  0.00000000000E+00  0.45593999997E+02  0.45594000000E+02  0.51100000000E-03 0.  1.
         11   -1    0    0    0    0 -0.00000000000E+00 -0.00000000000E+00 -0.45593999997E+02  0.45594000000E+02  0.51100000000E-03 0. -1.
         23    2    1    2    0    0 -0.17763568394E-14  0.80491169285E-15 -0.71054273576E-14  0.91188000000E+02  0.91188000000E+02 0.  0.
    9900012    2    3    3    0    0 -0.95514720672E+01  0.19084190271E+00 -0.35559980167E+02  0.54367092505E+02  0.40000018983E+02 0.  0.
        -12    1    3    3    0    0  0.95514720672E+01 -0.19084190271E+00  0.35559980167E+02  0.36820907495E+02  0.00000000000E+00 0.  1.
         11    1    4    4    0    0  0.49240361266E+01 -0.43550547844E+01 -0.93364865650E+01  0.11418520727E+02  0.51100000000E-03 0.  1.
        -11    1    4    4    0    0  0.22608205724E+01  0.41682673343E+01  0.53883142024E+01  0.71777219531E+01  0.51100000000E-03 0. -1.
         12    1    4    4    0    0 -0.16736328766E+02  0.37762935288E+00 -0.31611807805E+02  0.35770849825E+02  0.00000000000E+00 0. -1.
</event>
<event>
 8    1  0.2501893E-006  0.9118800E+02  0.7816164E-02  0.1184000E+00
        -11   -1    0    0    0    0  0.00000000000E+00  0.00000000000E+00  0.45593999997E+02  0.45594000000E+02  0.51100000000E-03 0. -1.
         11   -1    0    0    0    0 -0.00000000000E+00 -0.00000000000E+00 -0.45593999997E+02  0.45594000000E+02  0.51100000000E-03 0.  1.
         23    2    1    2    0    0  0.00000000000E+00  0.00000000000E+00  0.00000000000E+00  0.91188000000E+02  0.91188000000E+02 0.  0.
    9900012    2    3    3    0    0 -0.48218220006E+01 -0.81344022218E+01  0.35586020364E+02  0.54367037054E+02  0.39999892572E+02 0.  0.
        -12    1    3    3    0    0  0.48218220006E+01  0.81344022218E+01 -0.35586020364E+02  0.36820962946E+02  0.00000000000E+00 0.  1.
         11    1    4    4    0    0 -0.82768748920E+01 -0.45179798136E+01  0.30102940775E+02  0.31545298273E+02  0.51100000000E-03 0. -1.
        -11    1    4    4    0    0  0.94051758052E+01 -0.95170842584E+01  0.54343377770E+01  0.14441753773E+02  0.51100000000E-03 0.  1.
         12    1    4    4    0    0 -0.59501229138E+01  0.59006618502E+01  0.48741811894E-01  0.83799850074E+01  0.00000000000E+00 0. -1.
</event>
<event>
 8    1  0.2501893E-006  0.9118800E+02  0.7816164E-02  0.1184000E+00
        -11   -1    0    0    0    0  0.00000000000E+00  0.00000000000E+00  0.45593999997E+02  0.45594000000E+02  0.51100000000E-03 0. -1.
         11   -1    0    0    0    0 -0.00000000000E+00 -0.00000000000E+00 -0.45593999997E+02  0.45594000000E+02  0.51100000000E-03 0.  1.
         23    2    1    2    0    0  0.35527136788E-14  0.00000000000E+00 -0.35527136788E-14  0.91188000000E+02  0.91188000000E+02 0.  0.
    9900012    2    3    3    0    0 -0.31258436152E+02  0.79830916757E+01  0.17747107879E+02  0.54367089889E+02  0.40000013020E+02 0.  0.
        -12    1    3    3    0    0  0.31258436152E+02 -0.79830916757E+01 -0.17747107879E+02  0.36820910111E+02  0.00000000000E+00 0.  1.
         11    1    4    4    0    0 -0.13808422186E+01 -0.82673921425E+01  0.76722629242E+01  0.11363103305E+02  0.51100000000E-03 0. -1.
        -11    1    4    4    0    0 -0.34090922403E+02  0.15738890456E+02  0.87099636592E+01  0.38545649953E+02  0.51100000000E-03 0.  1.
        -12    1    4    4    0    0  0.42133284703E+01  0.51159336229E+00  0.13648812953E+01  0.44583366312E+01  0.00000000000E+00 0.  1.
</event>
<event>
 8    1  0.2501893E-006  0.9118800E+02  0.7816164E-02  0.1184000E+00
        -11   -1    0    0    0    0  0.00000000000E+00  0.00000000000E+00  0.45593999997E+02  0.45594000000E+02  0.51100000000E-03 0. -1.
         11   -1    0    0    0    0 -0.00000000000E+00 -0.00000000000E+00 -0.45593999997E+02  0.45594000000E+02  0.51100000000E-03 0.  1.
         23    2    1    2    0    0 -0.35527136788E-14  0.35527136788E-14  0.00000000000E+00  0.91188000000E+02  0.91188000000E+02 0.  0.
    9900012    2    3    3    0    0  0.22596122982E+02 -0.26544134420E+02  0.11857629562E+02  0.54367092559E+02  0.40000019107E+02 0.  0.
         12    1    3    3    0    0 -0.22596122982E+02  0.26544134420E+02 -0.11857629562E+02  0.36820907441E+02  0.00000000000E+00 0. -1.
         11    1    4    4    0    0  0.70547099115E+01  0.24297651669E+01  0.29970193724E+01  0.80408218536E+01  0.51100000000E-03 0. -1.
        -11    1    4    4    0    0  0.13649501339E+02 -0.40054960917E+01  0.14866760440E+02  0.20576040727E+02  0.51100000000E-03 0.  1.
         12    1    4    4    0    0  0.18919117313E+01 -0.24968403495E+02 -0.60061502502E+01  0.25750229978E+02  0.00000000000E+00 0. -1.
</event>
<event>
 8    1  0.2501893E-006  0.9118800E+02  0.7816164E-02  0.1184000E+00
        -11   -1    0    0    0    0  0.00000000000E+00  0.00000000000E+00  0.45593999997E+02  0.45594000000E+02  0.51100000000E-03 0.  1.
         11   -1    0    0    0    0 -0.00000000000E+00 -0.00000000000E+00 -0.45593999997E+02  0.45594000000E+02  0.51100000000E-03 0. -1.
         23    2    1    2    0    0  0.00000000000E+00  0.00000000000E+00 -0.17763568394E-14  0.91188000000E+02  0.91188000000E+02 0.  0.
    9900012    2    3    3    0    0 -0.30658120086E+02  0.18145941196E+02  0.93051053762E+01  0.54367075308E+02  0.39999979779E+02 0.  0.
        -12    1    3    3    0    0  0.30658120086E+02 -0.18145941196E+02 -0.93051053762E+01  0.36820924692E+02  0.00000000000E+00 0.  1.
         11    1    4    4    0    0 -0.13949584037E+02 -0.46222480696E+00 -0.14081992988E+02  0.19826927986E+02  0.51100000000E-03 0. -1.
        -11    1    4    4    0    0 -0.83600356332E+01  0.10614167301E+02  0.97396481496E+01  0.16655674397E+02  0.51100000000E-03 0.  1.
         12    1    4    4    0    0 -0.83485004161E+01  0.79939987029E+01  0.13647450215E+02  0.17884472925E+02  0.00000000000E+00 0. -1.
</event>
<event>
 8    1  0.2501893E-006  0.9118800E+02  0.7816164E-02  0.1184000E+00
        -11   -1    0    0    0    0  0.00000000000E+00  0.00000000000E+00  0.45593999997E+02  0.45594000000E+02  0.51100000000E-03 0.  1.
         11   -1    0    0    0    0 -0.00000000000E+00 -0.00000000000E+00 -0.45593999997E+02  0.45594000000E+02  0.51100000000E-03 0. -1.
         23    2    1    2    0    0 -0.71054273576E-14 -0.88817841970E-15  0.17763568394E-14  0.91188000000E+02  0.91188000000E+02 0.  0.
    9900012    2    3    3    0    0  0.32914163888E+02  0.55320704689E+01 -0.15550992630E+02  0.54367090724E+02  0.40000014924E+02 0.  0.
        -12    1    3    3    0    0 -0.32914163888E+02 -0.55320704689E+01  0.15550992630E+02  0.36820909276E+02  0.00000000000E+00 0.  1.
         11    1    4    4    0    0  0.17244516893E+02  0.27389644542E+01 -0.51929037941E+01  0.18216518307E+02  0.51100000000E-03 0. -1.
        -11    1    4    4    0    0  0.73677720323E+01 -0.39452296895E+01 -0.20048265931E+02  0.21720540259E+02  0.51100000000E-03 0.  1.
        -12    1    4    4    0    0  0.83018749625E+01  0.67383357042E+01  0.96901770954E+01  0.14430032159E+02  0.00000000000E+00 0.  1.
</event>
<event>
 8    1  0.2501893E-006  0.9118800E+02  0.7816164E-02  0.1184000E+00
        -11   -1    0    0    0    0  0.00000000000E+00  0.00000000000E+00  0.45593999997E+02  0.45594000000E+02  0.51100000000E-03 0.  1.
         11   -1    0    0    0    0 -0.00000000000E+00 -0.00000000000E+00 -0.45593999997E+02  0.45594000000E+02  0.51100000000E-03 0. -1.
         23    2    1    2    0    0  0.00000000000E+00 -0.35527136788E-14 -0.35527136788E-14  0.91188000000E+02  0.91188000000E+02 0.  0.
    9900012    2    3    3    0    0  0.20293752359E+02 -0.23206522000E+02 -0.20134595643E+02  0.54367068591E+02  0.39999964466E+02 0.  0.
        -12    1    3    3    0    0 -0.20293752359E+02  0.23206522000E+02  0.20134595643E+02  0.36820931409E+02  0.00000000000E+00 0.  1.
         11    1    4    4    0    0  0.10189842828E+02  0.24657625022E+01 -0.19417421391E+02  0.22066924011E+02  0.51100000000E-03 0. -1.
        -11    1    4    4    0    0 -0.11710368889E+01  0.19610993010E+01  0.79041009186E+00  0.24170201153E+01  0.51100000000E-03 0.  1.
         12    1    4    4    0    0  0.11274946420E+02 -0.27633383803E+02 -0.15075843432E+01  0.29883124464E+02  0.00000000000E+00 0. -1.
</event>
<event>
 8    1  0.2501893E-006  0.9118800E+02  0.7816164E-02  0.1184000E+00
        -11   -1    0    0    0    0  0.00000000000E+00  0.00000000000E+00  0.45593999997E+02  0.45594000000E+02  0.51100000000E-03 0.  1.
         11   -1    0    0    0    0 -0.00000000000E+00 -0.00000000000E+00 -0.45593999997E+02  0.45594000000E+02  0.51100000000E-03 0. -1.
         23    2    1    2    0    0  0.38857805862E-15  0.35527136788E-14  0.00000000000E+00  0.91188000000E+02  0.91188000000E+02 0.  0.
    9900012    2    3    3    0    0 -0.39864149870E+00 -0.21093960856E+02 -0.30177230303E+02  0.54367091152E+02  0.40000015899E+02 0.  0.
        -12    1    3    3    0    0  0.39864149870E+00  0.21093960856E+02  0.30177230303E+02  0.36820908848E+02  0.00000000000E+00 0.  1.
         11    1    4    4    0    0 -0.30822559092E+01 -0.31370884756E+02 -0.23947585641E+02  0.39586861080E+02  0.51100000000E-03 0. -1.
        -11    1    4    4    0    0  0.36487504444E+01  0.67026123360E+01 -0.76586284088E+01  0.10811705753E+02  0.51100000000E-03 0.  1.
         12    1    4    4    0    0 -0.96513603381E+00  0.35743115638E+01  0.14289837465E+01  0.39685243185E+01  0.00000000000E+00 0. -1.
</event>
<event>
 8    1  0.2501893E-006  0.9118800E+02  0.7816164E-02  0.1184000E+00
        -11   -1    0    0    0    0  0.00000000000E+00  0.00000000000E+00  0.45593999997E+02  0.45594000000E+02  0.51100000000E-03 0. -1.
         11   -1    0    0    0    0 -0.00000000000E+00 -0.00000000000E+00 -0.45593999997E+02  0.45594000000E+02  0.51100000000E-03 0.  1.
         23    2    1    2    0    0  0.00000000000E+00 -0.17763568394E-14 -0.35527136788E-14  0.91188000000E+02  0.91188000000E+02 0.  0.
    9900012    2    3    3    0    0 -0.24707665871E+02  0.13346767467E+02  0.23815451456E+02  0.54367072762E+02  0.39999973976E+02 0.  0.
        -12    1    3    3    0    0  0.24707665871E+02 -0.13346767467E+02 -0.23815451456E+02  0.36820927238E+02  0.00000000000E+00 0.  1.
         11    1    4    4    0    0 -0.10215010808E+02  0.12492072105E+02  0.15031559268E+02  0.22053255668E+02  0.51100000000E-03 0. -1.
        -11    1    4    4    0    0  0.24647870952E+01  0.89554576063E+01 -0.34288550403E+01  0.99011334458E+01  0.51100000000E-03 0.  1.
         12    1    4    4    0    0 -0.16957442158E+02 -0.81007622440E+01  0.12212747228E+02  0.22412683648E+02  0.00000000000E+00 0. -1.
</event>
<event>
 8    1  0.2501893E-006  0.9118800E+02  0.7816164E-02  0.1184000E+00
        -11   -1    0    0    0    0  0.00000000000E+00  0.00000000000E+00  0.45593999997E+02  0.45594000000E+02  0.51100000000E-03 0.  1.
         11   -1    0    0    0    0 -0.00000000000E+00 -0.00000000000E+00 -0.45593999997E+02  0.45594000000E+02  0.51100000000E-03 0. -1.
         23    2    1    2    0    0  0.44408920985E-15  0.35527136788E-14  0.00000000000E+00  0.91188000000E+02  0.91188000000E+02 0.  0.
    9900012    2    3    3    0    0 -0.28730362874E+01 -0.16911247197E+02  0.32581214591E+02  0.54367079812E+02  0.39999990048E+02 0.  0.
         12    1    3    3    0    0  0.28730362874E+01  0.16911247197E+02 -0.32581214591E+02  0.36820920188E+02  0.00000000000E+00 0. -1.
         11    1    4    4    0    0 -0.63720289254E+01  0.20317286331E+01 -0.20066413336E+01  0.69826415895E+01  0.51100000000E-03 0. -1.
        -11    1    4    4    0    0 -0.72073732133E+01 -0.19602988588E+02  0.27480943011E+02  0.34517033755E+02  0.51100000000E-03 0.  1.
        -12    1    4    4    0    0  0.10706365851E+02  0.66001275731E+00  0.71069129138E+01  0.12867404468E+02  0.00000000000E+00 0.  1.
</event>
<event>
 8    1  0.2501893E-006  0.9118800E+02  0.7816164E-02  0.1184000E+00
        -11   -1    0    0    0    0  0.00000000000E+00  0.00000000000E+00  0.45593999997E+02  0.45594000000E+02  0.51100000000E-03 0. -1.
         11   -1    0    0    0    0 -0.00000000000E+00 -0.00000000000E+00 -0.45593999997E+02  0.45594000000E+02  0.51100000000E-03 0.  1.
         23    2    1    2    0    0  0.35527136788E-14  0.11102230246E-14  0.35527136788E-14  0.91188000000E+02  0.91188000000E+02 0.  0.
    9900012    2    3    3    0    0  0.30811529021E+02 -0.16824204669E+01  0.20089673105E+02  0.54367138730E+02  0.40000124362E+02 0.  0.
        -12    1    3    3    0    0 -0.30811529021E+02  0.16824204669E+01 -0.20089673105E+02  0.36820861270E+02  0.00000000000E+00 0.  1.
         11    1    4    4    0    0  0.13423283543E+02  0.10582834754E+02  0.18639048267E+01  0.17194623403E+02  0.51100000000E-03 0. -1.
        -11    1    4    4    0    0  0.21111418731E+02 -0.33464483975E+01  0.73038291899E+01  0.22588418245E+02  0.51100000000E-03 0.  1.
         12    1    4    4    0    0 -0.37231732537E+01 -0.89188068238E+01  0.10921939088E+02  0.14584097081E+02  0.00000000000E+00 0. -1.
</event>
<event>
 8    1  0.2501893E-006  0.9118800E+02  0.7816164E-02  0.1184000E+00
        -11   -1    0    0    0    0  0.00000000000E+00  0.00000000000E+00  0.45593999997E+02  0.45594000000E+02  0.51100000000E-03 0.  1.
         11   -1    0    0    0    0 -0.00000000000E+00 -0.00000000000E+00 -0.45593999997E+02  0.45594000000E+02  0.51100000000E-03 0. -1.
         23    2    1    2    0    0  0.10658141036E-13  0.71054273576E-14 -0.17763568394E-14  0.91188000000E+02  0.91188000000E+02 0.  0.
    9900012    2    3    3    0    0  0.31023038114E+02  0.19727464028E+02 -0.20441433452E+01  0.54367078599E+02  0.39999987283E+02 0.  0.
         12    1    3    3    0    0 -0.31023038114E+02 -0.19727464028E+02  0.20441433452E+01  0.36820921401E+02  0.00000000000E+00 0. -1.
         11    1    4    4    0    0  0.45449923516E+01  0.14556463615E+02  0.66257358982E+01  0.16626724419E+02  0.51100000000E-03 0. -1.
        -11    1    4    4    0    0  0.26373221584E+01  0.34419459749E+01  0.76525831408E+01  0.87957085700E+01  0.51100000000E-03 0.  1.
        -12    1    4    4    0    0  0.23840723604E+02  0.17290544379E+01 -0.16322462384E+02  0.28944645610E+02  0.00000000000E+00 0.  1.
</event>
<event>
 8    1  0.2501893E-006  0.9118800E+02  0.7816164E-02  0.1184000E+00
        -11   -1    0    0    0    0  0.00000000000E+00  0.00000000000E+00  0.45593999997E+02  0.45594000000E+02  0.51100000000E-03 0.  1.
         11   -1    0    0    0    0 -0.00000000000E+00 -0.00000000000E+00 -0.45593999997E+02  0.45594000000E+02  0.51100000000E-03 0. -1.
         23    2    1    2    0    0  0.00000000000E+00 -0.44408920985E-15  0.00000000000E+00  0.91188000000E+02  0.91188000000E+02 0.  0.
    9900012    2    3    3    0    0 -0.10421697149E+02  0.23692732689E+01 -0.35235682515E+02  0.54367101727E+02  0.40000040007E+02 0.  0.
        -12    1    3    3    0    0  0.10421697149E+02 -0.23692732689E+01  0.35235682515E+02  0.36820898273E+02  0.00000000000E+00 0.  1.
         11    1    4    4    0    0 -0.16776558285E+02  0.71776878221E+01 -0.31714751238E+02  0.36589582625E+02  0.51100000000E-03 0. -1.
        -11    1    4    4    0    0  0.53460651250E+01  0.27057248054E+01 -0.71862268675E+01  0.93564531686E+01  0.51100000000E-03 0.  1.
        -12    1    4    4    0    0  0.10087960112E+01 -0.75141393586E+01  0.36652955898E+01  0.84210659333E+01  0.00000000000E+00 0.  1.
</event>
<event>
 8    1  0.2501893E-006  0.9118800E+02  0.7816164E-02  0.1184000E+00
        -11   -1    0    0    0    0  0.00000000000E+00  0.00000000000E+00  0.45593999997E+02  0.45594000000E+02  0.51100000000E-03 0. -1.
         11   -1    0    0    0    0 -0.00000000000E+00 -0.00000000000E+00 -0.45593999997E+02  0.45594000000E+02  0.51100000000E-03 0.  1.
         23    2    1    2    0    0  0.44408920985E-15  0.00000000000E+00  0.00000000000E+00  0.91188000000E+02  0.91188000000E+02 0.  0.
    9900012    2    3    3    0    0 -0.20318174590E+01 -0.31954578557E+02 -0.18181166150E+02  0.54367106807E+02  0.40000051588E+02 0.  0.
         12    1    3    3    0    0  0.20318174590E+01  0.31954578557E+02  0.18181166150E+02  0.36820893193E+02  0.00000000000E+00 0. -1.
         11    1    4    4    0    0 -0.55484773318E+01 -0.25508746892E+02 -0.81010937458E+01  0.27333303658E+02  0.51100000000E-03 0. -1.
        -11    1    4    4    0    0 -0.14573367677E+01  0.51818150668E+01 -0.12985970789E+02  0.14057399313E+02  0.51100000000E-03 0.  1.
        -12    1    4    4    0    0  0.49739966405E+01 -0.11627646732E+02  0.29058983846E+01  0.12976403836E+02  0.00000000000E+00 0.  1.
</event>
<event>
 8    1  0.2501893E-006  0.9118800E+02  0.7816164E-02  0.1184000E+00
        -11   -1    0    0    0    0  0.00000000000E+00  0.00000000000E+00  0.45593999997E+02  0.45594000000E+02  0.51100000000E-03 0.  1.
         11   -1    0    0    0    0 -0.00000000000E+00 -0.00000000000E+00 -0.45593999997E+02  0.45594000000E+02  0.51100000000E-03 0. -1.
         23    2    1    2    0    0  0.35527136788E-14  0.88817841970E-15  0.35527136788E-14  0.91188000000E+02  0.91188000000E+02 0.  0.
    9900012    2    3    3    0    0  0.31798735840E+02 -0.41175721561E+01 -0.18101554190E+02  0.54367078426E+02  0.39999986888E+02 0.  0.
        -12    1    3    3    0    0 -0.31798735840E+02  0.41175721561E+01  0.18101554190E+02  0.36820921574E+02  0.00000000000E+00 0.  1.
         11    1    4    4    0    0  0.86539898510E+01  0.54379829836E+00  0.96566474749E+01  0.12978370377E+02  0.51100000000E-03 0. -1.
        -11    1    4    4    0    0  0.67908610700E+01  0.29377513255E+01  0.97739081499E+00  0.74633417441E+01  0.51100000000E-03 0.  1.
         12    1    4    4    0    0  0.16353884919E+02 -0.75991217800E+01 -0.28735592480E+02  0.33925366305E+02  0.00000000000E+00 0. -1.
</event>
<event>
 8    1  0.2501893E-006  0.9118800E+02  0.7816164E-02  0.1184000E+00
        -11   -1    0    0    0    0  0.00000000000E+00  0.00000000000E+00  0.45593999997E+02  0.45594000000E+02  0.51100000000E-03 0.  1.
         11   -1    0    0    0    0 -0.00000000000E+00 -0.00000000000E+00 -0.45593999997E+02  0.45594000000E+02  0.51100000000E-03 0. -1.
         23    2    1    2    0    0 -0.16653345369E-14 -0.13322676296E-14 -0.71054273576E-14  0.91188000000E+02  0.91188000000E+02 0.  0.
    9900012    2    3    3    0    0  0.47409944798E+00  0.39454193138E+01  0.36605777893E+02  0.54367162435E+02  0.40000178402E+02 0.  0.
         12    1    3    3    0    0 -0.47409944798E+00 -0.39454193138E+01 -0.36605777893E+02  0.36820837565E+02  0.00000000000E+00 0. -1.
         11    1    4    4    0    0  0.13199826738E+02 -0.42449469449E+00  0.13580208595E+01  0.13276288735E+02  0.51100000000E-03 0. -1.
        -11    1    4    4    0    0 -0.97757507539E+00  0.85373754440E+01  0.12862563209E+02  0.15468935486E+02  0.51100000000E-03 0.  1.
        -12    1    4    4    0    0 -0.11748152215E+02 -0.41674614356E+01  0.22385193824E+02  0.25621938214E+02  0.00000000000E+00 0.  1.
</event>
<event>
 8    1  0.2501893E-006  0.9118800E+02  0.7816164E-02  0.1184000E+00
        -11   -1    0    0    0    0  0.00000000000E+00  0.00000000000E+00  0.45593999997E+02  0.45594000000E+02  0.51100000000E-03 0.  1.
         11   -1    0    0    0    0 -0.00000000000E+00 -0.00000000000E+00 -0.45593999997E+02  0.45594000000E+02  0.51100000000E-03 0. -1.
         23    2    1    2    0    0  0.00000000000E+00  0.00000000000E+00  0.00000000000E+00  0.91188000000E+02  0.91188000000E+02 0.  0.
    9900012    2    3    3    0    0  0.22158735025E+02 -0.25128484052E+02  0.15275193970E+02  0.54367057596E+02  0.39999939402E+02 0.  0.
         12    1    3    3    0    0 -0.22158735025E+02  0.25128484052E+02 -0.15275193970E+02  0.36820942404E+02  0.00000000000E+00 0. -1.
         11    1    4    4    0    0  0.20770009418E+02 -0.30081684000E+00 -0.22284233489E+01  0.20891377477E+02  0.51100000000E-03 0. -1.
        -11    1    4    4    0    0  0.19646148482E+01 -0.26107143475E+02  0.13972789341E+02  0.29676278306E+02  0.51100000000E-03 0.  1.
        -12    1    4    4    0    0 -0.57588924069E+00  0.12794762627E+01  0.35308279784E+01  0.37994018131E+01  0.00000000000E+00 0.  1.
</event>
<event>
 8    1  0.2501893E-006  0.9118800E+02  0.7816164E-02  0.1184000E+00
        -11   -1    0    0    0    0  0.00000000000E+00  0.00000000000E+00  0.45593999997E+02  0.45594000000E+02  0.51100000000E-03 0.  1.
         11   -1    0    0    0    0 -0.00000000000E+00 -0.00000000000E+00 -0.45593999997E+02  0.45594000000E+02  0.51100000000E-03 0. -1.
         23    2    1    2    0    0 -0.66613381478E-15  0.00000000000E+00  0.00000000000E+00  0.91188000000E+02  0.91188000000E+02 0.  0.
    9900012    2    3    3    0    0  0.11709082155E+01 -0.18445972971E+02 -0.31845735680E+02  0.54367138713E+02  0.40000124324E+02 0.  0.
        -12    1    3    3    0    0 -0.11709082155E+01  0.18445972971E+02  0.31845735680E+02  0.36820861287E+02  0.00000000000E+00 0.  1.
         11    1    4    4    0    0  0.59841950689E+01 -0.13024843823E+02 -0.46261600097E+01  0.15061822730E+02  0.51100000000E-03 0.  1.
        -11    1    4    4    0    0 -0.59460742798E+01 -0.11408857399E+02 -0.29973562083E+02  0.32617974350E+02  0.51100000000E-03 0. -1.
        -12    1    4    4    0    0  0.11327874264E+01  0.59877282514E+01  0.27539864121E+01  0.66873416336E+01  0.00000000000E+00 0.  1.
</event>
<event>
 8    1  0.2501893E-006  0.9118800E+02  0.7816164E-02  0.1184000E+00
        -11   -1    0    0    0    0  0.00000000000E+00  0.00000000000E+00  0.45593999997E+02  0.45594000000E+02  0.51100000000E-03 0.  1.
         11   -1    0    0    0    0 -0.00000000000E+00 -0.00000000000E+00 -0.45593999997E+02  0.45594000000E+02  0.51100000000E-03 0. -1.
         23    2    1    2    0    0  0.00000000000E+00  0.00000000000E+00 -0.44408920985E-15  0.91188000000E+02  0.91188000000E+02 0.  0.
    9900012    2    3    3    0    0  0.32658189900E+02 -0.16790258039E+02  0.27037127925E+01  0.54367079378E+02  0.39999989058E+02 0.  0.
        -12    1    3    3    0    0 -0.32658189900E+02  0.16790258039E+02 -0.27037127925E+01  0.36820920622E+02  0.00000000000E+00 0.  1.
         11    1    4    4    0    0  0.34670994084E+02 -0.14765375449E+02 -0.39653054860E+00  0.37686222677E+02  0.51100000000E-03 0. -1.
        -11    1    4    4    0    0 -0.64332887408E+01  0.49135124479E+01  0.77727977073E+00  0.81322796743E+01  0.51100000000E-03 0.  1.
         12    1    4    4    0    0  0.44204845567E+01 -0.69383950383E+01  0.23229635704E+01  0.85485770262E+01  0.00000000000E+00 0. -1.
</event>
<event>
 8    1  0.2501893E-006  0.9118800E+02  0.7816164E-02  0.1184000E+00
        -11   -1    0    0    0    0  0.00000000000E+00  0.00000000000E+00  0.45593999997E+02  0.45594000000E+02  0.51100000000E-03 0. -1.
         11   -1    0    0    0    0 -0.00000000000E+00 -0.00000000000E+00 -0.45593999997E+02  0.45594000000E+02  0.51100000000E-03 0.  1.
         23    2    1    2    0    0  0.17763568394E-14  0.71054273576E-14  0.17763568394E-14  0.91188000000E+02  0.91188000000E+02 0.  0.
    9900012    2    3    3    0    0 -0.83203404585E+01 -0.33415842051E+02 -0.13035859787E+02  0.54367079238E+02  0.39999988740E+02 0.  0.
         12    1    3    3    0    0  0.83203404585E+01  0.33415842051E+02  0.13035859787E+02  0.36820920762E+02  0.00000000000E+00 0. -1.
         11    1    4    4    0    0 -0.67826964290E+01 -0.16754983164E+02  0.31075881432E+01  0.18340979690E+02  0.51100000000E-03 0. -1.
        -11    1    4    4    0    0 -0.78437406282E+01 -0.15429478099E+01 -0.17848736607E+02  0.19557156075E+02  0.51100000000E-03 0.  1.
         12    1    4    4    0    0  0.63060965987E+01 -0.15117911078E+02  0.17052886771E+01  0.16468943474E+02  0.00000000000E+00 0. -1.
</event>
<event>
 8    1  0.2501893E-006  0.9118800E+02  0.7816164E-02  0.1184000E+00
        -11   -1    0    0    0    0  0.00000000000E+00  0.00000000000E+00  0.45593999997E+02  0.45594000000E+02  0.51100000000E-03 0.  1.
         11   -1    0    0    0    0 -0.00000000000E+00 -0.00000000000E+00 -0.45593999997E+02  0.45594000000E+02  0.51100000000E-03 0. -1.
         23    2    1    2    0    0  0.00000000000E+00  0.00000000000E+00  0.00000000000E+00  0.91188000000E+02  0.91188000000E+02 0.  0.
    9900012    2    3    3    0    0  0.20282027187E+02  0.24526955261E+02 -0.18516123241E+02  0.54367095869E+02  0.40000026652E+02 0.  0.
        -12    1    3    3    0    0 -0.20282027187E+02 -0.24526955261E+02  0.18516123241E+02  0.36820904131E+02  0.00000000000E+00 0.  1.
         11    1    4    4    0    0  0.30899083425E+01  0.42754535225E+00 -0.71051749407E+01  0.77597577148E+01  0.51100000000E-03 0. -1.
        -11    1    4    4    0    0  0.66840441796E+01 -0.76838619207E+00  0.10067530743E+02  0.12108758791E+02  0.51100000000E-03 0.  1.
         12    1    4    4    0    0  0.10508074665E+02  0.24867796100E+02 -0.21478479043E+02  0.34498579363E+02  0.00000000000E+00 0. -1.
</event>
<event>
 8    1  0.2501893E-006  0.9118800E+02  0.7816164E-02  0.1184000E+00
        -11   -1    0    0    0    0  0.00000000000E+00  0.00000000000E+00  0.45593999997E+02  0.45594000000E+02  0.51100000000E-03 0.  1.
         11   -1    0    0    0    0 -0.00000000000E+00 -0.00000000000E+00 -0.45593999997E+02  0.45594000000E+02  0.51100000000E-03 0. -1.
         23    2    1    2    0    0  0.35527136788E-14  0.00000000000E+00  0.17763568394E-14  0.91188000000E+02  0.91188000000E+02 0.  0.
    9900012    2    3    3    0    0  0.21366143097E+02 -0.29558877521E+02  0.50535101948E+01  0.54367119016E+02  0.40000079421E+02 0.  0.
         12    1    3    3    0    0 -0.21366143097E+02  0.29558877521E+02 -0.50535101948E+01  0.36820880984E+02  0.00000000000E+00 0. -1.
         11    1    4    4    0    0  0.38344931701E+00 -0.25455323506E+02 -0.35598212274E+01  0.25705891457E+02  0.51100000000E-03 0. -1.
        -11    1    4    4    0    0  0.10008862912E+02 -0.95696530254E+01  0.87869355541E+01  0.16400177819E+02  0.51100000000E-03 0.  1.
         12    1    4    4    0    0  0.10973830868E+02  0.54660990109E+01 -0.17360413183E+00  0.12261049740E+02  0.00000000000E+00 0. -1.
</event>
<event>
 8    1  0.2501893E-006  0.9118800E+02  0.7816164E-02  0.1184000E+00
        -11   -1    0    0    0    0  0.00000000000E+00  0.00000000000E+00  0.45593999997E+02  0.45594000000E+02  0.51100000000E-03 0. -1.
         11   -1    0    0    0    0 -0.00000000000E+00 -0.00000000000E+00 -0.45593999997E+02  0.45594000000E+02  0.51100000000E-03 0.  1.
         23    2    1    2    0    0  0.00000000000E+00  0.00000000000E+00  0.00000000000E+00  0.91188000000E+02  0.91188000000E+02 0.  0.
    9900012    2    3    3    0    0  0.89229913175E+01  0.97100985418E+01 -0.34378448680E+02  0.54367034214E+02  0.39999886097E+02 0.  0.
         12    1    3    3    0    0 -0.89229913175E+01 -0.97100985418E+01  0.34378448680E+02  0.36820965786E+02  0.00000000000E+00 0. -1.
         11    1    4    4    0    0 -0.17108753594E+01 -0.59001482797E+01  0.37022797678E+01  0.71725671805E+01  0.51100000000E-03 0. -1.
        -11    1    4    4    0    0  0.14911574203E+02  0.17632798706E+02 -0.30457476244E+02  0.38222094328E+02  0.51100000000E-03 0.  1.
        -12    1    4    4    0    0 -0.42777075257E+01 -0.20225518842E+01 -0.76232522046E+01  0.89723727059E+01  0.00000000000E+00 0.  1.
</event>
<event>
 8    1  0.2501893E-006  0.9118800E+02  0.7816164E-02  0.1184000E+00
        -11   -1    0    0    0    0  0.00000000000E+00  0.00000000000E+00  0.45593999997E+02  0.45594000000E+02  0.51100000000E-03 0. -1.
         11   -1    0    0    0    0 -0.00000000000E+00 -0.00000000000E+00 -0.45593999997E+02  0.45594000000E+02  0.51100000000E-03 0.  1.
         23    2    1    2    0    0  0.13322676296E-14 -0.35527136788E-14  0.71054273576E-14  0.91188000000E+02  0.91188000000E+02 0.  0.
    9900012    2    3    3    0    0 -0.34768137327E+01 -0.20704028373E+02  0.30249540203E+02  0.54367086010E+02  0.40000004176E+02 0.  0.
        -12    1    3    3    0    0  0.34768137327E+01  0.20704028373E+02 -0.30249540203E+02  0.36820913990E+02  0.00000000000E+00 0.  1.
         11    1    4    4    0    0 -0.10168654536E+02 -0.21139738005E+02  0.94429122533E+01  0.25287519651E+02  0.51100000000E-03 0. -1.
        -11    1    4    4    0    0 -0.28527621561E+01  0.57780535102E+01  0.15773730885E+02  0.17039211853E+02  0.51100000000E-03 0.  1.
         12    1    4    4    0    0  0.95446029592E+01 -0.53423438781E+01  0.50328970649E+01  0.12040354506E+02  0.00000000000E+00 0. -1.
</event>
<event>
 8    1  0.2501893E-006  0.9118800E+02  0.7816164E-02  0.1184000E+00
        -11   -1    0    0    0    0  0.00000000000E+00  0.00000000000E+00  0.45593999997E+02  0.45594000000E+02  0.51100000000E-03 0. -1.
         11   -1    0    0    0    0 -0.00000000000E+00 -0.00000000000E+00 -0.45593999997E+02  0.45594000000E+02  0.51100000000E-03 0.  1.
         23    2    1    2    0    0  0.35527136788E-14  0.88817841970E-15  0.35527136788E-14  0.91188000000E+02  0.91188000000E+02 0.  0.
    9900012    2    3    3    0    0  0.24139352722E+02  0.48212523876E+01 -0.27382973272E+02  0.54367081357E+02  0.39999993571E+02 0.  0.
         12    1    3    3    0    0 -0.24139352722E+02 -0.48212523876E+01  0.27382973272E+02  0.36820918643E+02  0.00000000000E+00 0. -1.
         11    1    4    4    0    0  0.48788530369E+01  0.10497894295E+02 -0.34056254134E+01  0.12066784008E+02  0.51100000000E-03 0. -1.
        -11    1    4    4    0    0  0.22258910599E+02  0.57518787976E+01 -0.14834688880E+02  0.27360760318E+02  0.51100000000E-03 0.  1.
        -12    1    4    4    0    0 -0.29984109135E+01 -0.11428520705E+02 -0.91426589793E+01  0.14939537031E+02  0.00000000000E+00 0.  1.
</event>
<event>
 8    1  0.2501893E-006  0.9118800E+02  0.7816164E-02  0.1184000E+00
        -11   -1    0    0    0    0  0.00000000000E+00  0.00000000000E+00  0.45593999997E+02  0.45594000000E+02  0.51100000000E-03 0. -1.
         11   -1    0    0    0    0 -0.00000000000E+00 -0.00000000000E+00 -0.45593999997E+02  0.45594000000E+02  0.51100000000E-03 0.  1.
         23    2    1    2    0    0  0.00000000000E+00  0.00000000000E+00  0.00000000000E+00  0.91188000000E+02  0.91188000000E+02 0.  0.
    9900012    2    3    3    0    0  0.32798156860E+02 -0.16394155442E+02  0.33592781271E+01  0.54367188282E+02  0.40000237325E+02 0.  0.
        -12    1    3    3    0    0 -0.32798156860E+02  0.16394155442E+02 -0.33592781271E+01  0.36820811718E+02  0.00000000000E+00 0.  1.
         11    1    4    4    0    0  0.33185545904E+02 -0.46845644309E+01  0.81961942056E+01  0.34502220227E+02  0.51100000000E-03 0. -1.
        -11    1    4    4    0    0 -0.50890052597E+01  0.81442519383E+00 -0.38843658603E+01  0.64536471338E+01  0.51100000000E-03 0.  1.
         12    1    4    4    0    0  0.47016162156E+01 -0.12524016205E+02 -0.95255021817E+00  0.13411320921E+02  0.00000000000E+00 0. -1.
</event>
<event>
 8    1  0.2501893E-006  0.9118800E+02  0.7816164E-02  0.1184000E+00
        -11   -1    0    0    0    0  0.00000000000E+00  0.00000000000E+00  0.45593999997E+02  0.45594000000E+02  0.51100000000E-03 0. -1.
         11   -1    0    0    0    0 -0.00000000000E+00 -0.00000000000E+00 -0.45593999997E+02  0.45594000000E+02  0.51100000000E-03 0.  1.
         23    2    1    2    0    0  0.00000000000E+00 -0.44408920985E-15  0.00000000000E+00  0.91188000000E+02  0.91188000000E+02 0.  0.
    9900012    2    3    3    0    0 -0.32981034494E+02  0.21719880617E+01  0.16226943894E+02  0.54367083708E+02  0.39999998929E+02 0.  0.
        -12    1    3    3    0    0  0.32981034494E+02 -0.21719880617E+01 -0.16226943894E+02  0.36820916292E+02  0.00000000000E+00 0.  1.
         11    1    4    4    0    0 -0.89705969291E+01  0.11601329319E+02  0.14416818263E+01  0.14735701475E+02  0.51100000000E-03 0. -1.
        -11    1    4    4    0    0 -0.14045388928E+00  0.65540735129E+01  0.75661350755E+01  0.10011094203E+02  0.51100000000E-03 0.  1.
        -12    1    4    4    0    0 -0.23869983676E+02 -0.15983414770E+02  0.72191269918E+01  0.29620288029E+02  0.00000000000E+00 0.  1.
</event>
<event>
 8    1  0.2501893E-006  0.9118800E+02  0.7816164E-02  0.1184000E+00
        -11   -1    0    0    0    0  0.00000000000E+00  0.00000000000E+00  0.45593999997E+02  0.45594000000E+02  0.51100000000E-03 0.  1.
         11   -1    0    0    0    0 -0.00000000000E+00 -0.00000000000E+00 -0.45593999997E+02  0.45594000000E+02  0.51100000000E-03 0. -1.
         23    2    1    2    0    0  0.00000000000E+00 -0.17763568394E-14  0.00000000000E+00  0.91188000000E+02  0.91188000000E+02 0.  0.
    9900012    2    3    3    0    0 -0.33199807308E+02 -0.43645445942E+01 -0.15313514828E+02  0.54367079436E+02  0.39999989190E+02 0.  0.
        -12    1    3    3    0    0  0.33199807308E+02  0.43645445942E+01  0.15313514828E+02  0.36820920564E+02  0.00000000000E+00 0.  1.
         11    1    4    4    0    0 -0.29799349443E+02 -0.15857366206E+01 -0.18629924405E+02  0.35179395553E+02  0.51100000000E-03 0. -1.
        -11    1    4    4    0    0 -0.11089872423E+01  0.69443624081E+01  0.55414969433E+01  0.89533351658E+01  0.51100000000E-03 0.  1.
         12    1    4    4    0    0 -0.22914706225E+01 -0.97231703816E+01 -0.22250873661E+01  0.10234348717E+02  0.00000000000E+00 0. -1.
</event>
<event>
 8    1  0.2501893E-006  0.9118800E+02  0.7816164E-02  0.1184000E+00
        -11   -1    0    0    0    0  0.00000000000E+00  0.00000000000E+00  0.45593999997E+02  0.45594000000E+02  0.51100000000E-03 0.  1.
         11   -1    0    0    0    0 -0.00000000000E+00 -0.00000000000E+00 -0.45593999997E+02  0.45594000000E+02  0.51100000000E-03 0. -1.
         23    2    1    2    0    0 -0.35527136788E-14  0.00000000000E+00  0.00000000000E+00  0.91188000000E+02  0.91188000000E+02 0.  0.
    9900012    2    3    3    0    0 -0.31756652870E+02 -0.10070417744E+02  0.15680650782E+02  0.54367066769E+02  0.39999960314E+02 0.  0.
         12    1    3    3    0    0  0.31756652870E+02  0.10070417744E+02 -0.15680650782E+02  0.36820933231E+02  0.00000000000E+00 0. -1.
         11    1    4    4    0    0 -0.22532470280E+01 -0.43053430311E+01  0.21735451782E+02  0.22272022028E+02  0.51100000000E-03 0. -1.
        -11    1    4    4    0    0 -0.16336344793E+01 -0.17665603283E+01 -0.28931263858E+01  0.37629346992E+01  0.51100000000E-03 0.  1.
        -12    1    4    4    0    0 -0.27869771362E+02 -0.39985143851E+01 -0.31616746140E+01  0.28332110042E+02  0.00000000000E+00 0.  1.
</event>
<event>
 8    1  0.2501893E-006  0.9118800E+02  0.7816164E-02  0.1184000E+00
        -11   -1    0    0    0    0  0.00000000000E+00  0.00000000000E+00  0.45593999997E+02  0.45594000000E+02  0.51100000000E-03 0.  1.
         11   -1    0    0    0    0 -0.00000000000E+00 -0.00000000000E+00 -0.45593999997E+02  0.45594000000E+02  0.51100000000E-03 0. -1.
         23    2    1    2    0    0  0.35527136788E-14  0.00000000000E+00  0.00000000000E+00  0.91188000000E+02  0.91188000000E+02 0.  0.
    9900012    2    3    3    0    0 -0.21856789462E+02 -0.36813602497E+01  0.29402500449E+02  0.54367099800E+02  0.40000035614E+02 0.  0.
         12    1    3    3    0    0  0.21856789462E+02  0.36813602497E+01 -0.29402500449E+02  0.36820900200E+02  0.00000000000E+00 0. -1.
         11    1    4    4    0    0 -0.11185510534E+02  0.11622439264E+02  0.27565702821E+01  0.16364456005E+02  0.51100000000E-03 0. -1.
        -11    1    4    4    0    0  0.55448417915E+00  0.14606950549E+01 -0.22626529145E+01  0.27496692931E+01  0.51100000000E-03 0.  1.
        -12    1    4    4    0    0 -0.11225763107E+02 -0.16764494569E+02  0.28908583081E+02  0.35252974502E+02  0.00000000000E+00 0.  1.
</event>
<event>
 8    1  0.2501893E-006  0.9118800E+02  0.7816164E-02  0.1184000E+00
        -11   -1    0    0    0    0  0.00000000000E+00  0.00000000000E+00  0.45593999997E+02  0.45594000000E+02  0.51100000000E-03 0.  1.
         11   -1    0    0    0    0 -0.00000000000E+00 -0.00000000000E+00 -0.45593999997E+02  0.45594000000E+02  0.51100000000E-03 0. -1.
         23    2    1    2    0    0  0.00000000000E+00 -0.71054273576E-14 -0.13322676296E-14  0.91188000000E+02  0.91188000000E+02 0.  0.
    9900012    2    3    3    0    0 -0.17004155312E+02 -0.32518791109E+02 -0.30283097664E+01  0.54367031339E+02  0.39999879544E+02 0.  0.
         12    1    3    3    0    0  0.17004155312E+02  0.32518791109E+02  0.30283097664E+01  0.36820968661E+02  0.00000000000E+00 0. -1.
         11    1    4    4    0    0 -0.88598381987E+01  0.43901841738E+00  0.28612348114E+01  0.93207368263E+01  0.51100000000E-03 0. -1.
        -11    1    4    4    0    0 -0.13322826617E+02 -0.66495898651E+01  0.55555663633E+01  0.15892736465E+02  0.51100000000E-03 0.  1.
         12    1    4    4    0    0  0.51785095038E+01 -0.26308219661E+02 -0.11445110941E+02  0.29153558048E+02  0.00000000000E+00 0. -1.
</event>
<event>
 8    1  0.2501893E-006  0.9118800E+02  0.7816164E-02  0.1184000E+00
        -11   -1    0    0    0    0  0.00000000000E+00  0.00000000000E+00  0.45593999997E+02  0.45594000000E+02  0.51100000000E-03 0.  1.
         11   -1    0    0    0    0 -0.00000000000E+00 -0.00000000000E+00 -0.45593999997E+02  0.45594000000E+02  0.51100000000E-03 0. -1.
         23    2    1    2    0    0 -0.35527136788E-14 -0.13322676296E-14  0.00000000000E+00  0.91188000000E+02  0.91188000000E+02 0.  0.
    9900012    2    3    3    0    0  0.31779839568E+02  0.13143597594E+01 -0.18549814254E+02  0.54367063654E+02  0.39999953212E+02 0.  0.
        -12    1    3    3    0    0 -0.31779839568E+02 -0.13143597594E+01  0.18549814254E+02  0.36820936346E+02  0.00000000000E+00 0.  1.
         11    1    4    4    0    0  0.17819234771E+02 -0.14365231837E+02 -0.11200806755E+02  0.25482211164E+02  0.51100000000E-03 0. -1.
        -11    1    4    4    0    0 -0.34143844432E+01  0.84412929201E+01 -0.26827187989E+01  0.94926512473E+01  0.51100000000E-03 0.  1.
        -12    1    4    4    0    0  0.17374989240E+02  0.72382986763E+01 -0.46662886998E+01  0.19392201243E+02  0.00000000000E+00 0.  1.
</event>
<event>
 8    1  0.2501893E-006  0.9118800E+02  0.7816164E-02  0.1184000E+00
        -11   -1    0    0    0    0  0.00000000000E+00  0.00000000000E+00  0.45593999997E+02  0.45594000000E+02  0.51100000000E-03 0.  1.
         11   -1    0    0    0    0 -0.00000000000E+00 -0.00000000000E+00 -0.45593999997E+02  0.45594000000E+02  0.51100000000E-03 0. -1.
         23    2    1    2    0    0  0.00000000000E+00  0.22204460493E-15 -0.17763568394E-14  0.91188000000E+02  0.91188000000E+02 0.  0.
    9900012    2    3    3    0    0  0.34656021402E+02 -0.13831451010E+01 -0.12362284939E+02  0.54367095629E+02  0.40000026105E+02 0.  0.
         12    1    3    3    0    0 -0.34656021402E+02  0.13831451010E+01  0.12362284939E+02  0.36820904371E+02  0.00000000000E+00 0. -1.
         11    1    4    4    0    0 -0.58930155868E+01  0.68510605826E-01 -0.92445363871E+01  0.10963292374E+02  0.51100000000E-03 0. -1.
        -11    1    4    4    0    0 -0.56985092442E+00 -0.20901110988E+01 -0.23323323082E+00  0.21789200266E+01  0.51100000000E-03 0.  1.
        -12    1    4    4    0    0  0.41118887913E+02  0.63845539191E+00 -0.28845153208E+01  0.41224883228E+02  0.00000000000E+00 0.  1.
</event>
<event>
 8    1  0.2501893E-006  0.9118800E+02  0.7816164E-02  0.1184000E+00
        -11   -1    0    0    0    0  0.00000000000E+00  0.00000000000E+00  0.45593999997E+02  0.45594000000E+02  0.51100000000E-03 0.  1.
         11   -1    0    0    0    0 -0.00000000000E+00 -0.00000000000E+00 -0.45593999997E+02  0.45594000000E+02  0.51100000000E-03 0. -1.
         23    2    1    2    0    0  0.00000000000E+00  0.17763568394E-14 -0.35527136788E-14  0.91188000000E+02  0.91188000000E+02 0.  0.
    9900012    2    3    3    0    0  0.16153251896E+02 -0.14809264856E+02  0.29589499308E+02  0.54367077392E+02  0.39999984530E+02 0.  0.
         12    1    3    3    0    0 -0.16153251896E+02  0.14809264856E+02 -0.29589499308E+02  0.36820922608E+02  0.00000000000E+00 0. -1.
         11    1    4    4    0    0  0.83450193473E+01 -0.98972208461E+01  0.17930676941E+02  0.22115684574E+02  0.51100000000E-03 0. -1.
        -11    1    4    4    0    0 -0.10688782547E+02  0.64449442845E+00  0.32863148382E+01  0.11201129893E+02  0.51100000000E-03 0.  1.
         12    1    4    4    0    0  0.18497015096E+02 -0.55565384386E+01  0.83725075291E+01  0.21050262925E+02  0.00000000000E+00 0. -1.
</event>
<event>
 8    1  0.2501893E-006  0.9118800E+02  0.7816164E-02  0.1184000E+00
        -11   -1    0    0    0    0  0.00000000000E+00  0.00000000000E+00  0.45593999997E+02  0.45594000000E+02  0.51100000000E-03 0.  1.
         11   -1    0    0    0    0 -0.00000000000E+00 -0.00000000000E+00 -0.45593999997E+02  0.45594000000E+02  0.51100000000E-03 0. -1.
         23    2    1    2    0    0  0.17763568394E-14  0.17763568394E-14 -0.35527136788E-14  0.91188000000E+02  0.91188000000E+02 0.  0.
    9900012    2    3    3    0    0 -0.15391140679E+02  0.12205212328E+02  0.31143636348E+02  0.54367075183E+02  0.39999979495E+02 0.  0.
         12    1    3    3    0    0  0.15391140679E+02 -0.12205212328E+02 -0.31143636348E+02  0.36820924817E+02  0.00000000000E+00 0. -1.
         11    1    4    4    0    0  0.32704380864E+00  0.16269928298E+02  0.16217813944E+01  0.16353828287E+02  0.51100000000E-03 0. -1.
        -11    1    4    4    0    0 -0.75185163735E+01  0.45136981599E+01  0.35536289189E+01  0.94620208355E+01  0.51100000000E-03 0.  1.
        -12    1    4    4    0    0 -0.81996681141E+01 -0.85784141300E+01  0.25968226035E+02  0.28551226061E+02  0.00000000000E+00 0.  1.
</event>
<event>
 8    1  0.2501893E-006  0.9118800E+02  0.7816164E-02  0.1184000E+00
        -11   -1    0    0    0    0  0.00000000000E+00  0.00000000000E+00  0.45593999997E+02  0.45594000000E+02  0.51100000000E-03 0. -1.
         11   -1    0    0    0    0 -0.00000000000E+00 -0.00000000000E+00 -0.45593999997E+02  0.45594000000E+02  0.51100000000E-03 0.  1.
         23    2    1    2    0    0  0.00000000000E+00  0.88817841970E-15  0.35527136788E-14  0.91188000000E+02  0.91188000000E+02 0.  0.
    9900012    2    3    3    0    0  0.26814826620E+02 -0.29170828114E+01  0.25064500499E+02  0.54367170514E+02  0.40000196819E+02 0.  0.
        -12    1    3    3    0    0 -0.26814826620E+02  0.29170828114E+01 -0.25064500499E+02  0.36820829486E+02  0.00000000000E+00 0.  1.
         11    1    4    4    0    0  0.86035496340E+01  0.18835876811E+01  0.14564112448E+02  0.17020057007E+02  0.51100000000E-03 0. -1.
        -11    1    4    4    0    0  0.16004975088E+02  0.47935182593E+01 -0.63157188788E+01  0.17861280752E+02  0.51100000000E-03 0.  1.
         12    1    4    4    0    0  0.22063018979E+01 -0.95941887518E+01  0.16816106930E+02  0.19485832755E+02  0.00000000000E+00 0. -1.
</event>
<event>
 8    1  0.2501893E-006  0.9118800E+02  0.7816164E-02  0.1184000E+00
        -11   -1    0    0    0    0  0.00000000000E+00  0.00000000000E+00  0.45593999997E+02  0.45594000000E+02  0.51100000000E-03 0.  1.
         11   -1    0    0    0    0 -0.00000000000E+00 -0.00000000000E+00 -0.45593999997E+02  0.45594000000E+02  0.51100000000E-03 0. -1.
         23    2    1    2    0    0 -0.71054273576E-14  0.15543122345E-14  0.35527136788E-14  0.91188000000E+02  0.91188000000E+02 0.  0.
    9900012    2    3    3    0    0 -0.25716615187E+02  0.18433824999E+01  0.26287542743E+02  0.54367119250E+02  0.40000079954E+02 0.  0.
        -12    1    3    3    0    0  0.25716615187E+02 -0.18433824999E+01 -0.26287542743E+02  0.36820880750E+02  0.00000000000E+00 0.  1.
         11    1    4    4    0    0  0.15467227877E-01 -0.52507206173E+01  0.45565015664E+01  0.69521229147E+01  0.51100000000E-03 0.  1.
        -11    1    4    4    0    0 -0.24690394704E+02 -0.50359928718E+01  0.34254857677E+01  0.25430508604E+02  0.51100000000E-03 0. -1.
         12    1    4    4    0    0 -0.10416877111E+01  0.12130095989E+02  0.18305555409E+02  0.21984487732E+02  0.00000000000E+00 0. -1.
</event>
<event>
 8    1  0.2501893E-006  0.9118800E+02  0.7816164E-02  0.1184000E+00
        -11   -1    0    0    0    0  0.00000000000E+00  0.00000000000E+00  0.45593999997E+02  0.45594000000E+02  0.51100000000E-03 0. -1.
         11   -1    0    0    0    0 -0.00000000000E+00 -0.00000000000E+00 -0.45593999997E+02  0.45594000000E+02  0.51100000000E-03 0.  1.
         23    2    1    2    0    0  0.17763568394E-14  0.17763568394E-14  0.00000000000E+00  0.91188000000E+02  0.91188000000E+02 0.  0.
    9900012    2    3    3    0    0 -0.32748786685E+01 -0.14978148068E+02  0.33477010428E+02  0.54367082344E+02  0.39999995819E+02 0.  0.
        -12    1    3    3    0    0  0.32748786685E+01  0.14978148068E+02 -0.33477010428E+02  0.36820917656E+02  0.00000000000E+00 0.  1.
         11    1    4    4    0    0  0.12500249619E+02  0.50155668621E+01  0.17552085627E+02  0.22124372570E+02  0.51100000000E-03 0. -1.
        -11    1    4    4    0    0 -0.89518528394E+00 -0.85282227066E+01  0.18564065336E+01  0.87737212575E+01  0.51100000000E-03 0.  1.
         12    1    4    4    0    0 -0.14879943004E+02 -0.11465492223E+02  0.14068518268E+02  0.23468988516E+02  0.00000000000E+00 0. -1.
</event>
<event>
 8    1  0.2501893E-006  0.9118800E+02  0.7816164E-02  0.1184000E+00
        -11   -1    0    0    0    0  0.00000000000E+00  0.00000000000E+00  0.45593999997E+02  0.45594000000E+02  0.51100000000E-03 0.  1.
         11   -1    0    0    0    0 -0.00000000000E+00 -0.00000000000E+00 -0.45593999997E+02  0.45594000000E+02  0.51100000000E-03 0. -1.
         23    2    1    2    0    0  0.00000000000E+00 -0.13322676296E-14  0.00000000000E+00  0.91188000000E+02  0.91188000000E+02 0.  0.
    9900012    2    3    3    0    0 -0.24375812097E+02  0.18810861436E+01 -0.27532900175E+02  0.54367091639E+02  0.40000017009E+02 0.  0.
        -12    1    3    3    0    0  0.24375812097E+02 -0.18810861436E+01  0.27532900175E+02  0.36820908361E+02  0.00000000000E+00 0.  1.
         11    1    4    4    0    0 -0.13206657036E+01 -0.52429814397E+01 -0.12309593939E+02  0.13444668664E+02  0.51100000000E-03 0. -1.
        -11    1    4    4    0    0 -0.12045194114E+02  0.18455079570E+02 -0.10638794915E+02  0.24471628894E+02  0.51100000000E-03 0.  1.
        -12    1    4    4    0    0 -0.11009952279E+02 -0.11331011987E+02 -0.45845113203E+01  0.16450794081E+02  0.00000000000E+00 0.  1.
</event>
<event>
 8    1  0.2501893E-006  0.9118800E+02  0.7816164E-02  0.1184000E+00
        -11   -1    0    0    0    0  0.00000000000E+00  0.00000000000E+00  0.45593999997E+02  0.45594000000E+02  0.51100000000E-03 0. -1.
         11   -1    0    0    0    0 -0.00000000000E+00 -0.00000000000E+00 -0.45593999997E+02  0.45594000000E+02  0.51100000000E-03 0.  1.
         23    2    1    2    0    0 -0.35527136788E-14 -0.35527136788E-14 -0.17763568394E-14  0.91188000000E+02  0.91188000000E+02 0.  0.
    9900012    2    3    3    0    0 -0.28509002170E+02 -0.20962490022E+02 -0.10177939135E+02  0.54367086952E+02  0.40000006325E+02 0.  0.
         12    1    3    3    0    0  0.28509002170E+02  0.20962490022E+02  0.10177939135E+02  0.36820913048E+02  0.00000000000E+00 0. -1.
         11    1    4    4    0    0 -0.85487295805E+01 -0.17698783635E+02 -0.15925376558E+02  0.25297140913E+02  0.51100000000E-03 0. -1.
        -11    1    4    4    0    0 -0.61209984655E+01  0.50213984174E+00 -0.73977044261E+01  0.96148217702E+01  0.51100000000E-03 0.  1.
         12    1    4    4    0    0 -0.13839274124E+02 -0.37658462288E+01  0.13145141849E+02  0.19455124269E+02  0.00000000000E+00 0. -1.
</event>
<event>
 8    1  0.2501893E-006  0.9118800E+02  0.7816164E-02  0.1184000E+00
        -11   -1    0    0    0    0  0.00000000000E+00  0.00000000000E+00  0.45593999997E+02  0.45594000000E+02  0.51100000000E-03 0.  1.
         11   -1    0    0    0    0 -0.00000000000E+00 -0.00000000000E+00 -0.45593999997E+02  0.45594000000E+02  0.51100000000E-03 0. -1.
         23    2    1    2    0    0  0.00000000000E+00 -0.17763568394E-14  0.00000000000E+00  0.91188000000E+02  0.91188000000E+02 0.  0.
    9900012    2    3    3    0    0 -0.42077443557E+01  0.84416115936E+01 -0.35592363455E+02  0.54367051408E+02  0.39999925296E+02 0.  0.
        -12    1    3    3    0    0  0.42077443557E+01 -0.84416115936E+01  0.35592363455E+02  0.36820948592E+02  0.00000000000E+00 0.  1.
         11    1    4    4    0    0  0.15033005992E+01 -0.44792876485E+01 -0.23808411312E+02  0.24272708543E+02  0.51100000000E-03 0. -1.
        -11    1    4    4    0    0 -0.14022548119E+02  0.76802593884E+01 -0.18045811715E+01  0.16089585249E+02  0.51100000000E-03 0.  1.
        -12    1    4    4    0    0  0.83115031638E+01  0.52406398537E+01 -0.99793709713E+01  0.14004757617E+02  0.00000000000E+00 0.  1.
</event>
<event>
 8    1  0.2501893E-006  0.9118800E+02  0.7816164E-02  0.1184000E+00
        -11   -1    0    0    0    0  0.00000000000E+00  0.00000000000E+00  0.45593999997E+02  0.45594000000E+02  0.51100000000E-03 0.  1.
         11   -1    0    0    0    0 -0.00000000000E+00 -0.00000000000E+00 -0.45593999997E+02  0.45594000000E+02  0.51100000000E-03 0. -1.
         23    2    1    2    0    0  0.35527136788E-14  0.44408920985E-15  0.00000000000E+00  0.91188000000E+02  0.91188000000E+02 0.  0.
    9900012    2    3    3    0    0  0.30685564463E+02  0.39335286317E+01 -0.19967559898E+02  0.54367082545E+02  0.39999996278E+02 0.  0.
        -12    1    3    3    0    0 -0.30685564463E+02 -0.39335286317E+01  0.19967559898E+02  0.36820917455E+02  0.00000000000E+00 0.  1.
         11    1    4    4    0    0  0.53111580615E+01 -0.31544787891E+01 -0.84027113393E+01  0.10429031331E+02  0.51100000000E-03 0. -1.
        -11    1    4    4    0    0  0.20391073163E+02 -0.28155783844E+01 -0.20980778741E+02  0.29392455209E+02  0.51100000000E-03 0.  1.
        -12    1    4    4    0    0  0.49833332385E+01  0.99035858052E+01  0.94159301814E+01  0.14545596005E+02  0.00000000000E+00 0.  1.
</event>
<event>
 8    1  0.2501893E-006  0.9118800E+02  0.7816164E-02  0.1184000E+00
        -11   -1    0    0    0    0  0.00000000000E+00  0.00000000000E+00  0.45593999997E+02  0.45594000000E+02  0.51100000000E-03 0.  1.
         11   -1    0    0    0    0 -0.00000000000E+00 -0.00000000000E+00 -0.45593999997E+02  0.45594000000E+02  0.51100000000E-03 0. -1.
         23    2    1    2    0    0  0.00000000000E+00 -0.17763568394E-14  0.00000000000E+00  0.91188000000E+02  0.91188000000E+02 0.  0.
    9900012    2    3    3    0    0  0.83085388194E+01  0.10166411000E+02 -0.34400462523E+02  0.54367088119E+02  0.40000008985E+02 0.  0.
        -12    1    3    3    0    0 -0.83085388194E+01 -0.10166411000E+02  0.34400462523E+02  0.36820911881E+02  0.00000000000E+00 0.  1.
         11    1    4    4    0    0  0.61161258835E+01  0.10765172636E+02 -0.45197084239E+01  0.13180428757E+02  0.51100000000E-03 0. -1.
        -11    1    4    4    0    0  0.26141237556E+01 -0.85863157851E+01  0.12343367631E+01  0.90599144189E+01  0.51100000000E-03 0.  1.
         12    1    4    4    0    0 -0.42171081980E+00  0.79875541492E+01 -0.31115090862E+02  0.32126744943E+02  0.00000000000E+00 0. -1.
</event>
<event>
 8    1  0.2501893E-006  0.9118800E+02  0.7816164E-02  0.1184000E+00
        -11   -1    0    0    0    0  0.00000000000E+00  0.00000000000E+00  0.45593999997E+02  0.45594000000E+02  0.51100000000E-03 0.  1.
         11   -1    0    0    0    0 -0.00000000000E+00 -0.00000000000E+00 -0.45593999997E+02  0.45594000000E+02  0.51100000000E-03 0. -1.
         23    2    1    2    0    0  0.17763568394E-14  0.71054273576E-14  0.11102230246E-14  0.91188000000E+02  0.91188000000E+02 0.  0.
    9900012    2    3    3    0    0  0.15332435358E+02  0.33424582846E+02  0.18692154508E+01  0.54367078246E+02  0.39999986478E+02 0.  0.
         12    1    3    3    0    0 -0.15332435358E+02 -0.33424582846E+02 -0.18692154508E+01  0.36820921754E+02  0.00000000000E+00 0. -1.
         11    1    4    4    0    0  0.28439002108E+01 -0.31025029850E+01  0.22412138642E+01  0.47682631038E+01  0.51100000000E-03 0. -1.
        -11    1    4    4    0    0  0.14722600845E+02  0.84623776584E+01 -0.10164372010E+02  0.19790939086E+02  0.51100000000E-03 0.  1.
        -12    1    4    4    0    0 -0.22340656980E+01  0.28064708172E+02  0.97923735968E+01  0.29807876056E+02  0.00000000000E+00 0.  1.
</event>
<event>
 8    1  0.2501893E-006  0.9118800E+02  0.7816164E-02  0.1184000E+00
        -11   -1    0    0    0    0  0.00000000000E+00  0.00000000000E+00  0.45593999997E+02  0.45594000000E+02  0.51100000000E-03 0. -1.
         11   -1    0    0    0    0 -0.00000000000E+00 -0.00000000000E+00 -0.45593999997E+02  0.45594000000E+02  0.51100000000E-03 0.  1.
         23    2    1    2    0    0  0.00000000000E+00  0.00000000000E+00  0.00000000000E+00  0.91188000000E+02  0.91188000000E+02 0.  0.
    9900012    2    3    3    0    0 -0.12308123395E+02  0.26856945893E+02  0.21977268492E+02  0.54367003618E+02  0.39999816347E+02 0.  0.
        -12    1    3    3    0    0  0.12308123395E+02 -0.26856945893E+02 -0.21977268492E+02  0.36820996382E+02  0.00000000000E+00 0.  1.
         11    1    4    4    0    0  0.16432486118E+01  0.95236396318E+01  0.87205186591E+01  0.13017197232E+02  0.51100000000E-03 0. -1.
        -11    1    4    4    0    0  0.85439408405E+01  0.11950980731E+02  0.21454349451E-02  0.14690979218E+02  0.51100000000E-03 0.  1.
         12    1    4    4    0    0 -0.22495312847E+02  0.53823255310E+01  0.13254604398E+02  0.26658827168E+02  0.00000000000E+00 0. -1.
</event>
<event>
 8    1  0.2501893E-006  0.9118800E+02  0.7816164E-02  0.1184000E+00
        -11   -1    0    0    0    0  0.00000000000E+00  0.00000000000E+00  0.45593999997E+02  0.45594000000E+02  0.51100000000E-03 0.  1.
         11   -1    0    0    0    0 -0.00000000000E+00 -0.00000000000E+00 -0.45593999997E+02  0.45594000000E+02  0.51100000000E-03 0. -1.
         23    2    1    2    0    0 -0.91593399532E-15  0.17763568394E-14  0.00000000000E+00  0.91188000000E+02  0.91188000000E+02 0.  0.
    9900012    2    3    3    0    0 -0.16995551692E+00 -0.11981905061E+02 -0.34816450316E+02  0.54367080044E+02  0.39999990576E+02 0.  0.
        -12    1    3    3    0    0  0.16995551692E+00  0.11981905061E+02  0.34816450316E+02  0.36820919956E+02  0.00000000000E+00 0.  1.
         11    1    4    4    0    0  0.42839990912E+01 -0.13528069724E+02 -0.33434810500E+02  0.36321451954E+02  0.51100000000E-03 0. -1.
        -11    1    4    4    0    0 -0.69342331036E+01 -0.65195867646E+01 -0.15985547384E+00  0.95191467238E+01  0.51100000000E-03 0.  1.
         12    1    4    4    0    0  0.24802784955E+01  0.80657514274E+01 -0.12217843430E+01  0.85264813660E+01  0.00000000000E+00 0. -1.
</event>
<event>
 8    1  0.2501893E-006  0.9118800E+02  0.7816164E-02  0.1184000E+00
        -11   -1    0    0    0    0  0.00000000000E+00  0.00000000000E+00  0.45593999997E+02  0.45594000000E+02  0.51100000000E-03 0.  1.
         11   -1    0    0    0    0 -0.00000000000E+00 -0.00000000000E+00 -0.45593999997E+02  0.45594000000E+02  0.51100000000E-03 0. -1.
         23    2    1    2    0    0  0.00000000000E+00 -0.35527136788E-14 -0.17763568394E-14  0.91188000000E+02  0.91188000000E+02 0.  0.
    9900012    2    3    3    0    0 -0.21831666618E+02  0.28220455749E+02  0.90974868492E+01  0.54367081258E+02  0.39999993345E+02 0.  0.
         12    1    3    3    0    0  0.21831666618E+02 -0.28220455749E+02 -0.90974868492E+01  0.36820918742E+02  0.00000000000E+00 0. -1.
         11    1    4    4    0    0 -0.29504399094E+02  0.25930833184E+02  0.67015629151E+01  0.39847567320E+02  0.51100000000E-03 0. -1.
        -11    1    4    4    0    0  0.87565311844E+01  0.58677079835E+01  0.22491422247E+01  0.10778008924E+02  0.51100000000E-03 0.  1.
         12    1    4    4    0    0 -0.10837987083E+01 -0.35780854187E+01  0.14678170939E+00  0.37415050146E+01  0.00000000000E+00 0. -1.
</event>
<event>
 8    1  0.2501893E-006  0.9118800E+02  0.7816164E-02  0.1184000E+00
        -11   -1    0    0    0    0  0.00000000000E+00  0.00000000000E+00  0.45593999997E+02  0.45594000000E+02  0.51100000000E-03 0.  1.
         11   -1    0    0    0    0 -0.00000000000E+00 -0.00000000000E+00 -0.45593999997E+02  0.45594000000E+02  0.51100000000E-03 0. -1.
         23    2    1    2    0    0  0.00000000000E+00  0.71054273576E-14  0.22204460493E-15  0.91188000000E+02  0.91188000000E+02 0.  0.
    9900012    2    3    3    0    0 -0.20343085490E+01 -0.36735601281E+02 -0.14616123785E+01  0.54367093934E+02  0.40000022241E+02 0.  0.
        -12    1    3    3    0    0  0.20343085490E+01  0.36735601281E+02  0.14616123785E+01  0.36820906066E+02  0.00000000000E+00 0.  1.
         11    1    4    4    0    0  0.12602367808E+01 -0.24518158992E+02 -0.14361579402E+02  0.28442631389E+02  0.51100000000E-03 0. -1.
        -11    1    4    4    0    0 -0.40101896517E+01  0.25591817971E+01  0.96775988210E+01  0.10783642785E+02  0.51100000000E-03 0.  1.
        -12    1    4    4    0    0  0.71564432186E+00 -0.14776624086E+02  0.32223682029E+01  0.15140819760E+02  0.00000000000E+00 0.  1.
</event>
<event>
 8    1  0.2501893E-006  0.9118800E+02  0.7816164E-02  0.1184000E+00
        -11   -1    0    0    0    0  0.00000000000E+00  0.00000000000E+00  0.45593999997E+02  0.45594000000E+02  0.51100000000E-03 0.  1.
         11   -1    0    0    0    0 -0.00000000000E+00 -0.00000000000E+00 -0.45593999997E+02  0.45594000000E+02  0.51100000000E-03 0. -1.
         23    2    1    2    0    0  0.00000000000E+00  0.00000000000E+00  0.77715611724E-15  0.91188000000E+02  0.91188000000E+02 0.  0.
    9900012    2    3    3    0    0 -0.23349990866E+02 -0.28460151021E+02 -0.76001848290E+00  0.54367083421E+02  0.39999998276E+02 0.  0.
         12    1    3    3    0    0  0.23349990866E+02  0.28460151021E+02  0.76001848290E+00  0.36820916579E+02  0.00000000000E+00 0. -1.
         11    1    4    4    0    0  0.71555781147E+01  0.13073918408E+01  0.21751312341E+01  0.75922834330E+01  0.51100000000E-03 0. -1.
        -11    1    4    4    0    0 -0.18220298965E+02 -0.75882501087E+01 -0.73064738485E+01  0.21046267946E+02  0.51100000000E-03 0.  1.
         12    1    4    4    0    0 -0.12285270016E+02 -0.22179292753E+02  0.43713241315E+01  0.25728532043E+02  0.00000000000E+00 0. -1.
</event>
<event>
 8    1  0.2501893E-006  0.9118800E+02  0.7816164E-02  0.1184000E+00
        -11   -1    0    0    0    0  0.00000000000E+00  0.00000000000E+00  0.45593999997E+02  0.45594000000E+02  0.51100000000E-03 0. -1.
         11   -1    0    0    0    0 -0.00000000000E+00 -0.00000000000E+00 -0.45593999997E+02  0.45594000000E+02  0.51100000000E-03 0.  1.
         23    2    1    2    0    0 -0.71054273576E-14 -0.44408920985E-15  0.71054273576E-14  0.91188000000E+02  0.91188000000E+02 0.  0.
    9900012    2    3    3    0    0  0.20411135571E+02 -0.24448411860E+01 -0.30548199110E+02  0.54367025372E+02  0.39999865939E+02 0.  0.
         12    1    3    3    0    0 -0.20411135571E+02  0.24448411860E+01  0.30548199110E+02  0.36820974628E+02  0.00000000000E+00 0. -1.
         11    1    4    4    0    0 -0.44281888774E+01 -0.45511508048E+01 -0.24632335708E+01  0.68109727843E+01  0.51100000000E-03 0. -1.
        -11    1    4    4    0    0  0.20893517122E+02 -0.39140500035E+01 -0.32702575498E+02  0.39004067603E+02  0.51100000000E-03 0.  1.
         12    1    4    4    0    0  0.39458073271E+01  0.60203596223E+01  0.46176099585E+01  0.85519849844E+01  0.00000000000E+00 0. -1.
</event>
<event>
 8    1  0.2501893E-006  0.9118800E+02  0.7816164E-02  0.1184000E+00
        -11   -1    0    0    0    0  0.00000000000E+00  0.00000000000E+00  0.45593999997E+02  0.45594000000E+02  0.51100000000E-03 0. -1.
         11   -1    0    0    0    0 -0.00000000000E+00 -0.00000000000E+00 -0.45593999997E+02  0.45594000000E+02  0.51100000000E-03 0.  1.
         23    2    1    2    0    0  0.35527136788E-14  0.00000000000E+00  0.00000000000E+00  0.91188000000E+02  0.91188000000E+02 0.  0.
    9900012    2    3    3    0    0  0.31774559572E+02  0.15785443977E+02  0.98476843830E+01  0.54367085220E+02  0.40000002376E+02 0.  0.
        -12    1    3    3    0    0 -0.31774559572E+02 -0.15785443977E+02 -0.98476843830E+01  0.36820914780E+02  0.00000000000E+00 0.  1.
         11    1    4    4    0    0  0.47160039596E+01 -0.28498709091E+01  0.13996097237E+02  0.15041715184E+02  0.51100000000E-03 0. -1.
        -11    1    4    4    0    0  0.30667313975E+02  0.16845346206E+02 -0.45197788414E+01  0.35279997680E+02  0.51100000000E-03 0.  1.
        -12    1    4    4    0    0 -0.36087583632E+01  0.17899686801E+01  0.37136598709E+00  0.40453723557E+01  0.00000000000E+00 0.  1.
</event>
<event>
 8    1  0.2501893E-006  0.9118800E+02  0.7816164E-02  0.1184000E+00
        -11   -1    0    0    0    0  0.00000000000E+00  0.00000000000E+00  0.45593999997E+02  0.45594000000E+02  0.51100000000E-03 0. -1.
         11   -1    0    0    0    0 -0.00000000000E+00 -0.00000000000E+00 -0.45593999997E+02  0.45594000000E+02  0.51100000000E-03 0.  1.
         23    2    1    2    0    0 -0.26645352591E-14 -0.35527136788E-14 -0.35527136788E-14  0.91188000000E+02  0.91188000000E+02 0.  0.
    9900012    2    3    3    0    0  0.49772092374E+01  0.18522787984E+02  0.31431113298E+02  0.54367066149E+02  0.39999958900E+02 0.  0.
        -12    1    3    3    0    0 -0.49772092374E+01 -0.18522787984E+02 -0.31431113298E+02  0.36820933851E+02  0.00000000000E+00 0.  1.
         11    1    4    4    0    0 -0.58858731721E+01  0.71812726964E+01  0.15695442635E+02  0.18236257849E+02  0.51100000000E-03 0. -1.
        -11    1    4    4    0    0  0.19333297393E+02  0.11176402767E+02  0.57972359716E+01  0.23071547674E+02  0.51100000000E-03 0.  1.
        -12    1    4    4    0    0 -0.84702149833E+01  0.16511252079E+00  0.99384346911E+01  0.13059260627E+02  0.00000000000E+00 0.  1.
</event>
<event>
 8    1  0.2501893E-006  0.9118800E+02  0.7816164E-02  0.1184000E+00
        -11   -1    0    0    0    0  0.00000000000E+00  0.00000000000E+00  0.45593999997E+02  0.45594000000E+02  0.51100000000E-03 0.  1.
         11   -1    0    0    0    0 -0.00000000000E+00 -0.00000000000E+00 -0.45593999997E+02  0.45594000000E+02  0.51100000000E-03 0. -1.
         23    2    1    2    0    0  0.00000000000E+00  0.13322676296E-14  0.00000000000E+00  0.91188000000E+02  0.91188000000E+02 0.  0.
    9900012    2    3    3    0    0  0.10316670019E+02 -0.36301010297E+01 -0.35159196522E+02  0.54367076412E+02  0.39999982297E+02 0.  0.
        -12    1    3    3    0    0 -0.10316670019E+02  0.36301010297E+01  0.35159196522E+02  0.36820923588E+02  0.00000000000E+00 0.  1.
         11    1    4    4    0    0 -0.79004048582E+01 -0.38777235096E+01 -0.20448049662E+02  0.22261533455E+02  0.51100000000E-03 0. -1.
        -11    1    4    4    0    0  0.35227542864E+01 -0.91583989951E+01 -0.90004522127E+00  0.98537379495E+01  0.51100000000E-03 0.  1.
        -12    1    4    4    0    0  0.14694320591E+02  0.94060214750E+01 -0.13811101639E+02  0.22251805008E+02  0.00000000000E+00 0.  1.
</event>
<event>
 8    1  0.2501893E-006  0.9118800E+02  0.7816164E-02  0.1184000E+00
        -11   -1    0    0    0    0  0.00000000000E+00  0.00000000000E+00  0.45593999997E+02  0.45594000000E+02  0.51100000000E-03 0.  1.
         11   -1    0    0    0    0 -0.00000000000E+00 -0.00000000000E+00 -0.45593999997E+02  0.45594000000E+02  0.51100000000E-03 0. -1.
         23    2    1    2    0    0  0.00000000000E+00  0.00000000000E+00  0.12212453271E-14  0.91188000000E+02  0.91188000000E+02 0.  0.
    9900012    2    3    3    0    0  0.20837701055E+02 -0.30347666554E+02  0.76625077366E+00  0.54367112032E+02  0.40000063499E+02 0.  0.
         12    1    3    3    0    0 -0.20837701055E+02  0.30347666554E+02 -0.76625077366E+00  0.36820887968E+02  0.00000000000E+00 0. -1.
         11    1    4    4    0    0  0.19391818846E+01  0.14185218028E+01 -0.73251903693E+01  0.77091533059E+01  0.51100000000E-03 0. -1.
        -11    1    4    4    0    0  0.46477879560E+01 -0.30902209594E+02  0.84656439125E+01  0.32376158169E+02  0.51100000000E-03 0.  1.
        -12    1    4    4    0    0  0.14250731214E+02 -0.86397876247E+00 -0.37420276958E+00  0.14281800557E+02  0.00000000000E+00 0.  1.
</event>
<event>
 8    1  0.2501893E-006  0.9118800E+02  0.7816164E-02  0.1184000E+00
        -11   -1    0    0    0    0  0.00000000000E+00  0.00000000000E+00  0.45593999997E+02  0.45594000000E+02  0.51100000000E-03 0.  1.
         11   -1    0    0    0    0 -0.00000000000E+00 -0.00000000000E+00 -0.45593999997E+02  0.45594000000E+02  0.51100000000E-03 0. -1.
         23    2    1    2    0    0  0.00000000000E+00  0.00000000000E+00  0.17763568394E-14  0.91188000000E+02  0.91188000000E+02 0.  0.
    9900012    2    3    3    0    0 -0.34248689216E+02  0.25292904427E+01  0.13281962778E+02  0.54367074449E+02  0.39999977822E+02 0.  0.
         12    1    3    3    0    0  0.34248689216E+02 -0.25292904427E+01 -0.13281962778E+02  0.36820925551E+02  0.00000000000E+00 0. -1.
         11    1    4    4    0    0 -0.12685595024E+02  0.14323969092E+01 -0.58286355520E+01  0.14033854591E+02  0.51100000000E-03 0. -1.
        -11    1    4    4    0    0 -0.27750521276E+02  0.39046744212E+01  0.11960372185E+02  0.30469466955E+02  0.51100000000E-03 0.  1.
        -12    1    4    4    0    0  0.61874270837E+01 -0.28077808877E+01  0.71502261447E+01  0.98637529039E+01  0.00000000000E+00 0.  1.
</event>
<event>
 8    1  0.2501893E-006  0.9118800E+02  0.7816164E-02  0.1184000E+00
        -11   -1    0    0    0    0  0.00000000000E+00  0.00000000000E+00  0.45593999997E+02  0.45594000000E+02  0.51100000000E-03 0. -1.
         11   -1    0    0    0    0 -0.00000000000E+00 -0.00000000000E+00 -0.45593999997E+02  0.45594000000E+02  0.51100000000E-03 0.  1.
         23    2    1    2    0    0  0.00000000000E+00  0.71054273576E-14 -0.17763568394E-14  0.91188000000E+02  0.91188000000E+02 0.  0.
    9900012    2    3    3    0    0 -0.60320089331E+01 -0.34301794141E+02  0.11949145989E+02  0.54367077919E+02  0.39999985731E+02 0.  0.
        -12    1    3    3    0    0  0.60320089331E+01  0.34301794141E+02 -0.11949145989E+02  0.36820922081E+02  0.00000000000E+00 0.  1.
         11    1    4    4    0    0 -0.25720939954E+01 -0.92510747781E+01  0.11225966822E+02  0.14772284299E+02  0.51100000000E-03 0. -1.
        -11    1    4    4    0    0 -0.70673970196E+01  0.25996040264E+01 -0.73931446319E+01  0.10552944117E+02  0.51100000000E-03 0.  1.
        -12    1    4    4    0    0  0.36074820818E+01 -0.27650323389E+02  0.81163237994E+01  0.29041849502E+02  0.00000000000E+00 0.  1.
</event>
<event>
 8    1  0.2501893E-006  0.9118800E+02  0.7816164E-02  0.1184000E+00
        -11   -1    0    0    0    0  0.00000000000E+00  0.00000000000E+00  0.45593999997E+02  0.45594000000E+02  0.51100000000E-03 0. -1.
         11   -1    0    0    0    0 -0.00000000000E+00 -0.00000000000E+00 -0.45593999997E+02  0.45594000000E+02  0.51100000000E-03 0.  1.
         23    2    1    2    0    0  0.00000000000E+00  0.00000000000E+00 -0.44408920985E-15  0.91188000000E+02  0.91188000000E+02 0.  0.
    9900012    2    3    3    0    0 -0.14227367979E+02 -0.33907709673E+02  0.19051536485E+01  0.54367076800E+02  0.39999983181E+02 0.  0.
         12    1    3    3    0    0  0.14227367979E+02  0.33907709673E+02 -0.19051536485E+01  0.36820923200E+02  0.00000000000E+00 0. -1.
         11    1    4    4    0    0 -0.39560754323E+01  0.65715337596E+01 -0.73787329707E+01  0.10643368325E+02  0.51100000000E-03 0. -1.
        -11    1    4    4    0    0 -0.82706166720E+01 -0.22655797673E+02  0.91276741288E+01  0.25787646337E+02  0.51100000000E-03 0.  1.
        -12    1    4    4    0    0 -0.20006758743E+01 -0.17823445759E+02  0.15621249044E+00  0.17936062138E+02  0.00000000000E+00 0.  1.
</event>
<event>
 8    1  0.2501893E-006  0.9118800E+02  0.7816164E-02  0.1184000E+00
        -11   -1    0    0    0    0  0.00000000000E+00  0.00000000000E+00  0.45593999997E+02  0.45594000000E+02  0.51100000000E-03 0.  1.
         11   -1    0    0    0    0 -0.00000000000E+00 -0.00000000000E+00 -0.45593999997E+02  0.45594000000E+02  0.51100000000E-03 0. -1.
         23    2    1    2    0    0  0.00000000000E+00  0.00000000000E+00  0.00000000000E+00  0.91188000000E+02  0.91188000000E+02 0.  0.
    9900012    2    3    3    0    0  0.26750672808E+02 -0.22770722295E+02  0.11030658400E+02  0.54367085912E+02  0.40000003954E+02 0.  0.
         12    1    3    3    0    0 -0.26750672808E+02  0.22770722295E+02 -0.11030658400E+02  0.36820914088E+02  0.00000000000E+00 0. -1.
         11    1    4    4    0    0  0.10221069974E+02 -0.10751397655E+02 -0.11671978557E+02  0.18875855124E+02  0.51100000000E-03 0. -1.
        -11    1    4    4    0    0  0.49344233946E+01 -0.34731976479E+01  0.19928734041E+02  0.20822249563E+02  0.51100000000E-03 0.  1.
        -12    1    4    4    0    0  0.11595179439E+02 -0.85461269920E+01  0.27739029165E+01  0.14668981225E+02  0.00000000000E+00 0.  1.
</event>
<event>
 8    1  0.2501893E-006  0.9118800E+02  0.7816164E-02  0.1184000E+00
        -11   -1    0    0    0    0  0.00000000000E+00  0.00000000000E+00  0.45593999997E+02  0.45594000000E+02  0.51100000000E-03 0. -1.
         11   -1    0    0    0    0 -0.00000000000E+00 -0.00000000000E+00 -0.45593999997E+02  0.45594000000E+02  0.51100000000E-03 0.  1.
         23    2    1    2    0    0  0.00000000000E+00  0.00000000000E+00  0.00000000000E+00  0.91188000000E+02  0.91188000000E+02 0.  0.
    9900012    2    3    3    0    0 -0.24338512285E+02  0.13633600393E+02 -0.24032107482E+02  0.54367076194E+02  0.39999981799E+02 0.  0.
        -12    1    3    3    0    0  0.24338512285E+02 -0.13633600393E+02  0.24032107482E+02  0.36820923806E+02  0.00000000000E+00 0.  1.
         11    1    4    4    0    0 -0.20902600351E+01 -0.10464047346E+00 -0.43430681544E+01  0.48210349405E+01  0.51100000000E-03 0. -1.
        -11    1    4    4    0    0 -0.21977174417E+02 -0.75270109947E+01 -0.51792212598E+01  0.23800765176E+02  0.51100000000E-03 0.  1.
         12    1    4    4    0    0 -0.27107783305E+00  0.21265251861E+02 -0.14509818068E+02  0.25745276077E+02  0.00000000000E+00 0. -1.
</event>
<event>
 8    1  0.2501893E-006  0.9118800E+02  0.7816164E-02  0.1184000E+00
        -11   -1    0    0    0    0  0.00000000000E+00  0.00000000000E+00  0.45593999997E+02  0.45594000000E+02  0.51100000000E-03 0. -1.
         11   -1    0    0    0    0 -0.00000000000E+00 -0.00000000000E+00 -0.45593999997E+02  0.45594000000E+02  0.51100000000E-03 0.  1.
         23    2    1    2    0    0  0.00000000000E+00  0.00000000000E+00 -0.17763568394E-14  0.91188000000E+02  0.91188000000E+02 0.  0.
    9900012    2    3    3    0    0 -0.86506072659E+01  0.34771189599E+02 -0.84797040243E+01  0.54367163337E+02  0.40000180459E+02 0.  0.
         12    1    3    3    0    0  0.86506072659E+01 -0.34771189599E+02  0.84797040243E+01  0.36820836663E+02  0.00000000000E+00 0. -1.
         11    1    4    4    0    0  0.11907487358E+02  0.34337304854E+01  0.39918067129E+01  0.13019726622E+02  0.51100000000E-03 0. -1.
        -11    1    4    4    0    0 -0.62811485616E+00  0.10693734079E+02 -0.28820088451E+01  0.11093081270E+02  0.51100000000E-03 0.  1.
         12    1    4    4    0    0 -0.19929979767E+02  0.20643725035E+02 -0.95895018921E+01  0.30254355445E+02  0.00000000000E+00 0. -1.
</event>
<event>
 8    1  0.2501893E-006  0.9118800E+02  0.7816164E-02  0.1184000E+00
        -11   -1    0    0    0    0  0.00000000000E+00  0.00000000000E+00  0.45593999997E+02  0.45594000000E+02  0.51100000000E-03 0.  1.
         11   -1    0    0    0    0 -0.00000000000E+00 -0.00000000000E+00 -0.45593999997E+02  0.45594000000E+02  0.51100000000E-03 0. -1.
         23    2    1    2    0    0  0.00000000000E+00 -0.17763568394E-14 -0.44408920985E-15  0.91188000000E+02  0.91188000000E+02 0.  0.
    9900012    2    3    3    0    0  0.33996480765E+02  0.13943852665E+02 -0.23642741942E+01  0.54367061337E+02  0.39999947931E+02 0.  0.
         12    1    3    3    0    0 -0.33996480765E+02 -0.13943852665E+02  0.23642741942E+01  0.36820938663E+02  0.00000000000E+00 0. -1.
         11    1    4    4    0    0  0.24488737412E+01  0.15697662360E+02 -0.46674653818E+01  0.16558949831E+02  0.51100000000E-03 0. -1.
        -11    1    4    4    0    0  0.14643252025E+01  0.44302038302E+01  0.51677373670E+01  0.69625041495E+01  0.51100000000E-03 0.  1.
         12    1    4    4    0    0  0.30083281821E+02 -0.61840135248E+01 -0.28645461794E+01  0.30845607357E+02  0.00000000000E+00 0. -1.
</event>
<event>
 8    1  0.2501893E-006  0.9118800E+02  0.7816164E-02  0.1184000E+00
        -11   -1    0    0    0    0  0.00000000000E+00  0.00000000000E+00  0.45593999997E+02  0.45594000000E+02  0.51100000000E-03 0.  1.
         11   -1    0    0    0    0 -0.00000000000E+00 -0.00000000000E+00 -0.45593999997E+02  0.45594000000E+02  0.51100000000E-03 0. -1.
         23    2    1    2    0    0  0.00000000000E+00  0.17763568394E-14  0.00000000000E+00  0.91188000000E+02  0.91188000000E+02 0.  0.
    9900012    2    3    3    0    0  0.12703766287E+02  0.53997664325E+01 -0.34135550458E+02  0.54367096148E+02  0.40000027288E+02 0.  0.
        -12    1    3    3    0    0 -0.12703766287E+02 -0.53997664325E+01  0.34135550458E+02  0.36820903852E+02  0.00000000000E+00 0.  1.
         11    1    4    4    0    0 -0.73447819022E+01 -0.41836455939E+01 -0.24465770444E+01  0.87996847183E+01  0.51100000000E-03 0. -1.
        -11    1    4    4    0    0 -0.70419601860E-01  0.13342387819E+01  0.37546535298E+01  0.39852948997E+01  0.51100000000E-03 0.  1.
         12    1    4    4    0    0  0.20118967791E+02  0.82491732445E+01 -0.35443626944E+02  0.41582116530E+02  0.00000000000E+00 0. -1.
</event>
<event>
 8    1  0.2501893E-006  0.9118800E+02  0.7816164E-02  0.1184000E+00
        -11   -1    0    0    0    0  0.00000000000E+00  0.00000000000E+00  0.45593999997E+02  0.45594000000E+02  0.51100000000E-03 0. -1.
         11   -1    0    0    0    0 -0.00000000000E+00 -0.00000000000E+00 -0.45593999997E+02  0.45594000000E+02  0.51100000000E-03 0.  1.
         23    2    1    2    0    0  0.00000000000E+00  0.00000000000E+00  0.00000000000E+00  0.91188000000E+02  0.91188000000E+02 0.  0.
    9900012    2    3    3    0    0 -0.21806653259E+02 -0.16109446007E+02 -0.24914594341E+02  0.54367063182E+02  0.39999952135E+02 0.  0.
         12    1    3    3    0    0  0.21806653259E+02  0.16109446007E+02  0.24914594341E+02  0.36820936818E+02  0.00000000000E+00 0. -1.
         11    1    4    4    0    0 -0.27840476859E-01 -0.21153228507E+02 -0.56177940442E+01  0.21886513234E+02  0.51100000000E-03 0. -1.
        -11    1    4    4    0    0 -0.94370469361E+01 -0.45560470414E+01 -0.72629918641E+01  0.12750155709E+02  0.51100000000E-03 0.  1.
        -12    1    4    4    0    0 -0.12341765846E+02  0.95998295416E+01 -0.12033808433E+02  0.19730394239E+02  0.00000000000E+00 0.  1.
</event>
<event>
 8    1  0.2501893E-006  0.9118800E+02  0.7816164E-02  0.1184000E+00
        -11   -1    0    0    0    0  0.00000000000E+00  0.00000000000E+00  0.45593999997E+02  0.45594000000E+02  0.51100000000E-03 0. -1.
         11   -1    0    0    0    0 -0.00000000000E+00 -0.00000000000E+00 -0.45593999997E+02  0.45594000000E+02  0.51100000000E-03 0.  1.
         23    2    1    2    0    0 -0.71054273576E-14 -0.17763568394E-14  0.00000000000E+00  0.91188000000E+02  0.91188000000E+02 0.  0.
    9900012    2    3    3    0    0 -0.33740949782E+02 -0.93093129087E+01 -0.11430951019E+02  0.54367059759E+02  0.39999944333E+02 0.  0.
         12    1    3    3    0    0  0.33740949782E+02  0.93093129087E+01  0.11430951019E+02  0.36820940241E+02  0.00000000000E+00 0. -1.
         11    1    4    4    0    0 -0.25700959496E+02 -0.18780901027E+02 -0.27526505475E+01  0.31950565687E+02  0.51100000000E-03 0. -1.
        -11    1    4    4    0    0 -0.12794306791E+02  0.72899999334E+01 -0.88545191422E+01  0.17182575325E+02  0.51100000000E-03 0.  1.
         12    1    4    4    0    0  0.47543165051E+01  0.21815881849E+01  0.17621867078E+00  0.52339187478E+01  0.00000000000E+00 0. -1.
</event>
<event>
 8    1  0.2501893E-006  0.9118800E+02  0.7816164E-02  0.1184000E+00
        -11   -1    0    0    0    0  0.00000000000E+00  0.00000000000E+00  0.45593999997E+02  0.45594000000E+02  0.51100000000E-03 0. -1.
         11   -1    0    0    0    0 -0.00000000000E+00 -0.00000000000E+00 -0.45593999997E+02  0.45594000000E+02  0.51100000000E-03 0.  1.
         23    2    1    2    0    0  0.00000000000E+00  0.88817841970E-15 -0.71054273576E-14  0.91188000000E+02  0.91188000000E+02 0.  0.
    9900012    2    3    3    0    0  0.98869747083E+01 -0.52163490207E+01  0.35083021136E+02  0.54367069295E+02  0.39999966071E+02 0.  0.
        -12    1    3    3    0    0 -0.98869747083E+01  0.52163490207E+01 -0.35083021136E+02  0.36820930705E+02  0.00000000000E+00 0.  1.
         11    1    4    4    0    0  0.76734537786E+01 -0.60638557549E+01  0.20515500656E+02  0.22727472515E+02  0.51100000000E-03 0. -1.
        -11    1    4    4    0    0 -0.36109877425E+01 -0.61432397075E+01 -0.58930333255E+01  0.92469707806E+01  0.51100000000E-03 0.  1.
         12    1    4    4    0    0  0.58245086722E+01  0.69907464417E+01  0.20460553806E+02  0.22392625999E+02  0.00000000000E+00 0. -1.
</event>
<event>
 8    1  0.2501893E-006  0.9118800E+02  0.7816164E-02  0.1184000E+00
        -11   -1    0    0    0    0  0.00000000000E+00  0.00000000000E+00  0.45593999997E+02  0.45594000000E+02  0.51100000000E-03 0. -1.
         11   -1    0    0    0    0 -0.00000000000E+00 -0.00000000000E+00 -0.45593999997E+02  0.45594000000E+02  0.51100000000E-03 0.  1.
         23    2    1    2    0    0  0.00000000000E+00  0.00000000000E+00 -0.35527136788E-14  0.91188000000E+02  0.91188000000E+02 0.  0.
    9900012    2    3    3    0    0 -0.10845509018E+02  0.29586895524E+02  0.19046545144E+02  0.54367077489E+02  0.39999984752E+02 0.  0.
        -12    1    3    3    0    0  0.10845509018E+02 -0.29586895524E+02 -0.19046545144E+02  0.36820922511E+02  0.00000000000E+00 0.  1.
         11    1    4    4    0    0 -0.23612047729E-01  0.24631552178E+02  0.15999664300E+02  0.29371809243E+02  0.51100000000E-03 0. -1.
        -11    1    4    4    0    0  0.59855578745E+01 -0.20605619381E+01 -0.79932776868E+00  0.63805755001E+01  0.51100000000E-03 0.  1.
        -12    1    4    4    0    0 -0.16807454845E+02  0.70159052842E+01  0.38462086126E+01  0.18614692746E+02  0.00000000000E+00 0.  1.
</event>
<event>
 8    1  0.2501893E-006  0.9118800E+02  0.7816164E-02  0.1184000E+00
        -11   -1    0    0    0    0  0.00000000000E+00  0.00000000000E+00  0.45593999997E+02  0.45594000000E+02  0.51100000000E-03 0.  1.
         11   -1    0    0    0    0 -0.00000000000E+00 -0.00000000000E+00 -0.45593999997E+02  0.45594000000E+02  0.51100000000E-03 0. -1.
         23    2    1    2    0    0  0.00000000000E+00  0.00000000000E+00 -0.88817841970E-15  0.91188000000E+02  0.91188000000E+02 0.  0.
    9900012    2    3    3    0    0  0.32513626871E+02 -0.17143814378E+02  0.21756018517E+01  0.54367088181E+02  0.40000009127E+02 0.  0.
         12    1    3    3    0    0 -0.32513626871E+02  0.17143814378E+02 -0.21756018517E+01  0.36820911819E+02  0.00000000000E+00 0. -1.
         11    1    4    4    0    0  0.23955917152E+02 -0.21143394221E+02 -0.98976749340E+01  0.33449858821E+02  0.51100000000E-03 0. -1.
        -11    1    4    4    0    0  0.10731978984E+02 -0.16974445822E+01  0.88881099071E+01  0.14037634737E+02  0.51100000000E-03 0.  1.
         12    1    4    4    0    0 -0.21742692657E+01  0.56970244249E+01  0.31851668787E+01  0.68795946234E+01  0.00000000000E+00 0. -1.
</event>
<event>
 8    1  0.2501893E-006  0.9118800E+02  0.7816164E-02  0.1184000E+00
        -11   -1    0    0    0    0  0.00000000000E+00  0.00000000000E+00  0.45593999997E+02  0.45594000000E+02  0.51100000000E-03 0.  1.
         11   -1    0    0    0    0 -0.00000000000E+00 -0.00000000000E+00 -0.45593999997E+02  0.45594000000E+02  0.51100000000E-03 0. -1.
         23    2    1    2    0    0  0.17763568394E-14  0.00000000000E+00 -0.17763568394E-14  0.91188000000E+02  0.91188000000E+02 0.  0.
    9900012    2    3    3    0    0  0.12590463265E+02  0.31311984447E+02  0.14724992502E+02  0.54367006811E+02  0.39999823626E+02 0.  0.
         12    1    3    3    0    0 -0.12590463265E+02 -0.31311984447E+02 -0.14724992502E+02  0.36820993189E+02  0.00000000000E+00 0. -1.
         11    1    4    4    0    0 -0.11557911168E+01  0.14989680200E+02 -0.45242138992E+01  0.15700155327E+02  0.51100000000E-03 0. -1.
        -11    1    4    4    0    0  0.14616373812E+02  0.22164919296E+02  0.11527631564E+02  0.28944918734E+02  0.51100000000E-03 0.  1.
         12    1    4    4    0    0 -0.87011942982E+00 -0.58426150488E+01  0.77215748364E+01  0.97219327494E+01  0.00000000000E+00 0. -1.
</event>
<event>
 8    1  0.2501893E-006  0.9118800E+02  0.7816164E-02  0.1184000E+00
        -11   -1    0    0    0    0  0.00000000000E+00  0.00000000000E+00  0.45593999997E+02  0.45594000000E+02  0.51100000000E-03 0. -1.
         11   -1    0    0    0    0 -0.00000000000E+00 -0.00000000000E+00 -0.45593999997E+02  0.45594000000E+02  0.51100000000E-03 0.  1.
         23    2    1    2    0    0  0.00000000000E+00  0.00000000000E+00  0.00000000000E+00  0.91188000000E+02  0.91188000000E+02 0.  0.
    9900012    2    3    3    0    0  0.17930722726E+02 -0.24952637592E+02 -0.20288810006E+02  0.54367071824E+02  0.39999971838E+02 0.  0.
        -12    1    3    3    0    0 -0.17930722726E+02  0.24952637592E+02  0.20288810006E+02  0.36820928176E+02  0.00000000000E+00 0.  1.
         11    1    4    4    0    0 -0.16734614083E+01  0.65449280565E+01 -0.82956872600E+01  0.10698363600E+02  0.51100000000E-03 0. -1.
        -11    1    4    4    0    0  0.13301266191E+01 -0.48047161084E+01 -0.10101282383E+02  0.11264565671E+02  0.51100000000E-03 0.  1.
         12    1    4    4    0    0  0.18274057515E+02 -0.26692849540E+02 -0.18918403628E+01  0.32404142553E+02  0.00000000000E+00 0. -1.
</event>
<event>
 8    1  0.2501893E-006  0.9118800E+02  0.7816164E-02  0.1184000E+00
        -11   -1    0    0    0    0  0.00000000000E+00  0.00000000000E+00  0.45593999997E+02  0.45594000000E+02  0.51100000000E-03 0. -1.
         11   -1    0    0    0    0 -0.00000000000E+00 -0.00000000000E+00 -0.45593999997E+02  0.45594000000E+02  0.51100000000E-03 0.  1.
         23    2    1    2    0    0 -0.71054273576E-14  0.15543122345E-14 -0.19984014443E-14  0.91188000000E+02  0.91188000000E+02 0.  0.
    9900012    2    3    3    0    0 -0.36782253036E+02 -0.48516442762E+00 -0.16153995076E+01  0.54367095089E+02  0.40000024874E+02 0.  0.
        -12    1    3    3    0    0  0.36782253036E+02  0.48516442762E+00  0.16153995076E+01  0.36820904911E+02  0.00000000000E+00 0.  1.
         11    1    4    4    0    0 -0.12507712121E+02 -0.75046198341E+01  0.88283250952E+01  0.17049970839E+02  0.51100000000E-03 0. -1.
        -11    1    4    4    0    0 -0.22768020000E+02  0.29380864344E+01 -0.17610339792E+02  0.28933357124E+02  0.51100000000E-03 0.  1.
         12    1    4    4    0    0 -0.15065209149E+01  0.40813689721E+01  0.71666151894E+01  0.83837671262E+01  0.00000000000E+00 0. -1.
</event>
<event>
 8    1  0.2501893E-006  0.9118800E+02  0.7816164E-02  0.1184000E+00
        -11   -1    0    0    0    0  0.00000000000E+00  0.00000000000E+00  0.45593999997E+02  0.45594000000E+02  0.51100000000E-03 0.  1.
         11   -1    0    0    0    0 -0.00000000000E+00 -0.00000000000E+00 -0.45593999997E+02  0.45594000000E+02  0.51100000000E-03 0. -1.
         23    2    1    2    0    0  0.00000000000E+00 -0.88817841970E-15  0.00000000000E+00  0.91188000000E+02  0.91188000000E+02 0.  0.
    9900012    2    3    3    0    0 -0.18150991742E+02 -0.33200494374E+01 -0.31863716329E+02  0.54367113973E+02  0.40000067925E+02 0.  0.
        -12    1    3    3    0    0  0.18150991742E+02  0.33200494374E+01  0.31863716329E+02  0.36820886027E+02  0.00000000000E+00 0.  1.
         11    1    4    4    0    0 -0.10966678511E+02  0.52522537151E+01 -0.20310450129E+02  0.23672105765E+02  0.51100000000E-03 0. -1.
        -11    1    4    4    0    0 -0.14211734362E+02 -0.61555283745E+01 -0.15809130885E+02  0.22131257144E+02  0.51100000000E-03 0.  1.
        -12    1    4    4    0    0  0.70274211312E+01 -0.24167747780E+01  0.42558646846E+01  0.85637510646E+01  0.00000000000E+00 0.  1.
</event>
<event>
 8    1  0.2501893E-006  0.9118800E+02  0.7816164E-02  0.1184000E+00
        -11   -1    0    0    0    0  0.00000000000E+00  0.00000000000E+00  0.45593999997E+02  0.45594000000E+02  0.51100000000E-03 0.  1.
         11   -1    0    0    0    0 -0.00000000000E+00 -0.00000000000E+00 -0.45593999997E+02  0.45594000000E+02  0.51100000000E-03 0. -1.
         23    2    1    2    0    0  0.00000000000E+00  0.88817841970E-15 -0.35527136788E-14  0.91188000000E+02  0.91188000000E+02 0.  0.
    9900012    2    3    3    0    0  0.27653251976E+02  0.49508730398E+01 -0.23802645513E+02  0.54367089879E+02  0.40000012996E+02 0.  0.
        -12    1    3    3    0    0 -0.27653251976E+02 -0.49508730398E+01  0.23802645513E+02  0.36820910121E+02  0.00000000000E+00 0.  1.
         11    1    4    4    0    0  0.35816254405E+02  0.18996850640E+01 -0.25117654537E+02  0.43787092307E+02  0.51100000000E-03 0. -1.
        -11    1    4    4    0    0 -0.11148435230E+01 -0.61490484292E+00  0.22452540685E+01  0.25811141276E+01  0.51100000000E-03 0.  1.
         12    1    4    4    0    0 -0.70481589056E+01  0.36660928187E+01 -0.93024504433E+00  0.79988834443E+01  0.00000000000E+00 0. -1.
</event>
<event>
 8    1  0.2501893E-006  0.9118800E+02  0.7816164E-02  0.1184000E+00
        -11   -1    0    0    0    0  0.00000000000E+00  0.00000000000E+00  0.45593999997E+02  0.45594000000E+02  0.51100000000E-03 0. -1.
         11   -1    0    0    0    0 -0.00000000000E+00 -0.00000000000E+00 -0.45593999997E+02  0.45594000000E+02  0.51100000000E-03 0.  1.
         23    2    1    2    0    0  0.00000000000E+00  0.00000000000E+00  0.22204460493E-15  0.91188000000E+02  0.91188000000E+02 0.  0.
    9900012    2    3    3    0    0  0.16296145666E+02 -0.32984604167E+02 -0.14933625018E+01  0.54367100946E+02  0.40000038226E+02 0.  0.
        -12    1    3    3    0    0 -0.16296145666E+02  0.32984604167E+02  0.14933625018E+01  0.36820899054E+02  0.00000000000E+00 0.  1.
         11    1    4    4    0    0  0.77656406410E+01 -0.15861933429E+02  0.11399196458E+02  0.21020175708E+02  0.51100000000E-03 0. -1.
        -11    1    4    4    0    0  0.90023960367E+01  0.35573616052E+01 -0.66359788856E+01  0.11736020280E+02  0.51100000000E-03 0.  1.
         12    1    4    4    0    0 -0.47189101138E+00 -0.20680032343E+02 -0.62565800740E+01  0.21610904957E+02  0.00000000000E+00 0. -1.
</event>
<event>
 8    1  0.2501893E-006  0.9118800E+02  0.7816164E-02  0.1184000E+00
        -11   -1    0    0    0    0  0.00000000000E+00  0.00000000000E+00  0.45593999997E+02  0.45594000000E+02  0.51100000000E-03 0.  1.
         11   -1    0    0    0    0 -0.00000000000E+00 -0.00000000000E+00 -0.45593999997E+02  0.45594000000E+02  0.51100000000E-03 0. -1.
         23    2    1    2    0    0  0.00000000000E+00  0.00000000000E+00 -0.35527136788E-14  0.91188000000E+02  0.91188000000E+02 0.  0.
    9900012    2    3    3    0    0 -0.18518614064E+02 -0.17765314993E+02 -0.26405199217E+02  0.54367081634E+02  0.39999994200E+02 0.  0.
        -12    1    3    3    0    0  0.18518614064E+02  0.17765314993E+02  0.26405199217E+02  0.36820918366E+02  0.00000000000E+00 0.  1.
         11    1    4    4    0    0 -0.16068088749E+01 -0.99135754651E+01 -0.82126265946E+01  0.12973359207E+02  0.51100000000E-03 0. -1.
        -11    1    4    4    0    0 -0.13249678141E+02 -0.12888090134E+02 -0.25689360138E+02  0.31648065702E+02  0.51100000000E-03 0.  1.
        -12    1    4    4    0    0 -0.36621270481E+01  0.50363506064E+01  0.74967875152E+01  0.97456567247E+01  0.00000000000E+00 0.  1.
</event>
<event>
 8    1  0.2501893E-006  0.9118800E+02  0.7816164E-02  0.1184000E+00
        -11   -1    0    0    0    0  0.00000000000E+00  0.00000000000E+00  0.45593999997E+02  0.45594000000E+02  0.51100000000E-03 0. -1.
         11   -1    0    0    0    0 -0.00000000000E+00 -0.00000000000E+00 -0.45593999997E+02  0.45594000000E+02  0.51100000000E-03 0.  1.
         23    2    1    2    0    0  0.17763568394E-14  0.00000000000E+00  0.00000000000E+00  0.91188000000E+02  0.91188000000E+02 0.  0.
    9900012    2    3    3    0    0  0.14929107389E+02 -0.32567428401E+02  0.85008738396E+01  0.54367075295E+02  0.39999979750E+02 0.  0.
         12    1    3    3    0    0 -0.14929107389E+02  0.32567428401E+02 -0.85008738396E+01  0.36820924705E+02  0.00000000000E+00 0. -1.
         11    1    4    4    0    0  0.14690352521E+02 -0.24042468370E+02  0.64940842661E+01  0.28914008252E+02  0.51100000000E-03 0. -1.
        -11    1    4    4    0    0  0.75352953194E+01  0.11528789016E+01 -0.70025705093E+01  0.10351125509E+02  0.51100000000E-03 0.  1.
         12    1    4    4    0    0 -0.72965404515E+01 -0.96778389331E+01  0.90093600828E+01  0.15101941533E+02  0.00000000000E+00 0. -1.
</event>
<event>
 8    1  0.2501893E-006  0.9118800E+02  0.7816164E-02  0.1184000E+00
        -11   -1    0    0    0    0  0.00000000000E+00  0.00000000000E+00  0.45593999997E+02  0.45594000000E+02  0.51100000000E-03 0.  1.
         11   -1    0    0    0    0 -0.00000000000E+00 -0.00000000000E+00 -0.45593999997E+02  0.45594000000E+02  0.51100000000E-03 0. -1.
         23    2    1    2    0    0 -0.35527136788E-14  0.00000000000E+00  0.00000000000E+00  0.91188000000E+02  0.91188000000E+02 0.  0.
    9900012    2    3    3    0    0  0.23669844599E+02 -0.21559185369E+02 -0.18185713199E+02  0.54367079565E+02  0.39999989485E+02 0.  0.
        -12    1    3    3    0    0 -0.23669844599E+02  0.21559185369E+02  0.18185713199E+02  0.36820920435E+02  0.00000000000E+00 0.  1.
         11    1    4    4    0    0  0.18047675772E+02 -0.25186604975E+02 -0.11730553361E+02  0.33131398301E+02  0.51100000000E-03 0. -1.
        -11    1    4    4    0    0 -0.54567585815E+01  0.97565835904E+00  0.31139962396E+01  0.63580733161E+01  0.51100000000E-03 0.  1.
         12    1    4    4    0    0  0.11078927408E+02  0.26517612473E+01 -0.95691560769E+01  0.14877607948E+02  0.00000000000E+00 0. -1.
</event>
<event>
 8    1  0.2501893E-006  0.9118800E+02  0.7816164E-02  0.1184000E+00
        -11   -1    0    0    0    0  0.00000000000E+00  0.00000000000E+00  0.45593999997E+02  0.45594000000E+02  0.51100000000E-03 0. -1.
         11   -1    0    0    0    0 -0.00000000000E+00 -0.00000000000E+00 -0.45593999997E+02  0.45594000000E+02  0.51100000000E-03 0.  1.
         23    2    1    2    0    0  0.99920072216E-15  0.00000000000E+00  0.00000000000E+00  0.91188000000E+02  0.91188000000E+02 0.  0.
    9900012    2    3    3    0    0 -0.19835079777E+00 -0.16175093351E+02  0.33077272065E+02  0.54367096763E+02  0.40000028690E+02 0.  0.
         12    1    3    3    0    0  0.19835079777E+00  0.16175093351E+02 -0.33077272065E+02  0.36820903237E+02  0.00000000000E+00 0. -1.
         11    1    4    4    0    0  0.18725407009E+01 -0.25013734877E+01 -0.11823363377E+01  0.33408378407E+01  0.51100000000E-03 0. -1.
        -11    1    4    4    0    0 -0.11419219082E+02 -0.21846513741E+02  0.17788450596E+02  0.30398975343E+02  0.51100000000E-03 0.  1.
         12    1    4    4    0    0  0.93483275830E+01  0.81727938773E+01  0.16471157806E+02  0.20627283579E+02  0.00000000000E+00 0. -1.
</event>
<event>
 8    1  0.2501893E-006  0.9118800E+02  0.7816164E-02  0.1184000E+00
        -11   -1    0    0    0    0  0.00000000000E+00  0.00000000000E+00  0.45593999997E+02  0.45594000000E+02  0.51100000000E-03 0.  1.
         11   -1    0    0    0    0 -0.00000000000E+00 -0.00000000000E+00 -0.45593999997E+02  0.45594000000E+02  0.51100000000E-03 0. -1.
         23    2    1    2    0    0  0.88817841970E-15 -0.44408920985E-15 -0.71054273576E-14  0.91188000000E+02  0.91188000000E+02 0.  0.
    9900012    2    3    3    0    0 -0.16273960868E+01 -0.20698119970E+01 -0.36726826736E+02  0.54366914440E+02  0.39999613047E+02 0.  0.
        -12    1    3    3    0    0  0.16273960868E+01  0.20698119970E+01  0.36726826736E+02  0.36821085560E+02  0.00000000000E+00 0.  1.
         11    1    4    4    0    0 -0.42254486467E+01  0.60297719823E+00 -0.26547236222E+02  0.26888171173E+02  0.51100000000E-03 0. -1.
        -11    1    4    4    0    0  0.58183122365E+01  0.31078980352E+01 -0.16842572758E+02  0.18088229456E+02  0.51100000000E-03 0.  1.
         12    1    4    4    0    0 -0.32202596766E+01 -0.57806872304E+01  0.66629822440E+01  0.93905138104E+01  0.00000000000E+00 0. -1.
</event>
<event>
 8    1  0.2501893E-006  0.9118800E+02  0.7816164E-02  0.1184000E+00
        -11   -1    0    0    0    0  0.00000000000E+00  0.00000000000E+00  0.45593999997E+02  0.45594000000E+02  0.51100000000E-03 0.  1.
         11   -1    0    0    0    0 -0.00000000000E+00 -0.00000000000E+00 -0.45593999997E+02  0.45594000000E+02  0.51100000000E-03 0. -1.
         23    2    1    2    0    0  0.35527136788E-14  0.00000000000E+00  0.00000000000E+00  0.91188000000E+02  0.91188000000E+02 0.  0.
    9900012    2    3    3    0    0  0.14904939440E+02 -0.33220387813E+02 -0.54797939587E+01  0.54367088442E+02  0.40000009721E+02 0.  0.
        -12    1    3    3    0    0 -0.14904939440E+02  0.33220387813E+02  0.54797939587E+01  0.36820911558E+02  0.00000000000E+00 0.  1.
         11    1    4    4    0    0  0.13493553773E+01 -0.24232849570E+02 -0.14566778157E+02  0.28306232253E+02  0.51100000000E-03 0. -1.
        -11    1    4    4    0    0  0.80015560955E-01 -0.89956848082E+01 -0.12429470941E+01  0.90815012745E+01  0.51100000000E-03 0.  1.
        -12    1    4    4    0    0  0.13475568501E+02  0.81465655203E-02  0.10329931293E+02  0.16979354914E+02  0.00000000000E+00 0.  1.
</event>
<event>
 8    1  0.2501893E-006  0.9118800E+02  0.7816164E-02  0.1184000E+00
        -11   -1    0    0    0    0  0.00000000000E+00  0.00000000000E+00  0.45593999997E+02  0.45594000000E+02  0.51100000000E-03 0. -1.
         11   -1    0    0    0    0 -0.00000000000E+00 -0.00000000000E+00 -0.45593999997E+02  0.45594000000E+02  0.51100000000E-03 0.  1.
         23    2    1    2    0    0 -0.35527136788E-14  0.35527136788E-14  0.35527136788E-14  0.91188000000E+02  0.91188000000E+02 0.  0.
    9900012    2    3    3    0    0  0.20478262493E+02 -0.18630038980E+02 -0.24276376554E+02  0.54367081411E+02  0.39999993693E+02 0.  0.
         12    1    3    3    0    0 -0.20478262493E+02  0.18630038980E+02  0.24276376554E+02  0.36820918589E+02  0.00000000000E+00 0. -1.
         11    1    4    4    0    0  0.10893478032E+02  0.54024263802E+01  0.15159078995E+01  0.12253654616E+02  0.51100000000E-03 0. -1.
        -11    1    4    4    0    0  0.14858165432E+02 -0.11938229934E+02 -0.99643824025E+01  0.21507564504E+02  0.51100000000E-03 0.  1.
         12    1    4    4    0    0 -0.52733809710E+01 -0.12094235426E+02 -0.15827902051E+02  0.20605862291E+02  0.00000000000E+00 0. -1.
</event>
<event>
 8    1  0.2501893E-006  0.9118800E+02  0.7816164E-02  0.1184000E+00
        -11   -1    0    0    0    0  0.00000000000E+00  0.00000000000E+00  0.45593999997E+02  0.45594000000E+02  0.51100000000E-03 0.  1.
         11   -1    0    0    0    0 -0.00000000000E+00 -0.00000000000E+00 -0.45593999997E+02  0.45594000000E+02  0.51100000000E-03 0. -1.
         23    2    1    2    0    0 -0.44408920985E-15 -0.35527136788E-14 -0.35527136788E-14  0.91188000000E+02  0.91188000000E+02 0.  0.
    9900012    2    3    3    0    0  0.12162343034E+01  0.31118787354E+02  0.19644919381E+02  0.54367068321E+02  0.39999963851E+02 0.  0.
         12    1    3    3    0    0 -0.12162343034E+01 -0.31118787354E+02 -0.19644919381E+02  0.36820931679E+02  0.00000000000E+00 0. -1.
         11    1    4    4    0    0  0.11761132472E+02  0.13183225408E+02 -0.51262774285E+01  0.18395662253E+02  0.51100000000E-03 0. -1.
        -11    1    4    4    0    0  0.10781526856E+01  0.46533967735E+01 -0.85770098089E+00  0.48530573847E+01  0.51100000000E-03 0.  1.
        -12    1    4    4    0    0 -0.11623050854E+02  0.13282165172E+02  0.25628897791E+02  0.31118348683E+02  0.00000000000E+00 0.  1.
</event>
<event>
 8    1  0.2501893E-006  0.9118800E+02  0.7816164E-02  0.1184000E+00
        -11   -1    0    0    0    0  0.00000000000E+00  0.00000000000E+00  0.45593999997E+02  0.45594000000E+02  0.51100000000E-03 0.  1.
         11   -1    0    0    0    0 -0.00000000000E+00 -0.00000000000E+00 -0.45593999997E+02  0.45594000000E+02  0.51100000000E-03 0. -1.
         23    2    1    2    0    0  0.00000000000E+00 -0.44408920985E-15 -0.35527136788E-14  0.91188000000E+02  0.91188000000E+02 0.  0.
    9900012    2    3    3    0    0 -0.31677343167E+02 -0.16681413709E+01  0.18696063162E+02  0.54367088231E+02  0.40000009241E+02 0.  0.
         12    1    3    3    0    0  0.31677343167E+02  0.16681413709E+01 -0.18696063162E+02  0.36820911769E+02  0.00000000000E+00 0. -1.
         11    1    4    4    0    0  0.48053836034E+00 -0.73708805070E+00 -0.18678606740E+01  0.20647323480E+01  0.51100000000E-03 0. -1.
        -11    1    4    4    0    0 -0.46670483980E+01  0.31721227443E+01  0.23670574640E+02  0.24333922978E+02  0.51100000000E-03 0.  1.
         12    1    4    4    0    0 -0.27490833129E+02 -0.41031760645E+01 -0.31066508042E+01  0.27968432905E+02  0.00000000000E+00 0. -1.
</event>
<event>
 8    1  0.2501893E-006  0.9118800E+02  0.7816164E-02  0.1184000E+00
        -11   -1    0    0    0    0  0.00000000000E+00  0.00000000000E+00  0.45593999997E+02  0.45594000000E+02  0.51100000000E-03 0. -1.
         11   -1    0    0    0    0 -0.00000000000E+00 -0.00000000000E+00 -0.45593999997E+02  0.45594000000E+02  0.51100000000E-03 0.  1.
         23    2    1    2    0    0  0.00000000000E+00 -0.17763568394E-14  0.00000000000E+00  0.91188000000E+02  0.91188000000E+02 0.  0.
    9900012    2    3    3    0    0  0.31843220007E+01  0.81621044307E+01  0.35763404812E+02  0.54367068737E+02  0.39999964800E+02 0.  0.
        -12    1    3    3    0    0 -0.31843220007E+01 -0.81621044307E+01 -0.35763404812E+02  0.36820931263E+02  0.00000000000E+00 0.  1.
         11    1    4    4    0    0  0.33287562324E+01  0.18543711027E+02  0.28463137068E+02  0.34133561325E+02  0.51100000000E-03 0. -1.
        -11    1    4    4    0    0  0.47965942663E+01 -0.30847927700E+01 -0.31888506868E+01  0.65339139842E+01  0.51100000000E-03 0.  1.
         12    1    4    4    0    0 -0.49410284979E+01 -0.72968138267E+01  0.10489118431E+02  0.13699593428E+02  0.00000000000E+00 0. -1.
</event>
<event>
 8    1  0.2501893E-006  0.9118800E+02  0.7816164E-02  0.1184000E+00
        -11   -1    0    0    0    0  0.00000000000E+00  0.00000000000E+00  0.45593999997E+02  0.45594000000E+02  0.51100000000E-03 0.  1.
         11   -1    0    0    0    0 -0.00000000000E+00 -0.00000000000E+00 -0.45593999997E+02  0.45594000000E+02  0.51100000000E-03 0. -1.
         23    2    1    2    0    0  0.35527136788E-14  0.00000000000E+00  0.00000000000E+00  0.91188000000E+02  0.91188000000E+02 0.  0.
    9900012    2    3    3    0    0  0.29548533195E+02  0.17951063766E+02 -0.12665866621E+02  0.54367072777E+02  0.39999974009E+02 0.  0.
        -12    1    3    3    0    0 -0.29548533195E+02 -0.17951063766E+02  0.12665866621E+02  0.36820927223E+02  0.00000000000E+00 0.  1.
         11    1    4    4    0    0  0.71211932633E+01  0.26965256840E+01 -0.50273702980E+01  0.91245326802E+01  0.51100000000E-03 0. -1.
        -11    1    4    4    0    0  0.36068401027E+01  0.14735861202E+02 -0.18169074742E+02  0.23670026998E+02  0.51100000000E-03 0.  1.
        -12    1    4    4    0    0  0.18820499829E+02  0.51867688015E+00  0.10530578419E+02  0.21572513098E+02  0.00000000000E+00 0.  1.
</event>
<event>
 8    1  0.2501893E-006  0.9118800E+02  0.7816164E-02  0.1184000E+00
        -11   -1    0    0    0    0  0.00000000000E+00  0.00000000000E+00  0.45593999997E+02  0.45594000000E+02  0.51100000000E-03 0. -1.
         11   -1    0    0    0    0 -0.00000000000E+00 -0.00000000000E+00 -0.45593999997E+02  0.45594000000E+02  0.51100000000E-03 0.  1.
         23    2    1    2    0    0  0.00000000000E+00  0.00000000000E+00  0.00000000000E+00  0.91188000000E+02  0.91188000000E+02 0.  0.
    9900012    2    3    3    0    0  0.17379903608E+02  0.97416645951E+01  0.30964792617E+02  0.54367089361E+02  0.40000011816E+02 0.  0.
        -12    1    3    3    0    0 -0.17379903608E+02 -0.97416645951E+01 -0.30964792617E+02  0.36820910639E+02  0.00000000000E+00 0.  1.
         11    1    4    4    0    0  0.85301178220E+01  0.57357640600E-01  0.16359820941E+02  0.18450201664E+02  0.51100000000E-03 0. -1.
        -11    1    4    4    0    0  0.49489013915E+01  0.18521546690E+02  0.17369007979E+02  0.25869320733E+02  0.51100000000E-03 0.  1.
        -12    1    4    4    0    0  0.39008843941E+01 -0.88372397354E+01 -0.27640363034E+01  0.10047566963E+02  0.00000000000E+00 0.  1.
</event>
<event>
 8    1  0.2501893E-006  0.9118800E+02  0.7816164E-02  0.1184000E+00
        -11   -1    0    0    0    0  0.00000000000E+00  0.00000000000E+00  0.45593999997E+02  0.45594000000E+02  0.51100000000E-03 0. -1.
         11   -1    0    0    0    0 -0.00000000000E+00 -0.00000000000E+00 -0.45593999997E+02  0.45594000000E+02  0.51100000000E-03 0.  1.
         23    2    1    2    0    0  0.00000000000E+00  0.35527136788E-14 -0.35527136788E-14  0.91188000000E+02  0.91188000000E+02 0.  0.
    9900012    2    3    3    0    0  0.98320085061E+01 -0.30963187819E+02  0.17331813686E+02  0.54367093481E+02  0.40000021209E+02 0.  0.
        -12    1    3    3    0    0 -0.98320085061E+01  0.30963187819E+02 -0.17331813686E+02  0.36820906519E+02  0.00000000000E+00 0.  1.
         11    1    4    4    0    0 -0.39095997882E+00 -0.34398920703E+01 -0.26240217780E+00  0.34719680765E+01  0.51100000000E-03 0. -1.
        -11    1    4    4    0    0 -0.21084711093E+01 -0.28589740438E+02  0.23605248434E+02  0.37135248251E+02  0.51100000000E-03 0.  1.
        -12    1    4    4    0    0  0.12331439594E+02  0.10664446895E+01 -0.60110325697E+01  0.13759877154E+02  0.00000000000E+00 0.  1.
</event>
<event>
 8    1  0.2501893E-006  0.9118800E+02  0.7816164E-02  0.1184000E+00
        -11   -1    0    0    0    0  0.00000000000E+00  0.00000000000E+00  0.45593999997E+02  0.45594000000E+02  0.51100000000E-03 0. -1.
         11   -1    0    0    0    0 -0.00000000000E+00 -0.00000000000E+00 -0.45593999997E+02  0.45594000000E+02  0.51100000000E-03 0.  1.
         23    2    1    2    0    0  0.35527136788E-14  0.00000000000E+00  0.58286708793E-15  0.91188000000E+02  0.91188000000E+02 0.  0.
    9900012    2    3    3    0    0 -0.29773871101E+02  0.21661913807E+02 -0.23696535135E+00  0.54367108339E+02  0.40000055081E+02 0.  0.
        -12    1    3    3    0    0  0.29773871101E+02 -0.21661913807E+02  0.23696535135E+00  0.36820891661E+02  0.00000000000E+00 0.  1.
         11    1    4    4    0    0 -0.33050611589E+02  0.11153145853E+02  0.69947402625E+01  0.35576143417E+02  0.51100000000E-03 0. -1.
        -11    1    4    4    0    0  0.52034072978E+01  0.71418646073E+01  0.17494100246E+01  0.90078917218E+01  0.51100000000E-03 0.  1.
        -12    1    4    4    0    0 -0.19266668097E+01  0.33669033462E+01 -0.89811156385E+01  0.97830732007E+01  0.00000000000E+00 0.  1.
</event>
<event>
 8    1  0.2501893E-006  0.9118800E+02  0.7816164E-02  0.1184000E+00
        -11   -1    0    0    0    0  0.00000000000E+00  0.00000000000E+00  0.45593999997E+02  0.45594000000E+02  0.51100000000E-03 0.  1.
         11   -1    0    0    0    0 -0.00000000000E+00 -0.00000000000E+00 -0.45593999997E+02  0.45594000000E+02  0.51100000000E-03 0. -1.
         23    2    1    2    0    0  0.00000000000E+00  0.00000000000E+00 -0.71054273576E-14  0.91188000000E+02  0.91188000000E+02 0.  0.
    9900012    2    3    3    0    0 -0.18011610681E+02 -0.12481644851E+02  0.29590092582E+02  0.54367039169E+02  0.39999897393E+02 0.  0.
         12    1    3    3    0    0  0.18011610681E+02  0.12481644851E+02 -0.29590092582E+02  0.36820960831E+02  0.00000000000E+00 0. -1.
         11    1    4    4    0    0 -0.26341710991E+01  0.59888827432E+01 -0.18121419014E+01  0.67889198274E+01  0.51100000000E-03 0. -1.
        -11    1    4    4    0    0 -0.14179253788E+02 -0.10190868153E+02  0.26845509480E+01  0.17666687458E+02  0.51100000000E-03 0.  1.
        -12    1    4    4    0    0 -0.11981857942E+01 -0.82796594412E+01  0.28717683536E+02  0.29911431883E+02  0.00000000000E+00 0.  1.
</event>
<event>
 8    1  0.2501893E-006  0.9118800E+02  0.7816164E-02  0.1184000E+00
        -11   -1    0    0    0    0  0.00000000000E+00  0.00000000000E+00  0.45593999997E+02  0.45594000000E+02  0.51100000000E-03 0.  1.
         11   -1    0    0    0    0 -0.00000000000E+00 -0.00000000000E+00 -0.45593999997E+02  0.45594000000E+02  0.51100000000E-03 0. -1.
         23    2    1    2    0    0  0.88817841970E-15  0.13322676296E-14  0.00000000000E+00  0.91188000000E+02  0.91188000000E+02 0.  0.
    9900012    2    3    3    0    0  0.52532300427E+01  0.36613491029E+01 -0.36259848720E+02  0.54367101962E+02  0.40000040542E+02 0.  0.
        -12    1    3    3    0    0 -0.52532300427E+01 -0.36613491029E+01  0.36259848720E+02  0.36820898038E+02  0.00000000000E+00 0.  1.
         11    1    4    4    0    0 -0.84602689964E+01 -0.47015164440E+01 -0.59971094587E+01  0.11386207906E+02  0.51100000000E-03 0. -1.
        -11    1    4    4    0    0  0.67620917647E+01 -0.60943725902E+01 -0.43552634628E+00  0.91135583480E+01  0.51100000000E-03 0.  1.
         12    1    4    4    0    0  0.69514072744E+01  0.14457238137E+02 -0.29827212915E+02  0.33867335708E+02  0.00000000000E+00 0. -1.
</event>
<event>
 8    1  0.2501893E-006  0.9118800E+02  0.7816164E-02  0.1184000E+00
        -11   -1    0    0    0    0  0.00000000000E+00  0.00000000000E+00  0.45593999997E+02  0.45594000000E+02  0.51100000000E-03 0.  1.
         11   -1    0    0    0    0 -0.00000000000E+00 -0.00000000000E+00 -0.45593999997E+02  0.45594000000E+02  0.51100000000E-03 0. -1.
         23    2    1    2    0    0  0.00000000000E+00 -0.35527136788E-14  0.00000000000E+00  0.91188000000E+02  0.91188000000E+02 0.  0.
    9900012    2    3    3    0    0 -0.68843355082E+01 -0.12015578619E+02  0.34117615330E+02  0.54367083651E+02  0.39999998800E+02 0.  0.
         12    1    3    3    0    0  0.68843355082E+01  0.12015578619E+02 -0.34117615330E+02  0.36820916349E+02  0.00000000000E+00 0. -1.
         11    1    4    4    0    0  0.49076019607E+01  0.10277394516E+02  0.40606248302E+01  0.12091239362E+02  0.51100000000E-03 0. -1.
        -11    1    4    4    0    0 -0.80808969574E+01 -0.78462613396E+01  0.23343683824E+02  0.25918956140E+02  0.51100000000E-03 0.  1.
         12    1    4    4    0    0 -0.37110405115E+01 -0.14446711796E+02  0.67133066754E+01  0.16356888149E+02  0.00000000000E+00 0. -1.
</event>
<event>
 8    1  0.2501893E-006  0.9118800E+02  0.7816164E-02  0.1184000E+00
        -11   -1    0    0    0    0  0.00000000000E+00  0.00000000000E+00  0.45593999997E+02  0.45594000000E+02  0.51100000000E-03 0.  1.
         11   -1    0    0    0    0 -0.00000000000E+00 -0.00000000000E+00 -0.45593999997E+02  0.45594000000E+02  0.51100000000E-03 0. -1.
         23    2    1    2    0    0  0.00000000000E+00  0.00000000000E+00  0.00000000000E+00  0.91188000000E+02  0.91188000000E+02 0.  0.
    9900012    2    3    3    0    0  0.21902592253E+02  0.49790754658E+01  0.29176449155E+02  0.54367083048E+02  0.39999997424E+02 0.  0.
         12    1    3    3    0    0 -0.21902592253E+02 -0.49790754658E+01 -0.29176449155E+02  0.36820916952E+02  0.00000000000E+00 0. -1.
         11    1    4    4    0    0  0.19421953103E+02 -0.12872399767E+02  0.18706892525E+02  0.29880742399E+02  0.51100000000E-03 0. -1.
        -11    1    4    4    0    0 -0.19960400960E+01 -0.35646255953E-01  0.47951916541E+01  0.51941611432E+01  0.51100000000E-03 0.  1.
         12    1    4    4    0    0  0.44766792456E+01  0.17887121488E+02  0.56743649757E+01  0.19292179506E+02  0.00000000000E+00 0. -1.
</event>
<event>
 8    1  0.2501893E-006  0.9118800E+02  0.7816164E-02  0.1184000E+00
        -11   -1    0    0    0    0  0.00000000000E+00  0.00000000000E+00  0.45593999997E+02  0.45594000000E+02  0.51100000000E-03 0.  1.
         11   -1    0    0    0    0 -0.00000000000E+00 -0.00000000000E+00 -0.45593999997E+02  0.45594000000E+02  0.51100000000E-03 0. -1.
         23    2    1    2    0    0  0.00000000000E+00  0.00000000000E+00  0.00000000000E+00  0.91188000000E+02  0.91188000000E+02 0.  0.
    9900012    2    3    3    0    0 -0.11877454642E+02  0.27288529527E+02  0.21680491283E+02  0.54367062006E+02  0.39999949454E+02 0.  0.
         12    1    3    3    0    0  0.11877454642E+02 -0.27288529527E+02 -0.21680491283E+02  0.36820937994E+02  0.00000000000E+00 0. -1.
         11    1    4    4    0    0  0.92927299624E+01  0.23846720164E+02  0.60112457785E+01  0.26289845356E+02  0.51100000000E-03 0. -1.
        -11    1    4    4    0    0 -0.10848737841E+02  0.19745998698E+01  0.13495773394E+02  0.17427852912E+02  0.51100000000E-03 0.  1.
         12    1    4    4    0    0 -0.10321446764E+02  0.14672094924E+01  0.21734721110E+01  0.10649363738E+02  0.00000000000E+00 0. -1.
</event>
<event>
 8    1  0.2501893E-006  0.9118800E+02  0.7816164E-02  0.1184000E+00
        -11   -1    0    0    0    0  0.00000000000E+00  0.00000000000E+00  0.45593999997E+02  0.45594000000E+02  0.51100000000E-03 0.  1.
         11   -1    0    0    0    0 -0.00000000000E+00 -0.00000000000E+00 -0.45593999997E+02  0.45594000000E+02  0.51100000000E-03 0. -1.
         23    2    1    2    0    0  0.00000000000E+00 -0.35527136788E-14 -0.71054273576E-14  0.91188000000E+02  0.91188000000E+02 0.  0.
    9900012    2    3    3    0    0 -0.22168429659E+02  0.22032695944E+02  0.19465371552E+02  0.54367086734E+02  0.40000005827E+02 0.  0.
        -12    1    3    3    0    0  0.22168429659E+02 -0.22032695944E+02 -0.19465371552E+02  0.36820913266E+02  0.00000000000E+00 0.  1.
         11    1    4    4    0    0 -0.12769363105E+02  0.13538763210E+02 -0.80118432451E+01  0.20261894674E+02  0.51100000000E-03 0. -1.
        -11    1    4    4    0    0  0.18670899068E+01  0.80133242463E+01  0.16132454100E+02  0.18109540738E+02  0.51100000000E-03 0.  1.
         12    1    4    4    0    0 -0.11266156461E+02  0.48060848808E+00  0.11344760697E+02  0.15995651321E+02  0.00000000000E+00 0. -1.
</event>
<event>
 8    1  0.2501893E-006  0.9118800E+02  0.7816164E-02  0.1184000E+00
        -11   -1    0    0    0    0  0.00000000000E+00  0.00000000000E+00  0.45593999997E+02  0.45594000000E+02  0.51100000000E-03 0.  1.
         11   -1    0    0    0    0 -0.00000000000E+00 -0.00000000000E+00 -0.45593999997E+02  0.45594000000E+02  0.51100000000E-03 0. -1.
         23    2    1    2    0    0  0.00000000000E+00  0.00000000000E+00  0.00000000000E+00  0.91188000000E+02  0.91188000000E+02 0.  0.
    9900012    2    3    3    0    0 -0.10747555603E+02 -0.25701082773E+02 -0.24077453009E+02  0.54367090851E+02  0.40000015214E+02 0.  0.
        -12    1    3    3    0    0  0.10747555603E+02  0.25701082773E+02  0.24077453009E+02  0.36820909149E+02  0.00000000000E+00 0.  1.
         11    1    4    4    0    0  0.15598087662E+01 -0.16581499372E+02 -0.22269054379E+02  0.27808090693E+02  0.51100000000E-03 0. -1.
        -11    1    4    4    0    0 -0.66192112630E+01 -0.82647281325E+01 -0.11284048850E+02  0.15474154179E+02  0.51100000000E-03 0.  1.
        -12    1    4    4    0    0 -0.56881531065E+01 -0.85485526830E+00  0.94756502200E+01  0.11084845979E+02  0.00000000000E+00 0.  1.
</event>
<event>
 8    1  0.2501893E-006  0.9118800E+02  0.7816164E-02  0.1184000E+00
        -11   -1    0    0    0    0  0.00000000000E+00  0.00000000000E+00  0.45593999997E+02  0.45594000000E+02  0.51100000000E-03 0. -1.
         11   -1    0    0    0    0 -0.00000000000E+00 -0.00000000000E+00 -0.45593999997E+02  0.45594000000E+02  0.51100000000E-03 0.  1.
         23    2    1    2    0    0  0.00000000000E+00  0.00000000000E+00  0.71054273576E-14  0.91188000000E+02  0.91188000000E+02 0.  0.
    9900012    2    3    3    0    0 -0.24789078863E+02  0.21443611688E+02 -0.16776590180E+02  0.54367069931E+02  0.39999967521E+02 0.  0.
        -12    1    3    3    0    0  0.24789078863E+02 -0.21443611688E+02  0.16776590180E+02  0.36820930069E+02  0.00000000000E+00 0.  1.
         11    1    4    4    0    0 -0.17427897995E+02  0.20091412300E+02  0.40029506304E+01  0.26896469856E+02  0.51100000000E-03 0. -1.
        -11    1    4    4    0    0 -0.61814450773E+01  0.86077941343E+01 -0.12896117761E+02  0.16691741571E+02  0.51100000000E-03 0.  1.
         12    1    4    4    0    0 -0.11797357907E+01 -0.72555947465E+01 -0.78834230494E+01  0.10778858503E+02  0.00000000000E+00 0. -1.
</event>
<event>
 8    1  0.2501893E-006  0.9118800E+02  0.7816164E-02  0.1184000E+00
        -11   -1    0    0    0    0  0.00000000000E+00  0.00000000000E+00  0.45593999997E+02  0.45594000000E+02  0.51100000000E-03 0. -1.
         11   -1    0    0    0    0 -0.00000000000E+00 -0.00000000000E+00 -0.45593999997E+02  0.45594000000E+02  0.51100000000E-03 0.  1.
         23    2    1    2    0    0  0.00000000000E+00  0.00000000000E+00  0.00000000000E+00  0.91188000000E+02  0.91188000000E+02 0.  0.
    9900012    2    3    3    0    0 -0.30342524229E+02  0.16761478088E+02  0.12416148667E+02  0.54367127224E+02  0.40000098133E+02 0.  0.
        -12    1    3    3    0    0  0.30342524229E+02 -0.16761478088E+02 -0.12416148667E+02  0.36820872776E+02  0.00000000000E+00 0.  1.
         11    1    4    4    0    0 -0.10840237858E+02  0.15083747042E+02  0.11609813897E+02  0.21904747445E+02  0.51100000000E-03 0. -1.
        -11    1    4    4    0    0 -0.98810743160E+01  0.12773938423E+02  0.54738107464E+01  0.17052030284E+02  0.51100000000E-03 0.  1.
        -12    1    4    4    0    0 -0.96212120545E+01 -0.11096207377E+02 -0.46674759770E+01  0.15410349494E+02  0.00000000000E+00 0.  1.
</event>
<event>
 8    1  0.2501893E-006  0.9118800E+02  0.7816164E-02  0.1184000E+00
        -11   -1    0    0    0    0  0.00000000000E+00  0.00000000000E+00  0.45593999997E+02  0.45594000000E+02  0.51100000000E-03 0. -1.
         11   -1    0    0    0    0 -0.00000000000E+00 -0.00000000000E+00 -0.45593999997E+02  0.45594000000E+02  0.51100000000E-03 0.  1.
         23    2    1    2    0    0  0.17763568394E-14  0.14210854715E-13  0.00000000000E+00  0.91188000000E+02  0.91188000000E+02 0.  0.
    9900012    2    3    3    0    0 -0.13807573633E+02 -0.30825018580E+02 -0.14660496621E+02  0.54367339750E+02  0.40000582624E+02 0.  0.
         12    1    3    3    0    0  0.13807573633E+02  0.30825018580E+02  0.14660496621E+02  0.36820660250E+02  0.00000000000E+00 0. -1.
         11    1    4    4    0    0 -0.54902492012E+01 -0.13306313629E+02  0.69661602696E+00  0.14411318220E+02  0.51100000000E-03 0. -1.
        -11    1    4    4    0    0 -0.31891936673E+01  0.40939382788E+01 -0.16910691140E+02  0.17689057691E+02  0.51100000000E-03 0.  1.
        -12    1    4    4    0    0 -0.51281307642E+01 -0.21612643229E+02  0.15535784927E+01  0.22266963839E+02  0.00000000000E+00 0.  1.
</event>
<event>
 8    1  0.2501893E-006  0.9118800E+02  0.7816164E-02  0.1184000E+00
        -11   -1    0    0    0    0  0.00000000000E+00  0.00000000000E+00  0.45593999997E+02  0.45594000000E+02  0.51100000000E-03 0.  1.
         11   -1    0    0    0    0 -0.00000000000E+00 -0.00000000000E+00 -0.45593999997E+02  0.45594000000E+02  0.51100000000E-03 0. -1.
         23    2    1    2    0    0  0.00000000000E+00  0.00000000000E+00  0.00000000000E+00  0.91188000000E+02  0.91188000000E+02 0.  0.
    9900012    2    3    3    0    0  0.35068582934E+02  0.75305438837E+01 -0.83219914846E+01  0.54367215890E+02  0.40000300264E+02 0.  0.
         12    1    3    3    0    0 -0.35068582934E+02 -0.75305438837E+01  0.83219914846E+01  0.36820784110E+02  0.00000000000E+00 0. -1.
         11    1    4    4    0    0 -0.48874489193E+01  0.32064173791E+01 -0.80540618658E+00  0.59005888465E+01  0.51100000000E-03 0. -1.
        -11    1    4    4    0    0  0.22292912713E+02  0.21489401926E+01  0.90471891029E+01  0.24154575800E+02  0.51100000000E-03 0.  1.
        -12    1    4    4    0    0  0.17663119140E+02  0.21751863119E+01 -0.16563774401E+02  0.24312051243E+02  0.00000000000E+00 0.  1.
</event>
<event>
 8    1  0.2501893E-006  0.9118800E+02  0.7816164E-02  0.1184000E+00
        -11   -1    0    0    0    0  0.00000000000E+00  0.00000000000E+00  0.45593999997E+02  0.45594000000E+02  0.51100000000E-03 0. -1.
         11   -1    0    0    0    0 -0.00000000000E+00 -0.00000000000E+00 -0.45593999997E+02  0.45594000000E+02  0.51100000000E-03 0.  1.
         23    2    1    2    0    0 -0.35527136788E-14 -0.35527136788E-14  0.00000000000E+00  0.91188000000E+02  0.91188000000E+02 0.  0.
    9900012    2    3    3    0    0 -0.27430716859E+02  0.14545944982E+02  0.19792707507E+02  0.54367081851E+02  0.39999994697E+02 0.  0.
        -12    1    3    3    0    0  0.27430716859E+02 -0.14545944982E+02 -0.19792707507E+02  0.36820918149E+02  0.00000000000E+00 0.  1.
         11    1    4    4    0    0 -0.11520411158E+02  0.11053807716E+02 -0.22603198069E+01  0.16124998734E+02  0.51100000000E-03 0. -1.
        -11    1    4    4    0    0  0.35841905999E+01 -0.86134442581E+00 -0.39826506179E+01  0.54267709258E+01  0.51100000000E-03 0.  1.
         12    1    4    4    0    0 -0.19494496301E+02  0.43534816916E+01  0.26035677932E+02  0.32815312192E+02  0.00000000000E+00 0. -1.
</event>
<event>
 8    1  0.2501893E-006  0.9118800E+02  0.7816164E-02  0.1184000E+00
        -11   -1    0    0    0    0  0.00000000000E+00  0.00000000000E+00  0.45593999997E+02  0.45594000000E+02  0.51100000000E-03 0.  1.
         11   -1    0    0    0    0 -0.00000000000E+00 -0.00000000000E+00 -0.45593999997E+02  0.45594000000E+02  0.51100000000E-03 0. -1.
         23    2    1    2    0    0  0.71054273576E-14  0.00000000000E+00  0.17763568394E-14  0.91188000000E+02  0.91188000000E+02 0.  0.
    9900012    2    3    3    0    0  0.35069619105E+02  0.10949775709E+02 -0.24508708533E+01  0.54367047539E+02  0.39999916474E+02 0.  0.
         12    1    3    3    0    0 -0.35069619105E+02 -0.10949775709E+02  0.24508708533E+01  0.36820952461E+02  0.00000000000E+00 0. -1.
         11    1    4    4    0    0  0.39147561286E+01 -0.74707649063E+01 -0.56918297044E+01  0.10175193830E+02  0.51100000000E-03 0. -1.
        -11    1    4    4    0    0  0.47829605800E+00  0.56815966013E+01  0.88276301811E+01  0.10508870631E+02  0.51100000000E-03 0.  1.
        -12    1    4    4    0    0  0.30676566918E+02  0.12738944014E+02 -0.55866713300E+01  0.33682983078E+02  0.00000000000E+00 0.  1.
</event>
<event>
 8    1  0.2501893E-006  0.9118800E+02  0.7816164E-02  0.1184000E+00
        -11   -1    0    0    0    0  0.00000000000E+00  0.00000000000E+00  0.45593999997E+02  0.45594000000E+02  0.51100000000E-03 0. -1.
         11   -1    0    0    0    0 -0.00000000000E+00 -0.00000000000E+00 -0.45593999997E+02  0.45594000000E+02  0.51100000000E-03 0.  1.
         23    2    1    2    0    0  0.00000000000E+00 -0.35527136788E-14  0.00000000000E+00  0.91188000000E+02  0.91188000000E+02 0.  0.
    9900012    2    3    3    0    0  0.23414774351E+02  0.23097713130E+02 -0.16553671875E+02  0.54367081186E+02  0.39999993180E+02 0.  0.
         12    1    3    3    0    0 -0.23414774351E+02 -0.23097713130E+02  0.16553671875E+02  0.36820918814E+02  0.00000000000E+00 0. -1.
         11    1    4    4    0    0  0.44533211829E+01 -0.12736873241E+01  0.36203574998E+01  0.58788891506E+01  0.51100000000E-03 0. -1.
        -11    1    4    4    0    0  0.26036020172E+02  0.25991820694E+02 -0.17649905357E+02  0.40804022458E+02  0.51100000000E-03 0.  1.
        -12    1    4    4    0    0 -0.70745670036E+01 -0.16204202397E+01 -0.25241240178E+01  0.76841695777E+01  0.00000000000E+00 0.  1.
</event>
<event>
 8    1  0.2501893E-006  0.9118800E+02  0.7816164E-02  0.1184000E+00
        -11   -1    0    0    0    0  0.00000000000E+00  0.00000000000E+00  0.45593999997E+02  0.45594000000E+02  0.51100000000E-03 0.  1.
         11   -1    0    0    0    0 -0.00000000000E+00 -0.00000000000E+00 -0.45593999997E+02  0.45594000000E+02  0.51100000000E-03 0. -1.
         23    2    1    2    0    0 -0.17763568394E-14 -0.17763568394E-14 -0.35527136788E-14  0.91188000000E+02  0.91188000000E+02 0.  0.
    9900012    2    3    3    0    0  0.15303474487E+02  0.10923357753E+02 -0.31658543745E+02  0.54367089256E+02  0.40000011576E+02 0.  0.
        -12    1    3    3    0    0 -0.15303474487E+02 -0.10923357753E+02  0.31658543745E+02  0.36820910744E+02  0.00000000000E+00 0.  1.
         11    1    4    4    0    0  0.63161634300E+01  0.87032125971E+01  0.15055438654E+01  0.10858475610E+02  0.51100000000E-03 0. -1.
        -11    1    4    4    0    0 -0.53354768691E+01  0.38482805807E+01  0.78572030433E+00  0.66252496939E+01  0.51100000000E-03 0.  1.
         12    1    4    4    0    0  0.14322787926E+02 -0.16281354249E+01 -0.33949807915E+02  0.36883363952E+02  0.00000000000E+00 0. -1.
</event>
<event>
 8    1  0.2501893E-006  0.9118800E+02  0.7816164E-02  0.1184000E+00
        -11   -1    0    0    0    0  0.00000000000E+00  0.00000000000E+00  0.45593999997E+02  0.45594000000E+02  0.51100000000E-03 0.  1.
         11   -1    0    0    0    0 -0.00000000000E+00 -0.00000000000E+00 -0.45593999997E+02  0.45594000000E+02  0.51100000000E-03 0. -1.
         23    2    1    2    0    0 -0.35527136788E-14 -0.35527136788E-14  0.17763568394E-14  0.91188000000E+02  0.91188000000E+02 0.  0.
    9900012    2    3    3    0    0  0.20352071395E+02  0.30254674312E+02 -0.51219131978E+01  0.54366998892E+02  0.39999805574E+02 0.  0.
        -12    1    3    3    0    0 -0.20352071395E+02 -0.30254674312E+02  0.51219131978E+01  0.36821001108E+02  0.00000000000E+00 0.  1.
         11    1    4    4    0    0  0.14538376879E+02  0.22583219617E+02 -0.15618720320E+02  0.31069448583E+02  0.51100000000E-03 0. -1.
        -11    1    4    4    0    0 -0.41040953914E+01 -0.91608221663E+00 -0.24492361337E+01  0.48663706712E+01  0.51100000000E-03 0.  1.
        -12    1    4    4    0    0  0.99177899074E+01  0.85875369122E+01  0.12946043256E+02  0.18431179638E+02  0.00000000000E+00 0.  1.
</event>
<event>
 8    1  0.2501893E-006  0.9118800E+02  0.7816164E-02  0.1184000E+00
        -11   -1    0    0    0    0  0.00000000000E+00  0.00000000000E+00  0.45593999997E+02  0.45594000000E+02  0.51100000000E-03 0.  1.
         11   -1    0    0    0    0 -0.00000000000E+00 -0.00000000000E+00 -0.45593999997E+02  0.45594000000E+02  0.51100000000E-03 0. -1.
         23    2    1    2    0    0 -0.10658141036E-13 -0.17763568394E-14  0.35527136788E-14  0.91188000000E+02  0.91188000000E+02 0.  0.
    9900012    2    3    3    0    0 -0.29810345592E+02 -0.14764147760E+02  0.15784303165E+02  0.54367068592E+02  0.39999964468E+02 0.  0.
         12    1    3    3    0    0  0.29810345592E+02  0.14764147760E+02 -0.15784303165E+02  0.36820931408E+02  0.00000000000E+00 0. -1.
         11    1    4    4    0    0 -0.88772293171E+01  0.11601467119E+02  0.68067145650E+01  0.16116159688E+02  0.51100000000E-03 0. -1.
        -11    1    4    4    0    0 -0.38389401233E+01 -0.77391763622E-01  0.54910151699E+01  0.67003506336E+01  0.51100000000E-03 0.  1.
        -12    1    4    4    0    0 -0.17094176152E+02 -0.26288223115E+02  0.34865734300E+01  0.31550558270E+02  0.00000000000E+00 0.  1.
</event>
<event>
 8    1  0.2501893E-006  0.9118800E+02  0.7816164E-02  0.1184000E+00
        -11   -1    0    0    0    0  0.00000000000E+00  0.00000000000E+00  0.45593999997E+02  0.45594000000E+02  0.51100000000E-03 0.  1.
         11   -1    0    0    0    0 -0.00000000000E+00 -0.00000000000E+00 -0.45593999997E+02  0.45594000000E+02  0.51100000000E-03 0. -1.
         23    2    1    2    0    0  0.00000000000E+00  0.00000000000E+00  0.88817841970E-15  0.91188000000E+02  0.91188000000E+02 0.  0.
    9900012    2    3    3    0    0 -0.17017416113E+02 -0.32186302473E+02 -0.54982983368E+01  0.54367057554E+02  0.39999939305E+02 0.  0.
         12    1    3    3    0    0  0.17017416113E+02  0.32186302473E+02  0.54982983368E+01  0.36820942446E+02  0.00000000000E+00 0. -1.
         11    1    4    4    0    0  0.41343018091E+01 -0.38989905798E+01 -0.86521769149E+01  0.10351557594E+02  0.51100000000E-03 0. -1.
        -11    1    4    4    0    0 -0.20584929359E+02 -0.15603975057E+02 -0.80779726723E+01  0.27064312241E+02  0.51100000000E-03 0.  1.
        -12    1    4    4    0    0 -0.56678856311E+00 -0.12683336836E+02  0.11231851250E+02  0.16951187719E+02  0.00000000000E+00 0.  1.
</event>
<event>
 8    1  0.2501893E-006  0.9118800E+02  0.7816164E-02  0.1184000E+00
        -11   -1    0    0    0    0  0.00000000000E+00  0.00000000000E+00  0.45593999997E+02  0.45594000000E+02  0.51100000000E-03 0.  1.
         11   -1    0    0    0    0 -0.00000000000E+00 -0.00000000000E+00 -0.45593999997E+02  0.45594000000E+02  0.51100000000E-03 0. -1.
         23    2    1    2    0    0  0.17763568394E-14  0.00000000000E+00  0.00000000000E+00  0.91188000000E+02  0.91188000000E+02 0.  0.
    9900012    2    3    3    0    0 -0.13927259159E+02  0.33550312098E+02  0.60155426084E+01  0.54367099109E+02  0.40000034039E+02 0.  0.
         12    1    3    3    0    0  0.13927259159E+02 -0.33550312098E+02 -0.60155426084E+01  0.36820900891E+02  0.00000000000E+00 0. -1.
         11    1    4    4    0    0 -0.14933361067E+02  0.21126983486E+02  0.66170202584E+01  0.26704674897E+02  0.51100000000E-03 0. -1.
        -11    1    4    4    0    0  0.23471761940E+00  0.19606866003E+02  0.25627909161E+01  0.19775039428E+02  0.51100000000E-03 0.  1.
         12    1    4    4    0    0  0.77138428834E+00 -0.71835373918E+01 -0.31642685660E+01  0.78873847845E+01  0.00000000000E+00 0. -1.
</event>
<event>
 8    1  0.2501893E-006  0.9118800E+02  0.7816164E-02  0.1184000E+00
        -11   -1    0    0    0    0  0.00000000000E+00  0.00000000000E+00  0.45593999997E+02  0.45594000000E+02  0.51100000000E-03 0. -1.
         11   -1    0    0    0    0 -0.00000000000E+00 -0.00000000000E+00 -0.45593999997E+02  0.45594000000E+02  0.51100000000E-03 0.  1.
         23    2    1    2    0    0  0.00000000000E+00  0.00000000000E+00 -0.35527136788E-14  0.91188000000E+02  0.91188000000E+02 0.  0.
    9900012    2    3    3    0    0  0.31911656633E+02  0.88959052188E+01  0.16071391582E+02  0.54367074074E+02  0.39999976966E+02 0.  0.
         12    1    3    3    0    0 -0.31911656633E+02 -0.88959052188E+01 -0.16071391582E+02  0.36820925926E+02  0.00000000000E+00 0. -1.
         11    1    4    4    0    0  0.30561435159E+01  0.14849069666E+02  0.21226589873E+01  0.15308186194E+02  0.51100000000E-03 0. -1.
        -11    1    4    4    0    0  0.15407133354E+02 -0.23242844969E+01 -0.42410042136E+01  0.16148317981E+02  0.51100000000E-03 0.  1.
         12    1    4    4    0    0  0.13448379762E+02 -0.36288799498E+01  0.18189736808E+02  0.22910569898E+02  0.00000000000E+00 0. -1.
</event>
<event>
 8    1  0.2501893E-006  0.9118800E+02  0.7816164E-02  0.1184000E+00
        -11   -1    0    0    0    0  0.00000000000E+00  0.00000000000E+00  0.45593999997E+02  0.45594000000E+02  0.51100000000E-03 0. -1.
         11   -1    0    0    0    0 -0.00000000000E+00 -0.00000000000E+00 -0.45593999997E+02  0.45594000000E+02  0.51100000000E-03 0.  1.
         23    2    1    2    0    0  0.00000000000E+00  0.00000000000E+00 -0.26645352591E-14  0.91188000000E+02  0.91188000000E+02 0.  0.
    9900012    2    3    3    0    0 -0.32608740994E+02 -0.16121862398E+02  0.57039381437E+01  0.54367090902E+02  0.40000015330E+02 0.  0.
        -12    1    3    3    0    0  0.32608740994E+02  0.16121862398E+02 -0.57039381437E+01  0.36820909098E+02  0.00000000000E+00 0.  1.
         11    1    4    4    0    0 -0.11702816379E+02  0.38091833095E+01  0.16664020703E+02  0.20716065624E+02  0.51100000000E-03 0.  1.
        -11    1    4    4    0    0 -0.16765694073E+02 -0.71924041117E+01 -0.45527031172E+01  0.18802826399E+02  0.51100000000E-03 0. -1.
         12    1    4    4    0    0 -0.41402305424E+01 -0.12738641596E+02 -0.64073794417E+01  0.14848198880E+02  0.00000000000E+00 0. -1.
</event>
<event>
 8    1  0.2501893E-006  0.9118800E+02  0.7816164E-02  0.1184000E+00
        -11   -1    0    0    0    0  0.00000000000E+00  0.00000000000E+00  0.45593999997E+02  0.45594000000E+02  0.51100000000E-03 0. -1.
         11   -1    0    0    0    0 -0.00000000000E+00 -0.00000000000E+00 -0.45593999997E+02  0.45594000000E+02  0.51100000000E-03 0.  1.
         23    2    1    2    0    0  0.00000000000E+00  0.00000000000E+00  0.17763568394E-14  0.91188000000E+02  0.91188000000E+02 0.  0.
    9900012    2    3    3    0    0  0.32781199819E+02 -0.11020444078E+02  0.12638205801E+02  0.54367061729E+02  0.39999948824E+02 0.  0.
        -12    1    3    3    0    0 -0.32781199819E+02  0.11020444078E+02 -0.12638205801E+02  0.36820938271E+02  0.00000000000E+00 0.  1.
         11    1    4    4    0    0  0.23398411043E+02 -0.14356662564E+02  0.18278058684E+02  0.32980097465E+02  0.51100000000E-03 0. -1.
        -11    1    4    4    0    0  0.14026834438E+02 -0.78126372147E+00 -0.19954882829E+01  0.14189588828E+02  0.51100000000E-03 0.  1.
        -12    1    4    4    0    0 -0.46440456614E+01  0.41174822074E+01 -0.36443646003E+01  0.71973754365E+01  0.00000000000E+00 0.  1.
</event>
<event>
 8    1  0.2501893E-006  0.9118800E+02  0.7816164E-02  0.1184000E+00
        -11   -1    0    0    0    0  0.00000000000E+00  0.00000000000E+00  0.45593999997E+02  0.45594000000E+02  0.51100000000E-03 0. -1.
         11   -1    0    0    0    0 -0.00000000000E+00 -0.00000000000E+00 -0.45593999997E+02  0.45594000000E+02  0.51100000000E-03 0.  1.
         23    2    1    2    0    0  0.12212453271E-14 -0.35527136788E-14  0.00000000000E+00  0.91188000000E+02  0.91188000000E+02 0.  0.
    9900012    2    3    3    0    0  0.54155392654E+00  0.25642418864E+02  0.26418897162E+02  0.54367013415E+02  0.39999838681E+02 0.  0.
        -12    1    3    3    0    0 -0.54155392654E+00 -0.25642418864E+02 -0.26418897162E+02  0.36820986585E+02  0.00000000000E+00 0.  1.
         11    1    4    4    0    0  0.75050642901E+01  0.70155470985E+01  0.25676897744E+01  0.10589472231E+02  0.51100000000E-03 0. -1.
        -11    1    4    4    0    0 -0.16814027813E+02  0.20441643033E+02  0.15074574433E+02  0.30460057383E+02  0.51100000000E-03 0.  1.
         12    1    4    4    0    0  0.98505174489E+01 -0.18147712678E+01  0.87766329551E+01  0.13317483801E+02  0.00000000000E+00 0. -1.
</event>
<event>
 8    1  0.2501893E-006  0.9118800E+02  0.7816164E-02  0.1184000E+00
        -11   -1    0    0    0    0  0.00000000000E+00  0.00000000000E+00  0.45593999997E+02  0.45594000000E+02  0.51100000000E-03 0.  1.
         11   -1    0    0    0    0 -0.00000000000E+00 -0.00000000000E+00 -0.45593999997E+02  0.45594000000E+02  0.51100000000E-03 0. -1.
         23    2    1    2    0    0  0.17763568394E-14  0.88817841970E-15  0.00000000000E+00  0.91188000000E+02  0.91188000000E+02 0.  0.
    9900012    2    3    3    0    0  0.14658152391E+02  0.20326607780E+01  0.33716253798E+02  0.54367096813E+02  0.40000028804E+02 0.  0.
         12    1    3    3    0    0 -0.14658152391E+02 -0.20326607780E+01 -0.33716253798E+02  0.36820903187E+02  0.00000000000E+00 0. -1.
         11    1    4    4    0    0  0.19662437839E+02 -0.88208459071E+00  0.88349907889E+01  0.21574211399E+02  0.51100000000E-03 0. -1.
        -11    1    4    4    0    0 -0.97583502600E+01 -0.58494870222E+01  0.12683561359E+02  0.17038621635E+02  0.51100000000E-03 0.  1.
         12    1    4    4    0    0  0.47540648118E+01  0.87642323909E+01  0.12197701650E+02  0.15754263778E+02  0.00000000000E+00 0. -1.
</event>
<event>
 8    1  0.2501893E-006  0.9118800E+02  0.7816164E-02  0.1184000E+00
        -11   -1    0    0    0    0  0.00000000000E+00  0.00000000000E+00  0.45593999997E+02  0.45594000000E+02  0.51100000000E-03 0. -1.
         11   -1    0    0    0    0 -0.00000000000E+00 -0.00000000000E+00 -0.45593999997E+02  0.45594000000E+02  0.51100000000E-03 0.  1.
         23    2    1    2    0    0  0.00000000000E+00 -0.35527136788E-14  0.00000000000E+00  0.91188000000E+02  0.91188000000E+02 0.  0.
    9900012    2    3    3    0    0  0.11944691776E+02  0.10546492081E+02 -0.33194563578E+02  0.54367038470E+02  0.39999895800E+02 0.  0.
         12    1    3    3    0    0 -0.11944691776E+02 -0.10546492081E+02  0.33194563578E+02  0.36820961530E+02  0.00000000000E+00 0. -1.
         11    1    4    4    0    0  0.51007213655E+01  0.18978892624E+02 -0.88948639693E+01  0.21571609328E+02  0.51100000000E-03 0.  1.
        -11    1    4    4    0    0  0.93415740370E+01 -0.24487506539E+01 -0.23929473192E+01  0.99492503430E+01  0.51100000000E-03 0. -1.
        -12    1    4    4    0    0 -0.24976036261E+01 -0.59836498894E+01 -0.21906752290E+02  0.22846178800E+02  0.00000000000E+00 0.  1.
</event>
<event>
 8    1  0.2501893E-006  0.9118800E+02  0.7816164E-02  0.1184000E+00
        -11   -1    0    0    0    0  0.00000000000E+00  0.00000000000E+00  0.45593999997E+02  0.45594000000E+02  0.51100000000E-03 0.  1.
         11   -1    0    0    0    0 -0.00000000000E+00 -0.00000000000E+00 -0.45593999997E+02  0.45594000000E+02  0.51100000000E-03 0. -1.
         23    2    1    2    0    0 -0.44408920985E-15 -0.77715611724E-15  0.00000000000E+00  0.91188000000E+02  0.91188000000E+02 0.  0.
    9900012    2    3    3    0    0 -0.31903331624E+01 -0.21128123103E+00 -0.36681837716E+02  0.54367080896E+02  0.39999992518E+02 0.  0.
        -12    1    3    3    0    0  0.31903331624E+01  0.21128123103E+00  0.36681837716E+02  0.36820919104E+02  0.00000000000E+00 0.  1.
         11    1    4    4    0    0 -0.90780674993E+01 -0.19256477735E+01 -0.16635197719E+02  0.19048601846E+02  0.51100000000E-03 0.  1.
        -11    1    4    4    0    0 -0.19352796701E+01 -0.12563281072E+02 -0.74490103604E+01  0.14733264890E+02  0.51100000000E-03 0. -1.
        -12    1    4    4    0    0  0.78230140071E+01  0.14277647614E+02 -0.12597629637E+02  0.20585214161E+02  0.00000000000E+00 0.  1.
</event>
<event>
 8    1  0.2501893E-006  0.9118800E+02  0.7816164E-02  0.1184000E+00
        -11   -1    0    0    0    0  0.00000000000E+00  0.00000000000E+00  0.45593999997E+02  0.45594000000E+02  0.51100000000E-03 0.  1.
         11   -1    0    0    0    0 -0.00000000000E+00 -0.00000000000E+00 -0.45593999997E+02  0.45594000000E+02  0.51100000000E-03 0. -1.
         23    2    1    2    0    0  0.00000000000E+00  0.00000000000E+00  0.00000000000E+00  0.91188000000E+02  0.91188000000E+02 0.  0.
    9900012    2    3    3    0    0 -0.35181341128E+02  0.83240987477E+01  0.69830056203E+01  0.54367085413E+02  0.40000002816E+02 0.  0.
        -12    1    3    3    0    0  0.35181341128E+02 -0.83240987477E+01 -0.69830056203E+01  0.36820914587E+02  0.00000000000E+00 0.  1.
         11    1    4    4    0    0 -0.53480567205E+01 -0.22105108823E+01 -0.77387675829E+01  0.96631564724E+01  0.51100000000E-03 0. -1.
        -11    1    4    4    0    0 -0.27538950056E+02  0.87287567699E+01 -0.80956583356E+00  0.28900525290E+02  0.51100000000E-03 0.  1.
        -12    1    4    4    0    0 -0.22943343513E+01  0.18058528602E+01  0.15531339037E+02  0.15803403651E+02  0.00000000000E+00 0.  1.
</event>
<event>
 8    1  0.2501893E-006  0.9118800E+02  0.7816164E-02  0.1184000E+00
        -11   -1    0    0    0    0  0.00000000000E+00  0.00000000000E+00  0.45593999997E+02  0.45594000000E+02  0.51100000000E-03 0. -1.
         11   -1    0    0    0    0 -0.00000000000E+00 -0.00000000000E+00 -0.45593999997E+02  0.45594000000E+02  0.51100000000E-03 0.  1.
         23    2    1    2    0    0  0.00000000000E+00  0.00000000000E+00  0.00000000000E+00  0.91188000000E+02  0.91188000000E+02 0.  0.
    9900012    2    3    3    0    0 -0.20751876140E+02  0.29230453022E+02  0.84095549295E+01  0.54367077126E+02  0.39999983923E+02 0.  0.
         12    1    3    3    0    0  0.20751876140E+02 -0.29230453022E+02 -0.84095549295E+01  0.36820922874E+02  0.00000000000E+00 0. -1.
         11    1    4    4    0    0  0.23272423662E+01  0.45986680567E+01 -0.87462203036E+01  0.10151855731E+02  0.51100000000E-03 0. -1.
        -11    1    4    4    0    0 -0.26104266247E+01  0.19236516072E+02  0.61909896427E+01  0.20376119129E+02  0.51100000000E-03 0.  1.
        -12    1    4    4    0    0 -0.20468691881E+02  0.53952688938E+01  0.10964785590E+02  0.23839102265E+02  0.00000000000E+00 0.  1.
</event>
<event>
 8    1  0.2501893E-006  0.9118800E+02  0.7816164E-02  0.1184000E+00
        -11   -1    0    0    0    0  0.00000000000E+00  0.00000000000E+00  0.45593999997E+02  0.45594000000E+02  0.51100000000E-03 0. -1.
         11   -1    0    0    0    0 -0.00000000000E+00 -0.00000000000E+00 -0.45593999997E+02  0.45594000000E+02  0.51100000000E-03 0.  1.
         23    2    1    2    0    0  0.00000000000E+00  0.00000000000E+00  0.35527136788E-14  0.91188000000E+02  0.91188000000E+02 0.  0.
    9900012    2    3    3    0    0 -0.48985862946E+01 -0.20741736573E+02 -0.30026066158E+02  0.54367076157E+02  0.39999981714E+02 0.  0.
         12    1    3    3    0    0  0.48985862946E+01  0.20741736573E+02  0.30026066158E+02  0.36820923843E+02  0.00000000000E+00 0. -1.
         11    1    4    4    0    0 -0.25362041314E+01 -0.27391700082E+02 -0.10245703820E+02  0.29354931644E+02  0.51100000000E-03 0. -1.
        -11    1    4    4    0    0 -0.57042815874E+01 -0.18630523860E+01 -0.61039912680E+01  0.85597022310E+01  0.51100000000E-03 0.  1.
         12    1    4    4    0    0  0.33418994242E+01  0.85130158953E+01 -0.13676371070E+02  0.16452442282E+02  0.00000000000E+00 0. -1.
</event>
<event>
 8    1  0.2501893E-006  0.9118800E+02  0.7816164E-02  0.1184000E+00
        -11   -1    0    0    0    0  0.00000000000E+00  0.00000000000E+00  0.45593999997E+02  0.45594000000E+02  0.51100000000E-03 0.  1.
         11   -1    0    0    0    0 -0.00000000000E+00 -0.00000000000E+00 -0.45593999997E+02  0.45594000000E+02  0.51100000000E-03 0. -1.
         23    2    1    2    0    0 -0.35527136788E-14 -0.88817841970E-15  0.00000000000E+00  0.91188000000E+02  0.91188000000E+02 0.  0.
    9900012    2    3    3    0    0  0.11771544628E+02  0.47231536439E+01  0.34567356222E+02  0.54367088015E+02  0.40000008748E+02 0.  0.
         12    1    3    3    0    0 -0.11771544628E+02 -0.47231536439E+01 -0.34567356222E+02  0.36820911985E+02  0.00000000000E+00 0. -1.
         11    1    4    4    0    0  0.15533235935E+01  0.18292384011E+01 -0.11795144009E+01  0.26739823854E+01  0.51100000000E-03 0. -1.
        -11    1    4    4    0    0 -0.10616418281E+02 -0.82131635062E+01  0.16224055944E+02  0.21056694504E+02  0.51100000000E-03 0.  1.
        -12    1    4    4    0    0  0.20834639315E+02  0.11107078749E+02  0.19522814679E+02  0.30636411126E+02  0.00000000000E+00 0.  1.
</event>
<event>
 8    1  0.2501893E-006  0.9118800E+02  0.7816164E-02  0.1184000E+00
        -11   -1    0    0    0    0  0.00000000000E+00  0.00000000000E+00  0.45593999997E+02  0.45594000000E+02  0.51100000000E-03 0. -1.
         11   -1    0    0    0    0 -0.00000000000E+00 -0.00000000000E+00 -0.45593999997E+02  0.45594000000E+02  0.51100000000E-03 0.  1.
         23    2    1    2    0    0  0.35527136788E-14  0.00000000000E+00  0.00000000000E+00  0.91188000000E+02  0.91188000000E+02 0.  0.
    9900012    2    3    3    0    0  0.16607049716E+02  0.31656842623E+02 -0.88223290996E+01  0.54367037548E+02  0.39999893699E+02 0.  0.
         12    1    3    3    0    0 -0.16607049716E+02 -0.31656842623E+02  0.88223290996E+01  0.36820962452E+02  0.00000000000E+00 0. -1.
         11    1    4    4    0    0  0.92726264183E+01  0.16304856348E+02 -0.87521290304E+01  0.20698543525E+02  0.51100000000E-03 0. -1.
        -11    1    4    4    0    0  0.14145802901E+02  0.16267812540E+02 -0.81625638422E+01  0.23051527353E+02  0.51100000000E-03 0.  1.
         12    1    4    4    0    0 -0.68113796039E+01 -0.91582626490E+00  0.80923637730E+01  0.10616966671E+02  0.00000000000E+00 0. -1.
</event>
<event>
 8    1  0.2501893E-006  0.9118800E+02  0.7816164E-02  0.1184000E+00
        -11   -1    0    0    0    0  0.00000000000E+00  0.00000000000E+00  0.45593999997E+02  0.45594000000E+02  0.51100000000E-03 0.  1.
         11   -1    0    0    0    0 -0.00000000000E+00 -0.00000000000E+00 -0.45593999997E+02  0.45594000000E+02  0.51100000000E-03 0. -1.
         23    2    1    2    0    0 -0.17763568394E-14  0.00000000000E+00 -0.71054273576E-14  0.91188000000E+02  0.91188000000E+02 0.  0.
    9900012    2    3    3    0    0 -0.11581374100E+02  0.13598162972E+02 -0.32198469399E+02  0.54367086189E+02  0.40000004584E+02 0.  0.
        -12    1    3    3    0    0  0.11581374100E+02 -0.13598162972E+02  0.32198469399E+02  0.36820913811E+02  0.00000000000E+00 0.  1.
         11    1    4    4    0    0 -0.83856415916E+01  0.19752450877E+02 -0.24784899127E+02  0.32783677731E+02  0.51100000000E-03 0. -1.
        -11    1    4    4    0    0  0.47022273502E+01 -0.20609442319E+01  0.44231398451E+01  0.67766215425E+01  0.51100000000E-03 0.  1.
         12    1    4    4    0    0 -0.78979598584E+01 -0.40933436731E+01 -0.11836710117E+02  0.14806786915E+02  0.00000000000E+00 0. -1.
</event>
<event>
 8    1  0.2501893E-006  0.9118800E+02  0.7816164E-02  0.1184000E+00
        -11   -1    0    0    0    0  0.00000000000E+00  0.00000000000E+00  0.45593999997E+02  0.45594000000E+02  0.51100000000E-03 0.  1.
         11   -1    0    0    0    0 -0.00000000000E+00 -0.00000000000E+00 -0.45593999997E+02  0.45594000000E+02  0.51100000000E-03 0. -1.
         23    2    1    2    0    0  0.35527136788E-14 -0.17763568394E-14  0.00000000000E+00  0.91188000000E+02  0.91188000000E+02 0.  0.
    9900012    2    3    3    0    0 -0.28362865819E+02  0.95515262070E+01 -0.21449853107E+02  0.54367081914E+02  0.39999994840E+02 0.  0.
        -12    1    3    3    0    0  0.28362865819E+02 -0.95515262070E+01  0.21449853107E+02  0.36820918086E+02  0.00000000000E+00 0.  1.
         11    1    4    4    0    0  0.31191736684E+01  0.60988032966E+01 -0.57053699160E+01  0.89149252472E+01  0.51100000000E-03 0. -1.
        -11    1    4    4    0    0 -0.11341510671E+01 -0.81617748409E+01 -0.91163808860E+01  0.12288582828E+02  0.51100000000E-03 0.  1.
        -12    1    4    4    0    0 -0.30347888421E+02  0.11614497751E+02 -0.66281023050E+01  0.33163573839E+02  0.00000000000E+00 0.  1.
</event>
<event>
 8    1  0.2501893E-006  0.9118800E+02  0.7816164E-02  0.1184000E+00
        -11   -1    0    0    0    0  0.00000000000E+00  0.00000000000E+00  0.45593999997E+02  0.45594000000E+02  0.51100000000E-03 0.  1.
         11   -1    0    0    0    0 -0.00000000000E+00 -0.00000000000E+00 -0.45593999997E+02  0.45594000000E+02  0.51100000000E-03 0. -1.
         23    2    1    2    0    0  0.00000000000E+00  0.00000000000E+00  0.35527136788E-14  0.91188000000E+02  0.91188000000E+02 0.  0.
    9900012    2    3    3    0    0 -0.64227231211E+01 -0.22851304177E+02  0.28148642744E+02  0.54367087963E+02  0.40000008629E+02 0.  0.
         12    1    3    3    0    0  0.64227231211E+01  0.22851304177E+02 -0.28148642744E+02  0.36820912037E+02  0.00000000000E+00 0. -1.
         11    1    4    4    0    0 -0.14688806712E+02 -0.15518795029E+02  0.27527300624E+02  0.34847472242E+02  0.51100000000E-03 0. -1.
        -11    1    4    4    0    0 -0.21002984604E+01 -0.85922753907E+01  0.17481674226E+01  0.90163484632E+01  0.51100000000E-03 0.  1.
        -12    1    4    4    0    0  0.10366382052E+02  0.12597662419E+01 -0.11268253022E+01  0.10503267258E+02  0.00000000000E+00 0.  1.
</event>
<event>
 8    1  0.2501893E-006  0.9118800E+02  0.7816164E-02  0.1184000E+00
        -11   -1    0    0    0    0  0.00000000000E+00  0.00000000000E+00  0.45593999997E+02  0.45594000000E+02  0.51100000000E-03 0.  1.
         11   -1    0    0    0    0 -0.00000000000E+00 -0.00000000000E+00 -0.45593999997E+02  0.45594000000E+02  0.51100000000E-03 0. -1.
         23    2    1    2    0    0  0.00000000000E+00 -0.35527136788E-14  0.00000000000E+00  0.91188000000E+02  0.91188000000E+02 0.  0.
    9900012    2    3    3    0    0  0.17779358268E+02 -0.29007987049E+02 -0.14078777003E+02  0.54367070422E+02  0.39999968642E+02 0.  0.
         12    1    3    3    0    0 -0.17779358268E+02  0.29007987049E+02  0.14078777003E+02  0.36820929578E+02  0.00000000000E+00 0. -1.
         11    1    4    4    0    0 -0.79862444357E+01 -0.48042268377E+01 -0.24223345137E+01  0.96295586842E+01  0.51100000000E-03 0. -1.
        -11    1    4    4    0    0 -0.19012368393E+01  0.26863564120E+01  0.19519282766E+01  0.38263868793E+01  0.51100000000E-03 0.  1.
        -12    1    4    4    0    0  0.27666839543E+02 -0.26890116623E+02 -0.13608370766E+02  0.40911124859E+02  0.00000000000E+00 0.  1.
</event>
<event>
 8    1  0.2501893E-006  0.9118800E+02  0.7816164E-02  0.1184000E+00
        -11   -1    0    0    0    0  0.00000000000E+00  0.00000000000E+00  0.45593999997E+02  0.45594000000E+02  0.51100000000E-03 0. -1.
         11   -1    0    0    0    0 -0.00000000000E+00 -0.00000000000E+00 -0.45593999997E+02  0.45594000000E+02  0.51100000000E-03 0.  1.
         23    2    1    2    0    0  0.35527136788E-14  0.71054273576E-14  0.00000000000E+00  0.91188000000E+02  0.91188000000E+02 0.  0.
    9900012    2    3    3    0    0 -0.20488409367E+02 -0.17784033066E+02 -0.24894431642E+02  0.54367089130E+02  0.40000011290E+02 0.  0.
         12    1    3    3    0    0  0.20488409367E+02  0.17784033066E+02  0.24894431642E+02  0.36820910870E+02  0.00000000000E+00 0. -1.
         11    1    4    4    0    0  0.40094829893E+01 -0.37391916966E+01 -0.55898604534E+01  0.78296901941E+01  0.51100000000E-03 0. -1.
        -11    1    4    4    0    0 -0.20543403863E+02  0.15417520322E+01 -0.22103238257E+02  0.30215254149E+02  0.51100000000E-03 0.  1.
        -12    1    4    4    0    0 -0.39544884935E+01 -0.15586593401E+02  0.27986670676E+01  0.16322144787E+02  0.00000000000E+00 0.  1.
</event>
<event>
 8    1  0.2501893E-006  0.9118800E+02  0.7816164E-02  0.1184000E+00
        -11   -1    0    0    0    0  0.00000000000E+00  0.00000000000E+00  0.45593999997E+02  0.45594000000E+02  0.51100000000E-03 0.  1.
         11   -1    0    0    0    0 -0.00000000000E+00 -0.00000000000E+00 -0.45593999997E+02  0.45594000000E+02  0.51100000000E-03 0. -1.
         23    2    1    2    0    0  0.00000000000E+00  0.71054273576E-14  0.00000000000E+00  0.91188000000E+02  0.91188000000E+02 0.  0.
    9900012    2    3    3    0    0 -0.17361990746E+02 -0.28104907776E+02  0.16262104567E+02  0.54367073767E+02  0.39999976266E+02 0.  0.
         12    1    3    3    0    0  0.17361990746E+02  0.28104907776E+02 -0.16262104567E+02  0.36820926233E+02  0.00000000000E+00 0. -1.
         11    1    4    4    0    0 -0.82435318185E+01 -0.32974515349E+00  0.66290824698E+00  0.82767141013E+01  0.51100000000E-03 0. -1.
        -11    1    4    4    0    0 -0.10077897293E+02  0.45308909692E+01  0.38806390163E+01  0.11711206012E+02  0.51100000000E-03 0.  1.
         12    1    4    4    0    0  0.95943836616E+00 -0.32306053591E+02  0.11718557304E+02  0.34379153653E+02  0.00000000000E+00 0. -1.
</event>
<event>
 8    1  0.2501893E-006  0.9118800E+02  0.7816164E-02  0.1184000E+00
        -11   -1    0    0    0    0  0.00000000000E+00  0.00000000000E+00  0.45593999997E+02  0.45594000000E+02  0.51100000000E-03 0. -1.
         11   -1    0    0    0    0 -0.00000000000E+00 -0.00000000000E+00 -0.45593999997E+02  0.45594000000E+02  0.51100000000E-03 0.  1.
         23    2    1    2    0    0  0.35527136788E-14 -0.35527136788E-14  0.00000000000E+00  0.91188000000E+02  0.91188000000E+02 0.  0.
    9900012    2    3    3    0    0  0.12829856970E+02 -0.25946654502E+02 -0.22758425438E+02  0.54367081514E+02  0.39999993928E+02 0.  0.
         12    1    3    3    0    0 -0.12829856970E+02  0.25946654502E+02  0.22758425438E+02  0.36820918486E+02  0.00000000000E+00 0. -1.
         11    1    4    4    0    0 -0.35589886699E+01 -0.72366493003E+01  0.31854258924E+01  0.86707803470E+01  0.51100000000E-03 0. -1.
        -11    1    4    4    0    0  0.42468239407E+01 -0.16841220247E+02 -0.28283367519E+02  0.33190527135E+02  0.51100000000E-03 0.  1.
        -12    1    4    4    0    0  0.12142021699E+02 -0.18687849548E+01  0.23395161889E+01  0.12505774032E+02  0.00000000000E+00 0.  1.
</event>
<event>
 8    1  0.2501893E-006  0.9118800E+02  0.7816164E-02  0.1184000E+00
        -11   -1    0    0    0    0  0.00000000000E+00  0.00000000000E+00  0.45593999997E+02  0.45594000000E+02  0.51100000000E-03 0.  1.
         11   -1    0    0    0    0 -0.00000000000E+00 -0.00000000000E+00 -0.45593999997E+02  0.45594000000E+02  0.51100000000E-03 0. -1.
         23    2    1    2    0    0 -0.35527136788E-14  0.00000000000E+00  0.00000000000E+00  0.91188000000E+02  0.91188000000E+02 0.  0.
    9900012    2    3    3    0    0 -0.31521011293E+02 -0.17512708819E+02 -0.74506537562E+01  0.54367063503E+02  0.39999952868E+02 0.  0.
        -12    1    3    3    0    0  0.31521011293E+02  0.17512708819E+02  0.74506537562E+01  0.36820936497E+02  0.00000000000E+00 0.  1.
         11    1    4    4    0    0 -0.14700573155E+02 -0.20132201873E+02 -0.47585134297E+01  0.25378255528E+02  0.51100000000E-03 0. -1.
        -11    1    4    4    0    0 -0.21394412403E+02  0.50892234316E+01  0.18724856617E+01  0.22070960107E+02  0.51100000000E-03 0.  1.
         12    1    4    4    0    0  0.45739742650E+01 -0.24697303781E+01 -0.45646259882E+01  0.69178478684E+01  0.00000000000E+00 0. -1.
</event>
<event>
 8    1  0.2501893E-006  0.9118800E+02  0.7816164E-02  0.1184000E+00
        -11   -1    0    0    0    0  0.00000000000E+00  0.00000000000E+00  0.45593999997E+02  0.45594000000E+02  0.51100000000E-03 0. -1.
         11   -1    0    0    0    0 -0.00000000000E+00 -0.00000000000E+00 -0.45593999997E+02  0.45594000000E+02  0.51100000000E-03 0.  1.
         23    2    1    2    0    0  0.00000000000E+00 -0.17763568394E-14  0.35527136788E-14  0.91188000000E+02  0.91188000000E+02 0.  0.
    9900012    2    3    3    0    0 -0.30784985094E+02 -0.90972077215E+01 -0.18036220262E+02  0.54367085604E+02  0.40000003253E+02 0.  0.
         12    1    3    3    0    0  0.30784985094E+02  0.90972077215E+01  0.18036220262E+02  0.36820914396E+02  0.00000000000E+00 0. -1.
         11    1    4    4    0    0  0.38197361642E+01  0.18360942850E+01  0.45671989301E+00  0.42626540921E+01  0.51100000000E-03 0. -1.
        -11    1    4    4    0    0 -0.69982438519E+00 -0.12046586395E+02 -0.84310885467E+01  0.14720504485E+02  0.51100000000E-03 0.  1.
         12    1    4    4    0    0 -0.33904896873E+02  0.11132843883E+01 -0.10061851608E+02  0.35383927028E+02  0.00000000000E+00 0. -1.
</event>
<event>
 8    1  0.2501893E-006  0.9118800E+02  0.7816164E-02  0.1184000E+00
        -11   -1    0    0    0    0  0.00000000000E+00  0.00000000000E+00  0.45593999997E+02  0.45594000000E+02  0.51100000000E-03 0.  1.
         11   -1    0    0    0    0 -0.00000000000E+00 -0.00000000000E+00 -0.45593999997E+02  0.45594000000E+02  0.51100000000E-03 0. -1.
         23    2    1    2    0    0  0.71054273576E-14  0.71054273576E-14  0.00000000000E+00  0.91188000000E+02  0.91188000000E+02 0.  0.
    9900012    2    3    3    0    0 -0.27819672266E+02 -0.16212880762E+02 -0.17860409072E+02  0.54367002189E+02  0.39999813090E+02 0.  0.
        -12    1    3    3    0    0  0.27819672266E+02  0.16212880762E+02  0.17860409072E+02  0.36820997811E+02  0.00000000000E+00 0.  1.
         11    1    4    4    0    0  0.30024342465E+01  0.65778016367E+01 -0.11616012907E+02  0.13682610931E+02  0.51100000000E-03 0. -1.
        -11    1    4    4    0    0  0.75712049117E+00 -0.23820656600E+01 -0.11121478960E+01  0.27357524469E+01  0.51100000000E-03 0.  1.
         12    1    4    4    0    0 -0.31579227003E+02 -0.20408616739E+02 -0.51322482691E+01  0.37948638811E+02  0.00000000000E+00 0. -1.
</event>
<event>
 8    1  0.2501893E-006  0.9118800E+02  0.7816164E-02  0.1184000E+00
        -11   -1    0    0    0    0  0.00000000000E+00  0.00000000000E+00  0.45593999997E+02  0.45594000000E+02  0.51100000000E-03 0.  1.
         11   -1    0    0    0    0 -0.00000000000E+00 -0.00000000000E+00 -0.45593999997E+02  0.45594000000E+02  0.51100000000E-03 0. -1.
         23    2    1    2    0    0  0.22204460493E-15  0.00000000000E+00  0.00000000000E+00  0.91188000000E+02  0.91188000000E+02 0.  0.
    9900012    2    3    3    0    0 -0.14256048588E+01  0.36201850524E+02 -0.65708223740E+01  0.54367054368E+02  0.39999932042E+02 0.  0.
        -12    1    3    3    0    0  0.14256048588E+01 -0.36201850524E+02  0.65708223740E+01  0.36820945632E+02  0.00000000000E+00 0.  1.
         11    1    4    4    0    0  0.14302329446E+01  0.17396746158E+02 -0.22225367070E+02  0.28260560589E+02  0.51100000000E-03 0. -1.
        -11    1    4    4    0    0  0.15271323057E+01  0.14989480786E+02  0.10864536816E+02  0.18575651477E+02  0.51100000000E-03 0.  1.
         12    1    4    4    0    0 -0.43829701091E+01  0.38156235806E+01  0.47900078793E+01  0.75308423015E+01  0.00000000000E+00 0. -1.
</event>
<event>
 8    1  0.2501893E-006  0.9118800E+02  0.7816164E-02  0.1184000E+00
        -11   -1    0    0    0    0  0.00000000000E+00  0.00000000000E+00  0.45593999997E+02  0.45594000000E+02  0.51100000000E-03 0.  1.
         11   -1    0    0    0    0 -0.00000000000E+00 -0.00000000000E+00 -0.45593999997E+02  0.45594000000E+02  0.51100000000E-03 0. -1.
         23    2    1    2    0    0  0.00000000000E+00  0.88817841970E-15  0.00000000000E+00  0.91188000000E+02  0.91188000000E+02 0.  0.
    9900012    2    3    3    0    0 -0.48547962090E+01 -0.50423122091E+01  0.36149491515E+02  0.54367086168E+02  0.40000004537E+02 0.  0.
         12    1    3    3    0    0  0.48547962090E+01  0.50423122091E+01 -0.36149491515E+02  0.36820913832E+02  0.00000000000E+00 0. -1.
         11    1    4    4    0    0 -0.55732779489E+01 -0.43206490353E+01  0.36285428407E+00  0.70612391741E+01  0.51100000000E-03 0. -1.
        -11    1    4    4    0    0  0.60639001889E+01  0.13474922881E+02  0.11732400962E+02  0.18867794379E+02  0.51100000000E-03 0.  1.
         12    1    4    4    0    0 -0.53454184491E+01 -0.14196586055E+02  0.24054236269E+02  0.28438052615E+02  0.00000000000E+00 0. -1.
</event>
<event>
 8    1  0.2501893E-006  0.9118800E+02  0.7816164E-02  0.1184000E+00
        -11   -1    0    0    0    0  0.00000000000E+00  0.00000000000E+00  0.45593999997E+02  0.45594000000E+02  0.51100000000E-03 0. -1.
         11   -1    0    0    0    0 -0.00000000000E+00 -0.00000000000E+00 -0.45593999997E+02  0.45594000000E+02  0.51100000000E-03 0.  1.
         23    2    1    2    0    0  0.00000000000E+00  0.44408920985E-15  0.71054273576E-14  0.91188000000E+02  0.91188000000E+02 0.  0.
    9900012    2    3    3    0    0  0.19130616482E+02  0.22964619820E+01 -0.31377324819E+02  0.54366936226E+02  0.39999662714E+02 0.  0.
         12    1    3    3    0    0 -0.19130616482E+02 -0.22964619820E+01  0.31377324819E+02  0.36821063774E+02  0.00000000000E+00 0. -1.
         11    1    4    4    0    0  0.14150975347E+02 -0.32669859365E+01  0.54250088054E+01  0.15503355158E+02  0.51100000000E-03 0. -1.
        -11    1    4    4    0    0 -0.18558149654E+01  0.10459429589E+01 -0.20575978289E+02  0.20685959699E+02  0.51100000000E-03 0.  1.
         12    1    4    4    0    0  0.68354561010E+01  0.45175049596E+01 -0.16226355336E+02  0.18177621369E+02  0.00000000000E+00 0. -1.
</event>
<event>
 8    1  0.2501893E-006  0.9118800E+02  0.7816164E-02  0.1184000E+00
        -11   -1    0    0    0    0  0.00000000000E+00  0.00000000000E+00  0.45593999997E+02  0.45594000000E+02  0.51100000000E-03 0.  1.
         11   -1    0    0    0    0 -0.00000000000E+00 -0.00000000000E+00 -0.45593999997E+02  0.45594000000E+02  0.51100000000E-03 0. -1.
         23    2    1    2    0    0 -0.35527136788E-14  0.00000000000E+00 -0.35527136788E-14  0.91188000000E+02  0.91188000000E+02 0.  0.
    9900012    2    3    3    0    0  0.24090897807E+02 -0.65020476531E+01  0.27076428528E+02  0.54367068960E+02  0.39999965308E+02 0.  0.
         12    1    3    3    0    0 -0.24090897807E+02  0.65020476531E+01 -0.27076428528E+02  0.36820931040E+02  0.00000000000E+00 0. -1.
         11    1    4    4    0    0  0.13141074768E+02 -0.34319667636E+01  0.60687425897E+01  0.14876016900E+02  0.51100000000E-03 0. -1.
        -11    1    4    4    0    0  0.93057753070E+01  0.12566294135E+02  0.17334504828E+02  0.23345112127E+02  0.51100000000E-03 0.  1.
         12    1    4    4    0    0  0.16440477314E+01 -0.15636375024E+02  0.36731811111E+01  0.16145939933E+02  0.00000000000E+00 0. -1.
</event>
<event>
 8    1  0.2501893E-006  0.9118800E+02  0.7816164E-02  0.1184000E+00
        -11   -1    0    0    0    0  0.00000000000E+00  0.00000000000E+00  0.45593999997E+02  0.45594000000E+02  0.51100000000E-03 0.  1.
         11   -1    0    0    0    0 -0.00000000000E+00 -0.00000000000E+00 -0.45593999997E+02  0.45594000000E+02  0.51100000000E-03 0. -1.
         23    2    1    2    0    0  0.88817841970E-15  0.71054273576E-14  0.55511151231E-15  0.91188000000E+02  0.91188000000E+02 0.  0.
    9900012    2    3    3    0    0 -0.50250701834E+01  0.36467897295E+02 -0.79085535473E+00  0.54367023429E+02  0.39999861510E+02 0.  0.
        -12    1    3    3    0    0  0.50250701834E+01 -0.36467897295E+02  0.79085535473E+00  0.36820976571E+02  0.00000000000E+00 0.  1.
         11    1    4    4    0    0 -0.11564329930E+02  0.96393143078E+01 -0.48165212196E+01  0.15806612034E+02  0.51100000000E-03 0. -1.
        -11    1    4    4    0    0  0.39954101193E+01  0.61780072517E+01  0.13749088935E+02  0.15593861690E+02  0.51100000000E-03 0.  1.
        -12    1    4    4    0    0  0.25438496276E+01  0.20650575735E+02 -0.97234230699E+01  0.22966549705E+02  0.00000000000E+00 0.  1.
</event>
<event>
 8    1  0.2501893E-006  0.9118800E+02  0.7816164E-02  0.1184000E+00
        -11   -1    0    0    0    0  0.00000000000E+00  0.00000000000E+00  0.45593999997E+02  0.45594000000E+02  0.51100000000E-03 0. -1.
         11   -1    0    0    0    0 -0.00000000000E+00 -0.00000000000E+00 -0.45593999997E+02  0.45594000000E+02  0.51100000000E-03 0.  1.
         23    2    1    2    0    0 -0.26645352591E-14 -0.88817841970E-15 -0.71054273576E-14  0.91188000000E+02  0.91188000000E+02 0.  0.
    9900012    2    3    3    0    0 -0.34883854058E+01 -0.59042627995E+01  0.36176665839E+02  0.54367077915E+02  0.39999985724E+02 0.  0.
        -12    1    3    3    0    0  0.34883854058E+01  0.59042627995E+01 -0.36176665839E+02  0.36820922085E+02  0.00000000000E+00 0.  1.
         11    1    4    4    0    0 -0.98092584358E+01 -0.11021778666E+02  0.47127408077E+01  0.15489063310E+02  0.51100000000E-03 0. -1.
        -11    1    4    4    0    0 -0.26530123880E+01 -0.25899617685E+01 -0.13897679342E+01  0.39595241968E+01  0.51100000000E-03 0.  1.
         12    1    4    4    0    0  0.89738854180E+01  0.77074776353E+01  0.32853692965E+02  0.34918490409E+02  0.00000000000E+00 0. -1.
</event>
<event>
 8    1  0.2501893E-006  0.9118800E+02  0.7816164E-02  0.1184000E+00
        -11   -1    0    0    0    0  0.00000000000E+00  0.00000000000E+00  0.45593999997E+02  0.45594000000E+02  0.51100000000E-03 0.  1.
         11   -1    0    0    0    0 -0.00000000000E+00 -0.00000000000E+00 -0.45593999997E+02  0.45594000000E+02  0.51100000000E-03 0. -1.
         23    2    1    2    0    0 -0.71054273576E-14  0.17763568394E-14  0.88817841970E-15  0.91188000000E+02  0.91188000000E+02 0.  0.
    9900012    2    3    3    0    0 -0.33794969664E+02  0.12458600069E+02 -0.76468108817E+01  0.54366940714E+02  0.39999672945E+02 0.  0.
        -12    1    3    3    0    0  0.33794969664E+02 -0.12458600069E+02  0.76468108817E+01  0.36821059286E+02  0.00000000000E+00 0.  1.
         11    1    4    4    0    0 -0.29953506362E+02  0.18099812126E+01 -0.73270562709E+01  0.30889712352E+02  0.51100000000E-03 0. -1.
        -11    1    4    4    0    0  0.52829709373E+01  0.11755068846E+02 -0.41216348805E+01  0.13530679948E+02  0.51100000000E-03 0.  1.
        -12    1    4    4    0    0 -0.91244342398E+01 -0.11064499894E+01  0.38018802696E+01  0.99465484144E+01  0.00000000000E+00 0.  1.
</event>
<event>
 8    1  0.2501893E-006  0.9118800E+02  0.7816164E-02  0.1184000E+00
        -11   -1    0    0    0    0  0.00000000000E+00  0.00000000000E+00  0.45593999997E+02  0.45594000000E+02  0.51100000000E-03 0.  1.
         11   -1    0    0    0    0 -0.00000000000E+00 -0.00000000000E+00 -0.45593999997E+02  0.45594000000E+02  0.51100000000E-03 0. -1.
         23    2    1    2    0    0 -0.17763568394E-14  0.00000000000E+00  0.71054273576E-14  0.91188000000E+02  0.91188000000E+02 0.  0.
    9900012    2    3    3    0    0 -0.81541224899E+01  0.86869471583E+01  0.34840016532E+02  0.54367088598E+02  0.40000010077E+02 0.  0.
         12    1    3    3    0    0  0.81541224899E+01 -0.86869471583E+01 -0.34840016532E+02  0.36820911402E+02  0.00000000000E+00 0. -1.
         11    1    4    4    0    0 -0.28838852702E+01  0.11780387450E+02  0.81292863375E+01  0.14600671880E+02  0.51100000000E-03 0. -1.
        -11    1    4    4    0    0  0.74414243516E+01  0.66715794842E+01  0.20060499585E+02  0.22412238020E+02  0.51100000000E-03 0.  1.
         12    1    4    4    0    0 -0.12711661571E+02 -0.97650197763E+01  0.66502306096E+01  0.17354178698E+02  0.00000000000E+00 0. -1.
</event>
<event>
 8    1  0.2501893E-006  0.9118800E+02  0.7816164E-02  0.1184000E+00
        -11   -1    0    0    0    0  0.00000000000E+00  0.00000000000E+00  0.45593999997E+02  0.45594000000E+02  0.51100000000E-03 0. -1.
         11   -1    0    0    0    0 -0.00000000000E+00 -0.00000000000E+00 -0.45593999997E+02  0.45594000000E+02  0.51100000000E-03 0.  1.
         23    2    1    2    0    0  0.00000000000E+00  0.00000000000E+00  0.17763568394E-14  0.91188000000E+02  0.91188000000E+02 0.  0.
    9900012    2    3    3    0    0  0.11466738232E+02 -0.32145528704E+02 -0.13818777008E+02  0.54367086115E+02  0.40000004416E+02 0.  0.
        -12    1    3    3    0    0 -0.11466738232E+02  0.32145528704E+02  0.13818777008E+02  0.36820913885E+02  0.00000000000E+00 0.  1.
         11    1    4    4    0    0  0.31841996049E+01 -0.14565398872E+01 -0.10739642496E+02  0.11296041642E+02  0.51100000000E-03 0. -1.
        -11    1    4    4    0    0  0.99670634967E+00 -0.15917474435E+02 -0.15655115185E+02  0.22348200099E+02  0.51100000000E-03 0.  1.
         12    1    4    4    0    0  0.72858322778E+01 -0.14771514381E+02  0.12575980673E+02  0.20722844374E+02  0.00000000000E+00 0. -1.
</event>
<event>
 8    1  0.2501893E-006  0.9118800E+02  0.7816164E-02  0.1184000E+00
        -11   -1    0    0    0    0  0.00000000000E+00  0.00000000000E+00  0.45593999997E+02  0.45594000000E+02  0.51100000000E-03 0.  1.
         11   -1    0    0    0    0 -0.00000000000E+00 -0.00000000000E+00 -0.45593999997E+02  0.45594000000E+02  0.51100000000E-03 0. -1.
         23    2    1    2    0    0 -0.88817841970E-15  0.00000000000E+00  0.00000000000E+00  0.91188000000E+02  0.91188000000E+02 0.  0.
    9900012    2    3    3    0    0  0.70619017077E+01  0.27577998351E+02 -0.23353019687E+02  0.54367082341E+02  0.39999995812E+02 0.  0.
        -12    1    3    3    0    0 -0.70619017077E+01 -0.27577998351E+02  0.23353019687E+02  0.36820917659E+02  0.00000000000E+00 0.  1.
         11    1    4    4    0    0 -0.82495477868E+01  0.15698263599E+02 -0.18946588865E+02  0.25951180100E+02  0.51100000000E-03 0. -1.
        -11    1    4    4    0    0  0.20682289865E+01  0.45084785181E+01 -0.10862708762E+02  0.11941624328E+02  0.51100000000E-03 0.  1.
        -12    1    4    4    0    0  0.13243220508E+02  0.73712562334E+01  0.64562779398E+01  0.16474277912E+02  0.00000000000E+00 0.  1.
</event>
<event>
 8    1  0.2501893E-006  0.9118800E+02  0.7816164E-02  0.1184000E+00
        -11   -1    0    0    0    0  0.00000000000E+00  0.00000000000E+00  0.45593999997E+02  0.45594000000E+02  0.51100000000E-03 0.  1.
         11   -1    0    0    0    0 -0.00000000000E+00 -0.00000000000E+00 -0.45593999997E+02  0.45594000000E+02  0.51100000000E-03 0. -1.
         23    2    1    2    0    0 -0.44408920985E-15  0.00000000000E+00  0.00000000000E+00  0.91188000000E+02  0.91188000000E+02 0.  0.
    9900012    2    3    3    0    0  0.67929621239E+00 -0.20383647680E+02  0.30656582991E+02  0.54367073656E+02  0.39999976014E+02 0.  0.
         12    1    3    3    0    0 -0.67929621239E+00  0.20383647680E+02 -0.30656582991E+02  0.36820926344E+02  0.00000000000E+00 0. -1.
         11    1    4    4    0    0  0.52841440723E+01 -0.20355816976E+02  0.32916014447E+01  0.21286523992E+02  0.51100000000E-03 0. -1.
        -11    1    4    4    0    0 -0.10199437816E+01 -0.87500852481E+01  0.10052147954E+02  0.13365999997E+02  0.51100000000E-03 0.  1.
        -12    1    4    4    0    0 -0.35849040783E+01  0.87222545437E+01  0.17312833593E+02  0.19714549668E+02  0.00000000000E+00 0.  1.
</event>
<event>
 8    1  0.2501893E-006  0.9118800E+02  0.7816164E-02  0.1184000E+00
        -11   -1    0    0    0    0  0.00000000000E+00  0.00000000000E+00  0.45593999997E+02  0.45594000000E+02  0.51100000000E-03 0. -1.
         11   -1    0    0    0    0 -0.00000000000E+00 -0.00000000000E+00 -0.45593999997E+02  0.45594000000E+02  0.51100000000E-03 0.  1.
         23    2    1    2    0    0  0.00000000000E+00  0.35527136788E-14  0.00000000000E+00  0.91188000000E+02  0.91188000000E+02 0.  0.
    9900012    2    3    3    0    0 -0.29628519341E+02  0.19373408705E+02  0.10129242695E+02  0.54367086367E+02  0.40000004992E+02 0.  0.
         12    1    3    3    0    0  0.29628519341E+02 -0.19373408705E+02 -0.10129242695E+02  0.36820913633E+02  0.00000000000E+00 0. -1.
         11    1    4    4    0    0 -0.18173454475E+02 -0.47774534091E+01  0.51378462508E+01  0.19480656380E+02  0.51100000000E-03 0. -1.
        -11    1    4    4    0    0 -0.77730706178E+01 -0.41413213009E+00  0.62977732549E+01  0.10012695965E+02  0.51100000000E-03 0.  1.
        -12    1    4    4    0    0 -0.36819942476E+01  0.24564994244E+02 -0.13063768107E+01  0.24873734023E+02  0.00000000000E+00 0.  1.
</event>
<event>
 8    1  0.2501893E-006  0.9118800E+02  0.7816164E-02  0.1184000E+00
        -11   -1    0    0    0    0  0.00000000000E+00  0.00000000000E+00  0.45593999997E+02  0.45594000000E+02  0.51100000000E-03 0.  1.
         11   -1    0    0    0    0 -0.00000000000E+00 -0.00000000000E+00 -0.45593999997E+02  0.45594000000E+02  0.51100000000E-03 0. -1.
         23    2    1    2    0    0 -0.88817841970E-15  0.35527136788E-14  0.71054273576E-14  0.91188000000E+02  0.91188000000E+02 0.  0.
    9900012    2    3    3    0    0 -0.37189457115E+01  0.13501352573E+02  0.34053819519E+02  0.54367086074E+02  0.40000004323E+02 0.  0.
         12    1    3    3    0    0  0.37189457115E+01 -0.13501352573E+02 -0.34053819519E+02  0.36820913926E+02  0.00000000000E+00 0. -1.
         11    1    4    4    0    0  0.88735252506E+01 -0.61372434433E+01  0.14357683665E+02  0.17959629393E+02  0.51100000000E-03 0. -1.
        -11    1    4    4    0    0 -0.58375480877E+01 -0.26445727075E+01  0.82928807744E+01  0.10480582249E+02  0.51100000000E-03 0.  1.
        -12    1    4    4    0    0 -0.67549228744E+01  0.22283168723E+02  0.11403255080E+02  0.25926874432E+02  0.00000000000E+00 0.  1.
</event>
<event>
 8    1  0.2501893E-006  0.9118800E+02  0.7816164E-02  0.1184000E+00
        -11   -1    0    0    0    0  0.00000000000E+00  0.00000000000E+00  0.45593999997E+02  0.45594000000E+02  0.51100000000E-03 0. -1.
         11   -1    0    0    0    0 -0.00000000000E+00 -0.00000000000E+00 -0.45593999997E+02  0.45594000000E+02  0.51100000000E-03 0.  1.
         23    2    1    2    0    0  0.00000000000E+00  0.00000000000E+00 -0.66613381478E-15  0.91188000000E+02  0.91188000000E+02 0.  0.
    9900012    2    3    3    0    0 -0.36076253268E+02  0.72964172109E+01 -0.10227950422E+01  0.54367083883E+02  0.39999999329E+02 0.  0.
         12    1    3    3    0    0  0.36076253268E+02 -0.72964172109E+01  0.10227950422E+01  0.36820916117E+02  0.00000000000E+00 0. -1.
         11    1    4    4    0    0 -0.19308399605E+02  0.30004090294E+01  0.29685198062E+01  0.19764333021E+02  0.51100000000E-03 0. -1.
        -11    1    4    4    0    0 -0.22273033432E+02  0.79079060157E+01 -0.10023691484E+02  0.25672892066E+02  0.51100000000E-03 0.  1.
        -12    1    4    4    0    0  0.55051797693E+01 -0.36118978342E+01  0.60323766353E+01  0.89298587966E+01  0.00000000000E+00 0.  1.
</event>
<event>
 8    1  0.2501893E-006  0.9118800E+02  0.7816164E-02  0.1184000E+00
        -11   -1    0    0    0    0  0.00000000000E+00  0.00000000000E+00  0.45593999997E+02  0.45594000000E+02  0.51100000000E-03 0.  1.
         11   -1    0    0    0    0 -0.00000000000E+00 -0.00000000000E+00 -0.45593999997E+02  0.45594000000E+02  0.51100000000E-03 0. -1.
         23    2    1    2    0    0  0.13322676296E-14  0.00000000000E+00  0.35527136788E-14  0.91188000000E+02  0.91188000000E+02 0.  0.
    9900012    2    3    3    0    0  0.30885726478E+01 -0.32493719716E+02 -0.17041153324E+02  0.54367054757E+02  0.39999932929E+02 0.  0.
        -12    1    3    3    0    0 -0.30885726478E+01  0.32493719716E+02  0.17041153324E+02  0.36820945243E+02  0.00000000000E+00 0.  1.
         11    1    4    4    0    0 -0.47263590730E+01 -0.31798096687E+02 -0.13119967681E+02  0.34721621148E+02  0.51100000000E-03 0. -1.
        -11    1    4    4    0    0  0.13380620477E+02  0.55823308448E+00 -0.16052903786E+01  0.13488127594E+02  0.51100000000E-03 0.  1.
        -12    1    4    4    0    0 -0.55656887560E+01 -0.12538561142E+01 -0.23158952644E+01  0.61573060147E+01  0.00000000000E+00 0.  1.
</event>
<event>
 8    1  0.2501893E-006  0.9118800E+02  0.7816164E-02  0.1184000E+00
        -11   -1    0    0    0    0  0.00000000000E+00  0.00000000000E+00  0.45593999997E+02  0.45594000000E+02  0.51100000000E-03 0. -1.
         11   -1    0    0    0    0 -0.00000000000E+00 -0.00000000000E+00 -0.45593999997E+02  0.45594000000E+02  0.51100000000E-03 0.  1.
         23    2    1    2    0    0 -0.17763568394E-14  0.00000000000E+00  0.00000000000E+00  0.91188000000E+02  0.91188000000E+02 0.  0.
    9900012    2    3    3    0    0  0.10024917371E+02  0.25656603205E+01  0.35336925378E+02  0.54367083712E+02  0.39999998937E+02 0.  0.
        -12    1    3    3    0    0 -0.10024917371E+02 -0.25656603205E+01 -0.35336925378E+02  0.36820916288E+02  0.00000000000E+00 0.  1.
         11    1    4    4    0    0  0.30672683426E+01  0.14850657882E+02  0.11387837595E+02  0.18963992722E+02  0.51100000000E-03 0. -1.
        -11    1    4    4    0    0 -0.32206562202E+01 -0.25985619564E+01 -0.29317484529E+01  0.50715185085E+01  0.51100000000E-03 0.  1.
        -12    1    4    4    0    0  0.10178305249E+02 -0.96864356047E+01  0.26880836235E+02  0.30331572481E+02  0.00000000000E+00 0.  1.
</event>
<event>
 8    1  0.2501893E-006  0.9118800E+02  0.7816164E-02  0.1184000E+00
        -11   -1    0    0    0    0  0.00000000000E+00  0.00000000000E+00  0.45593999997E+02  0.45594000000E+02  0.51100000000E-03 0.  1.
         11   -1    0    0    0    0 -0.00000000000E+00 -0.00000000000E+00 -0.45593999997E+02  0.45594000000E+02  0.51100000000E-03 0. -1.
         23    2    1    2    0    0 -0.35527136788E-14  0.00000000000E+00  0.00000000000E+00  0.91188000000E+02  0.91188000000E+02 0.  0.
    9900012    2    3    3    0    0  0.29359592428E+02  0.96011771817E+01  0.20040328296E+02  0.54367040900E+02  0.39999901340E+02 0.  0.
         12    1    3    3    0    0 -0.29359592428E+02 -0.96011771817E+01 -0.20040328296E+02  0.36820959100E+02  0.00000000000E+00 0. -1.
         11    1    4    4    0    0  0.19102337428E+02  0.99272941597E+01  0.13617230215E+02  0.25473111776E+02  0.51100000000E-03 0. -1.
        -11    1    4    4    0    0  0.14645351183E+02  0.94228526765E+01  0.49296007647E+01  0.18099100193E+02  0.51100000000E-03 0.  1.
         12    1    4    4    0    0 -0.43880961826E+01 -0.97489696545E+01  0.14934973158E+01  0.10794828932E+02  0.00000000000E+00 0. -1.
</event>
<event>
 8    1  0.2501893E-006  0.9118800E+02  0.7816164E-02  0.1184000E+00
        -11   -1    0    0    0    0  0.00000000000E+00  0.00000000000E+00  0.45593999997E+02  0.45594000000E+02  0.51100000000E-03 0.  1.
         11   -1    0    0    0    0 -0.00000000000E+00 -0.00000000000E+00 -0.45593999997E+02  0.45594000000E+02  0.51100000000E-03 0. -1.
         23    2    1    2    0    0 -0.17763568394E-14  0.00000000000E+00  0.00000000000E+00  0.91188000000E+02  0.91188000000E+02 0.  0.
    9900012    2    3    3    0    0  0.12801986593E+02  0.27516656244E+01 -0.34413895102E+02  0.54367099678E+02  0.40000035336E+02 0.  0.
        -12    1    3    3    0    0 -0.12801986593E+02 -0.27516656244E+01  0.34413895102E+02  0.36820900322E+02  0.00000000000E+00 0.  1.
         11    1    4    4    0    0 -0.96297222565E+01 -0.16599809621E+01 -0.68026878657E+01  0.11906454132E+02  0.51100000000E-03 0. -1.
        -11    1    4    4    0    0 -0.19324299077E+01  0.57737321672E+01 -0.12101075778E+02  0.13546449857E+02  0.51100000000E-03 0.  1.
         12    1    4    4    0    0  0.24364138757E+02 -0.13620855807E+01 -0.15510131458E+02  0.28914195689E+02  0.00000000000E+00 0. -1.
</event>
<event>
 8    1  0.2501893E-006  0.9118800E+02  0.7816164E-02  0.1184000E+00
        -11   -1    0    0    0    0  0.00000000000E+00  0.00000000000E+00  0.45593999997E+02  0.45594000000E+02  0.51100000000E-03 0. -1.
         11   -1    0    0    0    0 -0.00000000000E+00 -0.00000000000E+00 -0.45593999997E+02  0.45594000000E+02  0.51100000000E-03 0.  1.
         23    2    1    2    0    0  0.44408920985E-15  0.00000000000E+00  0.00000000000E+00  0.91188000000E+02  0.91188000000E+02 0.  0.
    9900012    2    3    3    0    0 -0.39711717223E+01  0.11387333131E+02 -0.34789919749E+02  0.54367080989E+02  0.39999992731E+02 0.  0.
         12    1    3    3    0    0  0.39711717223E+01 -0.11387333131E+02  0.34789919749E+02  0.36820919011E+02  0.00000000000E+00 0. -1.
         11    1    4    4    0    0 -0.11935632026E+02  0.14102262932E+02 -0.17936425532E+01  0.18562065767E+02  0.51100000000E-03 0. -1.
        -11    1    4    4    0    0 -0.20660927070E+01  0.16939062776E+01 -0.96924005871E+01  0.10053889146E+02  0.51100000000E-03 0.  1.
        -12    1    4    4    0    0  0.10030553010E+02 -0.44088360791E+01 -0.23303876608E+02  0.25751126077E+02  0.00000000000E+00 0.  1.
</event>
<event>
 8    1  0.2501893E-006  0.9118800E+02  0.7816164E-02  0.1184000E+00
        -11   -1    0    0    0    0  0.00000000000E+00  0.00000000000E+00  0.45593999997E+02  0.45594000000E+02  0.51100000000E-03 0. -1.
         11   -1    0    0    0    0 -0.00000000000E+00 -0.00000000000E+00 -0.45593999997E+02  0.45594000000E+02  0.51100000000E-03 0.  1.
         23    2    1    2    0    0  0.00000000000E+00  0.00000000000E+00  0.13322676296E-14  0.91188000000E+02  0.91188000000E+02 0.  0.
    9900012    2    3    3    0    0 -0.29354537406E+02  0.21894926871E+02  0.38344336625E+01  0.54367087864E+02  0.40000008404E+02 0.  0.
        -12    1    3    3    0    0  0.29354537406E+02 -0.21894926871E+02 -0.38344336625E+01  0.36820912136E+02  0.00000000000E+00 0.  1.
         11    1    4    4    0    0 -0.19311605344E+02  0.87918770935E+00 -0.83662563472E+01  0.21064313840E+02  0.51100000000E-03 0. -1.
        -11    1    4    4    0    0 -0.13680659738E+02  0.50475758386E+01  0.64534598311E+01  0.15946335528E+02  0.51100000000E-03 0.  1.
        -12    1    4    4    0    0  0.36377276769E+01  0.15968163323E+02  0.57472301785E+01  0.17356438497E+02  0.00000000000E+00 0.  1.
</event>
<event>
 8    1  0.2501893E-006  0.9118800E+02  0.7816164E-02  0.1184000E+00
        -11   -1    0    0    0    0  0.00000000000E+00  0.00000000000E+00  0.45593999997E+02  0.45594000000E+02  0.51100000000E-03 0.  1.
         11   -1    0    0    0    0 -0.00000000000E+00 -0.00000000000E+00 -0.45593999997E+02  0.45594000000E+02  0.51100000000E-03 0. -1.
         23    2    1    2    0    0  0.35527136788E-14  0.00000000000E+00 -0.88817841970E-15  0.91188000000E+02  0.91188000000E+02 0.  0.
    9900012    2    3    3    0    0 -0.21460989399E+02  0.29409843456E+02  0.55015264388E+01  0.54367085410E+02  0.40000002809E+02 0.  0.
        -12    1    3    3    0    0  0.21460989399E+02 -0.29409843456E+02 -0.55015264388E+01  0.36820914590E+02  0.00000000000E+00 0.  1.
         11    1    4    4    0    0 -0.30106994367E+02  0.23407103367E+02  0.85332454550E+01  0.39078637081E+02  0.51100000000E-03 0. -1.
        -11    1    4    4    0    0  0.29073762560E+01  0.71983404441E+01 -0.48467291356E+01  0.91520339497E+01  0.51100000000E-03 0.  1.
         12    1    4    4    0    0  0.57386287120E+01 -0.11956003552E+01  0.18150101194E+01  0.61364143795E+01  0.00000000000E+00 0. -1.
</event>
<event>
 8    1  0.2501893E-006  0.9118800E+02  0.7816164E-02  0.1184000E+00
        -11   -1    0    0    0    0  0.00000000000E+00  0.00000000000E+00  0.45593999997E+02  0.45594000000E+02  0.51100000000E-03 0. -1.
         11   -1    0    0    0    0 -0.00000000000E+00 -0.00000000000E+00 -0.45593999997E+02  0.45594000000E+02  0.51100000000E-03 0.  1.
         23    2    1    2    0    0  0.71054273576E-14  0.88817841970E-15  0.88817841970E-15  0.91188000000E+02  0.91188000000E+02 0.  0.
    9900012    2    3    3    0    0  0.35759101104E+02  0.52270776667E+01 -0.70529133433E+01  0.54367092362E+02  0.40000018657E+02 0.  0.
         12    1    3    3    0    0 -0.35759101104E+02 -0.52270776667E+01  0.70529133433E+01  0.36820907638E+02  0.00000000000E+00 0. -1.
         11    1    4    4    0    0  0.67022542336E+01  0.13328162421E+02 -0.97189796858E+00  0.14950073955E+02  0.51100000000E-03 0. -1.
        -11    1    4    4    0    0  0.19865041548E+02 -0.38113372725E+01  0.82619866679E+01  0.21849635957E+02  0.51100000000E-03 0.  1.
         12    1    4    4    0    0  0.91918053224E+01 -0.42897474819E+01 -0.14343002043E+02  0.17567382450E+02  0.00000000000E+00 0. -1.
</event>
<event>
 8    1  0.2501893E-006  0.9118800E+02  0.7816164E-02  0.1184000E+00
        -11   -1    0    0    0    0  0.00000000000E+00  0.00000000000E+00  0.45593999997E+02  0.45594000000E+02  0.51100000000E-03 0. -1.
         11   -1    0    0    0    0 -0.00000000000E+00 -0.00000000000E+00 -0.45593999997E+02  0.45594000000E+02  0.51100000000E-03 0.  1.
         23    2    1    2    0    0  0.35527136788E-14  0.88817841970E-15  0.00000000000E+00  0.91188000000E+02  0.91188000000E+02 0.  0.
    9900012    2    3    3    0    0 -0.25629443277E+02 -0.27420310415E+01  0.26294332748E+02  0.54367095183E+02  0.40000025088E+02 0.  0.
        -12    1    3    3    0    0  0.25629443277E+02  0.27420310415E+01 -0.26294332748E+02  0.36820904817E+02  0.00000000000E+00 0.  1.
         11    1    4    4    0    0 -0.21653112070E+02  0.70282111976E+01  0.31373361388E+02  0.38762621428E+02  0.51100000000E-03 0. -1.
        -11    1    4    4    0    0 -0.86129844962E+00  0.20902580494E+01 -0.18565911946E+01  0.29253965299E+01  0.51100000000E-03 0.  1.
        -12    1    4    4    0    0 -0.31150327580E+01 -0.11860500289E+02 -0.32224374455E+01  0.12679077225E+02  0.00000000000E+00 0.  1.
</event>
<event>
 8    1  0.2501893E-006  0.9118800E+02  0.7816164E-02  0.1184000E+00
        -11   -1    0    0    0    0  0.00000000000E+00  0.00000000000E+00  0.45593999997E+02  0.45594000000E+02  0.51100000000E-03 0. -1.
         11   -1    0    0    0    0 -0.00000000000E+00 -0.00000000000E+00 -0.45593999997E+02  0.45594000000E+02  0.51100000000E-03 0.  1.
         23    2    1    2    0    0  0.00000000000E+00 -0.17763568394E-14  0.00000000000E+00  0.91188000000E+02  0.91188000000E+02 0.  0.
    9900012    2    3    3    0    0 -0.38514907795E+01  0.98321066661E+01  0.35274313905E+02  0.54367061335E+02  0.39999947925E+02 0.  0.
        -12    1    3    3    0    0  0.38514907795E+01 -0.98321066661E+01 -0.35274313905E+02  0.36820938665E+02  0.00000000000E+00 0.  1.
         11    1    4    4    0    0  0.46671889631E+01  0.52996020053E+01  0.26998004248E+02  0.27906283662E+02  0.51100000000E-03 0. -1.
        -11    1    4    4    0    0 -0.56893164590E+01  0.10511443370E+02  0.13501085259E+02  0.18031585258E+02  0.51100000000E-03 0.  1.
        -12    1    4    4    0    0 -0.28293632836E+01 -0.59789387089E+01 -0.52247756016E+01  0.84291924145E+01  0.00000000000E+00 0.  1.
</event>
<event>
 8    1  0.2501893E-006  0.9118800E+02  0.7816164E-02  0.1184000E+00
        -11   -1    0    0    0    0  0.00000000000E+00  0.00000000000E+00  0.45593999997E+02  0.45594000000E+02  0.51100000000E-03 0. -1.
         11   -1    0    0    0    0 -0.00000000000E+00 -0.00000000000E+00 -0.45593999997E+02  0.45594000000E+02  0.51100000000E-03 0.  1.
         23    2    1    2    0    0 -0.35527136788E-14  0.00000000000E+00  0.13322676296E-14  0.91188000000E+02  0.91188000000E+02 0.  0.
    9900012    2    3    3    0    0 -0.16696745078E+02 -0.32693933055E+02  0.28469453606E+01  0.54367086748E+02  0.40000005859E+02 0.  0.
         12    1    3    3    0    0  0.16696745078E+02  0.32693933055E+02 -0.28469453606E+01  0.36820913252E+02  0.00000000000E+00 0. -1.
         11    1    4    4    0    0  0.57900070770E+00 -0.20812080553E+02  0.12972957971E+02  0.24531114478E+02  0.51100000000E-03 0. -1.
        -11    1    4    4    0    0 -0.12699299992E+02 -0.10544097428E+02  0.21698109574E+01  0.16648071681E+02  0.51100000000E-03 0.  1.
        -12    1    4    4    0    0 -0.45764457939E+01 -0.13377550750E+01 -0.12295823568E+02  0.13187900589E+02  0.00000000000E+00 0.  1.
</event>
<event>
 8    1  0.2501893E-006  0.9118800E+02  0.7816164E-02  0.1184000E+00
        -11   -1    0    0    0    0  0.00000000000E+00  0.00000000000E+00  0.45593999997E+02  0.45594000000E+02  0.51100000000E-03 0.  1.
         11   -1    0    0    0    0 -0.00000000000E+00 -0.00000000000E+00 -0.45593999997E+02  0.45594000000E+02  0.51100000000E-03 0. -1.
         23    2    1    2    0    0 -0.35527136788E-14  0.00000000000E+00  0.17763568394E-14  0.91188000000E+02  0.91188000000E+02 0.  0.
    9900012    2    3    3    0    0 -0.31378434263E+02  0.17702901189E+02 -0.76013451324E+01  0.54367091604E+02  0.40000016929E+02 0.  0.
         12    1    3    3    0    0  0.31378434263E+02 -0.17702901189E+02  0.76013451324E+01  0.36820908396E+02  0.00000000000E+00 0. -1.
         11    1    4    4    0    0 -0.19740920952E+01  0.15884931261E+02 -0.10746292945E+02  0.19279805317E+02  0.51100000000E-03 0. -1.
        -11    1    4    4    0    0  0.96268171957E+00 -0.17351422678E+01  0.40389159851E+01  0.45000352642E+01  0.51100000000E-03 0.  1.
        -12    1    4    4    0    0 -0.30367023887E+02  0.35531121967E+01 -0.89396817283E+00  0.30587251023E+02  0.00000000000E+00 0.  1.
</event>
<event>
 8    1  0.2501893E-006  0.9118800E+02  0.7816164E-02  0.1184000E+00
        -11   -1    0    0    0    0  0.00000000000E+00  0.00000000000E+00  0.45593999997E+02  0.45594000000E+02  0.51100000000E-03 0. -1.
         11   -1    0    0    0    0 -0.00000000000E+00 -0.00000000000E+00 -0.45593999997E+02  0.45594000000E+02  0.51100000000E-03 0.  1.
         23    2    1    2    0    0  0.00000000000E+00  0.00000000000E+00  0.35527136788E-14  0.91188000000E+02  0.91188000000E+02 0.  0.
    9900012    2    3    3    0    0  0.19650967253E+02  0.86891422968E+01 -0.29901802263E+02  0.54367089006E+02  0.40000011007E+02 0.  0.
         12    1    3    3    0    0 -0.19650967253E+02 -0.86891422968E+01  0.29901802263E+02  0.36820910994E+02  0.00000000000E+00 0. -1.
         11    1    4    4    0    0  0.21921621830E+01  0.18846987948E+01  0.90770564507E+01  0.95263119125E+01  0.51100000000E-03 0. -1.
        -11    1    4    4    0    0  0.57827175506E+01  0.74906790169E+01 -0.24261941436E+02  0.26042117750E+02  0.51100000000E-03 0.  1.
        -12    1    4    4    0    0  0.11676087519E+02 -0.68623551484E+00 -0.14716917278E+02  0.18798659344E+02  0.00000000000E+00 0.  1.
</event>
<event>
 8    1  0.2501893E-006  0.9118800E+02  0.7816164E-02  0.1184000E+00
        -11   -1    0    0    0    0  0.00000000000E+00  0.00000000000E+00  0.45593999997E+02  0.45594000000E+02  0.51100000000E-03 0.  1.
         11   -1    0    0    0    0 -0.00000000000E+00 -0.00000000000E+00 -0.45593999997E+02  0.45594000000E+02  0.51100000000E-03 0. -1.
         23    2    1    2    0    0 -0.17763568394E-14  0.88817841970E-15  0.71054273576E-14  0.91188000000E+02  0.91188000000E+02 0.  0.
    9900012    2    3    3    0    0 -0.13484497517E+02  0.78718553263E+01 -0.33346417968E+02  0.54367063417E+02  0.39999952672E+02 0.  0.
        -12    1    3    3    0    0  0.13484497517E+02 -0.78718553263E+01  0.33346417968E+02  0.36820936583E+02  0.00000000000E+00 0.  1.
         11    1    4    4    0    0 -0.92549269790E+01  0.14255724704E+02 -0.12888623850E+01  0.17045249389E+02  0.51100000000E-03 0. -1.
        -11    1    4    4    0    0  0.58524455658E+01 -0.60974975147E+01 -0.10179370635E+02  0.13230653114E+02  0.51100000000E-03 0.  1.
         12    1    4    4    0    0 -0.10082016104E+02 -0.28637186294E+00 -0.21878184948E+02  0.24091160914E+02  0.00000000000E+00 0. -1.
</event>
<event>
 8    1  0.2501893E-006  0.9118800E+02  0.7816164E-02  0.1184000E+00
        -11   -1    0    0    0    0  0.00000000000E+00  0.00000000000E+00  0.45593999997E+02  0.45594000000E+02  0.51100000000E-03 0.  1.
         11   -1    0    0    0    0 -0.00000000000E+00 -0.00000000000E+00 -0.45593999997E+02  0.45594000000E+02  0.51100000000E-03 0. -1.
         23    2    1    2    0    0 -0.17763568394E-14  0.00000000000E+00  0.00000000000E+00  0.91188000000E+02  0.91188000000E+02 0.  0.
    9900012    2    3    3    0    0 -0.14732694678E+02 -0.22172545116E+02  0.25438269768E+02  0.54367087217E+02  0.40000006928E+02 0.  0.
         12    1    3    3    0    0  0.14732694678E+02  0.22172545116E+02 -0.25438269768E+02  0.36820912783E+02  0.00000000000E+00 0. -1.
         11    1    4    4    0    0 -0.56740380982E+01 -0.43759336526E+01  0.18740975528E+02  0.20064089007E+02  0.51100000000E-03 0. -1.
        -11    1    4    4    0    0 -0.19619721170E+01 -0.32803744384E+01  0.15457426635E+02  0.15923009436E+02  0.51100000000E-03 0.  1.
         12    1    4    4    0    0 -0.70966844630E+01 -0.14516237025E+02 -0.87601323955E+01  0.18379988774E+02  0.00000000000E+00 0. -1.
</event>
<event>
 8    1  0.2501893E-006  0.9118800E+02  0.7816164E-02  0.1184000E+00
        -11   -1    0    0    0    0  0.00000000000E+00  0.00000000000E+00  0.45593999997E+02  0.45594000000E+02  0.51100000000E-03 0. -1.
         11   -1    0    0    0    0 -0.00000000000E+00 -0.00000000000E+00 -0.45593999997E+02  0.45594000000E+02  0.51100000000E-03 0.  1.
         23    2    1    2    0    0  0.00000000000E+00 -0.11102230246E-14  0.35527136788E-14  0.91188000000E+02  0.91188000000E+02 0.  0.
    9900012    2    3    3    0    0 -0.30761205580E+02  0.12210557312E+01 -0.20199948725E+02  0.54367072875E+02  0.39999974234E+02 0.  0.
         12    1    3    3    0    0  0.30761205580E+02 -0.12210557312E+01  0.20199948725E+02  0.36820927125E+02  0.00000000000E+00 0. -1.
         11    1    4    4    0    0  0.46971864022E+00 -0.60032794627E+00  0.22778531688E+00  0.79555996364E+00  0.51100000000E-03 0. -1.
        -11    1    4    4    0    0 -0.19842350417E+02  0.93167286188E+01  0.69422540109E+01  0.22993807715E+02  0.51100000000E-03 0.  1.
        -12    1    4    4    0    0 -0.11388573802E+02 -0.74953449413E+01 -0.27369988053E+02  0.30577705196E+02  0.00000000000E+00 0.  1.
</event>
<event>
 8    1  0.2501893E-006  0.9118800E+02  0.7816164E-02  0.1184000E+00
        -11   -1    0    0    0    0  0.00000000000E+00  0.00000000000E+00  0.45593999997E+02  0.45594000000E+02  0.51100000000E-03 0. -1.
         11   -1    0    0    0    0 -0.00000000000E+00 -0.00000000000E+00 -0.45593999997E+02  0.45594000000E+02  0.51100000000E-03 0.  1.
         23    2    1    2    0    0 -0.44408920985E-15  0.00000000000E+00  0.00000000000E+00  0.91188000000E+02  0.91188000000E+02 0.  0.
    9900012    2    3    3    0    0 -0.33664520694E+01  0.91266204498E+01  0.35512665497E+02  0.54367114471E+02  0.40000069060E+02 0.  0.
        -12    1    3    3    0    0  0.33664520694E+01 -0.91266204498E+01 -0.35512665497E+02  0.36820885529E+02  0.00000000000E+00 0.  1.
         11    1    4    4    0    0  0.12241784810E+02 -0.19569938062E+01  0.21603802747E+02  0.24908139502E+02  0.51100000000E-03 0. -1.
        -11    1    4    4    0    0 -0.19725864412E+01 -0.51656386275E-01  0.11526066592E+02  0.11693758036E+02  0.51100000000E-03 0.  1.
        -12    1    4    4    0    0 -0.13635650438E+02  0.11135270642E+02  0.23827961583E+01  0.17765216933E+02  0.00000000000E+00 0.  1.
</event>
<event>
 8    1  0.2501893E-006  0.9118800E+02  0.7816164E-02  0.1184000E+00
        -11   -1    0    0    0    0  0.00000000000E+00  0.00000000000E+00  0.45593999997E+02  0.45594000000E+02  0.51100000000E-03 0.  1.
         11   -1    0    0    0    0 -0.00000000000E+00 -0.00000000000E+00 -0.45593999997E+02  0.45594000000E+02  0.51100000000E-03 0. -1.
         23    2    1    2    0    0  0.13322676296E-14  0.00000000000E+00  0.00000000000E+00  0.91188000000E+02  0.91188000000E+02 0.  0.
    9900012    2    3    3    0    0  0.30625576023E+01 -0.10923437194E+02  0.35029695070E+02  0.54367078286E+02  0.39999986568E+02 0.  0.
         12    1    3    3    0    0 -0.30625576023E+01  0.10923437194E+02 -0.35029695070E+02  0.36820921714E+02  0.00000000000E+00 0. -1.
         11    1    4    4    0    0 -0.56033917618E+01  0.30301838754E+01  0.57934767598E+01  0.86107134886E+01  0.51100000000E-03 0. -1.
        -11    1    4    4    0    0  0.79371067980E+01 -0.48705416038E+01  0.34154668024E+02  0.35401429179E+02  0.51100000000E-03 0.  1.
        -12    1    4    4    0    0  0.72884256605E+00 -0.90830794659E+01 -0.49184497140E+01  0.10354935618E+02  0.00000000000E+00 0.  1.
</event>
<event>
 8    1  0.2501893E-006  0.9118800E+02  0.7816164E-02  0.1184000E+00
        -11   -1    0    0    0    0  0.00000000000E+00  0.00000000000E+00  0.45593999997E+02  0.45594000000E+02  0.51100000000E-03 0. -1.
         11   -1    0    0    0    0 -0.00000000000E+00 -0.00000000000E+00 -0.45593999997E+02  0.45594000000E+02  0.51100000000E-03 0.  1.
         23    2    1    2    0    0  0.17763568394E-14  0.00000000000E+00 -0.71054273576E-14  0.91188000000E+02  0.91188000000E+02 0.  0.
    9900012    2    3    3    0    0  0.12599785210E+02  0.10065134994E+02 -0.33101640586E+02  0.54367080141E+02  0.39999990797E+02 0.  0.
         12    1    3    3    0    0 -0.12599785210E+02 -0.10065134994E+02  0.33101640586E+02  0.36820919859E+02  0.00000000000E+00 0. -1.
         11    1    4    4    0    0  0.72241255455E+01  0.18719789717E+02 -0.33385316130E+01  0.20341197372E+02  0.51100000000E-03 0. -1.
        -11    1    4    4    0    0 -0.63571181723E+00 -0.34252223318E+00 -0.19506322079E+02  0.19519683714E+02  0.51100000000E-03 0.  1.
        -12    1    4    4    0    0  0.60113714820E+01 -0.83121324895E+01 -0.10256786894E+02  0.14506199054E+02  0.00000000000E+00 0.  1.
</event>
<event>
 8    1  0.2501893E-006  0.9118800E+02  0.7816164E-02  0.1184000E+00
        -11   -1    0    0    0    0  0.00000000000E+00  0.00000000000E+00  0.45593999997E+02  0.45594000000E+02  0.51100000000E-03 0.  1.
         11   -1    0    0    0    0 -0.00000000000E+00 -0.00000000000E+00 -0.45593999997E+02  0.45594000000E+02  0.51100000000E-03 0. -1.
         23    2    1    2    0    0  0.35527136788E-14  0.00000000000E+00  0.00000000000E+00  0.91188000000E+02  0.91188000000E+02 0.  0.
    9900012    2    3    3    0    0  0.24333401691E+02 -0.22271256790E+02  0.16360186796E+02  0.54367095219E+02  0.40000025171E+02 0.  0.
         12    1    3    3    0    0 -0.24333401691E+02  0.22271256790E+02 -0.16360186796E+02  0.36820904781E+02  0.00000000000E+00 0. -1.
         11    1    4    4    0    0  0.23714112819E+02 -0.19290265025E+02  0.18555687102E+02  0.35760131371E+02  0.51100000000E-03 0.  1.
        -11    1    4    4    0    0  0.31560089336E+01 -0.92372335101E+01 -0.53763735497E+01  0.11144158475E+02  0.51100000000E-03 0. -1.
        -12    1    4    4    0    0 -0.25367200619E+01  0.62562417450E+01  0.31808732443E+01  0.74628053733E+01  0.00000000000E+00 0.  1.
</event>
<event>
 8    1  0.2501893E-006  0.9118800E+02  0.7816164E-02  0.1184000E+00
        -11   -1    0    0    0    0  0.00000000000E+00  0.00000000000E+00  0.45593999997E+02  0.45594000000E+02  0.51100000000E-03 0. -1.
         11   -1    0    0    0    0 -0.00000000000E+00 -0.00000000000E+00 -0.45593999997E+02  0.45594000000E+02  0.51100000000E-03 0.  1.
         23    2    1    2    0    0 -0.35527136788E-14  0.00000000000E+00 -0.35527136788E-14  0.91188000000E+02  0.91188000000E+02 0.  0.
    9900012    2    3    3    0    0  0.21870645386E+02 -0.10924879974E+02 -0.27533877592E+02  0.54366911650E+02  0.39999606687E+02 0.  0.
         12    1    3    3    0    0 -0.21870645386E+02  0.10924879974E+02  0.27533877592E+02  0.36821088350E+02  0.00000000000E+00 0. -1.
         11    1    4    4    0    0 -0.78435312088E+01  0.41102092501E+01 -0.37658973647E+01  0.96227223344E+01  0.51100000000E-03 0. -1.
        -11    1    4    4    0    0  0.39375186214E+01 -0.47991406180E+01  0.23594513076E+01  0.66409949781E+01  0.51100000000E-03 0.  1.
        -12    1    4    4    0    0  0.25776657973E+02 -0.10235948606E+02 -0.26127431535E+02  0.38103194338E+02  0.00000000000E+00 0.  1.
</event>
<event>
 8    1  0.2501893E-006  0.9118800E+02  0.7816164E-02  0.1184000E+00
        -11   -1    0    0    0    0  0.00000000000E+00  0.00000000000E+00  0.45593999997E+02  0.45594000000E+02  0.51100000000E-03 0. -1.
         11   -1    0    0    0    0 -0.00000000000E+00 -0.00000000000E+00 -0.45593999997E+02  0.45594000000E+02  0.51100000000E-03 0.  1.
         23    2    1    2    0    0  0.17763568394E-14  0.00000000000E+00  0.17763568394E-14  0.91188000000E+02  0.91188000000E+02 0.  0.
    9900012    2    3    3    0    0  0.13839602444E+02 -0.33121730655E+02  0.81973656181E+01  0.54367076051E+02  0.39999981472E+02 0.  0.
        -12    1    3    3    0    0 -0.13839602444E+02  0.33121730655E+02 -0.81973656181E+01  0.36820923949E+02  0.00000000000E+00 0.  1.
         11    1    4    4    0    0  0.21780931276E+02 -0.79150566337E+01  0.36121945598E+01  0.23454318122E+02  0.51100000000E-03 0.  1.
        -11    1    4    4    0    0 -0.30867728168E+01 -0.69684625565E+01 -0.56083797234E+01  0.94626402344E+01  0.51100000000E-03 0. -1.
        -12    1    4    4    0    0 -0.48545560154E+01 -0.18238211465E+02  0.10193550782E+02  0.21450117694E+02  0.00000000000E+00 0.  1.
</event>
