<event>
 4    1  0.4035350E+000  0.3046648E+03  0.7546771E-02  0.1082932E+00
         21   -1    0    0  503  502  0.00000000000E+00  0.00000000000E+00  0.39934898830E+03  0.39934898830E+03  0.00000000000E+00 0.  1.
         21   -1    0    0  501  503 -0.00000000000E+00 -0.00000000000E+00 -0.24146409207E+03  0.24146409207E+03  0.00000000000E+00 0. -1.
          6    1    1    2  501    0 -0.21240897718E+03  0.13331945130E+03  0.16967025465E+02  0.30513690310E+03  0.17300000000E+03 0.  1.
         -6    1    1    2    0  502  0.21240897718E+03 -0.13331945130E+03  0.14091787077E+03  0.33567617727E+03  0.17300000000E+03 0. -1.
<mgrwt>
<rscale>  2 0.30466482E+03</rscale>
<asrwt>0</asrwt>
<pdfrwt beam="1">  1       21 0.61438306E-01 0.30466482E+03</pdfrwt>
<pdfrwt beam="2">  1       21 0.37148322E-01 0.30466482E+03</pdfrwt>
<totfact> 0.16254167E+04</totfact>
</mgrwt>
</event>
<event>
 4    1  0.4035350E+000  0.1813068E+03  0.7546771E-02  0.1166544E+00
         21   -1    0    0  503  502  0.00000000000E+00  0.00000000000E+00  0.14055693083E+03  0.14055693083E+03  0.00000000000E+00 0.  1.
         21   -1    0    0  501  503 -0.00000000000E+00 -0.00000000000E+00 -0.26620225779E+03  0.26620225779E+03  0.00000000000E+00 0.  1.
          6    1    1    2  501    0  0.17919561718E+02 -0.51205796223E+02 -0.13370124113E+03  0.22527353626E+03  0.17300000000E+03 0. -1.
         -6    1    1    2    0  502 -0.17919561718E+02  0.51205796223E+02  0.80559141726E+01  0.18148565236E+03  0.17300000000E+03 0. -1.
<mgrwt>
<rscale>  2 0.18130677E+03</rscale>
<asrwt>0</asrwt>
<pdfrwt beam="1">  1       21 0.21624143E-01 0.18130677E+03</pdfrwt>
<pdfrwt beam="2">  1       21 0.40954193E-01 0.18130677E+03</pdfrwt>
<totfact> 0.11497694E+05</totfact>
</mgrwt>
</event>
<event>
 4    1  0.4035350E+000  0.1895449E+03  0.7546771E-02  0.1158872E+00
         21   -1    0    0  503  502  0.00000000000E+00  0.00000000000E+00  0.76070300413E+02  0.76070300413E+02  0.00000000000E+00 0. -1.
         21   -1    0    0  501  503 -0.00000000000E+00 -0.00000000000E+00 -0.10514080137E+04  0.10514080137E+04  0.00000000000E+00 0. -1.
          6    1    1    2  501    0  0.31409288727E+02 -0.70793594452E+02 -0.90605368588E+03  0.92566762832E+03  0.17300000000E+03 0. -1.
         -6    1    1    2    0  502 -0.31409288727E+02  0.70793594452E+02 -0.69284027368E+02  0.20181068575E+03  0.17300000000E+03 0. -1.
<mgrwt>
<rscale>  2 0.18954492E+03</rscale>
<asrwt>0</asrwt>
<pdfrwt beam="1">  1       21 0.11703123E-01 0.18954492E+03</pdfrwt>
<pdfrwt beam="2">  1       21 0.16175508E+00 0.18954492E+03</pdfrwt>
<totfact> 0.15031638E+04</totfact>
</mgrwt>
</event>
<event>
 4    1  0.4035350E+000  0.2470084E+03  0.7546771E-02  0.1115210E+00
         21   -1    0    0  503  502  0.00000000000E+00  0.00000000000E+00  0.30227702900E+02  0.30227702900E+02  0.00000000000E+00 0. -1.
         21   -1    0    0  501  503 -0.00000000000E+00 -0.00000000000E+00 -0.20387333076E+04  0.20387333076E+04  0.00000000000E+00 0. -1.
          6    1    1    2  501    0 -0.95792591912E+02  0.14801333869E+03 -0.90107424082E+03  0.93431683950E+03  0.17300000000E+03 0. -1.
         -6    1    1    2    0  502  0.95792591912E+02 -0.14801333869E+03 -0.11074313639E+04  0.11346441710E+04  0.17300000000E+03 0. -1.
<mgrwt>
<rscale>  2 0.24700844E+03</rscale>
<asrwt>0</asrwt>
<pdfrwt beam="1">  1       21 0.46504165E-02 0.24700844E+03</pdfrwt>
<pdfrwt beam="2">  1       21 0.31365124E+00 0.24700844E+03</pdfrwt>
<totfact> 0.81990065E+03</totfact>
</mgrwt>
</event>
<event>
 4    1  0.4035350E+000  0.2320463E+03  0.7546771E-02  0.1125208E+00
         21   -1    0    0  503  502  0.00000000000E+00  0.00000000000E+00  0.15909841140E+03  0.15909841140E+03  0.00000000000E+00 0.  1.
         21   -1    0    0  501  503 -0.00000000000E+00 -0.00000000000E+00 -0.44178494675E+03  0.44178494675E+03  0.00000000000E+00 0.  1.
          6    1    1    2  501    0  0.12503586764E+03 -0.91008257032E+02 -0.28665364923E+03  0.36880318011E+03  0.17300000000E+03 0.  1.
         -6    1    1    2    0  502 -0.12503586764E+03  0.91008257032E+02  0.39671138850E+01  0.23208017803E+03  0.17300000000E+03 0.  1.
<mgrwt>
<rscale>  2 0.23204627E+03</rscale>
<asrwt>0</asrwt>
<pdfrwt beam="1">  1       21 0.24476679E-01 0.23204627E+03</pdfrwt>
<pdfrwt beam="2">  1       21 0.67966914E-01 0.23204627E+03</pdfrwt>
<totfact> 0.30541614E+04</totfact>
</mgrwt>
</event>
<event>
 4    1  0.4035350E+000  0.2510205E+03  0.7546771E-02  0.1112662E+00
         21   -1    0    0  503  502  0.00000000000E+00  0.00000000000E+00  0.98429826795E+03  0.98429826795E+03  0.00000000000E+00 0. -1.
         21   -1    0    0  501  503 -0.00000000000E+00 -0.00000000000E+00 -0.12544828170E+03  0.12544828170E+03  0.00000000000E+00 0.  1.
          6    1    1    2  501    0  0.17867779072E+03 -0.34007566206E+02  0.41133183649E+02  0.25436824930E+03  0.17300000000E+03 0.  1.
         -6    1    1    2    0  502 -0.17867779072E+03  0.34007566206E+02  0.81771680260E+03  0.85537830035E+03  0.17300000000E+03 0. -1.
<mgrwt>
<rscale>  2 0.25102045E+03</rscale>
<asrwt>0</asrwt>
<pdfrwt beam="1">  1       21 0.15143050E+00 0.25102045E+03</pdfrwt>
<pdfrwt beam="2">  1       21 0.19299736E-01 0.25102045E+03</pdfrwt>
<totfact> 0.68944875E+03</totfact>
</mgrwt>
</event>
<event>
 4    1  0.4035350E+000  0.2239272E+03  0.7546771E-02  0.1130989E+00
         21   -1    0    0  503  502  0.00000000000E+00  0.00000000000E+00  0.10015148734E+04  0.10015148734E+04  0.00000000000E+00 0. -1.
         21   -1    0    0  501  503 -0.00000000000E+00 -0.00000000000E+00 -0.70452450063E+02  0.70452450063E+02  0.00000000000E+00 0.  1.
          6    1    1    2  501    0  0.12679875481E+03 -0.64315315723E+02  0.17722239648E+03  0.28557164053E+03  0.17300000000E+03 0.  1.
         -6    1    1    2    0  502 -0.12679875481E+03  0.64315315723E+02  0.75384002690E+03  0.78639568298E+03  0.17300000000E+03 0. -1.
<mgrwt>
<rscale>  2 0.22392718E+03</rscale>
<asrwt>0</asrwt>
<pdfrwt beam="1">  1       21 0.15407920E+00 0.22392718E+03</pdfrwt>
<pdfrwt beam="2">  1       21 0.10838839E-01 0.22392718E+03</pdfrwt>
<totfact> 0.19190979E+04</totfact>
</mgrwt>
</event>
<event>
 4    1  0.4035350E+000  0.2632911E+03  0.7546771E-02  0.1105182E+00
         21   -1    0    0  503  502  0.00000000000E+00  0.00000000000E+00  0.13195142058E+03  0.13195142058E+03  0.00000000000E+00 0. -1.
         21   -1    0    0  501  503 -0.00000000000E+00 -0.00000000000E+00 -0.68923676811E+03  0.68923676811E+03  0.00000000000E+00 0.  1.
          6    1    1    2  501    0  0.16683991630E+03 -0.10750641850E+03 -0.47885244683E+03  0.54646303949E+03  0.17300000000E+03 0.  1.
         -6    1    1    2    0  502 -0.16683991630E+03  0.10750641850E+03 -0.78432900698E+02  0.27472514920E+03  0.17300000000E+03 0. -1.
<mgrwt>
<rscale>  2 0.26329107E+03</rscale>
<asrwt>0</asrwt>
<pdfrwt beam="1">  1       21 0.20300219E-01 0.26329107E+03</pdfrwt>
<pdfrwt beam="2">  1       21 0.10603642E+00 0.26329107E+03</pdfrwt>
<totfact> 0.15376524E+04</totfact>
</mgrwt>
</event>
<event>
 4    1  0.4035350E+000  0.1799018E+03  0.7546771E-02  0.1167898E+00
         21   -1    0    0  501  502  0.00000000000E+00  0.00000000000E+00  0.35850361499E+02  0.35850361499E+02  0.00000000000E+00 0.  1.
         21   -1    0    0  502  503 -0.00000000000E+00 -0.00000000000E+00 -0.10160553786E+04  0.10160553786E+04  0.00000000000E+00 0.  1.
          6    1    1    2  501    0 -0.35394142933E+02 -0.34393606023E+02 -0.31448281383E+03  0.36230388582E+03  0.17300000000E+03 0.  1.
         -6    1    1    2    0  503  0.35394142933E+02  0.34393606023E+02 -0.66572220325E+03  0.68960185426E+03  0.17300000000E+03 0.  1.
<mgrwt>
<rscale>  2 0.17990182E+03</rscale>
<asrwt>0</asrwt>
<pdfrwt beam="1">  1       21 0.55154398E-02 0.17990182E+03</pdfrwt>
<pdfrwt beam="2">  1       21 0.15631622E+00 0.17990182E+03</pdfrwt>
<totfact> 0.61433125E+04</totfact>
</mgrwt>
</event>
<event>
 4    1  0.4035350E+000  0.2075382E+03  0.7546771E-02  0.1143530E+00
         21   -1    0    0  501  502  0.00000000000E+00  0.00000000000E+00  0.61433326854E+03  0.61433326854E+03  0.00000000000E+00 0. -1.
         21   -1    0    0  502  503 -0.00000000000E+00 -0.00000000000E+00 -0.19562118861E+03  0.19562118861E+03  0.00000000000E+00 0. -1.
          6    1    1    2  501    0  0.77666124487E+02  0.84327197520E+02  0.53374084721E+03  0.57267040705E+03  0.17300000000E+03 0. -1.
         -6    1    1    2    0  503 -0.77666124487E+02 -0.84327197520E+02 -0.11502876727E+03  0.23728405011E+03  0.17300000000E+03 0. -1.
<mgrwt>
<rscale>  2 0.20753820E+03</rscale>
<asrwt>0</asrwt>
<pdfrwt beam="1">  1       21 0.94512810E-01 0.20753820E+03</pdfrwt>
<pdfrwt beam="2">  1       21 0.30095568E-01 0.20753820E+03</pdfrwt>
<totfact> 0.98263822E+03</totfact>
</mgrwt>
</event>
<event>
 4    1  0.4035350E+000  0.1750171E+03  0.7546771E-02  0.1172715E+00
         21   -1    0    0  501  502  0.00000000000E+00  0.00000000000E+00  0.10971927771E+03  0.10971927771E+03  0.00000000000E+00 0.  1.
         21   -1    0    0  502  503 -0.00000000000E+00 -0.00000000000E+00 -0.28665701269E+03  0.28665701269E+03  0.00000000000E+00 0.  1.
          6    1    1    2  501    0 -0.17504647095E+02  0.19888733796E+02 -0.56451880070E+02  0.18389613690E+03  0.17300000000E+03 0. -1.
         -6    1    1    2    0  503  0.17504647095E+02 -0.19888733796E+02 -0.12048585490E+03  0.21248015351E+03  0.17300000000E+03 0. -1.
<mgrwt>
<rscale>  2 0.17501707E+03</rscale>
<asrwt>0</asrwt>
<pdfrwt beam="1">  1       21 0.16879889E-01 0.17501707E+03</pdfrwt>
<pdfrwt beam="2">  1       21 0.44101078E-01 0.17501707E+03</pdfrwt>
<totfact> 0.15698441E+05</totfact>
</mgrwt>
</event>
<event>
 4    1  0.4035350E+000  0.1776663E+03  0.7546771E-02  0.1170081E+00
         21   -1    0    0  503  502  0.00000000000E+00  0.00000000000E+00  0.74625644789E+03  0.74625644789E+03  0.00000000000E+00 0.  1.
         21   -1    0    0  501  503 -0.00000000000E+00 -0.00000000000E+00 -0.92485098994E+02  0.92485098994E+02  0.00000000000E+00 0.  1.
          6    1    1    2  501    0 -0.39211621263E+02  0.99373617522E+01  0.17957533688E+02  0.17857148545E+03  0.17300000000E+03 0.  1.
         -6    1    1    2    0  502  0.39211621263E+02 -0.99373617522E+01  0.63581381521E+03  0.66017006143E+03  0.17300000000E+03 0.  1.
<mgrwt>
<rscale>  2 0.17766627E+03</rscale>
<asrwt>0</asrwt>
<pdfrwt beam="1">  1       21 0.11480868E+00 0.17766627E+03</pdfrwt>
<pdfrwt beam="2">  1       21 0.14228477E-01 0.17766627E+03</pdfrwt>
<totfact> 0.25647743E+04</totfact>
</mgrwt>
</event>
<event>
 4    1  0.4035350E+000  0.2859290E+03  0.7546771E-02  0.1092494E+00
         21   -1    0    0  503  502  0.00000000000E+00  0.00000000000E+00  0.24390519029E+03  0.24390519029E+03  0.00000000000E+00 0. -1.
         21   -1    0    0  501  503 -0.00000000000E+00 -0.00000000000E+00 -0.33651758258E+03  0.33651758258E+03  0.00000000000E+00 0. -1.
          6    1    1    2  501    0 -0.83317703237E+02  0.21185973674E+03 -0.28100827180E+02  0.28730653354E+03  0.17300000000E+03 0. -1.
         -6    1    1    2    0  502  0.83317703237E+02 -0.21185973674E+03 -0.64511565110E+02  0.29311623933E+03  0.17300000000E+03 0. -1.
<mgrwt>
<rscale>  2 0.28592899E+03</rscale>
<asrwt>0</asrwt>
<pdfrwt beam="1">  1       21 0.37523876E-01 0.28592899E+03</pdfrwt>
<pdfrwt beam="2">  1       21 0.51771936E-01 0.28592899E+03</pdfrwt>
<totfact> 0.23179384E+04</totfact>
</mgrwt>
</event>
<event>
 4    1  0.4035350E+000  0.1993110E+03  0.7546771E-02  0.1150322E+00
         21   -1    0    0  501  502  0.00000000000E+00  0.00000000000E+00  0.73602844736E+02  0.73602844736E+02  0.00000000000E+00 0.  1.
         21   -1    0    0  502  503 -0.00000000000E+00 -0.00000000000E+00 -0.57030647330E+03  0.57030647330E+03  0.00000000000E+00 0. -1.
          6    1    1    2  501    0  0.90926045390E+02 -0.39094008266E+02 -0.17379125819E+03  0.26443957464E+03  0.17300000000E+03 0.  1.
         -6    1    1    2    0  503 -0.90926045390E+02  0.39094008266E+02 -0.32291237037E+03  0.37946974339E+03  0.17300000000E+03 0. -1.
<mgrwt>
<rscale>  2 0.19931103E+03</rscale>
<asrwt>0</asrwt>
<pdfrwt beam="1">  1       21 0.11323515E-01 0.19931103E+03</pdfrwt>
<pdfrwt beam="2">  1       21 0.87739456E-01 0.19931103E+03</pdfrwt>
<totfact> 0.72292828E+04</totfact>
</mgrwt>
</event>
<event>
 4    1  0.4035350E+000  0.1935298E+03  0.7546771E-02  0.1155316E+00
         21   -1    0    0  503  502  0.00000000000E+00  0.00000000000E+00  0.35431875484E+02  0.35431875484E+02  0.00000000000E+00 0. -1.
         21   -1    0    0  501  503 -0.00000000000E+00 -0.00000000000E+00 -0.11117638742E+04  0.11117638742E+04  0.00000000000E+00 0.  1.
          6    1    1    2  501    0  0.69168752685E+02  0.52349513695E+02 -0.66539651627E+03  0.69296919975E+03  0.17300000000E+03 0.  1.
         -6    1    1    2    0  502 -0.69168752685E+02 -0.52349513695E+02 -0.41093548240E+03  0.45422654989E+03  0.17300000000E+03 0. -1.
<mgrwt>
<rscale>  2 0.19352981E+03</rscale>
<asrwt>0</asrwt>
<pdfrwt beam="1">  1       21 0.54510596E-02 0.19352981E+03</pdfrwt>
<pdfrwt beam="2">  1       21 0.17104054E+00 0.19352981E+03</pdfrwt>
<totfact> 0.48712492E+04</totfact>
</mgrwt>
</event>
<event>
 4    1  0.4035350E+000  0.2025284E+03  0.7546771E-02  0.1147623E+00
         21   -1    0    0  501  502  0.00000000000E+00  0.00000000000E+00  0.36390413748E+03  0.36390413748E+03  0.00000000000E+00 0.  1.
         21   -1    0    0  502  503 -0.00000000000E+00 -0.00000000000E+00 -0.11568699305E+03  0.11568699305E+03  0.00000000000E+00 0. -1.
          6    1    1    2  501    0 -0.94925309591E+02  0.45584199559E+02  0.85678890107E+02  0.21990590229E+03  0.17300000000E+03 0. -1.
         -6    1    1    2    0  503  0.94925309591E+02 -0.45584199559E+02  0.16253825432E+03  0.25968522824E+03  0.17300000000E+03 0.  1.
<mgrwt>
<rscale>  2 0.20252835E+03</rscale>
<asrwt>0</asrwt>
<pdfrwt beam="1">  1       21 0.55985251E-01 0.20252835E+03</pdfrwt>
<pdfrwt beam="2">  1       21 0.17797999E-01 0.20252835E+03</pdfrwt>
<totfact> 0.85756431E+04</totfact>
</mgrwt>
</event>
<event>
 4    1  0.4035350E+000  0.1984622E+03  0.7546771E-02  0.1151043E+00
         21   -1    0    0  501  502  0.00000000000E+00  0.00000000000E+00  0.69885869544E+03  0.69885869544E+03  0.00000000000E+00 0. -1.
         21   -1    0    0  502  503 -0.00000000000E+00 -0.00000000000E+00 -0.11234266299E+03  0.11234266299E+03  0.00000000000E+00 0. -1.
          6    1    1    2  501    0  0.76145918022E+02 -0.60498344107E+02  0.57958050162E+03  0.61261799544E+03  0.17300000000E+03 0. -1.
         -6    1    1    2    0  503 -0.76145918022E+02  0.60498344107E+02  0.69355308297E+01  0.19858336300E+03  0.17300000000E+03 0. -1.
<mgrwt>
<rscale>  2 0.19846221E+03</rscale>
<asrwt>0</asrwt>
<pdfrwt beam="1">  1       21 0.10751672E+00 0.19846221E+03</pdfrwt>
<pdfrwt beam="2">  1       21 0.17283487E-01 0.19846221E+03</pdfrwt>
<totfact> 0.20809060E+04</totfact>
</mgrwt>
</event>
<event>
 4    1  0.4035350E+000  0.2214457E+03  0.7546771E-02  0.1132810E+00
         21   -1    0    0  503  502  0.00000000000E+00  0.00000000000E+00  0.12931605935E+03  0.12931605935E+03  0.00000000000E+00 0.  1.
         21   -1    0    0  501  503 -0.00000000000E+00 -0.00000000000E+00 -0.42025337650E+03  0.42025337650E+03  0.00000000000E+00 0. -1.
          6    1    1    2  501    0 -0.11755167034E+03 -0.72737859728E+02 -0.23134001853E+03  0.32024427491E+03  0.17300000000E+03 0. -1.
         -6    1    1    2    0  502  0.11755167034E+03  0.72737859728E+02 -0.59597298626E+02  0.22932516094E+03  0.17300000000E+03 0.  1.
<mgrwt>
<rscale>  2 0.22144569E+03</rscale>
<asrwt>0</asrwt>
<pdfrwt beam="1">  1       21 0.19894778E-01 0.22144569E+03</pdfrwt>
<pdfrwt beam="2">  1       21 0.64654365E-01 0.22144569E+03</pdfrwt>
<totfact> 0.50701190E+04</totfact>
</mgrwt>
</event>
<event>
 4    1  0.4035350E+000  0.2444785E+03  0.7546771E-02  0.1116845E+00
         21   -1    0    0  503  502  0.00000000000E+00  0.00000000000E+00  0.56253197616E+03  0.56253197616E+03  0.00000000000E+00 0. -1.
         21   -1    0    0  501  503 -0.00000000000E+00 -0.00000000000E+00 -0.12686991371E+03  0.12686991371E+03  0.00000000000E+00 0.  1.
          6    1    1    2  501    0  0.12407187654E+02  0.17229864447E+03  0.35679197135E+03  0.43251621011E+03  0.17300000000E+03 0. -1.
         -6    1    1    2    0  502 -0.12407187654E+02 -0.17229864447E+03  0.78870091103E+02  0.25688567975E+03  0.17300000000E+03 0.  1.
<mgrwt>
<rscale>  2 0.24447855E+03</rscale>
<asrwt>0</asrwt>
<pdfrwt beam="1">  1       21 0.86543379E-01 0.24447855E+03</pdfrwt>
<pdfrwt beam="2">  1       21 0.19518449E-01 0.24447855E+03</pdfrwt>
<totfact> 0.27024158E+04</totfact>
</mgrwt>
</event>
<event>
 4    1  0.4035350E+000  0.2060135E+03  0.7546771E-02  0.1144762E+00
         21   -1    0    0  503  502  0.00000000000E+00  0.00000000000E+00  0.28182924497E+02  0.28182924497E+02  0.00000000000E+00 0. -1.
         21   -1    0    0  501  503 -0.00000000000E+00 -0.00000000000E+00 -0.15091439834E+04  0.15091439834E+04  0.00000000000E+00 0. -1.
          6    1    1    2  501    0 -0.33400622328E+02  0.10675654159E+03 -0.70501760113E+03  0.73450076831E+03  0.17300000000E+03 0. -1.
         -6    1    1    2    0  502  0.33400622328E+02 -0.10675654159E+03 -0.77594345772E+03  0.80282613954E+03  0.17300000000E+03 0. -1.
<mgrwt>
<rscale>  2 0.20601350E+03</rscale>
<asrwt>0</asrwt>
<pdfrwt beam="1">  1       21 0.43358345E-02 0.20601350E+03</pdfrwt>
<pdfrwt beam="2">  1       21 0.23217600E+00 0.20601350E+03</pdfrwt>
<totfact> 0.28738127E+04</totfact>
</mgrwt>
</event>
<event>
 4    1  0.4035350E+000  0.2477836E+03  0.7546771E-02  0.1114714E+00
         21   -1    0    0  503  502  0.00000000000E+00  0.00000000000E+00  0.27002128697E+03  0.27002128697E+03  0.00000000000E+00 0.  1.
         21   -1    0    0  501  503 -0.00000000000E+00 -0.00000000000E+00 -0.23152439880E+03  0.23152439880E+03  0.00000000000E+00 0. -1.
          6    1    1    2  501    0  0.15232797194E+03  0.90906106940E+02 -0.14313754753E+02  0.24819672619E+03  0.17300000000E+03 0.  1.
         -6    1    1    2    0  502 -0.15232797194E+03 -0.90906106940E+02  0.52810642920E+02  0.25334895958E+03  0.17300000000E+03 0.  1.
<mgrwt>
<rscale>  2 0.24778364E+03</rscale>
<asrwt>0</asrwt>
<pdfrwt beam="1">  1       21 0.41541736E-01 0.24778364E+03</pdfrwt>
<pdfrwt beam="2">  1       21 0.35619138E-01 0.24778364E+03</pdfrwt>
<totfact> 0.41324899E+04</totfact>
</mgrwt>
</event>
<event>
 4    1  0.4035350E+000  0.1809329E+03  0.7546771E-02  0.1166903E+00
         21   -1    0    0  501  502  0.00000000000E+00  0.00000000000E+00  0.26456771160E+03  0.26456771160E+03  0.00000000000E+00 0. -1.
         21   -1    0    0  502  503 -0.00000000000E+00 -0.00000000000E+00 -0.15465745893E+03  0.15465745893E+03  0.00000000000E+00 0. -1.
          6    1    1    2  501    0 -0.21776141674E+02  0.48306472674E+02  0.14868057330E+03  0.23418503053E+03  0.17300000000E+03 0. -1.
         -6    1    1    2    0  503  0.21776141674E+02 -0.48306472674E+02 -0.38770320628E+02  0.18504014000E+03  0.17300000000E+03 0. -1.
<mgrwt>
<rscale>  2 0.18093290E+03</rscale>
<asrwt>0</asrwt>
<pdfrwt beam="1">  1       21 0.40702725E-01 0.18093290E+03</pdfrwt>
<pdfrwt beam="2">  1       21 0.23793455E-01 0.18093290E+03</pdfrwt>
<totfact> 0.97209741E+04</totfact>
</mgrwt>
</event>
<event>
 4    1  0.4035350E+000  0.1953788E+03  0.7546771E-02  0.1153698E+00
         21   -1    0    0  503  502  0.00000000000E+00  0.00000000000E+00  0.71174146044E+02  0.71174146044E+02  0.00000000000E+00 0.  1.
         21   -1    0    0  501  503 -0.00000000000E+00 -0.00000000000E+00 -0.93191248092E+03  0.93191248092E+03  0.00000000000E+00 0.  1.
          6    1    1    2  501    0  0.72748645027E+02  0.54327650915E+02 -0.75713691160E+03  0.78193935949E+03  0.17300000000E+03 0.  1.
         -6    1    1    2    0  502 -0.72748645027E+02 -0.54327650915E+02 -0.10360142327E+03  0.22114726748E+03  0.17300000000E+03 0.  1.
<mgrwt>
<rscale>  2 0.19537876E+03</rscale>
<asrwt>0</asrwt>
<pdfrwt beam="1">  1       21 0.10949869E-01 0.19537876E+03</pdfrwt>
<pdfrwt beam="2">  1       21 0.14337114E+00 0.19537876E+03</pdfrwt>
<totfact> 0.23203498E+04</totfact>
</mgrwt>
</event>
<event>
 4    1  0.4035350E+000  0.2030731E+03  0.7546771E-02  0.1147172E+00
         21   -1    0    0  503  502  0.00000000000E+00  0.00000000000E+00  0.69889104245E+03  0.69889104245E+03  0.00000000000E+00 0.  1.
         21   -1    0    0  501  503 -0.00000000000E+00 -0.00000000000E+00 -0.19744025005E+03  0.19744025005E+03  0.00000000000E+00 0.  1.
          6    1    1    2  501    0 -0.18718376220E+02 -0.10468668659E+03 -0.12454359824E+03  0.23822213965E+03  0.17300000000E+03 0.  1.
         -6    1    1    2    0  502  0.18718376220E+02  0.10468668659E+03  0.62599439064E+03  0.65810915285E+03  0.17300000000E+03 0.  1.
<mgrwt>
<rscale>  2 0.20307309E+03</rscale>
<asrwt>0</asrwt>
<pdfrwt beam="1">  1       21 0.10752170E+00 0.20307309E+03</pdfrwt>
<pdfrwt beam="2">  1       21 0.30375423E-01 0.20307309E+03</pdfrwt>
<totfact> 0.71212202E+03</totfact>
</mgrwt>
</event>
<event>
 4    1  0.4035350E+000  0.2377583E+03  0.7546771E-02  0.1121295E+00
         21   -1    0    0  501  502  0.00000000000E+00  0.00000000000E+00  0.18162031190E+03  0.18162031190E+03  0.00000000000E+00 0.  1.
         21   -1    0    0  502  503 -0.00000000000E+00 -0.00000000000E+00 -0.48239490265E+03  0.48239490265E+03  0.00000000000E+00 0.  1.
          6    1    1    2  501    0 -0.12298352035E+02  0.16263077035E+03 -0.34814380847E+03  0.42158407027E+03  0.17300000000E+03 0.  1.
         -6    1    1    2    0  503  0.12298352035E+02 -0.16263077035E+03  0.47369217720E+02  0.24243114428E+03  0.17300000000E+03 0.  1.
<mgrwt>
<rscale>  2 0.23775832E+03</rscale>
<asrwt>0</asrwt>
<pdfrwt beam="1">  1       21 0.27941587E-01 0.23775832E+03</pdfrwt>
<pdfrwt beam="2">  1       21 0.74214600E-01 0.23775832E+03</pdfrwt>
<totfact> 0.19406733E+04</totfact>
</mgrwt>
</event>
<event>
 4    1  0.4035350E+000  0.1743888E+03  0.7546771E-02  0.1173347E+00
         21   -1    0    0  503  502  0.00000000000E+00  0.00000000000E+00  0.70307681100E+02  0.70307681100E+02  0.00000000000E+00 0.  1.
         21   -1    0    0  501  503 -0.00000000000E+00 -0.00000000000E+00 -0.78890678978E+03  0.78890678978E+03  0.00000000000E+00 0.  1.
          6    1    1    2  501    0  0.21205991728E+02 -0.57242867233E+01 -0.64803649496E+03  0.67109072438E+03  0.17300000000E+03 0.  1.
         -6    1    1    2    0  502 -0.21205991728E+02  0.57242867233E+01 -0.70562613721E+02  0.18812374650E+03  0.17300000000E+03 0.  1.
<mgrwt>
<rscale>  2 0.17438882E+03</rscale>
<asrwt>0</asrwt>
<pdfrwt beam="1">  1       21 0.10816567E-01 0.17438882E+03</pdfrwt>
<pdfrwt beam="2">  1       21 0.12137026E+00 0.17438882E+03</pdfrwt>
<totfact> 0.36631433E+04</totfact>
</mgrwt>
</event>
<event>
 4    1  0.4035350E+000  0.2202926E+03  0.7546771E-02  0.1133665E+00
         21   -1    0    0  503  502  0.00000000000E+00  0.00000000000E+00  0.48543566960E+03  0.48543566960E+03  0.00000000000E+00 0. -1.
         21   -1    0    0  501  503 -0.00000000000E+00 -0.00000000000E+00 -0.10779549214E+03  0.10779549214E+03  0.00000000000E+00 0.  1.
          6    1    1    2  501    0  0.13205765442E+03  0.34067581355E+02  0.26874087761E+03  0.34749170276E+03  0.17300000000E+03 0. -1.
         -6    1    1    2    0  502 -0.13205765442E+03 -0.34067581355E+02  0.10889929984E+03  0.24573945897E+03  0.17300000000E+03 0.  1.
<mgrwt>
<rscale>  2 0.22029259E+03</rscale>
<asrwt>0</asrwt>
<pdfrwt beam="1">  1       21 0.74682409E-01 0.22029259E+03</pdfrwt>
<pdfrwt beam="2">  1       21 0.16583922E-01 0.22029259E+03</pdfrwt>
<totfact> 0.51717289E+04</totfact>
</mgrwt>
</event>
<event>
 4    1  0.4035350E+000  0.1807708E+03  0.7546771E-02  0.1167059E+00
         21   -1    0    0  503  502  0.00000000000E+00  0.00000000000E+00  0.43436531525E+03  0.43436531525E+03  0.00000000000E+00 0. -1.
         21   -1    0    0  501  503 -0.00000000000E+00 -0.00000000000E+00 -0.93856424751E+02  0.93856424751E+02  0.00000000000E+00 0. -1.
          6    1    1    2  501    0  0.49171629142E+02 -0.18200285736E+02  0.52602899961E+02  0.18826886253E+03  0.17300000000E+03 0. -1.
         -6    1    1    2    0  502 -0.49171629142E+02  0.18200285736E+02  0.28790599053E+03  0.33995287747E+03  0.17300000000E+03 0. -1.
<mgrwt>
<rscale>  2 0.18077085E+03</rscale>
<asrwt>0</asrwt>
<pdfrwt beam="1">  1       21 0.66825432E-01 0.18077085E+03</pdfrwt>
<pdfrwt beam="2">  1       21 0.14439450E-01 0.18077085E+03</pdfrwt>
<totfact> 0.86670749E+04</totfact>
</mgrwt>
</event>
<event>
 4    1  0.4035350E+000  0.2479822E+03  0.7546771E-02  0.1114587E+00
         21   -1    0    0  503  502  0.00000000000E+00  0.00000000000E+00  0.99241588166E+02  0.99241588166E+02  0.00000000000E+00 0. -1.
         21   -1    0    0  501  503 -0.00000000000E+00 -0.00000000000E+00 -0.61989210737E+03  0.61989210737E+03  0.00000000000E+00 0. -1.
          6    1    1    2  501    0  0.15105500793E+03  0.93533588331E+02 -0.26741683940E+03  0.36470112909E+03  0.17300000000E+03 0. -1.
         -6    1    1    2    0  502 -0.15105500793E+03 -0.93533588331E+02 -0.25323367981E+03  0.35443256644E+03  0.17300000000E+03 0. -1.
<mgrwt>
<rscale>  2 0.24798215E+03</rscale>
<asrwt>0</asrwt>
<pdfrwt beam="1">  1       21 0.15267937E-01 0.24798215E+03</pdfrwt>
<pdfrwt beam="2">  1       21 0.95368017E-01 0.24798215E+03</pdfrwt>
<totfact> 0.33903179E+04</totfact>
</mgrwt>
</event>
<event>
 4    1  0.4035350E+000  0.1971004E+03  0.7546771E-02  0.1152209E+00
         21   -1    0    0  501  502  0.00000000000E+00  0.00000000000E+00  0.47905039802E+02  0.47905039802E+02  0.00000000000E+00 0. -1.
         21   -1    0    0  502  503 -0.00000000000E+00 -0.00000000000E+00 -0.14210180732E+04  0.14210180732E+04  0.00000000000E+00 0.  1.
          6    1    1    2  501    0  0.35854080028E+02  0.87373072676E+02 -0.20531998441E+03  0.28461353601E+03  0.17300000000E+03 0. -1.
         -6    1    1    2    0  503 -0.35854080028E+02 -0.87373072676E+02 -0.11677930489E+04  0.11843095769E+04  0.17300000000E+03 0.  1.
<mgrwt>
<rscale>  2 0.19710040E+03</rscale>
<asrwt>0</asrwt>
<pdfrwt beam="1">  1       21 0.73700071E-02 0.19710040E+03</pdfrwt>
<pdfrwt beam="2">  1       21 0.21861814E+00 0.19710040E+03</pdfrwt>
<totfact> 0.14141794E+04</totfact>
</mgrwt>
</event>
<event>
 4    1  0.4035350E+000  0.2455530E+03  0.7546771E-02  0.1116148E+00
         21   -1    0    0  501  502  0.00000000000E+00  0.00000000000E+00  0.26906247972E+04  0.26906247972E+04  0.00000000000E+00 0. -1.
         21   -1    0    0  502  503 -0.00000000000E+00 -0.00000000000E+00 -0.22484356979E+02  0.22484356979E+02  0.00000000000E+00 0.  1.
          6    1    1    2  501    0  0.31956345388E+02  0.17130692208E+03  0.14122047371E+04  0.14333940453E+04  0.17300000000E+03 0.  1.
         -6    1    1    2    0  503 -0.31956345388E+02 -0.17130692208E+03  0.12559357031E+04  0.12797151089E+04  0.17300000000E+03 0.  1.
<mgrwt>
<rscale>  2 0.24555299E+03</rscale>
<asrwt>0</asrwt>
<pdfrwt beam="1">  1       21 0.41394202E+00 0.24555299E+03</pdfrwt>
<pdfrwt beam="2">  1       21 0.34591340E-02 0.24555299E+03</pdfrwt>
<totfact> 0.33285795E+03</totfact>
</mgrwt>
</event>
<event>
 4    1  0.4035350E+000  0.1931192E+03  0.7546771E-02  0.1155678E+00
         21   -1    0    0  503  502  0.00000000000E+00  0.00000000000E+00  0.54948188921E+03  0.54948188921E+03  0.00000000000E+00 0.  1.
         21   -1    0    0  501  503 -0.00000000000E+00 -0.00000000000E+00 -0.12483919002E+03  0.12483919002E+03  0.00000000000E+00 0.  1.
          6    1    1    2  501    0 -0.34305698270E+02  0.78671098638E+02 -0.15434526010E+02  0.19373499242E+03  0.17300000000E+03 0.  1.
         -6    1    1    2    0  502  0.34305698270E+02 -0.78671098638E+02  0.44007722520E+03  0.48058608681E+03  0.17300000000E+03 0.  1.
<mgrwt>
<rscale>  2 0.19311919E+03</rscale>
<asrwt>0</asrwt>
<pdfrwt beam="1">  1       21 0.84535674E-01 0.19311919E+03</pdfrwt>
<pdfrwt beam="2">  1       21 0.19206030E-01 0.19311919E+03</pdfrwt>
<totfact> 0.30199454E+04</totfact>
</mgrwt>
</event>
<event>
 4    1  0.4035350E+000  0.1736003E+03  0.7546771E-02  0.1174144E+00
         21   -1    0    0  501  502  0.00000000000E+00  0.00000000000E+00  0.10150774049E+03  0.10150774049E+03  0.00000000000E+00 0. -1.
         21   -1    0    0  502  503 -0.00000000000E+00 -0.00000000000E+00 -0.31540371824E+03  0.31540371824E+03  0.00000000000E+00 0. -1.
          6    1    1    2  501    0  0.13212396896E+02  0.57881480265E+01 -0.15744628847E+03  0.23436382793E+03  0.17300000000E+03 0. -1.
         -6    1    1    2    0  503 -0.13212396896E+02 -0.57881480265E+01 -0.56449689283E+02  0.18254763080E+03  0.17300000000E+03 0. -1.
<mgrwt>
<rscale>  2 0.17360032E+03</rscale>
<asrwt>0</asrwt>
<pdfrwt beam="1">  1       21 0.15616576E-01 0.17360032E+03</pdfrwt>
<pdfrwt beam="2">  1       21 0.48523648E-01 0.17360032E+03</pdfrwt>
<totfact> 0.14875765E+05</totfact>
</mgrwt>
</event>
<event>
 4    1  0.4035350E+000  0.2355207E+03  0.7546771E-02  0.1122813E+00
         21   -1    0    0  503  502  0.00000000000E+00  0.00000000000E+00  0.46878329557E+03  0.46878329557E+03  0.00000000000E+00 0.  1.
         21   -1    0    0  501  503 -0.00000000000E+00 -0.00000000000E+00 -0.11899957955E+03  0.11899957955E+03  0.00000000000E+00 0. -1.
          6    1    1    2  501    0 -0.87935425045E+01 -0.15957342108E+03  0.19697656715E+03  0.30703382730E+03  0.17300000000E+03 0.  1.
         -6    1    1    2    0  502  0.87935425045E+01  0.15957342108E+03  0.15280714887E+03  0.28074904781E+03  0.17300000000E+03 0.  1.
<mgrwt>
<rscale>  2 0.23552071E+03</rscale>
<asrwt>0</asrwt>
<pdfrwt beam="1">  1       21 0.72120506E-01 0.23552071E+03</pdfrwt>
<pdfrwt beam="2">  1       21 0.18307628E-01 0.23552071E+03</pdfrwt>
<totfact> 0.46246277E+04</totfact>
</mgrwt>
</event>
<event>
 4    1  0.4035350E+000  0.2597800E+03  0.7546771E-02  0.1107275E+00
         21   -1    0    0  503  502  0.00000000000E+00  0.00000000000E+00  0.51880044606E+02  0.51880044606E+02  0.00000000000E+00 0. -1.
         21   -1    0    0  501  503 -0.00000000000E+00 -0.00000000000E+00 -0.14802710034E+04  0.14802710034E+04  0.00000000000E+00 0.  1.
          6    1    1    2  501    0  0.19331767438E+03 -0.13599316638E+02 -0.44745082604E+03  0.51739530957E+03  0.17300000000E+03 0. -1.
         -6    1    1    2    0  502 -0.19331767438E+03  0.13599316638E+02 -0.98094013274E+03  0.10147557384E+04  0.17300000000E+03 0. -1.
<mgrwt>
<rscale>  2 0.25978003E+03</rscale>
<asrwt>0</asrwt>
<pdfrwt beam="1">  1       21 0.79815450E-02 0.25978003E+03</pdfrwt>
<pdfrwt beam="2">  1       21 0.22773401E+00 0.25978003E+03</pdfrwt>
<totfact> 0.10315161E+04</totfact>
</mgrwt>
</event>
<event>
 4    1  0.4035350E+000  0.1902607E+03  0.7546771E-02  0.1158226E+00
         21   -1    0    0  501  502  0.00000000000E+00  0.00000000000E+00  0.25174947954E+03  0.25174947954E+03  0.00000000000E+00 0. -1.
         21   -1    0    0  502  503 -0.00000000000E+00 -0.00000000000E+00 -0.26901957662E+03  0.26901957662E+03  0.00000000000E+00 0.  1.
          6    1    1    2  501    0  0.46168054270E+02 -0.64332275420E+02  0.16901943990E+03  0.25449302930E+03  0.17300000000E+03 0. -1.
         -6    1    1    2    0  503 -0.46168054270E+02  0.64332275420E+02 -0.18628953698E+03  0.26627602686E+03  0.17300000000E+03 0.  1.
<mgrwt>
<rscale>  2 0.19026069E+03</rscale>
<asrwt>0</asrwt>
<pdfrwt beam="1">  1       21 0.38730689E-01 0.19026069E+03</pdfrwt>
<pdfrwt beam="2">  1       21 0.41387627E-01 0.19026069E+03</pdfrwt>
<totfact> 0.36180410E+04</totfact>
</mgrwt>
</event>
<event>
 4    1  0.4035350E+000  0.1752552E+03  0.7546771E-02  0.1172476E+00
         21   -1    0    0  501  502  0.00000000000E+00  0.00000000000E+00  0.27252902227E+03  0.27252902227E+03  0.00000000000E+00 0. -1.
         21   -1    0    0  502  503 -0.00000000000E+00 -0.00000000000E+00 -0.13337576719E+03  0.13337576719E+03  0.00000000000E+00 0. -1.
          6    1    1    2  501    0 -0.27157304284E+02 -0.69183835890E+01  0.14948137170E+03  0.23034553109E+03  0.17300000000E+03 0. -1.
         -6    1    1    2    0  503  0.27157304284E+02  0.69183835890E+01 -0.10328116621E+02  0.17555925837E+03  0.17300000000E+03 0. -1.
<mgrwt>
<rscale>  2 0.17525519E+03</rscale>
<asrwt>0</asrwt>
<pdfrwt beam="1">  1       21 0.41927542E-01 0.17525519E+03</pdfrwt>
<pdfrwt beam="2">  1       21 0.20519349E-01 0.17525519E+03</pdfrwt>
<totfact> 0.12121784E+05</totfact>
</mgrwt>
</event>
<event>
 4    1  0.4035350E+000  0.1907416E+03  0.7546771E-02  0.1157794E+00
         21   -1    0    0  503  502  0.00000000000E+00  0.00000000000E+00  0.50730813503E+03  0.50730813503E+03  0.00000000000E+00 0. -1.
         21   -1    0    0  501  503 -0.00000000000E+00 -0.00000000000E+00 -0.12059446635E+03  0.12059446635E+03  0.00000000000E+00 0. -1.
          6    1    1    2  501    0 -0.44620475611E+02  0.66800913739E+02 -0.65166997413E+01  0.19085286557E+03  0.17300000000E+03 0. -1.
         -6    1    1    2    0  502  0.44620475611E+02 -0.66800913739E+02  0.39323036843E+03  0.43704973581E+03  0.17300000000E+03 0. -1.
<mgrwt>
<rscale>  2 0.19074158E+03</rscale>
<asrwt>0</asrwt>
<pdfrwt beam="1">  1       21 0.78047404E-01 0.19074158E+03</pdfrwt>
<pdfrwt beam="2">  1       21 0.18552995E-01 0.19074158E+03</pdfrwt>
<totfact> 0.38641413E+04</totfact>
</mgrwt>
</event>
<event>
 4    1  0.4035350E+000  0.4464632E+03  0.7546771E-02  0.1028782E+00
         21   -1    0    0  503  502  0.00000000000E+00  0.00000000000E+00  0.35998528354E+03  0.35998528354E+03  0.00000000000E+00 0. -1.
         21   -1    0    0  501  503 -0.00000000000E+00 -0.00000000000E+00 -0.56648745960E+03  0.56648745960E+03  0.00000000000E+00 0.  1.
          6    1    1    2  501    0 -0.31885447527E+02 -0.41034585581E+03 -0.33694607804E+02  0.44773287766E+03  0.17300000000E+03 0. -1.
         -6    1    1    2    0  502  0.31885447527E+02  0.41034585581E+03 -0.17280756826E+03  0.47873986547E+03  0.17300000000E+03 0.  1.
<mgrwt>
<rscale>  2 0.44646322E+03</rscale>
<asrwt>0</asrwt>
<pdfrwt beam="1">  1       21 0.55382352E-01 0.44646322E+03</pdfrwt>
<pdfrwt beam="2">  1       21 0.87151916E-01 0.44646322E+03</pdfrwt>
<totfact> 0.30315944E+03</totfact>
</mgrwt>
</event>
<event>
 4    1  0.4035350E+000  0.1863085E+03  0.7546771E-02  0.1161834E+00
         21   -1    0    0  501  502  0.00000000000E+00  0.00000000000E+00  0.60891957818E+03  0.60891957818E+03  0.00000000000E+00 0. -1.
         21   -1    0    0  502  503 -0.00000000000E+00 -0.00000000000E+00 -0.17093779217E+03  0.17093779217E+03  0.00000000000E+00 0. -1.
          6    1    1    2  501    0 -0.60728581050E+02 -0.33073841802E+02  0.53733180363E+03  0.56871460924E+03  0.17300000000E+03 0. -1.
         -6    1    1    2    0  503  0.60728581050E+02  0.33073841802E+02 -0.99350017619E+02  0.21114276111E+03  0.17300000000E+03 0. -1.
<mgrwt>
<rscale>  2 0.18630845E+03</rscale>
<asrwt>0</asrwt>
<pdfrwt beam="1">  1       21 0.93679934E-01 0.18630845E+03</pdfrwt>
<pdfrwt beam="2">  1       21 0.26298122E-01 0.18630845E+03</pdfrwt>
<totfact> 0.13214333E+04</totfact>
</mgrwt>
</event>
<event>
 4    1  0.4035350E+000  0.1815723E+03  0.7546771E-02  0.1166290E+00
         21   -1    0    0  503  502  0.00000000000E+00  0.00000000000E+00  0.65847642619E+03  0.65847642619E+03  0.00000000000E+00 0.  1.
         21   -1    0    0  501  503 -0.00000000000E+00 -0.00000000000E+00 -0.51154214821E+02  0.51154214821E+02  0.00000000000E+00 0.  1.
          6    1    1    2  501    0  0.14530914058E+02  0.53182125601E+02  0.25195361746E+03  0.31056257227E+03  0.17300000000E+03 0.  1.
         -6    1    1    2    0  502 -0.14530914058E+02 -0.53182125601E+02  0.35536859391E+03  0.39906806874E+03  0.17300000000E+03 0.  1.
<mgrwt>
<rscale>  2 0.18157226E+03</rscale>
<asrwt>0</asrwt>
<pdfrwt beam="1">  1       21 0.10130406E+00 0.18157226E+03</pdfrwt>
<pdfrwt beam="2">  1       21 0.78698797E-02 0.18157226E+03</pdfrwt>
<totfact> 0.98740918E+04</totfact>
</mgrwt>
</event>
<event>
 4    1  0.4035350E+000  0.1941529E+03  0.7546771E-02  0.1154768E+00
         21   -1    0    0  501  502  0.00000000000E+00  0.00000000000E+00  0.26110896830E+03  0.26110896830E+03  0.00000000000E+00 0.  1.
         21   -1    0    0  502  503 -0.00000000000E+00 -0.00000000000E+00 -0.14443513053E+03  0.14443513053E+03  0.00000000000E+00 0.  1.
          6    1    1    2  501    0  0.82448013907E+02 -0.31123223869E+02  0.62764124988E+02  0.20404574352E+03  0.17300000000E+03 0. -1.
         -6    1    1    2    0  503 -0.82448013907E+02  0.31123223869E+02  0.53909712783E+02  0.20149835531E+03  0.17300000000E+03 0. -1.
<mgrwt>
<rscale>  2 0.19415285E+03</rscale>
<asrwt>0</asrwt>
<pdfrwt beam="1">  1       21 0.40170611E-01 0.19415285E+03</pdfrwt>
<pdfrwt beam="2">  1       21 0.22220789E-01 0.19415285E+03</pdfrwt>
<totfact> 0.11306777E+05</totfact>
</mgrwt>
</event>
<event>
 4    1  0.4035350E+000  0.2348642E+03  0.7546771E-02  0.1123262E+00
         21   -1    0    0  501  502  0.00000000000E+00  0.00000000000E+00  0.12011028470E+04  0.12011028470E+04  0.00000000000E+00 0.  1.
         21   -1    0    0  502  503 -0.00000000000E+00 -0.00000000000E+00 -0.65149876587E+02  0.65149876587E+02  0.00000000000E+00 0.  1.
          6    1    1    2  501    0  0.12971753416E+03 -0.91681693443E+02  0.91189888065E+03  0.94165850504E+03  0.17300000000E+03 0. -1.
         -6    1    1    2    0  503 -0.12971753416E+03  0.91681693443E+02  0.22405408979E+03  0.32459421858E+03  0.17300000000E+03 0. -1.
<mgrwt>
<rscale>  2 0.23486416E+03</rscale>
<asrwt>0</asrwt>
<pdfrwt beam="1">  1       21 0.18478504E+00 0.23486416E+03</pdfrwt>
<pdfrwt beam="2">  1       21 0.10023059E-01 0.23486416E+03</pdfrwt>
<totfact> 0.13237304E+04</totfact>
</mgrwt>
</event>
<event>
 4    1  0.4035350E+000  0.1935578E+03  0.7546771E-02  0.1155291E+00
         21   -1    0    0  503  502  0.00000000000E+00  0.00000000000E+00  0.13165675843E+03  0.13165675843E+03  0.00000000000E+00 0. -1.
         21   -1    0    0  501  503 -0.00000000000E+00 -0.00000000000E+00 -0.31570416631E+03  0.31570416631E+03  0.00000000000E+00 0. -1.
          6    1    1    2  501    0  0.73302728670E+02  0.46500689048E+02 -0.16227548620E+03  0.25258253608E+03  0.17300000000E+03 0. -1.
         -6    1    1    2    0  502 -0.73302728670E+02 -0.46500689048E+02 -0.21771921683E+02  0.19477838865E+03  0.17300000000E+03 0. -1.
<mgrwt>
<rscale>  2 0.19355775E+03</rscale>
<asrwt>0</asrwt>
<pdfrwt beam="1">  1       21 0.20254886E-01 0.19355775E+03</pdfrwt>
<pdfrwt beam="2">  1       21 0.48569871E-01 0.19355775E+03</pdfrwt>
<totfact> 0.91217617E+04</totfact>
</mgrwt>
</event>
<event>
 4    1  0.4035350E+000  0.1989626E+03  0.7546771E-02  0.1150617E+00
         21   -1    0    0  503  502  0.00000000000E+00  0.00000000000E+00  0.24593406810E+03  0.24593406810E+03  0.00000000000E+00 0. -1.
         21   -1    0    0  501  503 -0.00000000000E+00 -0.00000000000E+00 -0.17207716564E+03  0.17207716564E+03  0.00000000000E+00 0. -1.
          6    1    1    2  501    0 -0.94282276028E+02  0.27712309506E+02 -0.16190309464E+02  0.19962025396E+03  0.17300000000E+03 0.  1.
         -6    1    1    2    0  502  0.94282276028E+02 -0.27712309506E+02  0.90047211925E+02  0.21839097977E+03  0.17300000000E+03 0.  1.
<mgrwt>
<rscale>  2 0.19896261E+03</rscale>
<asrwt>0</asrwt>
<pdfrwt beam="1">  1       21 0.37836011E-01 0.19896261E+03</pdfrwt>
<pdfrwt beam="2">  1       21 0.26473410E-01 0.19896261E+03</pdfrwt>
<totfact> 0.91204869E+04</totfact>
</mgrwt>
</event>
<event>
 4    1  0.4035350E+000  0.1975715E+03  0.7546771E-02  0.1151804E+00
         21   -1    0    0  501  502  0.00000000000E+00  0.00000000000E+00  0.14459826755E+03  0.14459826755E+03  0.00000000000E+00 0. -1.
         21   -1    0    0  502  503 -0.00000000000E+00 -0.00000000000E+00 -0.40156738907E+03  0.40156738907E+03  0.00000000000E+00 0. -1.
          6    1    1    2  501    0  0.71375357422E+02 -0.63333004416E+02  0.27855194345E+02  0.19952549448E+03  0.17300000000E+03 0. -1.
         -6    1    1    2    0  503 -0.71375357422E+02  0.63333004416E+02 -0.28482431586E+03  0.34664016213E+03  0.17300000000E+03 0. -1.
<mgrwt>
<rscale>  2 0.19757153E+03</rscale>
<asrwt>0</asrwt>
<pdfrwt beam="1">  1       21 0.22245887E-01 0.19757153E+03</pdfrwt>
<pdfrwt beam="2">  1       21 0.61779599E-01 0.19757153E+03</pdfrwt>
<totfact> 0.45881182E+04</totfact>
</mgrwt>
</event>
<event>
 4    1  0.4035350E+000  0.1858589E+03  0.7546771E-02  0.1162250E+00
         21   -1    0    0  501  502  0.00000000000E+00  0.00000000000E+00  0.78622683833E+02  0.78622683833E+02  0.00000000000E+00 0.  1.
         21   -1    0    0  502  503 -0.00000000000E+00 -0.00000000000E+00 -0.68875590137E+03  0.68875590137E+03  0.00000000000E+00 0.  1.
          6    1    1    2  501    0  0.53953959217E+02 -0.41273704255E+02 -0.74183090560E+02  0.20011666423E+03  0.17300000000E+03 0.  1.
         -6    1    1    2    0  503 -0.53953959217E+02  0.41273704255E+02 -0.53595012698E+03  0.56726192098E+03  0.17300000000E+03 0.  1.
<mgrwt>
<rscale>  2 0.18585895E+03</rscale>
<asrwt>0</asrwt>
<pdfrwt beam="1">  1       21 0.12095797E-01 0.18585895E+03</pdfrwt>
<pdfrwt beam="2">  1       21 0.10596245E+00 0.18585895E+03</pdfrwt>
<totfact> 0.41499207E+04</totfact>
</mgrwt>
</event>
<event>
 4    1  0.4035350E+000  0.1862311E+03  0.7546771E-02  0.1161905E+00
         21   -1    0    0  501  502  0.00000000000E+00  0.00000000000E+00  0.31626520917E+04  0.31626520917E+04  0.00000000000E+00 0.  1.
         21   -1    0    0  502  503 -0.00000000000E+00 -0.00000000000E+00 -0.11030948603E+02  0.11030948603E+02  0.00000000000E+00 0.  1.
          6    1    1    2  501    0  0.88764424719E+01 -0.68368223128E+02  0.14541559359E+04  0.14660325683E+04  0.17300000000E+03 0.  1.
         -6    1    1    2    0  503 -0.88764424719E+01  0.68368223128E+02  0.16974652072E+04  0.17076504720E+04  0.17300000000E+03 0.  1.
<mgrwt>
<rscale>  2 0.18623105E+03</rscale>
<asrwt>0</asrwt>
<pdfrwt beam="1">  1       21 0.48656114E+00 0.18623105E+03</pdfrwt>
<pdfrwt beam="2">  1       21 0.16970715E-02 0.18623105E+03</pdfrwt>
<totfact> 0.38138265E+03</totfact>
</mgrwt>
</event>
<event>
 4    1  0.4035350E+000  0.2053977E+03  0.7546771E-02  0.1145263E+00
         21   -1    0    0  503  502  0.00000000000E+00  0.00000000000E+00  0.91608107287E+02  0.91608107287E+02  0.00000000000E+00 0.  1.
         21   -1    0    0  501  503 -0.00000000000E+00 -0.00000000000E+00 -0.74110911793E+03  0.74110911793E+03  0.00000000000E+00 0. -1.
          6    1    1    2  501    0  0.11072051978E+03  0.41328530906E+00 -0.58093615602E+03  0.61617775169E+03  0.17300000000E+03 0. -1.
         -6    1    1    2    0  502 -0.11072051978E+03 -0.41328530906E+00 -0.68564854624E+02  0.21653947353E+03  0.17300000000E+03 0. -1.
<mgrwt>
<rscale>  2 0.20539767E+03</rscale>
<asrwt>0</asrwt>
<pdfrwt beam="1">  1       21 0.14093555E-01 0.20539767E+03</pdfrwt>
<pdfrwt beam="2">  1       21 0.11401678E+00 0.20539767E+03</pdfrwt>
<totfact> 0.26099198E+04</totfact>
</mgrwt>
</event>
<event>
 4    1  0.4035350E+000  0.1829067E+03  0.7546771E-02  0.1165019E+00
         21   -1    0    0  501  502  0.00000000000E+00  0.00000000000E+00  0.25541580571E+04  0.25541580571E+04  0.00000000000E+00 0. -1.
         21   -1    0    0  502  503 -0.00000000000E+00 -0.00000000000E+00 -0.13180176723E+02  0.13180176723E+02  0.00000000000E+00 0. -1.
          6    1    1    2  501    0 -0.56553058146E+02  0.18100417013E+02  0.11692523941E+04  0.11834720253E+04  0.17300000000E+03 0. -1.
         -6    1    1    2    0  503  0.56553058146E+02 -0.18100417013E+02  0.13717254863E+04  0.13838662086E+04  0.17300000000E+03 0. -1.
<mgrwt>
<rscale>  2 0.18290673E+03</rscale>
<asrwt>0</asrwt>
<pdfrwt beam="1">  1       21 0.39294700E+00 0.18290673E+03</pdfrwt>
<pdfrwt beam="2">  1       21 0.20277215E-02 0.18290673E+03</pdfrwt>
<totfact> 0.11744200E+04</totfact>
</mgrwt>
</event>
<event>
 4    1  0.4035350E+000  0.1916149E+03  0.7546771E-02  0.1157013E+00
         21   -1    0    0  501  502  0.00000000000E+00  0.00000000000E+00  0.90733803970E+03  0.90733803970E+03  0.00000000000E+00 0. -1.
         21   -1    0    0  502  503 -0.00000000000E+00 -0.00000000000E+00 -0.51221232597E+02  0.51221232597E+02  0.00000000000E+00 0. -1.
          6    1    1    2  501    0 -0.62096310758E+02 -0.54141604366E+02  0.64768026012E+03  0.67543022177E+03  0.17300000000E+03 0. -1.
         -6    1    1    2    0  503  0.62096310758E+02  0.54141604366E+02  0.20843654698E+03  0.28312905052E+03  0.17300000000E+03 0. -1.
<mgrwt>
<rscale>  2 0.19161489E+03</rscale>
<asrwt>0</asrwt>
<pdfrwt beam="1">  1       21 0.13959046E+00 0.19161489E+03</pdfrwt>
<pdfrwt beam="2">  1       21 0.78801903E-02 0.19161489E+03</pdfrwt>
<totfact> 0.44444681E+04</totfact>
</mgrwt>
</event>
<event>
 4    1  0.4035350E+000  0.2018136E+03  0.7546771E-02  0.1148218E+00
         21   -1    0    0  501  502  0.00000000000E+00  0.00000000000E+00  0.79041949603E+03  0.79041949603E+03  0.00000000000E+00 0.  1.
         21   -1    0    0  502  503 -0.00000000000E+00 -0.00000000000E+00 -0.61460357518E+02  0.61460357518E+02  0.00000000000E+00 0.  1.
          6    1    1    2  501    0 -0.90559608536E+01 -0.10352634894E+03  0.53570865899E+03  0.57246177398E+03  0.17300000000E+03 0.  1.
         -6    1    1    2    0  503  0.90559608536E+01  0.10352634894E+03  0.19325047952E+03  0.27941807957E+03  0.17300000000E+03 0.  1.
<mgrwt>
<rscale>  2 0.20181357E+03</rscale>
<asrwt>0</asrwt>
<pdfrwt beam="1">  1       21 0.12160299E+00 0.20181357E+03</pdfrwt>
<pdfrwt beam="2">  1       21 0.94554402E-02 0.20181357E+03</pdfrwt>
<totfact> 0.45538220E+04</totfact>
</mgrwt>
</event>
<event>
 4    1  0.4035350E+000  0.1986936E+03  0.7546771E-02  0.1150846E+00
         21   -1    0    0  503  502  0.00000000000E+00  0.00000000000E+00  0.34160468184E+03  0.34160468184E+03  0.00000000000E+00 0.  1.
         21   -1    0    0  501  503 -0.00000000000E+00 -0.00000000000E+00 -0.12089304828E+03  0.12089304828E+03  0.00000000000E+00 0.  1.
          6    1    1    2  501    0 -0.27747315241E+02 -0.93702995346E+02  0.15888127952E+03  0.25440602552E+03  0.17300000000E+03 0.  1.
         -6    1    1    2    0  502  0.27747315241E+02  0.93702995346E+02  0.61830354044E+02  0.20809170459E+03  0.17300000000E+03 0.  1.
<mgrwt>
<rscale>  2 0.19869365E+03</rscale>
<asrwt>0</asrwt>
<pdfrwt beam="1">  1       21 0.52554566E-01 0.19869365E+03</pdfrwt>
<pdfrwt beam="2">  1       21 0.18598931E-01 0.19869365E+03</pdfrwt>
<totfact> 0.90489521E+04</totfact>
</mgrwt>
</event>
<event>
 4    1  0.4035350E+000  0.1877371E+03  0.7546771E-02  0.1160518E+00
         21   -1    0    0  501  502  0.00000000000E+00  0.00000000000E+00  0.45267171549E+03  0.45267171549E+03  0.00000000000E+00 0. -1.
         21   -1    0    0  502  503 -0.00000000000E+00 -0.00000000000E+00 -0.10709773168E+03  0.10709773168E+03  0.00000000000E+00 0. -1.
          6    1    1    2  501    0  0.70310222783E+02 -0.19304944419E+02  0.31902417177E+03  0.37016432902E+03  0.17300000000E+03 0. -1.
         -6    1    1    2    0  503 -0.70310222783E+02  0.19304944419E+02  0.26549812044E+02  0.18960511814E+03  0.17300000000E+03 0. -1.
<mgrwt>
<rscale>  2 0.18773707E+03</rscale>
<asrwt>0</asrwt>
<pdfrwt beam="1">  1       21 0.69641801E-01 0.18773707E+03</pdfrwt>
<pdfrwt beam="2">  1       21 0.16476574E-01 0.18773707E+03</pdfrwt>
<totfact> 0.62056929E+04</totfact>
</mgrwt>
</event>
<event>
 4    1  0.4035350E+000  0.2009957E+03  0.7546771E-02  0.1148902E+00
         21   -1    0    0  501  502  0.00000000000E+00  0.00000000000E+00  0.11047040265E+04  0.11047040265E+04  0.00000000000E+00 0. -1.
         21   -1    0    0  502  503 -0.00000000000E+00 -0.00000000000E+00 -0.10247263160E+03  0.10247263160E+03  0.00000000000E+00 0.  1.
          6    1    1    2  501    0 -0.10219589163E+03  0.51266355843E+01  0.98516266389E+03  0.10054574864E+04  0.17300000000E+03 0. -1.
         -6    1    1    2    0  503  0.10219589163E+03 -0.51266355843E+01  0.17068731034E+02  0.20171917171E+03  0.17300000000E+03 0.  1.
<mgrwt>
<rscale>  2 0.20099573E+03</rscale>
<asrwt>0</asrwt>
<pdfrwt beam="1">  1       21 0.16995446E+00 0.20099573E+03</pdfrwt>
<pdfrwt beam="2">  1       21 0.15765021E-01 0.20099573E+03</pdfrwt>
<totfact> 0.75978368E+03</totfact>
</mgrwt>
</event>
<event>
 4    1  0.4035350E+000  0.1741653E+03  0.7546771E-02  0.1173572E+00
         21   -1    0    0  501  502  0.00000000000E+00  0.00000000000E+00  0.75927883316E+02  0.75927883316E+02  0.00000000000E+00 0. -1.
         21   -1    0    0  502  503 -0.00000000000E+00 -0.00000000000E+00 -0.95559301760E+03  0.95559301760E+03  0.00000000000E+00 0. -1.
          6    1    1    2  501    0  0.13247260165E+02  0.15135135484E+02 -0.46388178105E+02  0.18023713628E+03  0.17300000000E+03 0. -1.
         -6    1    1    2    0  503 -0.13247260165E+02 -0.15135135484E+02 -0.83327695617E+03  0.85128376463E+03  0.17300000000E+03 0. -1.
<mgrwt>
<rscale>  2 0.17416533E+03</rscale>
<asrwt>0</asrwt>
<pdfrwt beam="1">  1       21 0.11681213E-01 0.17416533E+03</pdfrwt>
<pdfrwt beam="2">  1       21 0.14701431E+00 0.17416533E+03</pdfrwt>
<totfact> 0.19649357E+04</totfact>
</mgrwt>
</event>
<event>
 4    1  0.4035350E+000  0.1773663E+03  0.7546771E-02  0.1170377E+00
         21   -1    0    0  503  502  0.00000000000E+00  0.00000000000E+00  0.74367549357E+03  0.74367549357E+03  0.00000000000E+00 0. -1.
         21   -1    0    0  501  503 -0.00000000000E+00 -0.00000000000E+00 -0.48098674435E+02  0.48098674435E+02  0.00000000000E+00 0. -1.
          6    1    1    2  501    0 -0.30084540280E+02 -0.24994795215E+02  0.21035214110E+03  0.27514876452E+03  0.17300000000E+03 0. -1.
         -6    1    1    2    0  502  0.30084540280E+02  0.24994795215E+02  0.48522467804E+03  0.51662540349E+03  0.17300000000E+03 0. -1.
<mgrwt>
<rscale>  2 0.17736634E+03</rscale>
<asrwt>0</asrwt>
<pdfrwt beam="1">  1       21 0.11441161E+00 0.17736634E+03</pdfrwt>
<pdfrwt beam="2">  1       21 0.73997966E-02 0.17736634E+03</pdfrwt>
<totfact> 0.82137514E+04</totfact>
</mgrwt>
</event>
<event>
 4    1  0.4035350E+000  0.1759358E+03  0.7546771E-02  0.1171795E+00
         21   -1    0    0  501  502  0.00000000000E+00  0.00000000000E+00  0.29683272801E+03  0.29683272801E+03  0.00000000000E+00 0. -1.
         21   -1    0    0  502  503 -0.00000000000E+00 -0.00000000000E+00 -0.30034184862E+03  0.30034184862E+03  0.00000000000E+00 0. -1.
          6    1    1    2  501    0  0.30765171830E+02  0.88276362741E+01  0.23949194626E+03  0.29716967423E+03  0.17300000000E+03 0. -1.
         -6    1    1    2    0  503 -0.30765171830E+02 -0.88276362741E+01 -0.24300106687E+03  0.30000490239E+03  0.17300000000E+03 0. -1.
<mgrwt>
<rscale>  2 0.17593585E+03</rscale>
<asrwt>0</asrwt>
<pdfrwt beam="1">  1       21 0.45666574E-01 0.17593585E+03</pdfrwt>
<pdfrwt beam="2">  1       21 0.46206438E-01 0.17593585E+03</pdfrwt>
<totfact> 0.20838494E+04</totfact>
</mgrwt>
</event>
<event>
 4    1  0.4035350E+000  0.2086732E+03  0.7546771E-02  0.1142621E+00
         21   -1    0    0  503  502  0.00000000000E+00  0.00000000000E+00  0.63513217311E+03  0.63513217311E+03  0.00000000000E+00 0. -1.
         21   -1    0    0  501  503 -0.00000000000E+00 -0.00000000000E+00 -0.72680634633E+02  0.72680634633E+02  0.00000000000E+00 0. -1.
          6    1    1    2  501    0 -0.11482487669E+03  0.20754082693E+02  0.19695521515E+03  0.28694222595E+03  0.17300000000E+03 0. -1.
         -6    1    1    2    0  502  0.11482487669E+03 -0.20754082693E+02  0.36549632332E+03  0.42087058179E+03  0.17300000000E+03 0. -1.
<mgrwt>
<rscale>  2 0.20867315E+03</rscale>
<asrwt>0</asrwt>
<pdfrwt beam="1">  1       21 0.97712638E-01 0.20867315E+03</pdfrwt>
<pdfrwt beam="2">  1       21 0.11181637E-01 0.20867315E+03</pdfrwt>
<totfact> 0.57264441E+04</totfact>
</mgrwt>
</event>
<event>
 4    1  0.4035350E+000  0.1802104E+03  0.7546771E-02  0.1167600E+00
         21   -1    0    0  501  502  0.00000000000E+00  0.00000000000E+00  0.92633158151E+02  0.92633158151E+02  0.00000000000E+00 0. -1.
         21   -1    0    0  502  503 -0.00000000000E+00 -0.00000000000E+00 -0.61624564034E+03  0.61624564034E+03  0.00000000000E+00 0. -1.
          6    1    1    2  501    0  0.47787520684E+01  0.50239042159E+02 -0.49452353119E+03  0.52633574905E+03  0.17300000000E+03 0. -1.
         -6    1    1    2    0  503 -0.47787520684E+01 -0.50239042159E+02 -0.29088950998E+02  0.18254304944E+03  0.17300000000E+03 0. -1.
<mgrwt>
<rscale>  2 0.18021043E+03</rscale>
<asrwt>0</asrwt>
<pdfrwt beam="1">  1       21 0.14251256E-01 0.18021043E+03</pdfrwt>
<pdfrwt beam="2">  1       21 0.94807018E-01 0.18021043E+03</pdfrwt>
<totfact> 0.40334381E+04</totfact>
</mgrwt>
</event>
<event>
 4    1  0.4035350E+000  0.1877306E+03  0.7546771E-02  0.1160524E+00
         21   -1    0    0  503  502  0.00000000000E+00  0.00000000000E+00  0.22550898187E+03  0.22550898187E+03  0.00000000000E+00 0. -1.
         21   -1    0    0  501  503 -0.00000000000E+00 -0.00000000000E+00 -0.25555642553E+03  0.25555642553E+03  0.00000000000E+00 0. -1.
          6    1    1    2  501    0  0.72816316551E+02  0.34024726190E+01 -0.16494089356E+03  0.24989656089E+03  0.17300000000E+03 0. -1.
         -6    1    1    2    0  502 -0.72816316551E+02 -0.34024726190E+01  0.13489344990E+03  0.23116884652E+03  0.17300000000E+03 0. -1.
<mgrwt>
<rscale>  2 0.18773064E+03</rscale>
<asrwt>0</asrwt>
<pdfrwt beam="1">  1       21 0.34693690E-01 0.18773064E+03</pdfrwt>
<pdfrwt beam="2">  1       21 0.39316373E-01 0.18773064E+03</pdfrwt>
<totfact> 0.50057984E+04</totfact>
</mgrwt>
</event>
<event>
 4    1  0.4035350E+000  0.2711618E+03  0.7546771E-02  0.1100617E+00
         21   -1    0    0  501  502  0.00000000000E+00  0.00000000000E+00  0.39662548444E+02  0.39662548444E+02  0.00000000000E+00 0.  1.
         21   -1    0    0  502  503 -0.00000000000E+00 -0.00000000000E+00 -0.19772638472E+04  0.19772638472E+04  0.00000000000E+00 0. -1.
          6    1    1    2  501    0 -0.20876185016E+03 -0.42666490415E+01 -0.12207402429E+04  0.12504940843E+04  0.17300000000E+03 0.  1.
         -6    1    1    2    0  503  0.20876185016E+03  0.42666490415E+01 -0.71686105584E+03  0.76643231127E+03  0.17300000000E+03 0. -1.
<mgrwt>
<rscale>  2 0.27116179E+03</rscale>
<asrwt>0</asrwt>
<pdfrwt beam="1">  1       21 0.61019328E-02 0.27116179E+03</pdfrwt>
<pdfrwt beam="2">  1       21 0.30419432E+00 0.27116179E+03</pdfrwt>
<totfact> 0.57313373E+03</totfact>
</mgrwt>
</event>
<event>
 4    1  0.4035350E+000  0.1868802E+03  0.7546771E-02  0.1161306E+00
         21   -1    0    0  501  502  0.00000000000E+00  0.00000000000E+00  0.92621240495E+02  0.92621240495E+02  0.00000000000E+00 0.  1.
         21   -1    0    0  502  503 -0.00000000000E+00 -0.00000000000E+00 -0.37804169348E+03  0.37804169348E+03  0.00000000000E+00 0. -1.
          6    1    1    2  501    0  0.26632020900E+02 -0.65467185500E+02 -0.13074788994E+03  0.22807724051E+03  0.17300000000E+03 0.  1.
         -6    1    1    2    0  503 -0.26632020900E+02  0.65467185500E+02 -0.15467256304E+03  0.24258569346E+03  0.17300000000E+03 0.  1.
<mgrwt>
<rscale>  2 0.18688022E+03</rscale>
<asrwt>0</asrwt>
<pdfrwt beam="1">  1       21 0.14249422E-01 0.18688022E+03</pdfrwt>
<pdfrwt beam="2">  1       21 0.58160261E-01 0.18688022E+03</pdfrwt>
<totfact> 0.11953007E+05</totfact>
</mgrwt>
</event>
<event>
 4    1  0.4035350E+000  0.2164523E+03  0.7546771E-02  0.1136556E+00
         21   -1    0    0  501  502  0.00000000000E+00  0.00000000000E+00  0.44602180693E+03  0.44602180693E+03  0.00000000000E+00 0.  1.
         21   -1    0    0  502  503 -0.00000000000E+00 -0.00000000000E+00 -0.19130239903E+03  0.19130239903E+03  0.00000000000E+00 0.  1.
          6    1    1    2  501    0  0.11350365168E+03 -0.63557351873E+02  0.34133941299E+03  0.40418338757E+03  0.17300000000E+03 0.  1.
         -6    1    1    2    0  503 -0.11350365168E+03  0.63557351873E+02 -0.86620005093E+02  0.23314081840E+03  0.17300000000E+03 0.  1.
<mgrwt>
<rscale>  2 0.21645234E+03</rscale>
<asrwt>0</asrwt>
<pdfrwt beam="1">  1       21 0.68618739E-01 0.21645234E+03</pdfrwt>
<pdfrwt beam="2">  1       21 0.29431138E-01 0.21645234E+03</pdfrwt>
<totfact> 0.21118196E+04</totfact>
</mgrwt>
</event>
<event>
 4    1  0.4035350E+000  0.1999875E+03  0.7546771E-02  0.1149750E+00
         21   -1    0    0  501  502  0.00000000000E+00  0.00000000000E+00  0.41540359230E+03  0.41540359230E+03  0.00000000000E+00 0. -1.
         21   -1    0    0  502  503 -0.00000000000E+00 -0.00000000000E+00 -0.10044676599E+03  0.10044676599E+03  0.00000000000E+00 0. -1.
          6    1    1    2  501    0  0.75815987223E+02 -0.65710886310E+02  0.10494513272E+03  0.22585053770E+03  0.17300000000E+03 0. -1.
         -6    1    1    2    0  503 -0.75815987223E+02  0.65710886310E+02  0.21001169359E+03  0.28999982059E+03  0.17300000000E+03 0. -1.
<mgrwt>
<rscale>  2 0.19998746E+03</rscale>
<asrwt>0</asrwt>
<pdfrwt beam="1">  1       21 0.63908244E-01 0.19998746E+03</pdfrwt>
<pdfrwt beam="2">  1       21 0.15453349E-01 0.19998746E+03</pdfrwt>
<totfact> 0.83751850E+04</totfact>
</mgrwt>
</event>
<event>
 4    1  0.4035350E+000  0.3902016E+03  0.7546771E-02  0.1047226E+00
         21   -1    0    0  503  502  0.00000000000E+00  0.00000000000E+00  0.92378093811E+03  0.92378093811E+03  0.00000000000E+00 0.  1.
         21   -1    0    0  501  503 -0.00000000000E+00 -0.00000000000E+00 -0.18899138702E+03  0.18899138702E+03  0.00000000000E+00 0. -1.
          6    1    1    2  501    0  0.99500808940E+02 -0.33530263139E+03  0.16841492442E+03  0.42499512040E+03  0.17300000000E+03 0. -1.
         -6    1    1    2    0  502 -0.99500808940E+02  0.33530263139E+03  0.56637462667E+03  0.68777720472E+03  0.17300000000E+03 0.  1.
<mgrwt>
<rscale>  2 0.39020157E+03</rscale>
<asrwt>0</asrwt>
<pdfrwt beam="1">  1       21 0.14212014E+00 0.39020157E+03</pdfrwt>
<pdfrwt beam="2">  1       21 0.29075598E-01 0.39020157E+03</pdfrwt>
<totfact> 0.34569802E+03</totfact>
</mgrwt>
</event>
<event>
 4    1  0.4035350E+000  0.2789407E+03  0.7546771E-02  0.1096269E+00
         21   -1    0    0  501  502  0.00000000000E+00  0.00000000000E+00  0.89461876447E+02  0.89461876447E+02  0.00000000000E+00 0. -1.
         21   -1    0    0  502  503 -0.00000000000E+00 -0.00000000000E+00 -0.91353746875E+03  0.91353746875E+03  0.00000000000E+00 0. -1.
          6    1    1    2  501    0  0.20958013681E+03 -0.62889450590E+02 -0.30222111559E+03  0.41127304731E+03  0.17300000000E+03 0. -1.
         -6    1    1    2    0  503 -0.20958013681E+03  0.62889450590E+02 -0.52185447672E+03  0.59172629788E+03  0.17300000000E+03 0. -1.
<mgrwt>
<rscale>  2 0.27894070E+03</rscale>
<asrwt>0</asrwt>
<pdfrwt beam="1">  1       21 0.13763366E-01 0.27894070E+03</pdfrwt>
<pdfrwt beam="2">  1       21 0.14054422E+00 0.27894070E+03</pdfrwt>
<totfact> 0.15437558E+04</totfact>
</mgrwt>
</event>
<event>
 4    1  0.4035350E+000  0.2532982E+03  0.7546771E-02  0.1111238E+00
         21   -1    0    0  501  502  0.00000000000E+00  0.00000000000E+00  0.93596314993E+03  0.93596314993E+03  0.00000000000E+00 0.  1.
         21   -1    0    0  502  503 -0.00000000000E+00 -0.00000000000E+00 -0.81975627019E+02  0.81975627019E+02  0.00000000000E+00 0.  1.
          6    1    1    2  501    0  0.11788005298E+03  0.14260170487E+03  0.63297237084E+03  0.68177267133E+03  0.17300000000E+03 0.  1.
         -6    1    1    2    0  503 -0.11788005298E+03 -0.14260170487E+03  0.22101515207E+03  0.33616610562E+03  0.17300000000E+03 0.  1.
<mgrwt>
<rscale>  2 0.25329815E+03</rscale>
<asrwt>0</asrwt>
<pdfrwt beam="1">  1       21 0.14399432E+00 0.25329815E+03</pdfrwt>
<pdfrwt beam="2">  1       21 0.12611636E-01 0.25329815E+03</pdfrwt>
<totfact> 0.17202516E+04</totfact>
</mgrwt>
</event>
<event>
 4    1  0.4035350E+000  0.2301730E+03  0.7546771E-02  0.1126518E+00
         21   -1    0    0  503  502  0.00000000000E+00  0.00000000000E+00  0.76240176820E+02  0.76240176820E+02  0.00000000000E+00 0.  1.
         21   -1    0    0  501  503 -0.00000000000E+00 -0.00000000000E+00 -0.70011085409E+03  0.70011085409E+03  0.00000000000E+00 0. -1.
          6    1    1    2  501    0  0.53671241945E+02  0.14202110909E+03 -0.34541151330E+03  0.41507675333E+03  0.17300000000E+03 0. -1.
         -6    1    1    2    0  502 -0.53671241945E+02 -0.14202110909E+03 -0.27845916397E+03  0.36127427758E+03  0.17300000000E+03 0.  1.
<mgrwt>
<rscale>  2 0.23017297E+03</rscale>
<asrwt>0</asrwt>
<pdfrwt beam="1">  1       21 0.11729258E-01 0.23017297E+03</pdfrwt>
<pdfrwt beam="2">  1       21 0.10770937E+00 0.23017297E+03</pdfrwt>
<totfact> 0.41197804E+04</totfact>
</mgrwt>
</event>
<event>
 4    1  0.4035350E+000  0.2206208E+03  0.7546771E-02  0.1133421E+00
         21   -1    0    0  503  502  0.00000000000E+00  0.00000000000E+00  0.60355940900E+03  0.60355940900E+03  0.00000000000E+00 0. -1.
         21   -1    0    0  501  503 -0.00000000000E+00 -0.00000000000E+00 -0.86399060130E+02  0.86399060130E+02  0.00000000000E+00 0.  1.
          6    1    1    2  501    0 -0.10758851042E+02 -0.13648724480E+03  0.16954561098E+03  0.27824312224E+03  0.17300000000E+03 0.  1.
         -6    1    1    2    0  502  0.10758851042E+02  0.13648724480E+03  0.34761473789E+03  0.41171534689E+03  0.17300000000E+03 0. -1.
<mgrwt>
<rscale>  2 0.22062076E+03</rscale>
<asrwt>0</asrwt>
<pdfrwt beam="1">  1       21 0.92855291E-01 0.22062076E+03</pdfrwt>
<pdfrwt beam="2">  1       21 0.13292164E-01 0.22062076E+03</pdfrwt>
<totfact> 0.47054390E+04</totfact>
</mgrwt>
</event>
<event>
 4    1  0.4035350E+000  0.1792849E+03  0.7546771E-02  0.1168497E+00
         21   -1    0    0  503  502  0.00000000000E+00  0.00000000000E+00  0.10484034462E+03  0.10484034462E+03  0.00000000000E+00 0.  1.
         21   -1    0    0  501  503 -0.00000000000E+00 -0.00000000000E+00 -0.30769097049E+03  0.30769097049E+03  0.00000000000E+00 0.  1.
          6    1    1    2  501    0 -0.46993440033E+02 -0.23857133145E+01 -0.11375972782E+03  0.21233075780E+03  0.17300000000E+03 0.  1.
         -6    1    1    2    0  502  0.46993440033E+02  0.23857133145E+01 -0.89090898050E+02  0.20020055732E+03  0.17300000000E+03 0.  1.
<mgrwt>
<rscale>  2 0.17928490E+03</rscale>
<asrwt>0</asrwt>
<pdfrwt beam="1">  1       21 0.16129284E-01 0.17928490E+03</pdfrwt>
<pdfrwt beam="2">  1       21 0.47337071E-01 0.17928490E+03</pdfrwt>
<totfact> 0.14732104E+05</totfact>
</mgrwt>
</event>
<event>
 4    1  0.4035350E+000  0.2525499E+03  0.7546771E-02  0.1111704E+00
         21   -1    0    0  503  502  0.00000000000E+00  0.00000000000E+00  0.11868899636E+04  0.11868899636E+04  0.00000000000E+00 0.  1.
         21   -1    0    0  501  503 -0.00000000000E+00 -0.00000000000E+00 -0.55355632495E+02  0.55355632495E+02  0.00000000000E+00 0.  1.
          6    1    1    2  501    0 -0.17908424226E+03  0.42205002694E+02  0.45959795782E+03  0.52441558988E+03  0.17300000000E+03 0.  1.
         -6    1    1    2    0  502  0.17908424226E+03 -0.42205002694E+02  0.67193637332E+03  0.71783000625E+03  0.17300000000E+03 0.  1.
<mgrwt>
<rscale>  2 0.25254985E+03</rscale>
<asrwt>0</asrwt>
<pdfrwt beam="1">  1       21 0.18259844E+00 0.25254985E+03</pdfrwt>
<pdfrwt beam="2">  1       21 0.85162520E-02 0.25254985E+03</pdfrwt>
<totfact> 0.18068575E+04</totfact>
</mgrwt>
</event>
<event>
 4    1  0.4035350E+000  0.1880743E+03  0.7546771E-02  0.1160210E+00
         21   -1    0    0  501  502  0.00000000000E+00  0.00000000000E+00  0.42118245726E+03  0.42118245726E+03  0.00000000000E+00 0.  1.
         21   -1    0    0  502  503 -0.00000000000E+00 -0.00000000000E+00 -0.17595252809E+03  0.17595252809E+03  0.00000000000E+00 0.  1.
          6    1    1    2  501    0  0.59015123396E+02  0.44273608064E+02  0.33847290502E+03  0.38721550149E+03  0.17300000000E+03 0.  1.
         -6    1    1    2    0  503 -0.59015123396E+02 -0.44273608064E+02 -0.93242975846E+02  0.20991948386E+03  0.17300000000E+03 0.  1.
<mgrwt>
<rscale>  2 0.18807429E+03</rscale>
<asrwt>0</asrwt>
<pdfrwt beam="1">  1       21 0.64797301E-01 0.18807429E+03</pdfrwt>
<pdfrwt beam="2">  1       21 0.27069620E-01 0.18807429E+03</pdfrwt>
<totfact> 0.28608510E+04</totfact>
</mgrwt>
</event>
<event>
 4    1  0.4035350E+000  0.1984419E+03  0.7546771E-02  0.1151060E+00
         21   -1    0    0  501  502  0.00000000000E+00  0.00000000000E+00  0.42598394817E+03  0.42598394817E+03  0.00000000000E+00 0. -1.
         21   -1    0    0  502  503 -0.00000000000E+00 -0.00000000000E+00 -0.19858650900E+03  0.19858650900E+03  0.00000000000E+00 0.  1.
          6    1    1    2  501    0  0.43829782090E+02  0.86770528323E+02  0.34200800714E+03  0.39540947299E+03  0.17300000000E+03 0. -1.
         -6    1    1    2    0  503 -0.43829782090E+02 -0.86770528323E+02 -0.11461056797E+03  0.22916098419E+03  0.17300000000E+03 0.  1.
<mgrwt>
<rscale>  2 0.19844187E+03</rscale>
<asrwt>0</asrwt>
<pdfrwt beam="1">  1       21 0.65535992E-01 0.19844187E+03</pdfrwt>
<pdfrwt beam="2">  1       21 0.30551771E-01 0.19844187E+03</pdfrwt>
<totfact> 0.21941026E+04</totfact>
</mgrwt>
</event>
<event>
 4    1  0.4035350E+000  0.1838498E+03  0.7546771E-02  0.1164128E+00
         21   -1    0    0  501  502  0.00000000000E+00  0.00000000000E+00  0.20250744808E+03  0.20250744808E+03  0.00000000000E+00 0.  1.
         21   -1    0    0  502  503 -0.00000000000E+00 -0.00000000000E+00 -0.33946696843E+03  0.33946696843E+03  0.00000000000E+00 0.  1.
          6    1    1    2  501    0  0.90517477452E+01  0.61561542572E+02  0.12472365218E+03  0.22216378434E+03  0.17300000000E+03 0.  1.
         -6    1    1    2    0  503 -0.90517477452E+01 -0.61561542572E+02 -0.26168317253E+03  0.31981063217E+03  0.17300000000E+03 0.  1.
<mgrwt>
<rscale>  2 0.18384982E+03</rscale>
<asrwt>0</asrwt>
<pdfrwt beam="1">  1       21 0.31154992E-01 0.18384982E+03</pdfrwt>
<pdfrwt beam="2">  1       21 0.52225687E-01 0.18384982E+03</pdfrwt>
<totfact> 0.34589583E+04</totfact>
</mgrwt>
</event>
<event>
 4    1  0.4035350E+000  0.2230588E+03  0.7546771E-02  0.1131623E+00
         21   -1    0    0  503  502  0.00000000000E+00  0.00000000000E+00  0.22021880587E+03  0.22021880587E+03  0.00000000000E+00 0.  1.
         21   -1    0    0  501  503 -0.00000000000E+00 -0.00000000000E+00 -0.63018233143E+03  0.63018233143E+03  0.00000000000E+00 0.  1.
          6    1    1    2  501    0 -0.45389338019E+01 -0.14073240853E+03 -0.54553429886E+03  0.58937499435E+03  0.17300000000E+03 0.  1.
         -6    1    1    2    0  502  0.45389338019E+01  0.14073240853E+03  0.13557077330E+03  0.26102614295E+03  0.17300000000E+03 0.  1.
<mgrwt>
<rscale>  2 0.22305877E+03</rscale>
<asrwt>0</asrwt>
<pdfrwt beam="1">  1       21 0.33879817E-01 0.22305877E+03</pdfrwt>
<pdfrwt beam="2">  1       21 0.96951126E-01 0.22305877E+03</pdfrwt>
<totfact> 0.72537315E+03</totfact>
</mgrwt>
</event>
<event>
 4    1  0.4035350E+000  0.2009269E+03  0.7546771E-02  0.1148959E+00
         21   -1    0    0  501  502  0.00000000000E+00  0.00000000000E+00  0.84534798336E+02  0.84534798336E+02  0.00000000000E+00 0.  1.
         21   -1    0    0  502  503 -0.00000000000E+00 -0.00000000000E+00 -0.79372994167E+03  0.79372994167E+03  0.00000000000E+00 0. -1.
          6    1    1    2  501    0  0.21637075949E+02  0.99872163601E+02 -0.77450800990E+02  0.21533749950E+03  0.17300000000E+03 0.  1.
         -6    1    1    2    0  503 -0.21637075949E+02 -0.99872163601E+02 -0.63174434234E+03  0.66292724050E+03  0.17300000000E+03 0. -1.
<mgrwt>
<rscale>  2 0.20092688E+03</rscale>
<asrwt>0</asrwt>
<pdfrwt beam="1">  1       21 0.13005353E-01 0.20092688E+03</pdfrwt>
<pdfrwt beam="2">  1       21 0.12211231E+00 0.20092688E+03</pdfrwt>
<totfact> 0.25555572E+04</totfact>
</mgrwt>
</event>
<event>
 4    1  0.4035350E+000  0.1897389E+03  0.7546771E-02  0.1158697E+00
         21   -1    0    0  503  502  0.00000000000E+00  0.00000000000E+00  0.44918248974E+03  0.44918248974E+03  0.00000000000E+00 0.  1.
         21   -1    0    0  501  503 -0.00000000000E+00 -0.00000000000E+00 -0.19272456117E+03  0.19272456117E+03  0.00000000000E+00 0.  1.
          6    1    1    2  501    0 -0.55410954600E+02 -0.54785784331E+02 -0.11707160764E+03  0.22294980908E+03  0.17300000000E+03 0.  1.
         -6    1    1    2    0  502  0.55410954600E+02  0.54785784331E+02  0.37352953621E+03  0.41895724182E+03  0.17300000000E+03 0.  1.
<mgrwt>
<rscale>  2 0.18973892E+03</rscale>
<asrwt>0</asrwt>
<pdfrwt beam="1">  1       21 0.69104998E-01 0.18973892E+03</pdfrwt>
<pdfrwt beam="2">  1       21 0.29649933E-01 0.18973892E+03</pdfrwt>
<totfact> 0.20818470E+04</totfact>
</mgrwt>
</event>
<event>
 4    1  0.4035350E+000  0.2379686E+03  0.7546771E-02  0.1121154E+00
         21   -1    0    0  503  502  0.00000000000E+00  0.00000000000E+00  0.10421701443E+04  0.10421701443E+04  0.00000000000E+00 0. -1.
         21   -1    0    0  501  503 -0.00000000000E+00 -0.00000000000E+00 -0.55813671299E+02  0.55813671299E+02  0.00000000000E+00 0.  1.
          6    1    1    2  501    0  0.12637009380E+03 -0.10358890279E+03  0.40390030922E+03  0.46879048750E+03  0.17300000000E+03 0.  1.
         -6    1    1    2    0  502 -0.12637009380E+03  0.10358890279E+03  0.58245616377E+03  0.62919332808E+03  0.17300000000E+03 0.  1.
<mgrwt>
<rscale>  2 0.23796861E+03</rscale>
<asrwt>0</asrwt>
<pdfrwt beam="1">  1       21 0.16033385E+00 0.23796861E+03</pdfrwt>
<pdfrwt beam="2">  1       21 0.85867194E-02 0.23796861E+03</pdfrwt>
<totfact> 0.25815765E+04</totfact>
</mgrwt>
</event>
<event>
 4    1  0.4035350E+000  0.2542518E+03  0.7546771E-02  0.1110647E+00
         21   -1    0    0  501  502  0.00000000000E+00  0.00000000000E+00  0.29968300006E+02  0.29968300006E+02  0.00000000000E+00 0. -1.
         21   -1    0    0  502  503 -0.00000000000E+00 -0.00000000000E+00 -0.21808956390E+04  0.21808956390E+04  0.00000000000E+00 0.  1.
          6    1    1    2  501    0 -0.26244690574E+02  0.18446196922E+03 -0.95994521001E+03  0.99304521956E+03  0.17300000000E+03 0.  1.
         -6    1    1    2    0  503  0.26244690574E+02 -0.18446196922E+03 -0.11909821290E+04  0.12178187195E+04  0.17300000000E+03 0. -1.
<mgrwt>
<rscale>  2 0.25425185E+03</rscale>
<asrwt>0</asrwt>
<pdfrwt beam="1">  1       21 0.46105073E-02 0.25425185E+03</pdfrwt>
<pdfrwt beam="2">  1       21 0.33552244E+00 0.25425185E+03</pdfrwt>
<totfact> 0.61467496E+03</totfact>
</mgrwt>
</event>
<event>
 4    1  0.4035350E+000  0.2149316E+03  0.7546771E-02  0.1137719E+00
         21   -1    0    0  501  502  0.00000000000E+00  0.00000000000E+00  0.47517633076E+02  0.47517633076E+02  0.00000000000E+00 0.  1.
         21   -1    0    0  502  503 -0.00000000000E+00 -0.00000000000E+00 -0.10031353282E+04  0.10031353282E+04  0.00000000000E+00 0.  1.
          6    1    1    2  501    0  0.56361232809E+02  0.11441161635E+03 -0.38552409901E+03  0.44138921309E+03  0.17300000000E+03 0.  1.
         -6    1    1    2    0  503 -0.56361232809E+02 -0.11441161635E+03 -0.57009359616E+03  0.60926374822E+03  0.17300000000E+03 0.  1.
<mgrwt>
<rscale>  2 0.21493163E+03</rscale>
<asrwt>0</asrwt>
<pdfrwt beam="1">  1       21 0.73104062E-02 0.21493163E+03</pdfrwt>
<pdfrwt beam="2">  1       21 0.15432849E+00 0.21493163E+03</pdfrwt>
<totfact> 0.38397176E+04</totfact>
</mgrwt>
</event>
<event>
 4    1  0.4035350E+000  0.3042766E+03  0.7546771E-02  0.1083122E+00
         21   -1    0    0  503  502  0.00000000000E+00  0.00000000000E+00  0.11962011241E+03  0.11962011241E+03  0.00000000000E+00 0.  1.
         21   -1    0    0  501  503 -0.00000000000E+00 -0.00000000000E+00 -0.12114152655E+04  0.12114152655E+04  0.00000000000E+00 0.  1.
          6    1    1    2  501    0 -0.17164838754E+03 -0.18218693705E+03 -0.94581210304E+03  0.99355160069E+03  0.17300000000E+03 0.  1.
         -6    1    1    2    0  502  0.17164838754E+03  0.18218693705E+03 -0.14598305004E+03  0.33748377721E+03  0.17300000000E+03 0.  1.
<mgrwt>
<rscale>  2 0.30427660E+03</rscale>
<asrwt>0</asrwt>
<pdfrwt beam="1">  1       21 0.18403094E-01 0.30427660E+03</pdfrwt>
<pdfrwt beam="2">  1       21 0.18637158E+00 0.30427660E+03</pdfrwt>
<totfact> 0.40900884E+03</totfact>
</mgrwt>
</event>
<event>
 4    1  0.4035350E+000  0.2089103E+03  0.7546771E-02  0.1142432E+00
         21   -1    0    0  503  502  0.00000000000E+00  0.00000000000E+00  0.52636669023E+02  0.52636669023E+02  0.00000000000E+00 0.  1.
         21   -1    0    0  501  503 -0.00000000000E+00 -0.00000000000E+00 -0.86696979757E+03  0.86696979757E+03  0.00000000000E+00 0. -1.
          6    1    1    2  501    0  0.80617792784E+02  0.84942927473E+02 -0.50320555760E+03  0.54484801793E+03  0.17300000000E+03 0. -1.
         -6    1    1    2    0  502 -0.80617792784E+02 -0.84942927473E+02 -0.31112757094E+03  0.37475844866E+03  0.17300000000E+03 0.  1.
<mgrwt>
<rscale>  2 0.20891034E+03</rscale>
<asrwt>0</asrwt>
<pdfrwt beam="1">  1       21 0.80979493E-02 0.20891034E+03</pdfrwt>
<pdfrwt beam="2">  1       21 0.13337996E+00 0.20891034E+03</pdfrwt>
<totfact> 0.47168016E+04</totfact>
</mgrwt>
</event>
<event>
 4    1  0.4035350E+000  0.3879224E+03  0.7546771E-02  0.1048044E+00
         21   -1    0    0  501  502  0.00000000000E+00  0.00000000000E+00  0.10793734747E+04  0.10793734747E+04  0.00000000000E+00 0. -1.
         21   -1    0    0  502  503 -0.00000000000E+00 -0.00000000000E+00 -0.30490477805E+03  0.30490477805E+03  0.00000000000E+00 0.  1.
          6    1    1    2  501    0 -0.14671791697E+03  0.31468820954E+03  0.89714404367E+03  0.97742071365E+03  0.17300000000E+03 0. -1.
         -6    1    1    2    0  503  0.14671791697E+03 -0.31468820954E+03 -0.12267534699E+03  0.40685753912E+03  0.17300000000E+03 0.  1.
<mgrwt>
<rscale>  2 0.38792244E+03</rscale>
<asrwt>0</asrwt>
<pdfrwt beam="1">  1       21 0.16605746E+00 0.38792244E+03</pdfrwt>
<pdfrwt beam="2">  1       21 0.46908428E-01 0.38792244E+03</pdfrwt>
<totfact> 0.85553212E+02</totfact>
</mgrwt>
</event>
<event>
 4    1  0.4035350E+000  0.2239669E+03  0.7546771E-02  0.1130960E+00
         21   -1    0    0  503  502  0.00000000000E+00  0.00000000000E+00  0.20586175390E+02  0.20586175390E+02  0.00000000000E+00 0.  1.
         21   -1    0    0  501  503 -0.00000000000E+00 -0.00000000000E+00 -0.24605282306E+04  0.24605282306E+04  0.00000000000E+00 0.  1.
          6    1    1    2  501    0  0.12824628475E+03 -0.61522800660E+02 -0.10977445213E+04  0.11203589597E+04  0.17300000000E+03 0.  1.
         -6    1    1    2    0  502 -0.12824628475E+03  0.61522800660E+02 -0.13421975339E+04  0.13607554463E+04  0.17300000000E+03 0.  1.
<mgrwt>
<rscale>  2 0.22396688E+03</rscale>
<asrwt>0</asrwt>
<pdfrwt beam="1">  1       21 0.31671028E-02 0.22396688E+03</pdfrwt>
<pdfrwt beam="2">  1       21 0.37854294E+00 0.22396688E+03</pdfrwt>
<totfact> 0.65721989E+03</totfact>
</mgrwt>
</event>
<event>
 4    1  0.4035350E+000  0.2007025E+03  0.7546771E-02  0.1149148E+00
         21   -1    0    0  503  502  0.00000000000E+00  0.00000000000E+00  0.55278429551E+02  0.55278429551E+02  0.00000000000E+00 0. -1.
         21   -1    0    0  501  503 -0.00000000000E+00 -0.00000000000E+00 -0.10689573668E+04  0.10689573668E+04  0.00000000000E+00 0.  1.
          6    1    1    2  501    0  0.10939991745E+02 -0.10115730890E+03 -0.18970027567E+03  0.27616603548E+03  0.17300000000E+03 0. -1.
         -6    1    1    2    0  502 -0.10939991745E+02  0.10115730890E+03 -0.82397866161E+03  0.84806976090E+03  0.17300000000E+03 0.  1.
<mgrwt>
<rscale>  2 0.20070248E+03</rscale>
<asrwt>0</asrwt>
<pdfrwt beam="1">  1       21 0.85043744E-02 0.20070248E+03</pdfrwt>
<pdfrwt beam="2">  1       21 0.16445497E+00 0.20070248E+03</pdfrwt>
<totfact> 0.25066729E+04</totfact>
</mgrwt>
</event>
<event>
 4    1  0.4035350E+000  0.2212201E+03  0.7546771E-02  0.1132977E+00
         21   -1    0    0  503  502  0.00000000000E+00  0.00000000000E+00  0.28907408001E+03  0.28907408001E+03  0.00000000000E+00 0. -1.
         21   -1    0    0  501  503 -0.00000000000E+00 -0.00000000000E+00 -0.47319750814E+03  0.47319750814E+03  0.00000000000E+00 0.  1.
          6    1    1    2  501    0  0.46652213666E+01 -0.13779545901E+03 -0.39750230496E+03  0.45491365693E+03  0.17300000000E+03 0.  1.
         -6    1    1    2    0  502 -0.46652213666E+01  0.13779545901E+03  0.21337887683E+03  0.30735793123E+03  0.17300000000E+03 0. -1.
<mgrwt>
<rscale>  2 0.22122015E+03</rscale>
<asrwt>0</asrwt>
<pdfrwt beam="1">  1       21 0.44472936E-01 0.22122015E+03</pdfrwt>
<pdfrwt beam="2">  1       21 0.72799616E-01 0.22122015E+03</pdfrwt>
<totfact> 0.80859464E+03</totfact>
</mgrwt>
</event>
<event>
 4    1  0.4035350E+000  0.1887870E+03  0.7546771E-02  0.1159560E+00
         21   -1    0    0  501  502  0.00000000000E+00  0.00000000000E+00  0.33111146441E+02  0.33111146441E+02  0.00000000000E+00 0. -1.
         21   -1    0    0  502  503 -0.00000000000E+00 -0.00000000000E+00 -0.12380835251E+04  0.12380835251E+04  0.00000000000E+00 0. -1.
          6    1    1    2  501    0 -0.49994442430E+02  0.56675137217E+02 -0.83218199461E+03  0.85332724532E+03  0.17300000000E+03 0. -1.
         -6    1    1    2    0  503  0.49994442430E+02 -0.56675137217E+02 -0.37279038400E+03  0.41786742617E+03  0.17300000000E+03 0. -1.
<mgrwt>
<rscale>  2 0.18878696E+03</rscale>
<asrwt>0</asrwt>
<pdfrwt beam="1">  1       21 0.50940225E-02 0.18878696E+03</pdfrwt>
<pdfrwt beam="2">  1       21 0.19047439E+00 0.18878696E+03</pdfrwt>
<totfact> 0.40460736E+04</totfact>
</mgrwt>
</event>
<event>
 4    1  0.4035350E+000  0.3221650E+03  0.7546771E-02  0.1074657E+00
         21   -1    0    0  501  502  0.00000000000E+00  0.00000000000E+00  0.92659543355E+02  0.92659543355E+02  0.00000000000E+00 0.  1.
         21   -1    0    0  502  503 -0.00000000000E+00 -0.00000000000E+00 -0.13261840593E+04  0.13261840593E+04  0.00000000000E+00 0. -1.
          6    1    1    2  501    0 -0.23016912857E+03  0.14451104907E+03 -0.33712277861E+03  0.46630680770E+03  0.17300000000E+03 0.  1.
         -6    1    1    2    0  503  0.23016912857E+03 -0.14451104907E+03 -0.89640173738E+03  0.95253679500E+03  0.17300000000E+03 0. -1.
<mgrwt>
<rscale>  2 0.32216497E+03</rscale>
<asrwt>0</asrwt>
<pdfrwt beam="1">  1       21 0.14255313E-01 0.32216497E+03</pdfrwt>
<pdfrwt beam="2">  1       21 0.20402833E+00 0.32216497E+03</pdfrwt>
<totfact> 0.49586692E+03</totfact>
</mgrwt>
</event>
<event>
 4    1  0.4035350E+000  0.1913743E+03  0.7546771E-02  0.1157228E+00
         21   -1    0    0  503  502  0.00000000000E+00  0.00000000000E+00  0.52057494269E+03  0.52057494269E+03  0.00000000000E+00 0. -1.
         21   -1    0    0  501  503 -0.00000000000E+00 -0.00000000000E+00 -0.89923428319E+02  0.89923428319E+02  0.00000000000E+00 0. -1.
          6    1    1    2  501    0  0.78642273581E+02  0.22594204387E+02  0.72923721374E+02  0.20479739843E+03  0.17300000000E+03 0. -1.
         -6    1    1    2    0  502 -0.78642273581E+02 -0.22594204387E+02  0.35772779299E+03  0.40570097257E+03  0.17300000000E+03 0. -1.
<mgrwt>
<rscale>  2 0.19137425E+03</rscale>
<asrwt>0</asrwt>
<pdfrwt beam="1">  1       21 0.80088451E-01 0.19137425E+03</pdfrwt>
<pdfrwt beam="2">  1       21 0.13834374E-01 0.19137425E+03</pdfrwt>
<totfact> 0.62368360E+04</totfact>
</mgrwt>
</event>
<event>
 4    1  0.4035350E+000  0.1863906E+03  0.7546771E-02  0.1161758E+00
         21   -1    0    0  503  502  0.00000000000E+00  0.00000000000E+00  0.26872975257E+03  0.26872975257E+03  0.00000000000E+00 0.  1.
         21   -1    0    0  501  503 -0.00000000000E+00 -0.00000000000E+00 -0.19987699868E+03  0.19987699868E+03  0.00000000000E+00 0.  1.
          6    1    1    2  501    0  0.19144839522E+02  0.66677886213E+02 -0.10482173172E+03  0.21384354288E+03  0.17300000000E+03 0.  1.
         -6    1    1    2    0  502 -0.19144839522E+02 -0.66677886213E+02  0.17367448561E+03  0.25476320838E+03  0.17300000000E+03 0.  1.
<mgrwt>
<rscale>  2 0.18639063E+03</rscale>
<asrwt>0</asrwt>
<pdfrwt beam="1">  1       21 0.41343039E-01 0.18639063E+03</pdfrwt>
<pdfrwt beam="2">  1       21 0.30750307E-01 0.18639063E+03</pdfrwt>
<totfact> 0.57370524E+04</totfact>
</mgrwt>
</event>
<event>
 4    1  0.4035350E+000  0.2168067E+03  0.7546771E-02  0.1136286E+00
         21   -1    0    0  501  502  0.00000000000E+00  0.00000000000E+00  0.55103075316E+03  0.55103075316E+03  0.00000000000E+00 0. -1.
         21   -1    0    0  502  503 -0.00000000000E+00 -0.00000000000E+00 -0.85608180603E+02  0.85608180603E+02  0.00000000000E+00 0. -1.
          6    1    1    2  501    0  0.10903481570E+03 -0.72024536212E+02  0.21373660092E+03  0.30444779425E+03  0.17300000000E+03 0. -1.
         -6    1    1    2    0  503 -0.10903481570E+03  0.72024536212E+02  0.25168597163E+03  0.33219113951E+03  0.17300000000E+03 0. -1.
<mgrwt>
<rscale>  2 0.21680665E+03</rscale>
<asrwt>0</asrwt>
<pdfrwt beam="1">  1       21 0.84773960E-01 0.21680665E+03</pdfrwt>
<pdfrwt beam="2">  1       21 0.13170490E-01 0.21680665E+03</pdfrwt>
<totfact> 0.59180385E+04</totfact>
</mgrwt>
</event>
<event>
 4    1  0.4035350E+000  0.2205563E+03  0.7546771E-02  0.1133469E+00
         21   -1    0    0  503  502  0.00000000000E+00  0.00000000000E+00  0.47871456358E+02  0.47871456358E+02  0.00000000000E+00 0. -1.
         21   -1    0    0  501  503 -0.00000000000E+00 -0.00000000000E+00 -0.10166684603E+04  0.10166684603E+04  0.00000000000E+00 0.  1.
          6    1    1    2  501    0 -0.22030815063E+02  0.13502120144E+03 -0.49629637865E+03  0.54309776018E+03  0.17300000000E+03 0. -1.
         -6    1    1    2    0  502  0.22030815063E+02 -0.13502120144E+03 -0.47250062529E+03  0.52144215648E+03  0.17300000000E+03 0.  1.
<mgrwt>
<rscale>  2 0.22055630E+03</rscale>
<asrwt>0</asrwt>
<pdfrwt beam="1">  1       21 0.73648405E-02 0.22055630E+03</pdfrwt>
<pdfrwt beam="2">  1       21 0.15641051E+00 0.22055630E+03</pdfrwt>
<totfact> 0.36451985E+04</totfact>
</mgrwt>
</event>
<event>
 4    1  0.4035350E+000  0.2341765E+03  0.7546771E-02  0.1123734E+00
         21   -1    0    0  503  502  0.00000000000E+00  0.00000000000E+00  0.10813383237E+04  0.10813383237E+04  0.00000000000E+00 0.  1.
         21   -1    0    0  501  503 -0.00000000000E+00 -0.00000000000E+00 -0.58650201310E+02  0.58650201310E+02  0.00000000000E+00 0.  1.
          6    1    1    2  501    0  0.10713736145E+03 -0.11589315619E+03  0.72102117141E+03  0.75809641042E+03  0.17300000000E+03 0.  1.
         -6    1    1    2    0  502 -0.10713736145E+03  0.11589315619E+03  0.30166695096E+03  0.38189211457E+03  0.17300000000E+03 0.  1.
<mgrwt>
<rscale>  2 0.23417651E+03</rscale>
<asrwt>0</asrwt>
<pdfrwt beam="1">  1       21 0.16635973E+00 0.23417651E+03</pdfrwt>
<pdfrwt beam="2">  1       21 0.90231087E-02 0.23417651E+03</pdfrwt>
<totfact> 0.21432097E+04</totfact>
</mgrwt>
</event>
<event>
 4    1  0.4035350E+000  0.1921035E+03  0.7546771E-02  0.1156578E+00
         21   -1    0    0  503  502  0.00000000000E+00  0.00000000000E+00  0.23469815837E+03  0.23469815837E+03  0.00000000000E+00 0. -1.
         21   -1    0    0  501  503 -0.00000000000E+00 -0.00000000000E+00 -0.18168101239E+03  0.18168101239E+03  0.00000000000E+00 0. -1.
          6    1    1    2  501    0 -0.74398309088E+02  0.37942806133E+02 -0.49852213455E+02  0.19846664233E+03  0.17300000000E+03 0. -1.
         -6    1    1    2    0  502  0.74398309088E+02 -0.37942806133E+02  0.10286935944E+03  0.21791252842E+03  0.17300000000E+03 0. -1.
<mgrwt>
<rscale>  2 0.19210353E+03</rscale>
<asrwt>0</asrwt>
<pdfrwt beam="1">  1       21 0.36107409E-01 0.19210353E+03</pdfrwt>
<pdfrwt beam="2">  1       21 0.27950925E-01 0.19210353E+03</pdfrwt>
<totfact> 0.90448247E+04</totfact>
</mgrwt>
</event>
<event>
 4    1  0.4035350E+000  0.1802565E+03  0.7546771E-02  0.1167555E+00
         21   -1    0    0  503  502  0.00000000000E+00  0.00000000000E+00  0.34716572159E+03  0.34716572159E+03  0.00000000000E+00 0.  1.
         21   -1    0    0  501  503 -0.00000000000E+00 -0.00000000000E+00 -0.16915365825E+03  0.16915365825E+03  0.00000000000E+00 0.  1.
          6    1    1    2  501    0 -0.22102511844E+02 -0.45550820060E+02 -0.83535890717E+02  0.19867220056E+03  0.17300000000E+03 0.  1.
         -6    1    1    2    0  502  0.22102511844E+02  0.45550820060E+02  0.26154795406E+03  0.31764717929E+03  0.17300000000E+03 0.  1.
<mgrwt>
<rscale>  2 0.18025648E+03</rscale>
<asrwt>0</asrwt>
<pdfrwt beam="1">  1       21 0.53410111E-01 0.18025648E+03</pdfrwt>
<pdfrwt beam="2">  1       21 0.26023640E-01 0.18025648E+03</pdfrwt>
<totfact> 0.46826975E+04</totfact>
</mgrwt>
</event>
<event>
 4    1  0.4035350E+000  0.2183624E+03  0.7546771E-02  0.1135110E+00
         21   -1    0    0  501  502  0.00000000000E+00  0.00000000000E+00  0.18563717587E+03  0.18563717587E+03  0.00000000000E+00 0.  1.
         21   -1    0    0  502  503 -0.00000000000E+00 -0.00000000000E+00 -0.29536307212E+03  0.29536307212E+03  0.00000000000E+00 0.  1.
          6    1    1    2  501    0  0.12469716958E+03 -0.46944034865E+02  0.31973948517E+02  0.22069086953E+03  0.17300000000E+03 0.  1.
         -6    1    1    2    0  503 -0.12469716958E+03  0.46944034865E+02 -0.14169984477E+03  0.26030937847E+03  0.17300000000E+03 0.  1.
<mgrwt>
<rscale>  2 0.21836237E+03</rscale>
<asrwt>0</asrwt>
<pdfrwt beam="1">  1       21 0.28559566E-01 0.21836237E+03</pdfrwt>
<pdfrwt beam="2">  1       21 0.45440472E-01 0.21836237E+03</pdfrwt>
<totfact> 0.53812885E+04</totfact>
</mgrwt>
</event>
<event>
 4    1  0.4035350E+000  0.1789510E+03  0.7546771E-02  0.1168822E+00
         21   -1    0    0  503  502  0.00000000000E+00  0.00000000000E+00  0.11938570034E+03  0.11938570034E+03  0.00000000000E+00 0.  1.
         21   -1    0    0  501  503 -0.00000000000E+00 -0.00000000000E+00 -0.28012825091E+03  0.28012825091E+03  0.00000000000E+00 0.  1.
          6    1    1    2  501    0  0.34381568322E+02  0.30205421184E+02 -0.12153059863E+03  0.21631723489E+03  0.17300000000E+03 0. -1.
         -6    1    1    2    0  502 -0.34381568322E+02 -0.30205421184E+02 -0.39211951950E+02  0.18319671636E+03  0.17300000000E+03 0. -1.
<mgrwt>
<rscale>  2 0.17895100E+03</rscale>
<asrwt>0</asrwt>
<pdfrwt beam="1">  1       21 0.18367031E-01 0.17895100E+03</pdfrwt>
<pdfrwt beam="2">  1       21 0.43096654E-01 0.17895100E+03</pdfrwt>
<totfact> 0.14065889E+05</totfact>
</mgrwt>
</event>
<event>
 4    1  0.4035350E+000  0.2021910E+03  0.7546771E-02  0.1147904E+00
         21   -1    0    0  501  502  0.00000000000E+00  0.00000000000E+00  0.70287059100E+03  0.70287059100E+03  0.00000000000E+00 0.  1.
         21   -1    0    0  502  503 -0.00000000000E+00 -0.00000000000E+00 -0.75825207598E+02  0.75825207598E+02  0.00000000000E+00 0.  1.
          6    1    1    2  501    0 -0.48923298281E+02  0.92513300198E+02  0.50143322136E+03  0.54066299607E+03  0.17300000000E+03 0.  1.
         -6    1    1    2    0  503  0.48923298281E+02 -0.92513300198E+02  0.12561216203E+03  0.23803280253E+03  0.17300000000E+03 0.  1.
<mgrwt>
<rscale>  2 0.20219100E+03</rscale>
<asrwt>0</asrwt>
<pdfrwt beam="1">  1       21 0.10813393E+00 0.20219100E+03</pdfrwt>
<pdfrwt beam="2">  1       21 0.11665417E-01 0.20219100E+03</pdfrwt>
<totfact> 0.41797493E+04</totfact>
</mgrwt>
</event>
<event>
 4    1  0.4035350E+000  0.2316995E+03  0.7546771E-02  0.1125449E+00
         21   -1    0    0  501  502  0.00000000000E+00  0.00000000000E+00  0.56818666967E+03  0.56818666967E+03  0.00000000000E+00 0.  1.
         21   -1    0    0  502  503 -0.00000000000E+00 -0.00000000000E+00 -0.24427680574E+03  0.24427680574E+03  0.00000000000E+00 0. -1.
          6    1    1    2  501    0  0.10853220619E+03  0.10943692808E+03  0.48006533809E+03  0.53305479065E+03  0.17300000000E+03 0.  1.
         -6    1    1    2    0  503 -0.10853220619E+03 -0.10943692808E+03 -0.15615547416E+03  0.27940868476E+03  0.17300000000E+03 0.  1.
<mgrwt>
<rscale>  2 0.23169955E+03</rscale>
<asrwt>0</asrwt>
<pdfrwt beam="1">  1       21 0.87413334E-01 0.23169955E+03</pdfrwt>
<pdfrwt beam="2">  1       21 0.37581047E-01 0.23169955E+03</pdfrwt>
<totfact> 0.74688355E+03</totfact>
</mgrwt>
</event>
<event>
 4    1  0.4035350E+000  0.2354590E+03  0.7546771E-02  0.1122855E+00
         21   -1    0    0  503  502  0.00000000000E+00  0.00000000000E+00  0.58895169608E+03  0.58895169608E+03  0.00000000000E+00 0.  1.
         21   -1    0    0  501  503 -0.00000000000E+00 -0.00000000000E+00 -0.10824248386E+03  0.10824248386E+03  0.00000000000E+00 0. -1.
          6    1    1    2  501    0  0.10845898277E+03  0.11725443586E+03  0.11450552877E+03  0.26182526576E+03  0.17300000000E+03 0. -1.
         -6    1    1    2    0  502 -0.10845898277E+03 -0.11725443586E+03  0.36620368345E+03  0.43536891419E+03  0.17300000000E+03 0.  1.
<mgrwt>
<rscale>  2 0.23545903E+03</rscale>
<asrwt>0</asrwt>
<pdfrwt beam="1">  1       21 0.90607951E-01 0.23545903E+03</pdfrwt>
<pdfrwt beam="2">  1       21 0.16652690E-01 0.23545903E+03</pdfrwt>
<totfact> 0.32774722E+04</totfact>
</mgrwt>
</event>
<event>
 4    1  0.4035350E+000  0.2019467E+03  0.7546771E-02  0.1148107E+00
         21   -1    0    0  503  502  0.00000000000E+00  0.00000000000E+00  0.32651337532E+03  0.32651337532E+03  0.00000000000E+00 0.  1.
         21   -1    0    0  501  503 -0.00000000000E+00 -0.00000000000E+00 -0.23073598877E+03  0.23073598877E+03  0.00000000000E+00 0.  1.
          6    1    1    2  501    0  0.27202213804E+02 -0.10056604259E+03 -0.14081157378E+03  0.24619177214E+03  0.17300000000E+03 0.  1.
         -6    1    1    2    0  502 -0.27202213804E+02  0.10056604259E+03  0.23658896033E+03  0.31105759195E+03  0.17300000000E+03 0.  1.
<mgrwt>
<rscale>  2 0.20194675E+03</rscale>
<asrwt>0</asrwt>
<pdfrwt beam="1">  1       21 0.50232827E-01 0.20194675E+03</pdfrwt>
<pdfrwt beam="2">  1       21 0.35497844E-01 0.20194675E+03</pdfrwt>
<totfact> 0.28725786E+04</totfact>
</mgrwt>
</event>
<event>
 4    1  0.4035350E+000  0.1983430E+03  0.7546771E-02  0.1151145E+00
         21   -1    0    0  501  502  0.00000000000E+00  0.00000000000E+00  0.12486957681E+03  0.12486957681E+03  0.00000000000E+00 0.  1.
         21   -1    0    0  502  503 -0.00000000000E+00 -0.00000000000E+00 -0.35512498172E+03  0.35512498172E+03  0.00000000000E+00 0. -1.
          6    1    1    2  501    0  0.74779611172E+02 -0.61797794405E+02 -0.34504292794E+02  0.20132189116E+03  0.17300000000E+03 0. -1.
         -6    1    1    2    0  503 -0.74779611172E+02  0.61797794405E+02 -0.19575111212E+03  0.27867266737E+03  0.17300000000E+03 0.  1.
<mgrwt>
<rscale>  2 0.19834303E+03</rscale>
<asrwt>0</asrwt>
<pdfrwt beam="1">  1       21 0.19210704E-01 0.19834303E+03</pdfrwt>
<pdfrwt beam="2">  1       21 0.54634612E-01 0.19834303E+03</pdfrwt>
<totfact> 0.78520977E+04</totfact>
</mgrwt>
</event>
<event>
 4    1  0.4035350E+000  0.1745137E+03  0.7546771E-02  0.1173221E+00
         21   -1    0    0  503  502  0.00000000000E+00  0.00000000000E+00  0.53632072360E+03  0.53632072360E+03  0.00000000000E+00 0. -1.
         21   -1    0    0  501  503 -0.00000000000E+00 -0.00000000000E+00 -0.67591245013E+02  0.67591245013E+02  0.00000000000E+00 0. -1.
          6    1    1    2  501    0  0.81411091712E+01  0.21442063912E+02  0.11362970911E+03  0.20824685005E+03  0.17300000000E+03 0. -1.
         -6    1    1    2    0  502 -0.81411091712E+01 -0.21442063912E+02  0.35509976948E+03  0.39566511856E+03  0.17300000000E+03 0. -1.
<mgrwt>
<rscale>  2 0.17451372E+03</rscale>
<asrwt>0</asrwt>
<pdfrwt beam="1">  1       21 0.82510878E-01 0.17451372E+03</pdfrwt>
<pdfrwt beam="2">  1       21 0.10398653E-01 0.17451372E+03</pdfrwt>
<totfact> 0.97812836E+04</totfact>
</mgrwt>
</event>
<event>
 4    1  0.4035350E+000  0.1936933E+03  0.7546771E-02  0.1155172E+00
         21   -1    0    0  501  502  0.00000000000E+00  0.00000000000E+00  0.55858709264E+03  0.55858709264E+03  0.00000000000E+00 0. -1.
         21   -1    0    0  502  503 -0.00000000000E+00 -0.00000000000E+00 -0.69100533821E+02  0.69100533821E+02  0.00000000000E+00 0. -1.
          6    1    1    2  501    0 -0.12444685683E+02 -0.86216145437E+02  0.29727906258E+03  0.35481253499E+03  0.17300000000E+03 0. -1.
         -6    1    1    2    0  503  0.12444685683E+02  0.86216145437E+02  0.19220749623E+03  0.27287509147E+03  0.17300000000E+03 0. -1.
<mgrwt>
<rscale>  2 0.19369330E+03</rscale>
<asrwt>0</asrwt>
<pdfrwt beam="1">  1       21 0.85936473E-01 0.19369330E+03</pdfrwt>
<pdfrwt beam="2">  1       21 0.10630852E-01 0.19369330E+03</pdfrwt>
<totfact> 0.85056781E+04</totfact>
</mgrwt>
</event>
<event>
 4    1  0.4035350E+000  0.1756824E+03  0.7546771E-02  0.1172048E+00
         21   -1    0    0  501  502  0.00000000000E+00  0.00000000000E+00  0.96949514856E+02  0.96949514856E+02  0.00000000000E+00 0.  1.
         21   -1    0    0  502  503 -0.00000000000E+00 -0.00000000000E+00 -0.32270070194E+03  0.32270070194E+03  0.00000000000E+00 0.  1.
          6    1    1    2  501    0 -0.29726493041E+02 -0.71863625254E+01 -0.13722652690E+03  0.22292471348E+03  0.17300000000E+03 0.  1.
         -6    1    1    2    0  503  0.29726493041E+02  0.71863625254E+01 -0.88524660181E+02  0.19672550332E+03  0.17300000000E+03 0.  1.
<mgrwt>
<rscale>  2 0.17568241E+03</rscale>
<asrwt>0</asrwt>
<pdfrwt beam="1">  1       21 0.14915310E-01 0.17568241E+03</pdfrwt>
<pdfrwt beam="2">  1       21 0.49646262E-01 0.17568241E+03</pdfrwt>
<totfact> 0.15412278E+05</totfact>
</mgrwt>
</event>
<event>
 4    1  0.4035350E+000  0.1785987E+03  0.7546771E-02  0.1169166E+00
         21   -1    0    0  503  502  0.00000000000E+00  0.00000000000E+00  0.46323021152E+02  0.46323021152E+02  0.00000000000E+00 0.  1.
         21   -1    0    0  501  503 -0.00000000000E+00 -0.00000000000E+00 -0.80774905384E+03  0.80774905384E+03  0.00000000000E+00 0.  1.
          6    1    1    2  501    0  0.62972079606E+01 -0.43918687112E+02 -0.54473131703E+03  0.57326234279E+03  0.17300000000E+03 0.  1.
         -6    1    1    2    0  502 -0.62972079606E+01  0.43918687112E+02 -0.21669471566E+03  0.28080973220E+03  0.17300000000E+03 0.  1.
<mgrwt>
<rscale>  2 0.17859873E+03</rscale>
<asrwt>0</asrwt>
<pdfrwt beam="1">  1       21 0.71266195E-02 0.17859873E+03</pdfrwt>
<pdfrwt beam="2">  1       21 0.12426907E+00 0.17859873E+03</pdfrwt>
<totfact> 0.71472281E+04</totfact>
</mgrwt>
</event>
<event>
 4    1  0.4035350E+000  0.2021586E+03  0.7546771E-02  0.1147931E+00
         21   -1    0    0  501  502  0.00000000000E+00  0.00000000000E+00  0.84918221342E+03  0.84918221342E+03  0.00000000000E+00 0. -1.
         21   -1    0    0  502  503 -0.00000000000E+00 -0.00000000000E+00 -0.48506604358E+02  0.48506604358E+02  0.00000000000E+00 0. -1.
          6    1    1    2  501    0  0.22640105554E+02 -0.10211026085E+03  0.44007580681E+03  0.48428792622E+03  0.17300000000E+03 0. -1.
         -6    1    1    2    0  503 -0.22640105554E+02  0.10211026085E+03  0.36059980225E+03  0.41340089155E+03  0.17300000000E+03 0. -1.
<mgrwt>
<rscale>  2 0.20215855E+03</rscale>
<asrwt>0</asrwt>
<pdfrwt beam="1">  1       21 0.13064341E+00 0.20215855E+03</pdfrwt>
<pdfrwt beam="2">  1       21 0.74625552E-02 0.20215855E+03</pdfrwt>
<totfact> 0.57517724E+04</totfact>
</mgrwt>
</event>
<event>
 4    1  0.4035350E+000  0.2329804E+03  0.7546771E-02  0.1124559E+00
         21   -1    0    0  503  502  0.00000000000E+00  0.00000000000E+00  0.49891080785E+02  0.49891080785E+02  0.00000000000E+00 0. -1.
         21   -1    0    0  501  503 -0.00000000000E+00 -0.00000000000E+00 -0.11055490392E+04  0.11055490392E+04  0.00000000000E+00 0. -1.
          6    1    1    2  501    0 -0.10872306096E+02 -0.15566844358E+03 -0.60068369173E+03  0.64428314341E+03  0.17300000000E+03 0. -1.
         -6    1    1    2    0  502  0.10872306096E+02  0.15566844358E+03 -0.45497426672E+03  0.51115697662E+03  0.17300000000E+03 0. -1.
<mgrwt>
<rscale>  2 0.23298041E+03</rscale>
<asrwt>0</asrwt>
<pdfrwt beam="1">  1       21 0.76755512E-02 0.23298041E+03</pdfrwt>
<pdfrwt beam="2">  1       21 0.17008446E+00 0.23298041E+03</pdfrwt>
<totfact> 0.26785762E+04</totfact>
</mgrwt>
</event>
<event>
 4    1  0.4035350E+000  0.2015291E+03  0.7546771E-02  0.1148455E+00
         21   -1    0    0  501  502  0.00000000000E+00  0.00000000000E+00  0.67072798573E+03  0.67072798573E+03  0.00000000000E+00 0.  1.
         21   -1    0    0  502  503 -0.00000000000E+00 -0.00000000000E+00 -0.88466772192E+02  0.88466772192E+02  0.00000000000E+00 0. -1.
          6    1    1    2  501    0  0.99839481286E+02  0.26777943753E+02  0.50436117800E+03  0.54313366510E+03  0.17300000000E+03 0.  1.
         -6    1    1    2    0  503 -0.99839481286E+02 -0.26777943753E+02  0.77900035547E+02  0.21606109283E+03  0.17300000000E+03 0. -1.
<mgrwt>
<rscale>  2 0.20152911E+03</rscale>
<asrwt>0</asrwt>
<pdfrwt beam="1">  1       21 0.10318892E+00 0.20152911E+03</pdfrwt>
<pdfrwt beam="2">  1       21 0.13610273E-01 0.20152911E+03</pdfrwt>
<totfact> 0.35468596E+04</totfact>
</mgrwt>
</event>
<event>
 4    1  0.4035350E+000  0.2266810E+03  0.7546771E-02  0.1128998E+00
         21   -1    0    0  503  502  0.00000000000E+00  0.00000000000E+00  0.97049698251E+03  0.97049698251E+03  0.00000000000E+00 0. -1.
         21   -1    0    0  501  503 -0.00000000000E+00 -0.00000000000E+00 -0.85201865949E+02  0.85201865949E+02  0.00000000000E+00 0.  1.
          6    1    1    2  501    0 -0.14354993207E+03  0.29132462110E+02  0.11786894489E+03  0.25549436690E+03  0.17300000000E+03 0.  1.
         -6    1    1    2    0  502  0.14354993207E+03 -0.29132462110E+02  0.76742617167E+03  0.80020448156E+03  0.17300000000E+03 0. -1.
<mgrwt>
<rscale>  2 0.22668102E+03</rscale>
<asrwt>0</asrwt>
<pdfrwt beam="1">  1       21 0.14930722E+00 0.22668102E+03</pdfrwt>
<pdfrwt beam="2">  1       21 0.13107980E-01 0.22668102E+03</pdfrwt>
<totfact> 0.14807262E+04</totfact>
</mgrwt>
</event>
<event>
 4    1  0.4035350E+000  0.1782765E+03  0.7546771E-02  0.1169482E+00
         21   -1    0    0  503  502  0.00000000000E+00  0.00000000000E+00  0.82815030576E+02  0.82815030576E+02  0.00000000000E+00 0. -1.
         21   -1    0    0  501  503 -0.00000000000E+00 -0.00000000000E+00 -0.40010342753E+03  0.40010342753E+03  0.00000000000E+00 0.  1.
          6    1    1    2  501    0 -0.39882061754E+02 -0.16215347952E+02 -0.20741964676E+03  0.27350580656E+03  0.17300000000E+03 0. -1.
         -6    1    1    2    0  502  0.39882061754E+02  0.16215347952E+02 -0.10986875019E+03  0.20941265155E+03  0.17300000000E+03 0. -1.
<mgrwt>
<rscale>  2 0.17827652E+03</rscale>
<asrwt>0</asrwt>
<pdfrwt beam="1">  1       21 0.12740774E-01 0.17827652E+03</pdfrwt>
<pdfrwt beam="2">  1       21 0.61554373E-01 0.17827652E+03</pdfrwt>
<totfact> 0.12991205E+05</totfact>
</mgrwt>
</event>
<event>
 4    1  0.4035350E+000  0.1790527E+03  0.7546771E-02  0.1168723E+00
         21   -1    0    0  503  502  0.00000000000E+00  0.00000000000E+00  0.66207003643E+02  0.66207003643E+02  0.00000000000E+00 0.  1.
         21   -1    0    0  501  503 -0.00000000000E+00 -0.00000000000E+00 -0.48439135016E+03  0.48439135016E+03  0.00000000000E+00 0.  1.
          6    1    1    2  501    0 -0.19477935077E+02 -0.41850668378E+02 -0.20417490255E+03  0.27156446607E+03  0.17300000000E+03 0.  1.
         -6    1    1    2    0  502  0.19477935077E+02  0.41850668378E+02 -0.21400944397E+03  0.27903388774E+03  0.17300000000E+03 0.  1.
<mgrwt>
<rscale>  2 0.17905270E+03</rscale>
<asrwt>0</asrwt>
<pdfrwt beam="1">  1       21 0.10185693E-01 0.17905270E+03</pdfrwt>
<pdfrwt beam="2">  1       21 0.74521744E-01 0.17905270E+03</pdfrwt>
<totfact> 0.12730343E+05</totfact>
</mgrwt>
</event>
<event>
 4    1  0.4035350E+000  0.2114200E+03  0.7546771E-02  0.1140446E+00
         21   -1    0    0  501  502  0.00000000000E+00  0.00000000000E+00  0.15552729002E+03  0.15552729002E+03  0.00000000000E+00 0. -1.
         21   -1    0    0  502  503 -0.00000000000E+00 -0.00000000000E+00 -0.29312110811E+03  0.29312110811E+03  0.00000000000E+00 0. -1.
          6    1    1    2  501    0 -0.11135543479E+03 -0.48676489167E+02 -0.37455434481E+02  0.21471223306E+03  0.17300000000E+03 0. -1.
         -6    1    1    2    0  503  0.11135543479E+03  0.48676489167E+02 -0.10013838361E+03  0.23393616507E+03  0.17300000000E+03 0. -1.
<mgrwt>
<rscale>  2 0.21142004E+03</rscale>
<asrwt>0</asrwt>
<pdfrwt beam="1">  1       21 0.23927275E-01 0.21142004E+03</pdfrwt>
<pdfrwt beam="2">  1       21 0.45095555E-01 0.21142004E+03</pdfrwt>
<totfact> 0.77064473E+04</totfact>
</mgrwt>
</event>
<event>
 4    1  0.4035350E+000  0.2551934E+03  0.7546771E-02  0.1110066E+00
         21   -1    0    0  503  502  0.00000000000E+00  0.00000000000E+00  0.47945067954E+03  0.47945067954E+03  0.00000000000E+00 0.  1.
         21   -1    0    0  501  503 -0.00000000000E+00 -0.00000000000E+00 -0.51524682285E+03  0.51524682285E+03  0.00000000000E+00 0. -1.
          6    1    1    2  501    0 -0.89616693595E+02  0.16481354377E+03 -0.44468569545E+03  0.51270754209E+03  0.17300000000E+03 0. -1.
         -6    1    1    2    0  502  0.89616693595E+02 -0.16481354377E+03  0.40888955214E+03  0.48198996030E+03  0.17300000000E+03 0.  1.
<mgrwt>
<rscale>  2 0.25519337E+03</rscale>
<asrwt>0</asrwt>
<pdfrwt beam="1">  1       21 0.73761642E-01 0.25519337E+03</pdfrwt>
<pdfrwt beam="2">  1       21 0.79268743E-01 0.25519337E+03</pdfrwt>
<totfact> 0.22053361E+03</totfact>
</mgrwt>
</event>
<event>
 4    1  0.4035350E+000  0.1881633E+03  0.7546771E-02  0.1160128E+00
         21   -1    0    0  501  502  0.00000000000E+00  0.00000000000E+00  0.22180698142E+02  0.22180698142E+02  0.00000000000E+00 0.  1.
         21   -1    0    0  502  503 -0.00000000000E+00 -0.00000000000E+00 -0.19057944411E+04  0.19057944411E+04  0.00000000000E+00 0.  1.
          6    1    1    2  501    0 -0.74534354107E+01 -0.73626547436E+02 -0.55328876090E+03  0.58440899644E+03  0.17300000000E+03 0. -1.
         -6    1    1    2    0  503  0.74534354107E+01  0.73626547436E+02 -0.13303249821E+04  0.13435661428E+04  0.17300000000E+03 0. -1.
<mgrwt>
<rscale>  2 0.18816329E+03</rscale>
<asrwt>0</asrwt>
<pdfrwt beam="1">  1       21 0.34124136E-02 0.18816329E+03</pdfrwt>
<pdfrwt beam="2">  1       21 0.29319928E+00 0.18816329E+03</pdfrwt>
<totfact> 0.19171906E+04</totfact>
</mgrwt>
</event>
<event>
 4    1  0.4035350E+000  0.1732899E+03  0.7546771E-02  0.1174460E+00
         21   -1    0    0  503  502  0.00000000000E+00  0.00000000000E+00  0.66953117143E+03  0.66953117143E+03  0.00000000000E+00 0.  1.
         21   -1    0    0  501  503 -0.00000000000E+00 -0.00000000000E+00 -0.11482305677E+03  0.11482305677E+03  0.00000000000E+00 0.  1.
          6    1    1    2  501    0 -0.19616479780E+01 -0.98248989352E+01 -0.28792181962E+02  0.17566549588E+03  0.17300000000E+03 0.  1.
         -6    1    1    2    0  502  0.19616479780E+01  0.98248989352E+01  0.58350029662E+03  0.60868873232E+03  0.17300000000E+03 0.  1.
<mgrwt>
<rscale>  2 0.17328986E+03</rscale>
<asrwt>0</asrwt>
<pdfrwt beam="1">  1       21 0.10300479E+00 0.17328986E+03</pdfrwt>
<pdfrwt beam="2">  1       21 0.17665086E-01 0.17328986E+03</pdfrwt>
<totfact> 0.22502572E+04</totfact>
</mgrwt>
</event>
<event>
 4    1  0.4035350E+000  0.2298386E+03  0.7546771E-02  0.1126753E+00
         21   -1    0    0  503  502  0.00000000000E+00  0.00000000000E+00  0.56949031550E+02  0.56949031550E+02  0.00000000000E+00 0. -1.
         21   -1    0    0  501  503 -0.00000000000E+00 -0.00000000000E+00 -0.11655611253E+04  0.11655611253E+04  0.00000000000E+00 0. -1.
          6    1    1    2  501    0  0.13310105803E+03 -0.71978515222E+02 -0.83049731057E+03  0.86171432689E+03  0.17300000000E+03 0. -1.
         -6    1    1    2    0  502 -0.13310105803E+03  0.71978515222E+02 -0.27811478322E+03  0.36079583001E+03  0.17300000000E+03 0. -1.
<mgrwt>
<rscale>  2 0.22983864E+03</rscale>
<asrwt>0</asrwt>
<pdfrwt beam="1">  1       21 0.87613892E-02 0.22983864E+03</pdfrwt>
<pdfrwt beam="2">  1       21 0.17931710E+00 0.22983864E+03</pdfrwt>
<totfact> 0.18352789E+04</totfact>
</mgrwt>
</event>
<event>
 4    1  0.4035350E+000  0.2416837E+03  0.7546771E-02  0.1118676E+00
         21   -1    0    0  503  502  0.00000000000E+00  0.00000000000E+00  0.16486092739E+03  0.16486092739E+03  0.00000000000E+00 0.  1.
         21   -1    0    0  501  503 -0.00000000000E+00 -0.00000000000E+00 -0.41256041417E+03  0.41256041417E+03  0.00000000000E+00 0. -1.
          6    1    1    2  501    0 -0.14401318631E+03  0.87989899537E+02 -0.23233929097E+03  0.33525000579E+03  0.17300000000E+03 0. -1.
         -6    1    1    2    0  502  0.14401318631E+03 -0.87989899537E+02 -0.15360195810E+02  0.24217133577E+03  0.17300000000E+03 0.  1.
<mgrwt>
<rscale>  2 0.24168372E+03</rscale>
<asrwt>0</asrwt>
<pdfrwt beam="1">  1       21 0.25363220E-01 0.24168372E+03</pdfrwt>
<pdfrwt beam="2">  1       21 0.63470833E-01 0.24168372E+03</pdfrwt>
<totfact> 0.32997046E+04</totfact>
</mgrwt>
</event>
<event>
 4    1  0.4035350E+000  0.1876296E+03  0.7546771E-02  0.1160617E+00
         21   -1    0    0  501  502  0.00000000000E+00  0.00000000000E+00  0.20672698939E+03  0.20672698939E+03  0.00000000000E+00 0. -1.
         21   -1    0    0  502  503 -0.00000000000E+00 -0.00000000000E+00 -0.31531642193E+03  0.31531642193E+03  0.00000000000E+00 0. -1.
          6    1    1    2  501    0  0.36968369947E+02 -0.62523613831E+02  0.12272323389E+03  0.22420047904E+03  0.17300000000E+03 0. -1.
         -6    1    1    2    0  503 -0.36968369947E+02  0.62523613831E+02 -0.23131266643E+03  0.29784293229E+03  0.17300000000E+03 0. -1.
<mgrwt>
<rscale>  2 0.18762959E+03</rscale>
<asrwt>0</asrwt>
<pdfrwt beam="1">  1       21 0.31804152E-01 0.18762959E+03</pdfrwt>
<pdfrwt beam="2">  1       21 0.48510219E-01 0.18762959E+03</pdfrwt>
<totfact> 0.38672890E+04</totfact>
</mgrwt>
</event>
<event>
 4    1  0.4035350E+000  0.1797946E+03  0.7546771E-02  0.1168002E+00
         21   -1    0    0  503  502  0.00000000000E+00  0.00000000000E+00  0.13259806951E+02  0.13259806951E+02  0.00000000000E+00 0.  1.
         21   -1    0    0  501  503 -0.00000000000E+00 -0.00000000000E+00 -0.35510172382E+04  0.35510172382E+04  0.00000000000E+00 0.  1.
          6    1    1    2  501    0  0.36429884921E+02  0.32710212350E+02 -0.27666600103E+04  0.27724959345E+04  0.17300000000E+03 0.  1.
         -6    1    1    2    0  502 -0.36429884921E+02 -0.32710212350E+02 -0.77109742092E+03  0.79178111057E+03  0.17300000000E+03 0.  1.
<mgrwt>
<rscale>  2 0.17979459E+03</rscale>
<asrwt>0</asrwt>
<pdfrwt beam="1">  1       21 0.20399689E-02 0.17979459E+03</pdfrwt>
<pdfrwt beam="2">  1       21 0.54631073E+00 0.17979459E+03</pdfrwt>
<totfact> 0.10650721E+03</totfact>
</mgrwt>
</event>
<event>
 4    1  0.4035350E+000  0.1913494E+03  0.7546771E-02  0.1157250E+00
         21   -1    0    0  501  502  0.00000000000E+00  0.00000000000E+00  0.10057435647E+03  0.10057435647E+03  0.00000000000E+00 0.  1.
         21   -1    0    0  502  503 -0.00000000000E+00 -0.00000000000E+00 -0.38798087193E+03  0.38798087193E+03  0.00000000000E+00 0.  1.
          6    1    1    2  501    0 -0.63595965203E+02 -0.51391982810E+02 -0.20436483831E+03  0.27996351517E+03  0.17300000000E+03 0.  1.
         -6    1    1    2    0  503  0.63595965203E+02  0.51391982810E+02 -0.83041677152E+02  0.20859171324E+03  0.17300000000E+03 0.  1.
<mgrwt>
<rscale>  2 0.19134937E+03</rscale>
<asrwt>0</asrwt>
<pdfrwt beam="1">  1       21 0.15472978E-01 0.19134937E+03</pdfrwt>
<pdfrwt beam="2">  1       21 0.59689365E-01 0.19134937E+03</pdfrwt>
<totfact> 0.97183949E+04</totfact>
</mgrwt>
</event>
<event>
 4    1  0.4035350E+000  0.2277135E+03  0.7546771E-02  0.1128260E+00
         21   -1    0    0  501  502  0.00000000000E+00  0.00000000000E+00  0.84465113133E+03  0.84465113133E+03  0.00000000000E+00 0.  1.
         21   -1    0    0  502  503 -0.00000000000E+00 -0.00000000000E+00 -0.65875502547E+02  0.65875502547E+02  0.00000000000E+00 0.  1.
          6    1    1    2  501    0 -0.14803895467E+03  0.29821713707E+01  0.27059519012E+03  0.35365969853E+03  0.17300000000E+03 0.  1.
         -6    1    1    2    0  503  0.14803895467E+03 -0.29821713707E+01  0.50818043865E+03  0.55686693534E+03  0.17300000000E+03 0.  1.
<mgrwt>
<rscale>  2 0.22771347E+03</rscale>
<asrwt>0</asrwt>
<pdfrwt beam="1">  1       21 0.12994632E+00 0.22771347E+03</pdfrwt>
<pdfrwt beam="2">  1       21 0.10134693E-01 0.22771347E+03</pdfrwt>
<totfact> 0.33622030E+04</totfact>
</mgrwt>
</event>
<event>
 4    1  0.4035350E+000  0.2319659E+03  0.7546771E-02  0.1125264E+00
         21   -1    0    0  501  502  0.00000000000E+00  0.00000000000E+00  0.56935198642E+03  0.56935198642E+03  0.00000000000E+00 0. -1.
         21   -1    0    0  502  503 -0.00000000000E+00 -0.00000000000E+00 -0.11310180156E+03  0.11310180156E+03  0.00000000000E+00 0.  1.
          6    1    1    2  501    0 -0.98644200424E+02  0.11894737721E+03  0.36648041905E+03  0.43372347685E+03  0.17300000000E+03 0. -1.
         -6    1    1    2    0  503  0.98644200424E+02 -0.11894737721E+03  0.89769765808E+02  0.24873031113E+03  0.17300000000E+03 0.  1.
<mgrwt>
<rscale>  2 0.23196585E+03</rscale>
<asrwt>0</asrwt>
<pdfrwt beam="1">  1       21 0.87592612E-01 0.23196585E+03</pdfrwt>
<pdfrwt beam="2">  1       21 0.17400277E-01 0.23196585E+03</pdfrwt>
<totfact> 0.32745217E+04</totfact>
</mgrwt>
</event>
<event>
 4    1  0.4035350E+000  0.3627375E+03  0.7546771E-02  0.1057505E+00
         21   -1    0    0  503  502  0.00000000000E+00  0.00000000000E+00  0.94655262197E+02  0.94655262197E+02  0.00000000000E+00 0.  1.
         21   -1    0    0  501  503 -0.00000000000E+00 -0.00000000000E+00 -0.16372965650E+04  0.16372965650E+04  0.00000000000E+00 0. -1.
          6    1    1    2  501    0  0.91151827647E+02  0.30551734151E+03 -0.11078166127E+04  0.11656912752E+04  0.17300000000E+03 0. -1.
         -6    1    1    2    0  502 -0.91151827647E+02 -0.30551734151E+03 -0.43482469006E+03  0.56626055198E+03  0.17300000000E+03 0.  1.
<mgrwt>
<rscale>  2 0.36273751E+03</rscale>
<asrwt>0</asrwt>
<pdfrwt beam="1">  1       21 0.14562349E-01 0.36273751E+03</pdfrwt>
<pdfrwt beam="2">  1       21 0.25189177E+00 0.36273751E+03</pdfrwt>
<totfact> 0.23393172E+03</totfact>
</mgrwt>
</event>
<event>
 4    1  0.4035350E+000  0.2243350E+03  0.7546771E-02  0.1130692E+00
         21   -1    0    0  503  502  0.00000000000E+00  0.00000000000E+00  0.46594895295E+03  0.46594895295E+03  0.00000000000E+00 0.  1.
         21   -1    0    0  501  503 -0.00000000000E+00 -0.00000000000E+00 -0.13983992674E+03  0.13983992674E+03  0.00000000000E+00 0. -1.
          6    1    1    2  501    0 -0.11266151556E+03  0.87775835366E+02  0.18541427932E+02  0.22509997537E+03  0.17300000000E+03 0. -1.
         -6    1    1    2    0  502  0.11266151556E+03 -0.87775835366E+02  0.30756759828E+03  0.38068890432E+03  0.17300000000E+03 0.  1.
<mgrwt>
<rscale>  2 0.22433505E+03</rscale>
<asrwt>0</asrwt>
<pdfrwt beam="1">  1       21 0.71684454E-01 0.22433505E+03</pdfrwt>
<pdfrwt beam="2">  1       21 0.21513835E-01 0.22433505E+03</pdfrwt>
<totfact> 0.34818245E+04</totfact>
</mgrwt>
</event>
<event>
 4    1  0.4035350E+000  0.2186394E+03  0.7546771E-02  0.1134901E+00
         21   -1    0    0  503  502  0.00000000000E+00  0.00000000000E+00  0.60389375151E+03  0.60389375151E+03  0.00000000000E+00 0. -1.
         21   -1    0    0  501  503 -0.00000000000E+00 -0.00000000000E+00 -0.90783382976E+02  0.90783382976E+02  0.00000000000E+00 0.  1.
          6    1    1    2  501    0 -0.10936846319E+03  0.76894373768E+02  0.38084850016E+03  0.43914551749E+03  0.17300000000E+03 0. -1.
         -6    1    1    2    0  502  0.10936846319E+03 -0.76894373768E+02  0.13226186838E+03  0.25553161700E+03  0.17300000000E+03 0.  1.
<mgrwt>
<rscale>  2 0.21863944E+03</rscale>
<asrwt>0</asrwt>
<pdfrwt beam="1">  1       21 0.92906728E-01 0.21863944E+03</pdfrwt>
<pdfrwt beam="2">  1       21 0.13966675E-01 0.21863944E+03</pdfrwt>
<totfact> 0.43001383E+04</totfact>
</mgrwt>
</event>
<event>
 4    1  0.4035350E+000  0.2282454E+03  0.7546771E-02  0.1127881E+00
         21   -1    0    0  501  502  0.00000000000E+00  0.00000000000E+00  0.25353723353E+03  0.25353723353E+03  0.00000000000E+00 0. -1.
         21   -1    0    0  502  503 -0.00000000000E+00 -0.00000000000E+00 -0.21778644550E+03  0.21778644550E+03  0.00000000000E+00 0.  1.
          6    1    1    2  501    0 -0.90228950360E+02  0.11843011429E+03 -0.38152082726E+02  0.23141204997E+03  0.17300000000E+03 0.  1.
         -6    1    1    2    0  503  0.90228950360E+02 -0.11843011429E+03  0.73902870753E+02  0.23991162906E+03  0.17300000000E+03 0.  1.
<mgrwt>
<rscale>  2 0.22824538E+03</rscale>
<asrwt>0</asrwt>
<pdfrwt beam="1">  1       21 0.39005728E-01 0.22824538E+03</pdfrwt>
<pdfrwt beam="2">  1       21 0.33505607E-01 0.22824538E+03</pdfrwt>
<totfact> 0.53491566E+04</totfact>
</mgrwt>
</event>
<event>
 4    1  0.4035350E+000  0.1911386E+03  0.7546771E-02  0.1157438E+00
         21   -1    0    0  503  502  0.00000000000E+00  0.00000000000E+00  0.26316920127E+03  0.26316920127E+03  0.00000000000E+00 0. -1.
         21   -1    0    0  501  503 -0.00000000000E+00 -0.00000000000E+00 -0.48191920000E+03  0.48191920000E+03  0.00000000000E+00 0. -1.
          6    1    1    2  501    0  0.80500880263E+02  0.11161480615E+02 -0.42371421762E+03  0.46483083867E+03  0.17300000000E+03 0. -1.
         -6    1    1    2    0  502 -0.80500880263E+02 -0.11161480615E+02  0.20496421888E+03  0.28025756260E+03  0.17300000000E+03 0. -1.
<mgrwt>
<rscale>  2 0.19113862E+03</rscale>
<asrwt>0</asrwt>
<pdfrwt beam="1">  1       21 0.40487570E-01 0.19113862E+03</pdfrwt>
<pdfrwt beam="2">  1       21 0.74141414E-01 0.19113862E+03</pdfrwt>
<totfact> 0.95986864E+03</totfact>
</mgrwt>
</event>
<event>
 4    1  0.4035350E+000  0.1776913E+03  0.7546771E-02  0.1170056E+00
         21   -1    0    0  501  502  0.00000000000E+00  0.00000000000E+00  0.11974806599E+04  0.11974806599E+04  0.00000000000E+00 0. -1.
         21   -1    0    0  502  503 -0.00000000000E+00 -0.00000000000E+00 -0.43990448086E+02  0.43990448086E+02  0.00000000000E+00 0. -1.
          6    1    1    2  501    0 -0.15507242962E+02  0.37479625664E+02  0.96963473174E+03  0.98578177601E+03  0.17300000000E+03 0. -1.
         -6    1    1    2    0  503  0.15507242962E+02 -0.37479625664E+02  0.18385548003E+03  0.25568933193E+03  0.17300000000E+03 0. -1.
<mgrwt>
<rscale>  2 0.17769130E+03</rscale>
<asrwt>0</asrwt>
<pdfrwt beam="1">  1       21 0.18422777E+00 0.17769130E+03</pdfrwt>
<pdfrwt beam="2">  1       21 0.67677621E-02 0.17769130E+03</pdfrwt>
<totfact> 0.27605645E+04</totfact>
</mgrwt>
</event>
<event>
 4    1  0.4035350E+000  0.1788394E+03  0.7546771E-02  0.1168931E+00
         21   -1    0    0  501  502  0.00000000000E+00  0.00000000000E+00  0.65103926073E+03  0.65103926073E+03  0.00000000000E+00 0.  1.
         21   -1    0    0  502  503 -0.00000000000E+00 -0.00000000000E+00 -0.11180847677E+03  0.11180847677E+03  0.00000000000E+00 0.  1.
          6    1    1    2  501    0 -0.20538247178E+02  0.40406730903E+02  0.55520378260E+03  0.58329646297E+03  0.17300000000E+03 0. -1.
         -6    1    1    2    0  503  0.20538247178E+02 -0.40406730903E+02 -0.15972998638E+02  0.17955127453E+03  0.17300000000E+03 0. -1.
<mgrwt>
<rscale>  2 0.17883938E+03</rscale>
<asrwt>0</asrwt>
<pdfrwt beam="1">  1       21 0.10015988E+00 0.17883938E+03</pdfrwt>
<pdfrwt beam="2">  1       21 0.17201304E-01 0.17883938E+03</pdfrwt>
<totfact> 0.25172284E+04</totfact>
</mgrwt>
</event>
<event>
 4    1  0.4035350E+000  0.2075423E+03  0.7546771E-02  0.1143527E+00
         21   -1    0    0  501  502  0.00000000000E+00  0.00000000000E+00  0.65663994933E+03  0.65663994933E+03  0.00000000000E+00 0.  1.
         21   -1    0    0  502  503 -0.00000000000E+00 -0.00000000000E+00 -0.70527717632E+02  0.70527717632E+02  0.00000000000E+00 0.  1.
          6    1    1    2  501    0  0.11182256888E+03 -0.25308130396E+02  0.19692415460E+03  0.28609947752E+03  0.17300000000E+03 0.  1.
         -6    1    1    2    0  503 -0.11182256888E+03  0.25308130396E+02  0.38918807710E+03  0.44106818944E+03  0.17300000000E+03 0.  1.
<mgrwt>
<rscale>  2 0.20754226E+03</rscale>
<asrwt>0</asrwt>
<pdfrwt beam="1">  1       21 0.10102153E+00 0.20754226E+03</pdfrwt>
<pdfrwt beam="2">  1       21 0.10850419E-01 0.20754226E+03</pdfrwt>
<totfact> 0.55855524E+04</totfact>
</mgrwt>
</event>
<event>
 4    1  0.4035350E+000  0.1909874E+03  0.7546771E-02  0.1157574E+00
         21   -1    0    0  503  502  0.00000000000E+00  0.00000000000E+00  0.15842298438E+03  0.15842298438E+03  0.00000000000E+00 0. -1.
         21   -1    0    0  501  503 -0.00000000000E+00 -0.00000000000E+00 -0.27576958901E+03  0.27576958901E+03  0.00000000000E+00 0. -1.
          6    1    1    2  501    0  0.13402262361E+02 -0.79797089047E+02 -0.14687954749E+03  0.24093525588E+03  0.17300000000E+03 0.  1.
         -6    1    1    2    0  502 -0.13402262361E+02  0.79797089047E+02  0.29532942867E+02  0.19325731751E+03  0.17300000000E+03 0.  1.
<mgrwt>
<rscale>  2 0.19098742E+03</rscale>
<asrwt>0</asrwt>
<pdfrwt beam="1">  1       21 0.24372767E-01 0.19098742E+03</pdfrwt>
<pdfrwt beam="2">  1       21 0.42426091E-01 0.19098742E+03</pdfrwt>
<totfact> 0.85042068E+04</totfact>
</mgrwt>
</event>
<event>
 4    1  0.4035350E+000  0.1963516E+03  0.7546771E-02  0.1152854E+00
         21   -1    0    0  503  502  0.00000000000E+00  0.00000000000E+00  0.65970295331E+03  0.65970295331E+03  0.00000000000E+00 0.  1.
         21   -1    0    0  501  503 -0.00000000000E+00 -0.00000000000E+00 -0.65822558734E+02  0.65822558734E+02  0.00000000000E+00 0.  1.
          6    1    1    2  501    0 -0.22673033278E+02 -0.90060348242E+02  0.17546181896E+03  0.26332638051E+03  0.17300000000E+03 0.  1.
         -6    1    1    2    0  502  0.22673033278E+02  0.90060348242E+02  0.41841857562E+03  0.46219913153E+03  0.17300000000E+03 0.  1.
<mgrwt>
<rscale>  2 0.19635155E+03</rscale>
<asrwt>0</asrwt>
<pdfrwt beam="1">  1       21 0.10149276E+00 0.19635155E+03</pdfrwt>
<pdfrwt beam="2">  1       21 0.10126548E-01 0.19635155E+03</pdfrwt>
<totfact> 0.62782007E+04</totfact>
</mgrwt>
</event>
<event>
 4    1  0.4035350E+000  0.1950270E+03  0.7546771E-02  0.1154004E+00
         21   -1    0    0  501  502  0.00000000000E+00  0.00000000000E+00  0.20061411083E+04  0.20061411083E+04  0.00000000000E+00 0. -1.
         21   -1    0    0  502  503 -0.00000000000E+00 -0.00000000000E+00 -0.85507387531E+02  0.85507387531E+02  0.00000000000E+00 0. -1.
          6    1    1    2  501    0 -0.68952314635E+02 -0.57897314938E+02  0.18829390196E+04  0.18930121163E+04  0.17300000000E+03 0. -1.
         -6    1    1    2    0  503  0.68952314635E+02  0.57897314938E+02  0.37694701098E+02  0.19863637950E+03  0.17300000000E+03 0. -1.
<mgrwt>
<rscale>  2 0.19502697E+03</rscale>
<asrwt>0</asrwt>
<pdfrwt beam="1">  1       21 0.30863706E+00 0.19502697E+03</pdfrwt>
<pdfrwt beam="2">  1       21 0.13154984E-01 0.19502697E+03</pdfrwt>
<totfact> 0.15099051E+03</totfact>
</mgrwt>
</event>
<event>
 4    1  0.4035350E+000  0.2689915E+03  0.7546771E-02  0.1101858E+00
         21   -1    0    0  503  502  0.00000000000E+00  0.00000000000E+00  0.14759380738E+03  0.14759380738E+03  0.00000000000E+00 0.  1.
         21   -1    0    0  501  503 -0.00000000000E+00 -0.00000000000E+00 -0.12092368042E+04  0.12092368042E+04  0.00000000000E+00 0.  1.
          6    1    1    2  501    0  0.19582253572E+03 -0.63882341134E+02 -0.10539439696E+04  0.10877289690E+04  0.17300000000E+03 0.  1.
         -6    1    1    2    0  502 -0.19582253572E+03  0.63882341134E+02 -0.76990272051E+01  0.26910164255E+03  0.17300000000E+03 0.  1.
<mgrwt>
<rscale>  2 0.26899149E+03</rscale>
<asrwt>0</asrwt>
<pdfrwt beam="1">  1       21 0.22706740E-01 0.26899149E+03</pdfrwt>
<pdfrwt beam="2">  1       21 0.18603643E+00 0.26899149E+03</pdfrwt>
<totfact> 0.28276846E+03</totfact>
</mgrwt>
</event>
<event>
 4    1  0.4035350E+000  0.1848557E+03  0.7546771E-02  0.1163185E+00
         21   -1    0    0  501  502  0.00000000000E+00  0.00000000000E+00  0.95458617708E+03  0.95458617708E+03  0.00000000000E+00 0. -1.
         21   -1    0    0  502  503 -0.00000000000E+00 -0.00000000000E+00 -0.36257219534E+02  0.36257219534E+02  0.00000000000E+00 0. -1.
          6    1    1    2  501    0 -0.17526091746E+02  0.62733407880E+02  0.51496016209E+03  0.54713399903E+03  0.17300000000E+03 0. -1.
         -6    1    1    2    0  503  0.17526091746E+02 -0.62733407880E+02  0.40336879545E+03  0.44370939758E+03  0.17300000000E+03 0. -1.
<mgrwt>
<rscale>  2 0.18485574E+03</rscale>
<asrwt>0</asrwt>
<pdfrwt beam="1">  1       21 0.14685939E+00 0.18485574E+03</pdfrwt>
<pdfrwt beam="2">  1       21 0.55780345E-02 0.18485574E+03</pdfrwt>
<totfact> 0.70849311E+04</totfact>
</mgrwt>
</event>
<event>
 4    1  0.4035350E+000  0.3061703E+03  0.7546771E-02  0.1082196E+00
         21   -1    0    0  501  502  0.00000000000E+00  0.00000000000E+00  0.34800272601E+03  0.34800272601E+03  0.00000000000E+00 0. -1.
         21   -1    0    0  502  503 -0.00000000000E+00 -0.00000000000E+00 -0.27978193696E+03  0.27978193696E+03  0.00000000000E+00 0. -1.
          6    1    1    2  501    0  0.24373087713E+03 -0.66381685943E+02  0.94673770002E+02  0.32047369848E+03  0.17300000000E+03 0. -1.
         -6    1    1    2    0  503 -0.24373087713E+03  0.66381685943E+02 -0.26452980946E+02  0.30731096449E+03  0.17300000000E+03 0. -1.
<mgrwt>
<rscale>  2 0.30617033E+03</rscale>
<asrwt>0</asrwt>
<pdfrwt beam="1">  1       21 0.53538881E-01 0.30617033E+03</pdfrwt>
<pdfrwt beam="2">  1       21 0.43043375E-01 0.30617033E+03</pdfrwt>
<totfact> 0.16175965E+04</totfact>
</mgrwt>
</event>
<event>
 4    1  0.4035350E+000  0.3484512E+03  0.7546771E-02  0.1063253E+00
         21   -1    0    0  503  502  0.00000000000E+00  0.00000000000E+00  0.22936335681E+03  0.22936335681E+03  0.00000000000E+00 0.  1.
         21   -1    0    0  501  503 -0.00000000000E+00 -0.00000000000E+00 -0.53418977006E+03  0.53418977006E+03  0.00000000000E+00 0. -1.
          6    1    1    2  501    0 -0.17439014265E+03  0.24713822019E+03 -0.18867479605E+03  0.39625295002E+03  0.17300000000E+03 0. -1.
         -6    1    1    2    0  502  0.17439014265E+03 -0.24713822019E+03 -0.11615161721E+03  0.36730017685E+03  0.17300000000E+03 0.  1.
<mgrwt>
<rscale>  2 0.34845118E+03</rscale>
<asrwt>0</asrwt>
<pdfrwt beam="1">  1       21 0.35286671E-01 0.34845118E+03</pdfrwt>
<pdfrwt beam="2">  1       21 0.82183040E-01 0.34845118E+03</pdfrwt>
<totfact> 0.92285440E+03</totfact>
</mgrwt>
</event>
<event>
 4    1  0.4035350E+000  0.1905765E+03  0.7546771E-02  0.1157942E+00
         21   -1    0    0  503  502  0.00000000000E+00  0.00000000000E+00  0.48552806251E+03  0.48552806251E+03  0.00000000000E+00 0. -1.
         21   -1    0    0  501  503 -0.00000000000E+00 -0.00000000000E+00 -0.95158397691E+02  0.95158397691E+02  0.00000000000E+00 0. -1.
          6    1    1    2  501    0 -0.68030321562E+01  0.79650090931E+02  0.60902840142E+02  0.20007142267E+03  0.17300000000E+03 0.  1.
         -6    1    1    2    0  502  0.68030321562E+01 -0.79650090931E+02  0.32946682467E+03  0.38061503753E+03  0.17300000000E+03 0.  1.
<mgrwt>
<rscale>  2 0.19057654E+03</rscale>
<asrwt>0</asrwt>
<pdfrwt beam="1">  1       21 0.74696623E-01 0.19057654E+03</pdfrwt>
<pdfrwt beam="2">  1       21 0.14639754E-01 0.19057654E+03</pdfrwt>
<totfact> 0.65844894E+04</totfact>
</mgrwt>
</event>
<event>
 4    1  0.4035350E+000  0.1769374E+03  0.7546771E-02  0.1170800E+00
         21   -1    0    0  503  502  0.00000000000E+00  0.00000000000E+00  0.58402795599E+02  0.58402795599E+02  0.00000000000E+00 0. -1.
         21   -1    0    0  501  503 -0.00000000000E+00 -0.00000000000E+00 -0.53659827969E+03  0.53659827969E+03  0.00000000000E+00 0. -1.
          6    1    1    2  501    0 -0.31266908131E+02 -0.20005367312E+02 -0.24860505539E+03  0.30514145544E+03  0.17300000000E+03 0. -1.
         -6    1    1    2    0  502  0.31266908131E+02  0.20005367312E+02 -0.22959042871E+03  0.28985961985E+03  0.17300000000E+03 0. -1.
<mgrwt>
<rscale>  2 0.17693737E+03</rscale>
<asrwt>0</asrwt>
<pdfrwt beam="1">  1       21 0.89850457E-02 0.17693737E+03</pdfrwt>
<pdfrwt beam="2">  1       21 0.82553579E-01 0.17693737E+03</pdfrwt>
<totfact> 0.12620491E+05</totfact>
</mgrwt>
</event>
<event>
 4    1  0.4035350E+000  0.2065775E+03  0.7546771E-02  0.1144305E+00
         21   -1    0    0  503  502  0.00000000000E+00  0.00000000000E+00  0.42412462691E+03  0.42412462691E+03  0.00000000000E+00 0. -1.
         21   -1    0    0  501  503 -0.00000000000E+00 -0.00000000000E+00 -0.10177983186E+03  0.10177983186E+03  0.00000000000E+00 0.  1.
          6    1    1    2  501    0  0.80265459196E+02 -0.79389781658E+02  0.13306985967E+03  0.24572722463E+03  0.17300000000E+03 0. -1.
         -6    1    1    2    0  502 -0.80265459196E+02  0.79389781658E+02  0.18927493537E+03  0.28017723414E+03  0.17300000000E+03 0. -1.
<mgrwt>
<rscale>  2 0.20657754E+03</rscale>
<asrwt>0</asrwt>
<pdfrwt beam="1">  1       21 0.65249942E-01 0.20657754E+03</pdfrwt>
<pdfrwt beam="2">  1       21 0.15658436E-01 0.20657754E+03</pdfrwt>
<totfact> 0.77918622E+04</totfact>
</mgrwt>
</event>
<event>
 4    1  0.4035350E+000  0.1865776E+03  0.7546771E-02  0.1161585E+00
         21   -1    0    0  501  502  0.00000000000E+00  0.00000000000E+00  0.14194470199E+03  0.14194470199E+03  0.00000000000E+00 0.  1.
         21   -1    0    0  502  503 -0.00000000000E+00 -0.00000000000E+00 -0.29996771747E+03  0.29996771747E+03  0.00000000000E+00 0.  1.
          6    1    1    2  501    0 -0.26636700499E+02  0.64596268756E+02  0.15362805818E+02  0.18720899432E+03  0.17300000000E+03 0.  1.
         -6    1    1    2    0  503  0.26636700499E+02 -0.64596268756E+02 -0.17338582130E+03  0.25470342514E+03  0.17300000000E+03 0.  1.
<mgrwt>
<rscale>  2 0.18657758E+03</rscale>
<asrwt>0</asrwt>
<pdfrwt beam="1">  1       21 0.21837647E-01 0.18657758E+03</pdfrwt>
<pdfrwt beam="2">  1       21 0.46148879E-01 0.18657758E+03</pdfrwt>
<totfact> 0.88278654E+04</totfact>
</mgrwt>
</event>
<event>
 4    1  0.4035350E+000  0.1738023E+03  0.7546771E-02  0.1173940E+00
         21   -1    0    0  503  502  0.00000000000E+00  0.00000000000E+00  0.22105821413E+04  0.22105821413E+04  0.00000000000E+00 0. -1.
         21   -1    0    0  501  503 -0.00000000000E+00 -0.00000000000E+00 -0.16170418898E+02  0.16170418898E+02  0.00000000000E+00 0. -1.
          6    1    1    2  501    0  0.10333461606E+02 -0.13093919391E+02  0.15354702256E+04  0.15452753945E+04  0.17300000000E+03 0. -1.
         -6    1    1    2    0  502 -0.10333461606E+02  0.13093919391E+02  0.65894149677E+03  0.68147716566E+03  0.17300000000E+03 0. -1.
<mgrwt>
<rscale>  2 0.17380228E+03</rscale>
<asrwt>0</asrwt>
<pdfrwt beam="1">  1       21 0.34008932E+00 0.17380228E+03</pdfrwt>
<pdfrwt beam="2">  1       21 0.24877585E-02 0.17380228E+03</pdfrwt>
<totfact> 0.17609804E+04</totfact>
</mgrwt>
</event>
<event>
 4    1  0.4035350E+000  0.1769599E+03  0.7546771E-02  0.1170778E+00
         21   -1    0    0  501  502  0.00000000000E+00  0.00000000000E+00  0.53731943313E+02  0.53731943313E+02  0.00000000000E+00 0.  1.
         21   -1    0    0  502  503 -0.00000000000E+00 -0.00000000000E+00 -0.58337779106E+03  0.58337779106E+03  0.00000000000E+00 0.  1.
          6    1    1    2  501    0  0.16221355320E+02  0.33506092016E+02 -0.25476770027E+03  0.31019569899E+03  0.17300000000E+03 0.  1.
         -6    1    1    2    0  503 -0.16221355320E+02 -0.33506092016E+02 -0.27487814748E+03  0.32691403539E+03  0.17300000000E+03 0.  1.
<mgrwt>
<rscale>  2 0.17695986E+03</rscale>
<asrwt>0</asrwt>
<pdfrwt beam="1">  1       21 0.82664527E-02 0.17695986E+03</pdfrwt>
<pdfrwt beam="2">  1       21 0.89750431E-01 0.17695986E+03</pdfrwt>
<totfact> 0.12056112E+05</totfact>
</mgrwt>
</event>
<event>
 4    1  0.4035350E+000  0.1890556E+03  0.7546771E-02  0.1159316E+00
         21   -1    0    0  501  502  0.00000000000E+00  0.00000000000E+00  0.63356771293E+02  0.63356771293E+02  0.00000000000E+00 0.  1.
         21   -1    0    0  502  503 -0.00000000000E+00 -0.00000000000E+00 -0.77398494996E+03  0.77398494996E+03  0.00000000000E+00 0.  1.
          6    1    1    2  501    0  0.69620578621E+02 -0.31080382199E+02 -0.13731386318E+03  0.23366024940E+03  0.17300000000E+03 0.  1.
         -6    1    1    2    0  503 -0.69620578621E+02  0.31080382199E+02 -0.57331431548E+03  0.60368147186E+03  0.17300000000E+03 0.  1.
<mgrwt>
<rscale>  2 0.18905559E+03</rscale>
<asrwt>0</asrwt>
<pdfrwt beam="1">  1       21 0.97471955E-02 0.18905559E+03</pdfrwt>
<pdfrwt beam="2">  1       21 0.11907461E+00 0.18905559E+03</pdfrwt>
<totfact> 0.45789363E+04</totfact>
</mgrwt>
</event>
<event>
 4    1  0.4035350E+000  0.3622365E+03  0.7546771E-02  0.1057702E+00
         21   -1    0    0  501  502  0.00000000000E+00  0.00000000000E+00  0.35869051309E+03  0.35869051309E+03  0.00000000000E+00 0.  1.
         21   -1    0    0  502  503 -0.00000000000E+00 -0.00000000000E+00 -0.37141608575E+03  0.37141608575E+03  0.00000000000E+00 0. -1.
          6    1    1    2  501    0 -0.31700768654E+03  0.28149588606E+02 -0.51182022807E+02  0.36583448733E+03  0.17300000000E+03 0. -1.
         -6    1    1    2    0  503  0.31700768654E+03 -0.28149588606E+02  0.38456450147E+02  0.36427211150E+03  0.17300000000E+03 0. -1.
<mgrwt>
<rscale>  2 0.36223649E+03</rscale>
<asrwt>0</asrwt>
<pdfrwt beam="1">  1       21 0.55183156E-01 0.36223649E+03</pdfrwt>
<pdfrwt beam="2">  1       21 0.57140936E-01 0.36223649E+03</pdfrwt>
<totfact> 0.81548980E+03</totfact>
</mgrwt>
</event>
<event>
 4    1  0.4035350E+000  0.1738600E+03  0.7546771E-02  0.1173881E+00
         21   -1    0    0  503  502  0.00000000000E+00  0.00000000000E+00  0.15005967297E+03  0.15005967297E+03  0.00000000000E+00 0. -1.
         21   -1    0    0  501  503 -0.00000000000E+00 -0.00000000000E+00 -0.23700091885E+03  0.23700091885E+03  0.00000000000E+00 0. -1.
          6    1    1    2  501    0 -0.14419236009E+01  0.17211211421E+02 -0.11844097492E+03  0.21037007744E+03  0.17300000000E+03 0. -1.
         -6    1    1    2    0  502  0.14419236009E+01 -0.17211211421E+02  0.31499729037E+02  0.17669051438E+03  0.17300000000E+03 0. -1.
<mgrwt>
<rscale>  2 0.17386002E+03</rscale>
<asrwt>0</asrwt>
<pdfrwt beam="1">  1       21 0.23086104E-01 0.17386002E+03</pdfrwt>
<pdfrwt beam="2">  1       21 0.36461680E-01 0.17386002E+03</pdfrwt>
<totfact> 0.12867543E+05</totfact>
</mgrwt>
</event>
<event>
 4    1  0.4035350E+000  0.1918194E+03  0.7546771E-02  0.1156831E+00
         21   -1    0    0  503  502  0.00000000000E+00  0.00000000000E+00  0.63988116739E+03  0.63988116739E+03  0.00000000000E+00 0. -1.
         21   -1    0    0  501  503 -0.00000000000E+00 -0.00000000000E+00 -0.57636112669E+02  0.57636112669E+02  0.00000000000E+00 0. -1.
          6    1    1    2  501    0  0.72537749419E+02  0.40049369530E+02  0.30792329993E+03  0.36278290440E+03  0.17300000000E+03 0. -1.
         -6    1    1    2    0  502 -0.72537749419E+02 -0.40049369530E+02  0.27432175479E+03  0.33473437565E+03  0.17300000000E+03 0. -1.
<mgrwt>
<rscale>  2 0.19181939E+03</rscale>
<asrwt>0</asrwt>
<pdfrwt beam="1">  1       21 0.98443251E-01 0.19181939E+03</pdfrwt>
<pdfrwt beam="2">  1       21 0.88670947E-02 0.19181939E+03</pdfrwt>
<totfact> 0.85458048E+04</totfact>
</mgrwt>
</event>
<event>
 4    1  0.4035350E+000  0.1754609E+03  0.7546771E-02  0.1172270E+00
         21   -1    0    0  501  502  0.00000000000E+00  0.00000000000E+00  0.27789119038E+04  0.27789119038E+04  0.00000000000E+00 0.  1.
         21   -1    0    0  502  503 -0.00000000000E+00 -0.00000000000E+00 -0.13836579181E+02  0.13836579181E+02  0.00000000000E+00 0.  1.
          6    1    1    2  501    0  0.29279808945E+02 -0.47958285684E+00  0.75911787849E+03  0.77913188271E+03  0.17300000000E+03 0.  1.
         -6    1    1    2    0  503 -0.29279808945E+02  0.47958285684E+00  0.20059574461E+04  0.20136166003E+04  0.17300000000E+03 0.  1.
<mgrwt>
<rscale>  2 0.17546093E+03</rscale>
<asrwt>0</asrwt>
<pdfrwt beam="1">  1       21 0.42752447E+00 0.17546093E+03</pdfrwt>
<pdfrwt beam="2">  1       21 0.21287067E-02 0.17546093E+03</pdfrwt>
<totfact> 0.66499948E+03</totfact>
</mgrwt>
</event>
<event>
 4    1  0.4035350E+000  0.1751037E+03  0.7546771E-02  0.1172628E+00
         21   -1    0    0  503  502  0.00000000000E+00  0.00000000000E+00  0.99282882487E+02  0.99282882487E+02  0.00000000000E+00 0. -1.
         21   -1    0    0  501  503 -0.00000000000E+00 -0.00000000000E+00 -0.53316934474E+03  0.53316934474E+03  0.00000000000E+00 0. -1.
          6    1    1    2  501    0  0.30159135821E+00 -0.27059552275E+02 -0.42206891199E+03  0.45695019071E+03  0.17300000000E+03 0. -1.
         -6    1    1    2    0  502 -0.30159135821E+00  0.27059552275E+02 -0.11817550268E+02  0.17550203652E+03  0.17300000000E+03 0. -1.
<mgrwt>
<rscale>  2 0.17510371E+03</rscale>
<asrwt>0</asrwt>
<pdfrwt beam="1">  1       21 0.15274290E-01 0.17510371E+03</pdfrwt>
<pdfrwt beam="2">  1       21 0.82026053E-01 0.17510371E+03</pdfrwt>
<totfact> 0.49751560E+04</totfact>
</mgrwt>
</event>
<event>
 4    1  0.4035350E+000  0.1824469E+03  0.7546771E-02  0.1165456E+00
         21   -1    0    0  503  502  0.00000000000E+00  0.00000000000E+00  0.72013668898E+03  0.72013668898E+03  0.00000000000E+00 0. -1.
         21   -1    0    0  501  503 -0.00000000000E+00 -0.00000000000E+00 -0.92497303946E+02  0.92497303946E+02  0.00000000000E+00 0. -1.
          6    1    1    2  501    0 -0.57941954983E+02 -0.76421808142E+00  0.26430417971E+02  0.18435135251E+03  0.17300000000E+03 0. -1.
         -6    1    1    2    0  502  0.57941954983E+02  0.76421808142E+00  0.60120896706E+03  0.62828264042E+03  0.17300000000E+03 0. -1.
<mgrwt>
<rscale>  2 0.18244685E+03</rscale>
<asrwt>0</asrwt>
<pdfrwt beam="1">  1       21 0.11079026E+00 0.18244685E+03</pdfrwt>
<pdfrwt beam="2">  1       21 0.14230355E-01 0.18244685E+03</pdfrwt>
<totfact> 0.27874331E+04</totfact>
</mgrwt>
</event>
<event>
 4    1  0.4035350E+000  0.3004866E+03  0.7546771E-02  0.1084998E+00
         21   -1    0    0  501  502  0.00000000000E+00  0.00000000000E+00  0.96379792230E+02  0.96379792230E+02  0.00000000000E+00 0.  1.
         21   -1    0    0  502  503 -0.00000000000E+00 -0.00000000000E+00 -0.16642701675E+04  0.16642701675E+04  0.00000000000E+00 0.  1.
          6    1    1    2  501    0  0.21886549572E+03 -0.11162919062E+03 -0.20193902910E+03  0.36203805448E+03  0.17300000000E+03 0.  1.
         -6    1    1    2    0  503 -0.21886549572E+03  0.11162919062E+03 -0.13659513462E+04  0.13986119053E+04  0.17300000000E+03 0.  1.
<mgrwt>
<rscale>  2 0.30048657E+03</rscale>
<asrwt>0</asrwt>
<pdfrwt beam="1">  1       21 0.14827661E-01 0.30048657E+03</pdfrwt>
<pdfrwt beam="2">  1       21 0.25604156E+00 0.30048657E+03</pdfrwt>
<totfact> 0.22245532E+03</totfact>
</mgrwt>
</event>
<event>
 4    1  0.4035350E+000  0.2040309E+03  0.7546771E-02  0.1146382E+00
         21   -1    0    0  503  502  0.00000000000E+00  0.00000000000E+00  0.84886494654E+02  0.84886494654E+02  0.00000000000E+00 0. -1.
         21   -1    0    0  501  503 -0.00000000000E+00 -0.00000000000E+00 -0.49149306405E+03  0.49149306405E+03  0.00000000000E+00 0. -1.
          6    1    1    2  501    0  0.10411832811E+01  0.10815965304E+03 -0.21687513046E+03  0.29776402875E+03  0.17300000000E+03 0. -1.
         -6    1    1    2    0  502 -0.10411832811E+01 -0.10815965304E+03 -0.18973143894E+03  0.27861552995E+03  0.17300000000E+03 0. -1.
<mgrwt>
<rscale>  2 0.20403087E+03</rscale>
<asrwt>0</asrwt>
<pdfrwt beam="1">  1       21 0.13059461E-01 0.20403087E+03</pdfrwt>
<pdfrwt beam="2">  1       21 0.75614318E-01 0.20403087E+03</pdfrwt>
<totfact> 0.78311152E+04</totfact>
</mgrwt>
</event>
<event>
 4    1  0.4035350E+000  0.2524220E+03  0.7546771E-02  0.1111784E+00
         21   -1    0    0  503  502  0.00000000000E+00  0.00000000000E+00  0.46303585253E+03  0.46303585253E+03  0.00000000000E+00 0. -1.
         21   -1    0    0  501  503 -0.00000000000E+00 -0.00000000000E+00 -0.22481544839E+03  0.22481544839E+03  0.00000000000E+00 0.  1.
          6    1    1    2  501    0 -0.22695176969E+02  0.18240836981E+03 -0.95095612930E+02  0.26974072743E+03  0.17300000000E+03 0.  1.
         -6    1    1    2    0  502  0.22695176969E+02 -0.18240836981E+03  0.33331601707E+03  0.41811057350E+03  0.17300000000E+03 0. -1.
<mgrwt>
<rscale>  2 0.25242204E+03</rscale>
<asrwt>0</asrwt>
<pdfrwt beam="1">  1       21 0.71236285E-01 0.25242204E+03</pdfrwt>
<pdfrwt beam="2">  1       21 0.34586992E-01 0.25242204E+03</pdfrwt>
<totfact> 0.13868224E+04</totfact>
</mgrwt>
</event>
<event>
 4    1  0.4035350E+000  0.1861198E+03  0.7546771E-02  0.1162008E+00
         21   -1    0    0  503  502  0.00000000000E+00  0.00000000000E+00  0.10053732951E+04  0.10053732951E+04  0.00000000000E+00 0. -1.
         21   -1    0    0  501  503 -0.00000000000E+00 -0.00000000000E+00 -0.34792781250E+02  0.34792781250E+02  0.00000000000E+00 0. -1.
          6    1    1    2  501    0  0.27468541261E+02  0.62905159168E+02  0.53650116548E+03  0.56786801316E+03  0.17300000000E+03 0. -1.
         -6    1    1    2    0  502 -0.27468541261E+02 -0.62905159168E+02  0.43407934833E+03  0.47229806315E+03  0.17300000000E+03 0. -1.
<mgrwt>
<rscale>  2 0.18611980E+03</rscale>
<asrwt>0</asrwt>
<pdfrwt beam="1">  1       21 0.15467279E+00 0.18611980E+03</pdfrwt>
<pdfrwt beam="2">  1       21 0.53527364E-02 0.18611980E+03</pdfrwt>
<totfact> 0.66262929E+04</totfact>
</mgrwt>
</event>
<event>
 4    1  0.4035350E+000  0.1876964E+03  0.7546771E-02  0.1160556E+00
         21   -1    0    0  501  502  0.00000000000E+00  0.00000000000E+00  0.12603684174E+04  0.12603684174E+04  0.00000000000E+00 0.  1.
         21   -1    0    0  502  503 -0.00000000000E+00 -0.00000000000E+00 -0.41840944093E+03  0.41840944093E+03  0.00000000000E+00 0.  1.
          6    1    1    2  501    0 -0.65117648743E+02  0.32567120725E+02  0.12318458859E+04  0.12460634864E+04  0.17300000000E+03 0.  1.
         -6    1    1    2    0  503  0.65117648743E+02 -0.32567120725E+02 -0.38988690943E+03  0.43271437193E+03  0.17300000000E+03 0.  1.
<mgrwt>
<rscale>  2 0.18769637E+03</rscale>
<asrwt>0</asrwt>
<pdfrwt beam="1">  1       21 0.19390283E+00 0.18769637E+03</pdfrwt>
<pdfrwt beam="2">  1       21 0.64370684E-01 0.18769637E+03</pdfrwt>
<totfact> 0.32943035E+02</totfact>
</mgrwt>
</event>
<event>
 4    1  0.4035350E+000  0.1997916E+03  0.7546771E-02  0.1149915E+00
         21   -1    0    0  503  502  0.00000000000E+00  0.00000000000E+00  0.40091058871E+03  0.40091058871E+03  0.00000000000E+00 0. -1.
         21   -1    0    0  501  503 -0.00000000000E+00 -0.00000000000E+00 -0.13053619457E+03  0.13053619457E+03  0.00000000000E+00 0. -1.
          6    1    1    2  501    0 -0.91656459624E+02 -0.39834268947E+02  0.57547782174E+01  0.19987444320E+03  0.17300000000E+03 0. -1.
         -6    1    1    2    0  502  0.91656459624E+02  0.39834268947E+02  0.26461961592E+03  0.33157234007E+03  0.17300000000E+03 0. -1.
<mgrwt>
<rscale>  2 0.19979158E+03</rscale>
<asrwt>0</asrwt>
<pdfrwt beam="1">  1       21 0.61678552E-01 0.19979158E+03</pdfrwt>
<pdfrwt beam="2">  1       21 0.20082492E-01 0.19979158E+03</pdfrwt>
<totfact> 0.55741782E+04</totfact>
</mgrwt>
</event>
<event>
 4    1  0.4035350E+000  0.1793914E+03  0.7546771E-02  0.1168393E+00
         21   -1    0    0  501  502  0.00000000000E+00  0.00000000000E+00  0.20925903738E+03  0.20925903738E+03  0.00000000000E+00 0.  1.
         21   -1    0    0  502  503 -0.00000000000E+00 -0.00000000000E+00 -0.35629385967E+03  0.35629385967E+03  0.00000000000E+00 0.  1.
          6    1    1    2  501    0 -0.46804482742E+02 -0.78485036702E+01  0.13966886753E+03  0.22735138260E+03  0.17300000000E+03 0.  1.
         -6    1    1    2    0  503  0.46804482742E+02  0.78485036702E+01 -0.28670368982E+03  0.33820151445E+03  0.17300000000E+03 0.  1.
<mgrwt>
<rscale>  2 0.17939136E+03</rscale>
<asrwt>0</asrwt>
<pdfrwt beam="1">  1       21 0.32193698E-01 0.17939136E+03</pdfrwt>
<pdfrwt beam="2">  1       21 0.54814440E-01 0.17939136E+03</pdfrwt>
<totfact> 0.29370152E+04</totfact>
</mgrwt>
</event>
<event>
 4    1  0.4035350E+000  0.2273755E+03  0.7546771E-02  0.1128501E+00
         21   -1    0    0  503  502  0.00000000000E+00  0.00000000000E+00  0.22564265044E+03  0.22564265044E+03  0.00000000000E+00 0.  1.
         21   -1    0    0  501  503 -0.00000000000E+00 -0.00000000000E+00 -0.22912524055E+03  0.22912524055E+03  0.00000000000E+00 0. -1.
          6    1    1    2  501    0 -0.28472486850E+02 -0.14477550187E+03 -0.84789687987E+00  0.22737710390E+03  0.17300000000E+03 0. -1.
         -6    1    1    2    0  502  0.28472486850E+02  0.14477550187E+03 -0.26346932291E+01  0.22739078710E+03  0.17300000000E+03 0.  1.
<mgrwt>
<rscale>  2 0.22737552E+03</rscale>
<asrwt>0</asrwt>
<pdfrwt beam="1">  1       21 0.34714254E-01 0.22737552E+03</pdfrwt>
<pdfrwt beam="2">  1       21 0.35250037E-01 0.22737552E+03</pdfrwt>
<totfact> 0.61113095E+04</totfact>
</mgrwt>
</event>
<event>
 4    1  0.4035350E+000  0.2936698E+03  0.7546771E-02  0.1088449E+00
         21   -1    0    0  503  502  0.00000000000E+00  0.00000000000E+00  0.74019151800E+03  0.74019151800E+03  0.00000000000E+00 0. -1.
         21   -1    0    0  501  503 -0.00000000000E+00 -0.00000000000E+00 -0.32756049913E+03  0.32756049913E+03  0.00000000000E+00 0.  1.
          6    1    1    2  501    0 -0.29369345919E+02  0.23547905792E+03 -0.22221794600E+03  0.36826995632E+03  0.17300000000E+03 0.  1.
         -6    1    1    2    0  502  0.29369345919E+02 -0.23547905792E+03  0.63484896487E+03  0.69948206081E+03  0.17300000000E+03 0. -1.
<mgrwt>
<rscale>  2 0.29366979E+03</rscale>
<asrwt>0</asrwt>
<pdfrwt beam="1">  1       21 0.11387562E+00 0.29366979E+03</pdfrwt>
<pdfrwt beam="2">  1       21 0.50393923E-01 0.29366979E+03</pdfrwt>
<totfact> 0.20872381E+03</totfact>
</mgrwt>
</event>
<event>
 4    1  0.4035350E+000  0.3161605E+03  0.7546771E-02  0.1077430E+00
         21   -1    0    0  503  502  0.00000000000E+00  0.00000000000E+00  0.11264399604E+04  0.11264399604E+04  0.00000000000E+00 0. -1.
         21   -1    0    0  501  503 -0.00000000000E+00 -0.00000000000E+00 -0.39818964101E+03  0.39818964101E+03  0.00000000000E+00 0.  1.
          6    1    1    2  501    0  0.18957147334E+03 -0.18463784076E+03 -0.30790089775E+03  0.44131671006E+03  0.17300000000E+03 0.  1.
         -6    1    1    2    0  502 -0.18957147334E+03  0.18463784076E+03  0.10361512171E+04  0.10833128913E+04  0.17300000000E+03 0. -1.
<mgrwt>
<rscale>  2 0.31616052E+03</rscale>
<asrwt>0</asrwt>
<pdfrwt beam="1">  1       21 0.17329845E+00 0.31616052E+03</pdfrwt>
<pdfrwt beam="2">  1       21 0.61259945E-01 0.31616052E+03</pdfrwt>
<totfact> 0.44774983E+02</totfact>
</mgrwt>
</event>
<event>
 4    1  0.4035350E+000  0.2040734E+03  0.7546771E-02  0.1146347E+00
         21   -1    0    0  501  502  0.00000000000E+00  0.00000000000E+00  0.29200952537E+03  0.29200952537E+03  0.00000000000E+00 0. -1.
         21   -1    0    0  502  503 -0.00000000000E+00 -0.00000000000E+00 -0.33590807308E+03  0.33590807308E+03  0.00000000000E+00 0. -1.
          6    1    1    2  501    0  0.10747191575E+03  0.12912830731E+02  0.21620955032E+03  0.29730880163E+03  0.17300000000E+03 0. -1.
         -6    1    1    2    0  503 -0.10747191575E+03 -0.12912830731E+02 -0.26010809804E+03  0.33060879682E+03  0.17300000000E+03 0. -1.
<mgrwt>
<rscale>  2 0.20407340E+03</rscale>
<asrwt>0</asrwt>
<pdfrwt beam="1">  1       21 0.44924542E-01 0.20407340E+03</pdfrwt>
<pdfrwt beam="2">  1       21 0.51678165E-01 0.20407340E+03</pdfrwt>
<totfact> 0.16790747E+04</totfact>
</mgrwt>
</event>
<event>
 4    1  0.4035350E+000  0.2024407E+03  0.7546771E-02  0.1147696E+00
         21   -1    0    0  501  502  0.00000000000E+00  0.00000000000E+00  0.13658647159E+03  0.13658647159E+03  0.00000000000E+00 0.  1.
         21   -1    0    0  502  503 -0.00000000000E+00 -0.00000000000E+00 -0.54554340933E+03  0.54554340933E+03  0.00000000000E+00 0. -1.
          6    1    1    2  501    0  0.92601607780E+02  0.49781381433E+02  0.24316122714E+02  0.20389584970E+03  0.17300000000E+03 0.  1.
         -6    1    1    2    0  503 -0.92601607780E+02 -0.49781381433E+02 -0.43327306046E+03  0.47823403122E+03  0.17300000000E+03 0. -1.
<mgrwt>
<rscale>  2 0.20244072E+03</rscale>
<asrwt>0</asrwt>
<pdfrwt beam="1">  1       21 0.21013303E-01 0.20244072E+03</pdfrwt>
<pdfrwt beam="2">  1       21 0.83929757E-01 0.20244072E+03</pdfrwt>
<totfact> 0.25808319E+04</totfact>
</mgrwt>
</event>
<event>
 4    1  0.4035350E+000  0.2062307E+03  0.7546771E-02  0.1144586E+00
         21   -1    0    0  503  502  0.00000000000E+00  0.00000000000E+00  0.17355019728E+03  0.17355019728E+03  0.00000000000E+00 0. -1.
         21   -1    0    0  501  503 -0.00000000000E+00 -0.00000000000E+00 -0.24520942309E+03  0.24520942309E+03  0.00000000000E+00 0.  1.
          6    1    1    2  501    0  0.11088141858E+03 -0.17533066411E+02 -0.30750055466E+02  0.20851058322E+03  0.17300000000E+03 0.  1.
         -6    1    1    2    0  502 -0.11088141858E+03  0.17533066411E+02 -0.40909170347E+02  0.21024903715E+03  0.17300000000E+03 0. -1.
<mgrwt>
<rscale>  2 0.20623069E+03</rscale>
<asrwt>0</asrwt>
<pdfrwt beam="1">  1       21 0.26700030E-01 0.20623069E+03</pdfrwt>
<pdfrwt beam="2">  1       21 0.37724527E-01 0.20623069E+03</pdfrwt>
<totfact> 0.89983006E+04</totfact>
</mgrwt>
</event>
<event>
 4    1  0.4035350E+000  0.2204989E+03  0.7546771E-02  0.1133512E+00
         21   -1    0    0  501  502  0.00000000000E+00  0.00000000000E+00  0.34711509109E+03  0.34711509109E+03  0.00000000000E+00 0.  1.
         21   -1    0    0  502  503 -0.00000000000E+00 -0.00000000000E+00 -0.24430559585E+03  0.24430559585E+03  0.00000000000E+00 0.  1.
          6    1    1    2  501    0 -0.11524854209E+03 -0.73542862121E+02  0.24456227029E+03  0.32928784228E+03  0.17300000000E+03 0.  1.
         -6    1    1    2    0  503  0.11524854209E+03  0.73542862121E+02 -0.14175277505E+03  0.26213284467E+03  0.17300000000E+03 0.  1.
<mgrwt>
<rscale>  2 0.22049893E+03</rscale>
<asrwt>0</asrwt>
<pdfrwt beam="1">  1       21 0.53402322E-01 0.22049893E+03</pdfrwt>
<pdfrwt beam="2">  1       21 0.37585476E-01 0.22049893E+03</pdfrwt>
<totfact> 0.22305571E+04</totfact>
</mgrwt>
</event>
<event>
 4    1  0.4035350E+000  0.1876686E+03  0.7546771E-02  0.1160581E+00
         21   -1    0    0  503  502  0.00000000000E+00  0.00000000000E+00  0.97672772960E+02  0.97672772960E+02  0.00000000000E+00 0.  1.
         21   -1    0    0  501  503 -0.00000000000E+00 -0.00000000000E+00 -0.59956772427E+03  0.59956772427E+03  0.00000000000E+00 0.  1.
          6    1    1    2  501    0  0.62790647437E+02 -0.36713021657E+02 -0.47104497861E+03  0.50705313650E+03  0.17300000000E+03 0.  1.
         -6    1    1    2    0  502 -0.62790647437E+02  0.36713021657E+02 -0.30849972702E+02  0.19018736073E+03  0.17300000000E+03 0.  1.
<mgrwt>
<rscale>  2 0.18766862E+03</rscale>
<asrwt>0</asrwt>
<pdfrwt beam="1">  1       21 0.15026581E-01 0.18766862E+03</pdfrwt>
<pdfrwt beam="2">  1       21 0.92241188E-01 0.18766862E+03</pdfrwt>
<totfact> 0.38902134E+04</totfact>
</mgrwt>
</event>
<event>
 4    1  0.4035350E+000  0.1955853E+03  0.7546771E-02  0.1153518E+00
         21   -1    0    0  501  502  0.00000000000E+00  0.00000000000E+00  0.39498311063E+03  0.39498311063E+03  0.00000000000E+00 0. -1.
         21   -1    0    0  502  503 -0.00000000000E+00 -0.00000000000E+00 -0.13119609736E+03  0.13119609736E+03  0.00000000000E+00 0. -1.
          6    1    1    2  501    0 -0.90435683207E+02  0.12082451947E+02  0.26650749251E+03  0.33057501721E+03  0.17300000000E+03 0. -1.
         -6    1    1    2    0  503  0.90435683207E+02 -0.12082451947E+02 -0.27204792398E+01  0.19560419078E+03  0.17300000000E+03 0. -1.
<mgrwt>
<rscale>  2 0.19558527E+03</rscale>
<asrwt>0</asrwt>
<pdfrwt beam="1">  1       21 0.60766632E-01 0.19558527E+03</pdfrwt>
<pdfrwt beam="2">  1       21 0.20184015E-01 0.19558527E+03</pdfrwt>
<totfact> 0.57137336E+04</totfact>
</mgrwt>
</event>
<event>
 4    1  0.4035350E+000  0.2350168E+03  0.7546771E-02  0.1123158E+00
         21   -1    0    0  501  502  0.00000000000E+00  0.00000000000E+00  0.31506273101E+03  0.31506273101E+03  0.00000000000E+00 0. -1.
         21   -1    0    0  502  503 -0.00000000000E+00 -0.00000000000E+00 -0.32954681669E+03  0.32954681669E+03  0.00000000000E+00 0.  1.
          6    1    1    2  501    0 -0.13881862154E+03  0.77674356090E+02  0.21325637405E+03  0.31735027392E+03  0.17300000000E+03 0. -1.
         -6    1    1    2    0  503  0.13881862154E+03 -0.77674356090E+02 -0.22774045973E+03  0.32725927379E+03  0.17300000000E+03 0.  1.
<mgrwt>
<rscale>  2 0.23501684E+03</rscale>
<asrwt>0</asrwt>
<pdfrwt beam="1">  1       21 0.48471190E-01 0.23501684E+03</pdfrwt>
<pdfrwt beam="2">  1       21 0.50699510E-01 0.23501684E+03</pdfrwt>
<totfact> 0.14668050E+04</totfact>
</mgrwt>
</event>
<event>
 4    1  0.4035350E+000  0.2003639E+03  0.7546771E-02  0.1149432E+00
         21   -1    0    0  501  502  0.00000000000E+00  0.00000000000E+00  0.88823501982E+03  0.88823501982E+03  0.00000000000E+00 0. -1.
         21   -1    0    0  502  503 -0.00000000000E+00 -0.00000000000E+00 -0.45248309209E+02  0.45248309209E+02  0.00000000000E+00 0. -1.
          6    1    1    2  501    0 -0.44803281735E+02  0.90605612928E+02  0.40580262927E+03  0.45257207721E+03  0.17300000000E+03 0. -1.
         -6    1    1    2    0  503  0.44803281735E+02 -0.90605612928E+02  0.43718408134E+03  0.48091125182E+03  0.17300000000E+03 0. -1.
<mgrwt>
<rscale>  2 0.20036395E+03</rscale>
<asrwt>0</asrwt>
<pdfrwt beam="1">  1       21 0.13665153E+00 0.20036395E+03</pdfrwt>
<pdfrwt beam="2">  1       21 0.69612790E-02 0.20036395E+03</pdfrwt>
<totfact> 0.57925207E+04</totfact>
</mgrwt>
</event>
<event>
 4    1  0.4035350E+000  0.1938813E+03  0.7546771E-02  0.1155007E+00
         21   -1    0    0  501  502  0.00000000000E+00  0.00000000000E+00  0.26475533550E+03  0.26475533550E+03  0.00000000000E+00 0. -1.
         21   -1    0    0  502  503 -0.00000000000E+00 -0.00000000000E+00 -0.19452571745E+03  0.19452571745E+03  0.00000000000E+00 0.  1.
          6    1    1    2  501    0 -0.19039940798E+01 -0.87506204725E+02  0.15446653590E+03  0.24789084649E+03  0.17300000000E+03 0. -1.
         -6    1    1    2    0  503  0.19039940798E+01  0.87506204725E+02 -0.84236917846E+02  0.21139020646E+03  0.17300000000E+03 0.  1.
<mgrwt>
<rscale>  2 0.19388131E+03</rscale>
<asrwt>0</asrwt>
<pdfrwt beam="1">  1       21 0.40731590E-01 0.19388131E+03</pdfrwt>
<pdfrwt beam="2">  1       21 0.29927033E-01 0.19388131E+03</pdfrwt>
<totfact> 0.62140135E+04</totfact>
</mgrwt>
</event>
<event>
 4    1  0.4035350E+000  0.2056119E+03  0.7546771E-02  0.1145089E+00
         21   -1    0    0  501  502  0.00000000000E+00  0.00000000000E+00  0.38825830785E+03  0.38825830785E+03  0.00000000000E+00 0. -1.
         21   -1    0    0  502  503 -0.00000000000E+00 -0.00000000000E+00 -0.17733135313E+03  0.17733135313E+03  0.00000000000E+00 0. -1.
          6    1    1    2  501    0  0.24687461501E+02  0.10834113405E+03  0.28115370193E+03  0.34831548371E+03  0.17300000000E+03 0. -1.
         -6    1    1    2    0  503 -0.24687461501E+02 -0.10834113405E+03 -0.70226747213E+02  0.21727417726E+03  0.17300000000E+03 0. -1.
<mgrwt>
<rscale>  2 0.20561195E+03</rscale>
<asrwt>0</asrwt>
<pdfrwt beam="1">  1       21 0.59732047E-01 0.20561195E+03</pdfrwt>
<pdfrwt beam="2">  1       21 0.27281747E-01 0.20561195E+03</pdfrwt>
<totfact> 0.33281988E+04</totfact>
</mgrwt>
</event>
<event>
 4    1  0.4035350E+000  0.1959298E+03  0.7546771E-02  0.1153219E+00
         21   -1    0    0  501  502  0.00000000000E+00  0.00000000000E+00  0.29682618301E+03  0.29682618301E+03  0.00000000000E+00 0.  1.
         21   -1    0    0  502  503 -0.00000000000E+00 -0.00000000000E+00 -0.49801416570E+03  0.49801416570E+03  0.00000000000E+00 0.  1.
          6    1    1    2  501    0  0.53733069137E+02  0.74647449494E+02  0.24135111695E+03  0.31086789170E+03  0.17300000000E+03 0.  1.
         -6    1    1    2    0  503 -0.53733069137E+02 -0.74647449494E+02 -0.44253909964E+03  0.48397245701E+03  0.17300000000E+03 0.  1.
<mgrwt>
<rscale>  2 0.19592979E+03</rscale>
<asrwt>0</asrwt>
<pdfrwt beam="1">  1       21 0.45665566E-01 0.19592979E+03</pdfrwt>
<pdfrwt beam="2">  1       21 0.76617564E-01 0.19592979E+03</pdfrwt>
<totfact> 0.69525947E+03</totfact>
</mgrwt>
</event>
<event>
 4    1  0.4035350E+000  0.1753270E+03  0.7546771E-02  0.1172404E+00
         21   -1    0    0  501  502  0.00000000000E+00  0.00000000000E+00  0.62200010854E+03  0.62200010854E+03  0.00000000000E+00 0. -1.
         21   -1    0    0  502  503 -0.00000000000E+00 -0.00000000000E+00 -0.71510957219E+02  0.71510957219E+02  0.00000000000E+00 0. -1.
          6    1    1    2  501    0  0.27826584523E+02  0.60212259064E+01  0.82519077032E+02  0.19377557132E+03  0.17300000000E+03 0. -1.
         -6    1    1    2    0  503 -0.27826584523E+02 -0.60212259064E+01  0.46797007429E+03  0.49973549444E+03  0.17300000000E+03 0. -1.
<mgrwt>
<rscale>  2 0.17532705E+03</rscale>
<asrwt>0</asrwt>
<pdfrwt beam="1">  1       21 0.95692321E-01 0.17532705E+03</pdfrwt>
<pdfrwt beam="2">  1       21 0.11001686E-01 0.17532705E+03</pdfrwt>
<totfact> 0.62908501E+04</totfact>
</mgrwt>
</event>
<event>
 4    1  0.4035350E+000  0.3800783E+03  0.7546771E-02  0.1050905E+00
         21   -1    0    0  501  502  0.00000000000E+00  0.00000000000E+00  0.41043621243E+03  0.41043621243E+03  0.00000000000E+00 0. -1.
         21   -1    0    0  502  503 -0.00000000000E+00 -0.00000000000E+00 -0.86666775095E+03  0.86666775095E+03  0.00000000000E+00 0.  1.
          6    1    1    2  501    0 -0.32641819199E+03  0.89340244813E+02  0.26397797062E+03  0.46275683072E+03  0.17300000000E+03 0. -1.
         -6    1    1    2    0  503  0.32641819199E+03 -0.89340244813E+02 -0.72020950915E+03  0.81434713266E+03  0.17300000000E+03 0.  1.
<mgrwt>
<rscale>  2 0.38007830E+03</rscale>
<asrwt>0</asrwt>
<pdfrwt beam="1">  1       21 0.63144033E-01 0.38007830E+03</pdfrwt>
<pdfrwt beam="2">  1       21 0.13333350E+00 0.38007830E+03</pdfrwt>
<totfact> 0.82019115E+02</totfact>
</mgrwt>
</event>
<event>
 4    1  0.4035350E+000  0.1733739E+03  0.7546771E-02  0.1174374E+00
         21   -1    0    0  501  502  0.00000000000E+00  0.00000000000E+00  0.81335025029E+02  0.81335025029E+02  0.00000000000E+00 0.  1.
         21   -1    0    0  502  503 -0.00000000000E+00 -0.00000000000E+00 -0.52125763647E+03  0.52125763647E+03  0.00000000000E+00 0.  1.
          6    1    1    2  501    0  0.78204350194E+01  0.82674342769E+01 -0.57424736286E+02  0.18263655168E+03  0.17300000000E+03 0.  1.
         -6    1    1    2    0  503 -0.78204350194E+01 -0.82674342769E+01 -0.38249787516E+03  0.41995610982E+03  0.17300000000E+03 0.  1.
<mgrwt>
<rscale>  2 0.17337390E+03</rscale>
<asrwt>0</asrwt>
<pdfrwt beam="1">  1       21 0.12513080E-01 0.17337390E+03</pdfrwt>
<pdfrwt beam="2">  1       21 0.80193486E-01 0.17337390E+03</pdfrwt>
<totfact> 0.75097980E+04</totfact>
</mgrwt>
</event>
<event>
 4    1  0.4035350E+000  0.1827787E+03  0.7546771E-02  0.1165141E+00
         21   -1    0    0  501  502  0.00000000000E+00  0.00000000000E+00  0.81238951187E+03  0.81238951187E+03  0.00000000000E+00 0.  1.
         21   -1    0    0  502  503 -0.00000000000E+00 -0.00000000000E+00 -0.50630183264E+02  0.50630183264E+02  0.00000000000E+00 0.  1.
          6    1    1    2  501    0  0.30441256404E+02 -0.50521051643E+02  0.19389430773E+03  0.26646397378E+03  0.17300000000E+03 0.  1.
         -6    1    1    2    0  503 -0.30441256404E+02  0.50521051643E+02  0.56786502087E+03  0.59655572136E+03  0.17300000000E+03 0.  1.
<mgrwt>
<rscale>  2 0.18277868E+03</rscale>
<asrwt>0</asrwt>
<pdfrwt beam="1">  1       21 0.12498299E+00 0.18277868E+03</pdfrwt>
<pdfrwt beam="2">  1       21 0.77892596E-02 0.18277868E+03</pdfrwt>
<totfact> 0.60282243E+04</totfact>
</mgrwt>
</event>
<event>
 4    1  0.4035350E+000  0.2291148E+03  0.7546771E-02  0.1127264E+00
         21   -1    0    0  501  502  0.00000000000E+00  0.00000000000E+00  0.22770276733E+03  0.22770276733E+03  0.00000000000E+00 0. -1.
         21   -1    0    0  502  503 -0.00000000000E+00 -0.00000000000E+00 -0.25057208514E+03  0.25057208514E+03  0.00000000000E+00 0. -1.
          6    1    1    2  501    0  0.12760636642E+03 -0.79254091393E+02  0.56187946166E+02  0.23590396573E+03  0.17300000000E+03 0. -1.
         -6    1    1    2    0  503 -0.12760636642E+03  0.79254091393E+02 -0.79057263979E+02  0.24237088674E+03  0.17300000000E+03 0. -1.
<mgrwt>
<rscale>  2 0.22911481E+03</rscale>
<asrwt>0</asrwt>
<pdfrwt beam="1">  1       21 0.35031195E-01 0.22911481E+03</pdfrwt>
<pdfrwt beam="2">  1       21 0.38549551E-01 0.22911481E+03</pdfrwt>
<totfact> 0.50118478E+04</totfact>
</mgrwt>
</event>
<event>
 4    1  0.4035350E+000  0.2143431E+03  0.7546771E-02  0.1138172E+00
         21   -1    0    0  501  502  0.00000000000E+00  0.00000000000E+00  0.16127389771E+03  0.16127389771E+03  0.00000000000E+00 0. -1.
         21   -1    0    0  502  503 -0.00000000000E+00 -0.00000000000E+00 -0.28648388950E+03  0.28648388950E+03  0.00000000000E+00 0. -1.
          6    1    1    2  501    0 -0.10904795431E+03  0.64206845340E+02 -0.45829921404E+02  0.21918794908E+03  0.17300000000E+03 0. -1.
         -6    1    1    2    0  503  0.10904795431E+03 -0.64206845340E+02 -0.79380070382E+02  0.22856983813E+03  0.17300000000E+03 0. -1.
<mgrwt>
<rscale>  2 0.21434313E+03</rscale>
<asrwt>0</asrwt>
<pdfrwt beam="1">  1       21 0.24811369E-01 0.21434313E+03</pdfrwt>
<pdfrwt beam="2">  1       21 0.44074444E-01 0.21434313E+03</pdfrwt>
<totfact> 0.75284022E+04</totfact>
</mgrwt>
</event>
<event>
 4    1  0.4035350E+000  0.1956965E+03  0.7546771E-02  0.1153422E+00
         21   -1    0    0  501  502  0.00000000000E+00  0.00000000000E+00  0.42063033299E+02  0.42063033299E+02  0.00000000000E+00 0.  1.
         21   -1    0    0  502  503 -0.00000000000E+00 -0.00000000000E+00 -0.93262700092E+03  0.93262700092E+03  0.00000000000E+00 0.  1.
          6    1    1    2  501    0 -0.53835168749E+02 -0.73958670482E+02 -0.37016423041E+03  0.41871072091E+03  0.17300000000E+03 0.  1.
         -6    1    1    2    0  503  0.53835168749E+02  0.73958670482E+02 -0.52039973721E+03  0.55597931331E+03  0.17300000000E+03 0.  1.
<mgrwt>
<rscale>  2 0.19569648E+03</rscale>
<asrwt>0</asrwt>
<pdfrwt beam="1">  1       21 0.64712357E-02 0.19569648E+03</pdfrwt>
<pdfrwt beam="2">  1       21 0.14348108E+00 0.19569648E+03</pdfrwt>
<totfact> 0.58054288E+04</totfact>
</mgrwt>
</event>
<event>
 4    1  0.4035350E+000  0.2262361E+03  0.7546771E-02  0.1129317E+00
         21   -1    0    0  501  502  0.00000000000E+00  0.00000000000E+00  0.63340950495E+03  0.63340950495E+03  0.00000000000E+00 0.  1.
         21   -1    0    0  502  503 -0.00000000000E+00 -0.00000000000E+00 -0.21514541816E+03  0.21514541816E+03  0.00000000000E+00 0.  1.
          6    1    1    2  501    0  0.13485610168E+03 -0.55386003273E+02 -0.12613197525E+03  0.25902133638E+03  0.17300000000E+03 0.  1.
         -6    1    1    2    0  503 -0.13485610168E+03  0.55386003273E+02  0.54439606204E+03  0.58953358673E+03  0.17300000000E+03 0.  1.
<mgrwt>
<rscale>  2 0.22623611E+03</rscale>
<asrwt>0</asrwt>
<pdfrwt beam="1">  1       21 0.97447615E-01 0.22623611E+03</pdfrwt>
<pdfrwt beam="2">  1       21 0.33099295E-01 0.22623611E+03</pdfrwt>
<totfact> 0.74896286E+03</totfact>
</mgrwt>
</event>
<event>
 4    1  0.4035350E+000  0.1833034E+03  0.7546771E-02  0.1164644E+00
         21   -1    0    0  501  502  0.00000000000E+00  0.00000000000E+00  0.38380341412E+03  0.38380341412E+03  0.00000000000E+00 0.  1.
         21   -1    0    0  502  503 -0.00000000000E+00 -0.00000000000E+00 -0.95568074021E+02  0.95568074021E+02  0.00000000000E+00 0.  1.
          6    1    1    2  501    0  0.49015524853E+02 -0.35617377391E+02  0.74670795389E+02  0.19792889363E+03  0.17300000000E+03 0.  1.
         -6    1    1    2    0  503 -0.49015524853E+02  0.35617377391E+02  0.21356454471E+03  0.28144259451E+03  0.17300000000E+03 0.  1.
<mgrwt>
<rscale>  2 0.18330335E+03</rscale>
<asrwt>0</asrwt>
<pdfrwt beam="1">  1       21 0.59046678E-01 0.18330335E+03</pdfrwt>
<pdfrwt beam="2">  1       21 0.14702781E-01 0.18330335E+03</pdfrwt>
<totfact> 0.10947858E+05</totfact>
</mgrwt>
</event>
<event>
 4    1  0.4035350E+000  0.2658804E+03  0.7546771E-02  0.1103661E+00
         21   -1    0    0  501  502  0.00000000000E+00  0.00000000000E+00  0.15572700036E+03  0.15572700036E+03  0.00000000000E+00 0.  1.
         21   -1    0    0  502  503 -0.00000000000E+00 -0.00000000000E+00 -0.84512756782E+03  0.84512756782E+03  0.00000000000E+00 0. -1.
          6    1    1    2  501    0 -0.30742114656E+02 -0.19954526285E+03 -0.42400466479E+01  0.26591421085E+03  0.17300000000E+03 0.  1.
         -6    1    1    2    0  503  0.30742114656E+02  0.19954526285E+03 -0.68516052082E+03  0.73494035733E+03  0.17300000000E+03 0. -1.
<mgrwt>
<rscale>  2 0.26588040E+03</rscale>
<asrwt>0</asrwt>
<pdfrwt beam="1">  1       21 0.23958001E-01 0.26588040E+03</pdfrwt>
<pdfrwt beam="2">  1       21 0.13001962E+00 0.26588040E+03</pdfrwt>
<totfact> 0.67528686E+03</totfact>
</mgrwt>
</event>
<event>
 4    1  0.4035350E+000  0.2694621E+03  0.7546771E-02  0.1101588E+00
         21   -1    0    0  501  502  0.00000000000E+00  0.00000000000E+00  0.17601533306E+03  0.17601533306E+03  0.00000000000E+00 0.  1.
         21   -1    0    0  502  503 -0.00000000000E+00 -0.00000000000E+00 -0.45743199237E+03  0.45743199237E+03  0.00000000000E+00 0. -1.
          6    1    1    2  501    0 -0.16869593643E+03 -0.11925808996E+03 -0.41465453122E+02  0.27263381080E+03  0.17300000000E+03 0.  1.
         -6    1    1    2    0  503  0.16869593643E+03  0.11925808996E+03 -0.23995120619E+03  0.36081351463E+03  0.17300000000E+03 0. -1.
<mgrwt>
<rscale>  2 0.26946208E+03</rscale>
<asrwt>0</asrwt>
<pdfrwt beam="1">  1       21 0.27079282E-01 0.26946208E+03</pdfrwt>
<pdfrwt beam="2">  1       21 0.70374153E-01 0.26946208E+03</pdfrwt>
<totfact> 0.22878412E+04</totfact>
</mgrwt>
</event>
<event>
 4    1  0.4035350E+000  0.2187512E+03  0.7546771E-02  0.1134817E+00
         21   -1    0    0  503  502  0.00000000000E+00  0.00000000000E+00  0.10559896835E+03  0.10559896835E+03  0.00000000000E+00 0. -1.
         21   -1    0    0  501  503 -0.00000000000E+00 -0.00000000000E+00 -0.48215370440E+03  0.48215370440E+03  0.00000000000E+00 0. -1.
          6    1    1    2  501    0 -0.70181240064E+02 -0.11400741412E+03 -0.11619916406E+03  0.24769808772E+03  0.17300000000E+03 0. -1.
         -6    1    1    2    0  502  0.70181240064E+02  0.11400741412E+03 -0.26035557198E+03  0.34005458502E+03  0.17300000000E+03 0. -1.
<mgrwt>
<rscale>  2 0.21875122E+03</rscale>
<asrwt>0</asrwt>
<pdfrwt beam="1">  1       21 0.16245995E-01 0.21875122E+03</pdfrwt>
<pdfrwt beam="2">  1       21 0.74177492E-01 0.21875122E+03</pdfrwt>
<totfact> 0.54573365E+04</totfact>
</mgrwt>
</event>
<event>
 4    1  0.4035350E+000  0.3825186E+03  0.7546771E-02  0.1050007E+00
         21   -1    0    0  503  502  0.00000000000E+00  0.00000000000E+00  0.11694666612E+04  0.11694666612E+04  0.00000000000E+00 0. -1.
         21   -1    0    0  501  503 -0.00000000000E+00 -0.00000000000E+00 -0.18641680106E+03  0.18641680106E+03  0.00000000000E+00 0.  1.
          6    1    1    2  501    0 -0.15464798865E+03 -0.30409782901E+03  0.10276779215E+03  0.39608295735E+03  0.17300000000E+03 0.  1.
         -6    1    1    2    0  502  0.15464798865E+03  0.30409782901E+03  0.88028206804E+03  0.95980050495E+03  0.17300000000E+03 0. -1.
<mgrwt>
<rscale>  2 0.38251861E+03</rscale>
<asrwt>0</asrwt>
<pdfrwt beam="1">  1       21 0.17991794E+00 0.38251861E+03</pdfrwt>
<pdfrwt beam="2">  1       21 0.28679509E-01 0.38251861E+03</pdfrwt>
<totfact> 0.18542392E+03</totfact>
</mgrwt>
</event>
<event>
 4    1  0.4035350E+000  0.1863666E+03  0.7546771E-02  0.1161780E+00
         21   -1    0    0  503  502  0.00000000000E+00  0.00000000000E+00  0.13324130467E+04  0.13324130467E+04  0.00000000000E+00 0.  1.
         21   -1    0    0  501  503 -0.00000000000E+00 -0.00000000000E+00 -0.38957394269E+02  0.38957394269E+02  0.00000000000E+00 0.  1.
          6    1    1    2  501    0  0.66241249608E+02 -0.20386264016E+02  0.25230983392E+03  0.31367619483E+03  0.17300000000E+03 0.  1.
         -6    1    1    2    0  502 -0.66241249608E+02  0.20386264016E+02  0.10411458185E+04  0.10576942461E+04  0.17300000000E+03 0.  1.
<mgrwt>
<rscale>  2 0.18636658E+03</rscale>
<asrwt>0</asrwt>
<pdfrwt beam="1">  1       21 0.20498659E+00 0.18636658E+03</pdfrwt>
<pdfrwt beam="2">  1       21 0.59934463E-02 0.18636658E+03</pdfrwt>
<totfact> 0.24768126E+04</totfact>
</mgrwt>
</event>
<event>
 4    1  0.4035350E+000  0.1870884E+03  0.7546771E-02  0.1161114E+00
         21   -1    0    0  501  502  0.00000000000E+00  0.00000000000E+00  0.38097348688E+03  0.38097348688E+03  0.00000000000E+00 0.  1.
         21   -1    0    0  502  503 -0.00000000000E+00 -0.00000000000E+00 -0.10288281219E+03  0.10288281219E+03  0.00000000000E+00 0. -1.
          6    1    1    2  501    0 -0.16536343385E+02  0.69279187529E+02  0.21817866313E+03  0.28740909088E+03  0.17300000000E+03 0.  1.
         -6    1    1    2    0  503  0.16536343385E+02 -0.69279187529E+02  0.59912011553E+02  0.19644720819E+03  0.17300000000E+03 0. -1.
<mgrwt>
<rscale>  2 0.18708837E+03</rscale>
<asrwt>0</asrwt>
<pdfrwt beam="1">  1       21 0.58611305E-01 0.18708837E+03</pdfrwt>
<pdfrwt beam="2">  1       21 0.15828125E-01 0.18708837E+03</pdfrwt>
<totfact> 0.97104181E+04</totfact>
</mgrwt>
</event>
<event>
 4    1  0.4035350E+000  0.2171338E+03  0.7546771E-02  0.1136038E+00
         21   -1    0    0  503  502  0.00000000000E+00  0.00000000000E+00  0.28308729463E+03  0.28308729463E+03  0.00000000000E+00 0. -1.
         21   -1    0    0  501  503 -0.00000000000E+00 -0.00000000000E+00 -0.19510688464E+03  0.19510688464E+03  0.00000000000E+00 0. -1.
          6    1    1    2  501    0 -0.11076715127E+03 -0.70347226750E+02 -0.47489090601E+02  0.22226629938E+03  0.17300000000E+03 0. -1.
         -6    1    1    2    0  502  0.11076715127E+03  0.70347226750E+02  0.13546950060E+03  0.25592787989E+03  0.17300000000E+03 0. -1.
<mgrwt>
<rscale>  2 0.21713382E+03</rscale>
<asrwt>0</asrwt>
<pdfrwt beam="1">  1       21 0.43551891E-01 0.21713382E+03</pdfrwt>
<pdfrwt beam="2">  1       21 0.30016444E-01 0.21713382E+03</pdfrwt>
<totfact> 0.53323261E+04</totfact>
</mgrwt>
</event>
<event>
 4    1  0.4035350E+000  0.1969566E+03  0.7546771E-02  0.1152332E+00
         21   -1    0    0  503  502  0.00000000000E+00  0.00000000000E+00  0.28156233911E+03  0.28156233911E+03  0.00000000000E+00 0. -1.
         21   -1    0    0  501  503 -0.00000000000E+00 -0.00000000000E+00 -0.15470860595E+03  0.15470860595E+03  0.00000000000E+00 0.  1.
          6    1    1    2  501    0 -0.45765823400E+02 -0.82270210281E+02  0.13559739212E+03  0.23912036894E+03  0.17300000000E+03 0. -1.
         -6    1    1    2    0  502  0.45765823400E+02  0.82270210281E+02 -0.87436589687E+01  0.19715057612E+03  0.17300000000E+03 0.  1.
<mgrwt>
<rscale>  2 0.19695659E+03</rscale>
<asrwt>0</asrwt>
<pdfrwt beam="1">  1       21 0.43317283E-01 0.19695659E+03</pdfrwt>
<pdfrwt beam="2">  1       21 0.23801324E-01 0.19695659E+03</pdfrwt>
<totfact> 0.85060836E+04</totfact>
</mgrwt>
</event>
<event>
 4    1  0.4035350E+000  0.1731775E+03  0.7546771E-02  0.1174574E+00
         21   -1    0    0  501  502  0.00000000000E+00  0.00000000000E+00  0.29131861585E+03  0.29131861585E+03  0.00000000000E+00 0.  1.
         21   -1    0    0  502  503 -0.00000000000E+00 -0.00000000000E+00 -0.14413274973E+03  0.14413274973E+03  0.00000000000E+00 0.  1.
          6    1    1    2  501    0  0.78214088536E+01 -0.51685459318E+00 -0.42793043340E+02  0.17838633954E+03  0.17300000000E+03 0.  1.
         -6    1    1    2    0  503 -0.78214088536E+01  0.51685459318E+00  0.18997890946E+03  0.25706502605E+03  0.17300000000E+03 0.  1.
<mgrwt>
<rscale>  2 0.17317749E+03</rscale>
<asrwt>0</asrwt>
<pdfrwt beam="1">  1       21 0.44818248E-01 0.17317749E+03</pdfrwt>
<pdfrwt beam="2">  1       21 0.22174269E-01 0.17317749E+03</pdfrwt>
<totfact> 0.91573114E+04</totfact>
</mgrwt>
</event>
<event>
 4    1  0.4035350E+000  0.1988515E+03  0.7546771E-02  0.1150712E+00
         21   -1    0    0  501  502  0.00000000000E+00  0.00000000000E+00  0.20348184350E+04  0.20348184350E+04  0.00000000000E+00 0. -1.
         21   -1    0    0  502  503 -0.00000000000E+00 -0.00000000000E+00 -0.24467175292E+02  0.24467175292E+02  0.00000000000E+00 0. -1.
          6    1    1    2  501    0 -0.17879020851E+02 -0.96401619992E+02  0.14722365923E+04  0.14856051008E+04  0.17300000000E+03 0. -1.
         -6    1    1    2    0  503  0.17879020851E+02  0.96401619992E+02  0.53811466736E+03  0.57368050948E+03  0.17300000000E+03 0. -1.
<mgrwt>
<rscale>  2 0.19885153E+03</rscale>
<asrwt>0</asrwt>
<pdfrwt beam="1">  1       21 0.31304886E+00 0.19885153E+03</pdfrwt>
<pdfrwt beam="2">  1       21 0.37641824E-02 0.19885153E+03</pdfrwt>
<totfact> 0.12371628E+04</totfact>
</mgrwt>
</event>
<event>
 4    1  0.4035350E+000  0.1755618E+03  0.7546771E-02  0.1172169E+00
         21   -1    0    0  503  502  0.00000000000E+00  0.00000000000E+00  0.90790925415E+02  0.90790925415E+02  0.00000000000E+00 0. -1.
         21   -1    0    0  501  503 -0.00000000000E+00 -0.00000000000E+00 -0.40551850591E+03  0.40551850591E+03  0.00000000000E+00 0. -1.
          6    1    1    2  501    0 -0.27194827663E+02  0.12384502392E+02 -0.25750375626E+03  0.31165705357E+03  0.17300000000E+03 0. -1.
         -6    1    1    2    0  502  0.27194827663E+02 -0.12384502392E+02 -0.57223824235E+02  0.18465237776E+03  0.17300000000E+03 0. -1.
<mgrwt>
<rscale>  2 0.17556177E+03</rscale>
<asrwt>0</asrwt>
<pdfrwt beam="1">  1       21 0.13967835E-01 0.17556177E+03</pdfrwt>
<pdfrwt beam="2">  1       21 0.62387463E-01 0.17556177E+03</pdfrwt>
<totfact> 0.10705858E+05</totfact>
</mgrwt>
</event>
<event>
 4    1  0.4035350E+000  0.1753635E+03  0.7546771E-02  0.1172367E+00
         21   -1    0    0  503  502  0.00000000000E+00  0.00000000000E+00  0.10777094807E+03  0.10777094807E+03  0.00000000000E+00 0.  1.
         21   -1    0    0  501  503 -0.00000000000E+00 -0.00000000000E+00 -0.28717015125E+03  0.28717015125E+03  0.00000000000E+00 0.  1.
          6    1    1    2  501    0  0.27854774328E+02 -0.68892887376E+01 -0.10542440542E+03  0.20461343067E+03  0.17300000000E+03 0. -1.
         -6    1    1    2    0  502 -0.27854774328E+02  0.68892887376E+01 -0.73974797756E+02  0.19032766865E+03  0.17300000000E+03 0. -1.
<mgrwt>
<rscale>  2 0.17536348E+03</rscale>
<asrwt>0</asrwt>
<pdfrwt beam="1">  1       21 0.16580146E-01 0.17536348E+03</pdfrwt>
<pdfrwt beam="2">  1       21 0.44180023E-01 0.17536348E+03</pdfrwt>
<totfact> 0.16161560E+05</totfact>
</mgrwt>
</event>
<event>
 4    1  0.4035350E+000  0.2725238E+03  0.7546771E-02  0.1099844E+00
         21   -1    0    0  501  502  0.00000000000E+00  0.00000000000E+00  0.62001503361E+03  0.62001503361E+03  0.00000000000E+00 0.  1.
         21   -1    0    0  502  503 -0.00000000000E+00 -0.00000000000E+00 -0.23236767152E+03  0.23236767152E+03  0.00000000000E+00 0.  1.
          6    1    1    2  501    0  0.21028090137E+03 -0.11053428738E+02  0.49047772242E+03  0.56110394042E+03  0.17300000000E+03 0.  1.
         -6    1    1    2    0  503 -0.21028090137E+03  0.11053428738E+02 -0.10283036033E+03  0.29127876471E+03  0.17300000000E+03 0.  1.
<mgrwt>
<rscale>  2 0.27252383E+03</rscale>
<asrwt>0</asrwt>
<pdfrwt beam="1">  1       21 0.95386927E-01 0.27252383E+03</pdfrwt>
<pdfrwt beam="2">  1       21 0.35748873E-01 0.27252383E+03</pdfrwt>
<totfact> 0.65733945E+03</totfact>
</mgrwt>
</event>
<event>
 4    1  0.4035350E+000  0.2310092E+03  0.7546771E-02  0.1125931E+00
         21   -1    0    0  503  502  0.00000000000E+00  0.00000000000E+00  0.61446209498E+03  0.61446209498E+03  0.00000000000E+00 0. -1.
         21   -1    0    0  501  503 -0.00000000000E+00 -0.00000000000E+00 -0.38492576296E+03  0.38492576296E+03  0.00000000000E+00 0. -1.
          6    1    1    2  501    0 -0.13829682518E+03  0.65652493582E+02 -0.32495548962E+03  0.39869955104E+03  0.17300000000E+03 0. -1.
         -6    1    1    2    0  502  0.13829682518E+03 -0.65652493582E+02  0.55449182165E+03  0.60068830689E+03  0.17300000000E+03 0. -1.
<mgrwt>
<rscale>  2 0.23100922E+03</rscale>
<asrwt>0</asrwt>
<pdfrwt beam="1">  1       21 0.94532630E-01 0.23100922E+03</pdfrwt>
<pdfrwt beam="2">  1       21 0.59219348E-01 0.23100922E+03</pdfrwt>
<totfact> 0.24192016E+03</totfact>
</mgrwt>
</event>
<event>
 4    1  0.4035350E+000  0.1841083E+03  0.7546771E-02  0.1163885E+00
         21   -1    0    0  503  502  0.00000000000E+00  0.00000000000E+00  0.19491029079E+03  0.19491029079E+03  0.00000000000E+00 0. -1.
         21   -1    0    0  501  503 -0.00000000000E+00 -0.00000000000E+00 -0.42528414531E+03  0.42528414531E+03  0.00000000000E+00 0. -1.
          6    1    1    2  501    0  0.59395724125E+02 -0.20952922088E+02 -0.35359605776E+03  0.39865530105E+03  0.17300000000E+03 0. -1.
         -6    1    1    2    0  502 -0.59395724125E+02  0.20952922088E+02  0.12322220324E+03  0.22153913505E+03  0.17300000000E+03 0. -1.
<mgrwt>
<rscale>  2 0.18410833E+03</rscale>
<asrwt>0</asrwt>
<pdfrwt beam="1">  1       21 0.29986199E-01 0.18410833E+03</pdfrwt>
<pdfrwt beam="2">  1       21 0.65428330E-01 0.18410833E+03</pdfrwt>
<totfact> 0.23028978E+04</totfact>
</mgrwt>
</event>
<event>
 4    1  0.4035350E+000  0.2150286E+03  0.7546771E-02  0.1137645E+00
         21   -1    0    0  503  502  0.00000000000E+00  0.00000000000E+00  0.24673239707E+03  0.24673239707E+03  0.00000000000E+00 0.  1.
         21   -1    0    0  501  503 -0.00000000000E+00 -0.00000000000E+00 -0.19257042161E+03  0.19257042161E+03  0.00000000000E+00 0.  1.
          6    1    1    2  501    0 -0.35836102588E+02 -0.12257274454E+03  0.63077571250E+02  0.22408945524E+03  0.17300000000E+03 0.  1.
         -6    1    1    2    0  502  0.35836102588E+02  0.12257274454E+03 -0.89155957883E+01  0.21521336344E+03  0.17300000000E+03 0.  1.
<mgrwt>
<rscale>  2 0.21502861E+03</rscale>
<asrwt>0</asrwt>
<pdfrwt beam="1">  1       21 0.37958831E-01 0.21502861E+03</pdfrwt>
<pdfrwt beam="2">  1       21 0.29626218E-01 0.21502861E+03</pdfrwt>
<totfact> 0.72380294E+04</totfact>
</mgrwt>
</event>
<event>
 4    1  0.4035350E+000  0.2379627E+03  0.7546771E-02  0.1121157E+00
         21   -1    0    0  503  502  0.00000000000E+00  0.00000000000E+00  0.84025490888E+02  0.84025490888E+02  0.00000000000E+00 0.  1.
         21   -1    0    0  501  503 -0.00000000000E+00 -0.00000000000E+00 -0.69666543066E+03  0.69666543066E+03  0.00000000000E+00 0.  1.
          6    1    1    2  501    0  0.38855228286E+02  0.15870582554E+03 -0.37685515075E+03  0.44569728794E+03  0.17300000000E+03 0.  1.
         -6    1    1    2    0  502 -0.38855228286E+02 -0.15870582554E+03 -0.23578478902E+03  0.33499363361E+03  0.17300000000E+03 0.  1.
<mgrwt>
<rscale>  2 0.23796274E+03</rscale>
<asrwt>0</asrwt>
<pdfrwt beam="1">  1       21 0.12926999E-01 0.23796274E+03</pdfrwt>
<pdfrwt beam="2">  1       21 0.10717930E+00 0.23796274E+03</pdfrwt>
<totfact> 0.34868696E+04</totfact>
</mgrwt>
</event>
<event>
 4    1  0.4035350E+000  0.1755089E+03  0.7546771E-02  0.1172222E+00
         21   -1    0    0  503  502  0.00000000000E+00  0.00000000000E+00  0.10479536003E+04  0.10479536003E+04  0.00000000000E+00 0. -1.
         21   -1    0    0  501  503 -0.00000000000E+00 -0.00000000000E+00 -0.40179105563E+02  0.40179105563E+02  0.00000000000E+00 0. -1.
          6    1    1    2  501    0 -0.27227676690E+02  0.11533932443E+02  0.22200533757E+03  0.28300132135E+03  0.17300000000E+03 0. -1.
         -6    1    1    2    0  502  0.27227676690E+02 -0.11533932443E+02  0.78576915715E+03  0.80513138450E+03  0.17300000000E+03 0. -1.
<mgrwt>
<rscale>  2 0.17550891E+03</rscale>
<asrwt>0</asrwt>
<pdfrwt beam="1">  1       21 0.16122361E+00 0.17550891E+03</pdfrwt>
<pdfrwt beam="2">  1       21 0.61814017E-02 0.17550891E+03</pdfrwt>
<totfact> 0.46673485E+04</totfact>
</mgrwt>
</event>
<event>
 4    1  0.4035350E+000  0.1941664E+03  0.7546771E-02  0.1154756E+00
         21   -1    0    0  501  502  0.00000000000E+00  0.00000000000E+00  0.31662173786E+04  0.31662173786E+04  0.00000000000E+00 0. -1.
         21   -1    0    0  502  503 -0.00000000000E+00 -0.00000000000E+00 -0.25185652943E+02  0.25185652943E+02  0.00000000000E+00 0. -1.
          6    1    1    2  501    0  0.76637049241E+02 -0.43570068001E+02  0.27291592816E+04  0.27360575601E+04  0.17300000000E+03 0. -1.
         -6    1    1    2    0  503 -0.76637049241E+02  0.43570068001E+02  0.41187244409E+03  0.45534547142E+03  0.17300000000E+03 0. -1.
<mgrwt>
<rscale>  2 0.19416639E+03</rscale>
<asrwt>0</asrwt>
<pdfrwt beam="1">  1       21 0.48711005E+00 0.19416639E+03</pdfrwt>
<pdfrwt beam="2">  1       21 0.38747183E-02 0.19416639E+03</pdfrwt>
<totfact> 0.96059463E+02</totfact>
</mgrwt>
</event>
<event>
 4    1  0.4035350E+000  0.1813049E+03  0.7546771E-02  0.1166546E+00
         21   -1    0    0  503  502  0.00000000000E+00  0.00000000000E+00  0.17629018447E+03  0.17629018447E+03  0.00000000000E+00 0. -1.
         21   -1    0    0  501  503 -0.00000000000E+00 -0.00000000000E+00 -0.19855862813E+03  0.19855862813E+03  0.00000000000E+00 0. -1.
          6    1    1    2  501    0 -0.33552486095E+02 -0.42622819135E+02 -0.57394523796E+02  0.19017256741E+03  0.17300000000E+03 0. -1.
         -6    1    1    2    0  502  0.33552486095E+02  0.42622819135E+02  0.35126080137E+02  0.18467624520E+03  0.17300000000E+03 0. -1.
<mgrwt>
<rscale>  2 0.18130492E+03</rscale>
<asrwt>0</asrwt>
<pdfrwt beam="1">  1       21 0.27121567E-01 0.18130492E+03</pdfrwt>
<pdfrwt beam="2">  1       21 0.30547481E-01 0.18130492E+03</pdfrwt>
<totfact> 0.13379086E+05</totfact>
</mgrwt>
</event>
<event>
 4    1  0.4035350E+000  0.3382440E+03  0.7546771E-02  0.1067546E+00
         21   -1    0    0  503  502  0.00000000000E+00  0.00000000000E+00  0.57086710724E+03  0.57086710724E+03  0.00000000000E+00 0.  1.
         21   -1    0    0  501  503 -0.00000000000E+00 -0.00000000000E+00 -0.26974492392E+03  0.26974492392E+03  0.00000000000E+00 0. -1.
          6    1    1    2  501    0  0.15370818684E+03  0.24668558135E+03 -0.62525795924E+02  0.34397450182E+03  0.17300000000E+03 0. -1.
         -6    1    1    2    0  502 -0.15370818684E+03 -0.24668558135E+03  0.36364797924E+03  0.49663752934E+03  0.17300000000E+03 0.  1.
<mgrwt>
<rscale>  2 0.33824397E+03</rscale>
<asrwt>0</asrwt>
<pdfrwt beam="1">  1       21 0.87825708E-01 0.33824397E+03</pdfrwt>
<pdfrwt beam="2">  1       21 0.41499219E-01 0.33824397E+03</pdfrwt>
<totfact> 0.57093520E+03</totfact>
</mgrwt>
</event>
<event>
 4    1  0.4035350E+000  0.1906226E+03  0.7546771E-02  0.1157901E+00
         21   -1    0    0  503  502  0.00000000000E+00  0.00000000000E+00  0.71646847542E+02  0.71646847542E+02  0.00000000000E+00 0.  1.
         21   -1    0    0  501  503 -0.00000000000E+00 -0.00000000000E+00 -0.79782780946E+03  0.79782780946E+03  0.00000000000E+00 0.  1.
          6    1    1    2  501    0  0.71527275665E+02 -0.35942088875E+02 -0.62549111221E+03  0.65389304658E+03  0.17300000000E+03 0.  1.
         -6    1    1    2    0  502 -0.71527275665E+02  0.35942088875E+02 -0.10068984971E+03  0.21558161042E+03  0.17300000000E+03 0.  1.
<mgrwt>
<rscale>  2 0.19062262E+03</rscale>
<asrwt>0</asrwt>
<pdfrwt beam="1">  1       21 0.11022591E-01 0.19062262E+03</pdfrwt>
<pdfrwt beam="2">  1       21 0.12274275E+00 0.19062262E+03</pdfrwt>
<totfact> 0.34130033E+04</totfact>
</mgrwt>
</event>
<event>
 4    1  0.4035350E+000  0.4021034E+03  0.7546771E-02  0.1043054E+00
         21   -1    0    0  501  502  0.00000000000E+00  0.00000000000E+00  0.19197551857E+04  0.19197551857E+04  0.00000000000E+00 0.  1.
         21   -1    0    0  502  503 -0.00000000000E+00 -0.00000000000E+00 -0.89559215776E+02  0.89559215776E+02  0.00000000000E+00 0.  1.
          6    1    1    2  501    0  0.25872895451E+03  0.25459278141E+03  0.11603358953E+04  0.12280336096E+04  0.17300000000E+03 0.  1.
         -6    1    1    2    0  503 -0.25872895451E+03 -0.25459278141E+03  0.66986007454E+03  0.78128079185E+03  0.17300000000E+03 0.  1.
<mgrwt>
<rscale>  2 0.40210341E+03</rscale>
<asrwt>0</asrwt>
<pdfrwt beam="1">  1       21 0.29534692E+00 0.40210341E+03</pdfrwt>
<pdfrwt beam="2">  1       21 0.13778342E-01 0.40210341E+03</pdfrwt>
<totfact> 0.13875131E+03</totfact>
</mgrwt>
</event>
<event>
 4    1  0.4035350E+000  0.1736567E+03  0.7546771E-02  0.1174087E+00
         21   -1    0    0  501  502  0.00000000000E+00  0.00000000000E+00  0.15993500968E+03  0.15993500968E+03  0.00000000000E+00 0. -1.
         21   -1    0    0  502  503 -0.00000000000E+00 -0.00000000000E+00 -0.19532537073E+03  0.19532537073E+03  0.00000000000E+00 0. -1.
          6    1    1    2  501    0  0.14687102467E+02 -0.34552230250E+01  0.15373956481E+02  0.17433590589E+03  0.17300000000E+03 0.  1.
         -6    1    1    2    0  503 -0.14687102467E+02  0.34552230250E+01 -0.50764317526E+02  0.18092447452E+03  0.17300000000E+03 0.  1.
<mgrwt>
<rscale>  2 0.17365670E+03</rscale>
<asrwt>0</asrwt>
<pdfrwt beam="1">  1       21 0.24605386E-01 0.17365670E+03</pdfrwt>
<pdfrwt beam="2">  1       21 0.30050057E-01 0.17365670E+03</pdfrwt>
<totfact> 0.16682057E+05</totfact>
</mgrwt>
</event>
<event>
 4    1  0.4035350E+000  0.1916897E+03  0.7546771E-02  0.1156946E+00
         21   -1    0    0  503  502  0.00000000000E+00  0.00000000000E+00  0.16289382603E+03  0.16289382603E+03  0.00000000000E+00 0.  1.
         21   -1    0    0  501  503 -0.00000000000E+00 -0.00000000000E+00 -0.23826445290E+03  0.23826445290E+03  0.00000000000E+00 0.  1.
          6    1    1    2  501    0 -0.22037116909E+01  0.82529186470E+02 -0.83972631787E+02  0.20927571731E+03  0.17300000000E+03 0.  1.
         -6    1    1    2    0  502  0.22037116909E+01 -0.82529186470E+02  0.86020049155E+01  0.19188256162E+03  0.17300000000E+03 0.  1.
<mgrwt>
<rscale>  2 0.19168965E+03</rscale>
<asrwt>0</asrwt>
<pdfrwt beam="1">  1       21 0.25060589E-01 0.19168965E+03</pdfrwt>
<pdfrwt beam="2">  1       21 0.36656070E-01 0.19168965E+03</pdfrwt>
<totfact> 0.10825826E+05</totfact>
</mgrwt>
</event>
<event>
 4    1  0.4035350E+000  0.1781020E+03  0.7546771E-02  0.1169653E+00
         21   -1    0    0  501  502  0.00000000000E+00  0.00000000000E+00  0.28030781137E+03  0.28030781137E+03  0.00000000000E+00 0.  1.
         21   -1    0    0  502  503 -0.00000000000E+00 -0.00000000000E+00 -0.22826420540E+03  0.22826420540E+03  0.00000000000E+00 0.  1.
          6    1    1    2  501    0 -0.42239187740E+02  0.26792764729E+01  0.20659133467E+03  0.27276419681E+03  0.17300000000E+03 0.  1.
         -6    1    1    2    0  503  0.42239187740E+02 -0.26792764729E+01 -0.15454772870E+03  0.23580781995E+03  0.17300000000E+03 0.  1.
<mgrwt>
<rscale>  2 0.17810201E+03</rscale>
<asrwt>0</asrwt>
<pdfrwt beam="1">  1       21 0.43124279E-01 0.17810201E+03</pdfrwt>
<pdfrwt beam="2">  1       21 0.35117570E-01 0.17810201E+03</pdfrwt>
<totfact> 0.40712091E+04</totfact>
</mgrwt>
</event>
<event>
 4    1  0.4035350E+000  0.2072711E+03  0.7546771E-02  0.1143745E+00
         21   -1    0    0  501  502  0.00000000000E+00  0.00000000000E+00  0.45060305925E+03  0.45060305925E+03  0.00000000000E+00 0. -1.
         21   -1    0    0  502  503 -0.00000000000E+00 -0.00000000000E+00 -0.12108524497E+03  0.12108524497E+03  0.00000000000E+00 0.  1.
          6    1    1    2  501    0  0.51582419028E+02 -0.10184094648E+03  0.32958515114E+02  0.20987517255E+03  0.17300000000E+03 0.  1.
         -6    1    1    2    0  503 -0.51582419028E+02  0.10184094648E+03  0.29655929916E+03  0.36181313167E+03  0.17300000000E+03 0. -1.
<mgrwt>
<rscale>  2 0.20727114E+03</rscale>
<asrwt>0</asrwt>
<pdfrwt beam="1">  1       21 0.69323547E-01 0.20727114E+03</pdfrwt>
<pdfrwt beam="2">  1       21 0.18628500E-01 0.20727114E+03</pdfrwt>
<totfact> 0.49515813E+04</totfact>
</mgrwt>
</event>
<event>
 4    1  0.4035350E+000  0.2026590E+03  0.7546771E-02  0.1147515E+00
         21   -1    0    0  501  502  0.00000000000E+00  0.00000000000E+00  0.65201184310E+02  0.65201184310E+02  0.00000000000E+00 0. -1.
         21   -1    0    0  502  503 -0.00000000000E+00 -0.00000000000E+00 -0.72277920573E+03  0.72277920573E+03  0.00000000000E+00 0. -1.
          6    1    1    2  501    0  0.41869070038E+01 -0.10547109156E+03 -0.47001853861E+03  0.51184773906E+03  0.17300000000E+03 0. -1.
         -6    1    1    2    0  503 -0.41869070038E+01  0.10547109156E+03 -0.18755948280E+03  0.27613265097E+03  0.17300000000E+03 0. -1.
<mgrwt>
<rscale>  2 0.20265903E+03</rscale>
<asrwt>0</asrwt>
<pdfrwt beam="1">  1       21 0.10030952E-01 0.20265903E+03</pdfrwt>
<pdfrwt beam="2">  1       21 0.11119680E+00 0.20265903E+03</pdfrwt>
<totfact> 0.51077104E+04</totfact>
</mgrwt>
</event>
<event>
 4    1  0.4035350E+000  0.1770193E+03  0.7546771E-02  0.1170719E+00
         21   -1    0    0  503  502  0.00000000000E+00  0.00000000000E+00  0.56825158398E+02  0.56825158398E+02  0.00000000000E+00 0. -1.
         21   -1    0    0  501  503 -0.00000000000E+00 -0.00000000000E+00 -0.55357471251E+03  0.55357471251E+03  0.00000000000E+00 0. -1.
          6    1    1    2  501    0  0.23951178521E+02  0.28864714210E+02 -0.26731433565E+03  0.32061313873E+03  0.17300000000E+03 0. -1.
         -6    1    1    2    0  502 -0.23951178521E+02 -0.28864714210E+02 -0.22943521846E+03  0.28978673218E+03  0.17300000000E+03 0. -1.
<mgrwt>
<rscale>  2 0.17701929E+03</rscale>
<asrwt>0</asrwt>
<pdfrwt beam="1">  1       21 0.87423328E-02 0.17701929E+03</pdfrwt>
<pdfrwt beam="2">  1       21 0.85165333E-01 0.17701929E+03</pdfrwt>
<totfact> 0.12333172E+05</totfact>
</mgrwt>
</event>
<event>
 4    1  0.4035350E+000  0.2198772E+03  0.7546771E-02  0.1133975E+00
         21   -1    0    0  503  502  0.00000000000E+00  0.00000000000E+00  0.21751157646E+03  0.21751157646E+03  0.00000000000E+00 0.  1.
         21   -1    0    0  501  503 -0.00000000000E+00 -0.00000000000E+00 -0.25644321480E+03  0.25644321480E+03  0.00000000000E+00 0.  1.
          6    1    1    2  501    0  0.21177972459E+02 -0.13404657427E+03  0.67043564410E+02  0.22987133384E+03  0.17300000000E+03 0.  1.
         -6    1    1    2    0  502 -0.21177972459E+02  0.13404657427E+03 -0.10597520274E+03  0.24408345742E+03  0.17300000000E+03 0.  1.
<mgrwt>
<rscale>  2 0.21987722E+03</rscale>
<asrwt>0</asrwt>
<pdfrwt beam="1">  1       21 0.33463320E-01 0.21987722E+03</pdfrwt>
<pdfrwt beam="2">  1       21 0.39452802E-01 0.21987722E+03</pdfrwt>
<totfact> 0.52594736E+04</totfact>
</mgrwt>
</event>
<event>
 4    1  0.4035350E+000  0.1797110E+03  0.7546771E-02  0.1168083E+00
         21   -1    0    0  501  502  0.00000000000E+00  0.00000000000E+00  0.47074038795E+03  0.47074038795E+03  0.00000000000E+00 0. -1.
         21   -1    0    0  502  503 -0.00000000000E+00 -0.00000000000E+00 -0.13995298976E+03  0.13995298976E+03  0.00000000000E+00 0. -1.
          6    1    1    2  501    0  0.16127389108E+02  0.45901501113E+02  0.38340911373E+03  0.42343664104E+03  0.17300000000E+03 0. -1.
         -6    1    1    2    0  503 -0.16127389108E+02 -0.45901501113E+02 -0.52621715532E+02  0.18725673667E+03  0.17300000000E+03 0. -1.
<mgrwt>
<rscale>  2 0.17971099E+03</rscale>
<asrwt>0</asrwt>
<pdfrwt beam="1">  1       21 0.72421598E-01 0.17971099E+03</pdfrwt>
<pdfrwt beam="2">  1       21 0.21531229E-01 0.17971099E+03</pdfrwt>
<totfact> 0.34785452E+04</totfact>
</mgrwt>
</event>
<event>
 4    1  0.4035350E+000  0.1911006E+03  0.7546771E-02  0.1157472E+00
         21   -1    0    0  503  502  0.00000000000E+00  0.00000000000E+00  0.67434489204E+02  0.67434489204E+02  0.00000000000E+00 0.  1.
         21   -1    0    0  501  503 -0.00000000000E+00 -0.00000000000E+00 -0.75033854783E+03  0.75033854783E+03  0.00000000000E+00 0.  1.
          6    1    1    2  501    0  0.80129437472E+02  0.13026918766E+02 -0.55713863945E+03  0.58900160520E+03  0.17300000000E+03 0.  1.
         -6    1    1    2    0  502 -0.80129437472E+02 -0.13026918766E+02 -0.12576541918E+03  0.22877143183E+03  0.17300000000E+03 0.  1.
<mgrwt>
<rscale>  2 0.19110057E+03</rscale>
<asrwt>0</asrwt>
<pdfrwt beam="1">  1       21 0.10374536E-01 0.19110057E+03</pdfrwt>
<pdfrwt beam="2">  1       21 0.11543671E+00 0.19110057E+03</pdfrwt>
<totfact> 0.44203934E+04</totfact>
</mgrwt>
</event>
<event>
 4    1  0.4035350E+000  0.2549538E+03  0.7546771E-02  0.1110214E+00
         21   -1    0    0  501  502  0.00000000000E+00  0.00000000000E+00  0.27715954617E+03  0.27715954617E+03  0.00000000000E+00 0.  1.
         21   -1    0    0  502  503 -0.00000000000E+00 -0.00000000000E+00 -0.33531476512E+03  0.33531476512E+03  0.00000000000E+00 0.  1.
          6    1    1    2  501    0 -0.17703047010E+03  0.61095368541E+02  0.13881639317E+03  0.29029540543E+03  0.17300000000E+03 0.  1.
         -6    1    1    2    0  503  0.17703047010E+03 -0.61095368541E+02 -0.19697161211E+03  0.32217890586E+03  0.17300000000E+03 0.  1.
<mgrwt>
<rscale>  2 0.25495378E+03</rscale>
<asrwt>0</asrwt>
<pdfrwt beam="1">  1       21 0.42639930E-01 0.25495378E+03</pdfrwt>
<pdfrwt beam="2">  1       21 0.51586887E-01 0.25495378E+03</pdfrwt>
<totfact> 0.18250522E+04</totfact>
</mgrwt>
</event>
<event>
 4    1  0.4035350E+000  0.2826702E+03  0.7546771E-02  0.1094239E+00
         21   -1    0    0  501  502  0.00000000000E+00  0.00000000000E+00  0.41632028306E+02  0.41632028306E+02  0.00000000000E+00 0.  1.
         21   -1    0    0  502  503 -0.00000000000E+00 -0.00000000000E+00 -0.19195735847E+04  0.19195735847E+04  0.00000000000E+00 0.  1.
          6    1    1    2  501    0 -0.17914731636E+03  0.13371489696E+03 -0.95162455174E+03  0.99271935717E+03  0.17300000000E+03 0.  1.
         -6    1    1    2    0  503  0.17914731636E+03 -0.13371489696E+03 -0.92631700463E+03  0.96848625581E+03  0.17300000000E+03 0.  1.
<mgrwt>
<rscale>  2 0.28267019E+03</rscale>
<asrwt>0</asrwt>
<pdfrwt beam="1">  1       21 0.64049247E-02 0.28267019E+03</pdfrwt>
<pdfrwt beam="2">  1       21 0.29531914E+00 0.28267019E+03</pdfrwt>
<totfact> 0.58876582E+03</totfact>
</mgrwt>
</event>
<event>
 4    1  0.4035350E+000  0.1846531E+03  0.7546771E-02  0.1163374E+00
         21   -1    0    0  501  502  0.00000000000E+00  0.00000000000E+00  0.47170411187E+03  0.47170411187E+03  0.00000000000E+00 0. -1.
         21   -1    0    0  502  503 -0.00000000000E+00 -0.00000000000E+00 -0.72396951995E+02  0.72396951995E+02  0.00000000000E+00 0. -1.
          6    1    1    2  501    0  0.42504008872E+02  0.48592050807E+02  0.21038740039E+03  0.27992791289E+03  0.17300000000E+03 0.  1.
         -6    1    1    2    0  503 -0.42504008872E+02 -0.48592050807E+02  0.18891975948E+03  0.26417315097E+03  0.17300000000E+03 0.  1.
<mgrwt>
<rscale>  2 0.18465313E+03</rscale>
<asrwt>0</asrwt>
<pdfrwt beam="1">  1       21 0.72569861E-01 0.18465313E+03</pdfrwt>
<pdfrwt beam="2">  1       21 0.11137993E-01 0.18465313E+03</pdfrwt>
<totfact> 0.11501995E+05</totfact>
</mgrwt>
</event>
<event>
 4    1  0.4035350E+000  0.1972815E+03  0.7546771E-02  0.1152053E+00
         21   -1    0    0  501  502  0.00000000000E+00  0.00000000000E+00  0.27009924745E+03  0.27009924745E+03  0.00000000000E+00 0. -1.
         21   -1    0    0  502  503 -0.00000000000E+00 -0.00000000000E+00 -0.18311562096E+03  0.18311562096E+03  0.00000000000E+00 0.  1.
          6    1    1    2  501    0 -0.72300588556E+02  0.61348411205E+02  0.14809802662E+03  0.24668406546E+03  0.17300000000E+03 0. -1.
         -6    1    1    2    0  503  0.72300588556E+02 -0.61348411205E+02 -0.61114400141E+02  0.20653080295E+03  0.17300000000E+03 0.  1.
<mgrwt>
<rscale>  2 0.19728153E+03</rscale>
<asrwt>0</asrwt>
<pdfrwt beam="1">  1       21 0.41553731E-01 0.19728153E+03</pdfrwt>
<pdfrwt beam="2">  1       21 0.28171634E-01 0.19728153E+03</pdfrwt>
<totfact> 0.66997879E+04</totfact>
</mgrwt>
</event>
<event>
 4    1  0.4035350E+000  0.2033042E+03  0.7546771E-02  0.1146981E+00
         21   -1    0    0  503  502  0.00000000000E+00  0.00000000000E+00  0.10795174212E+03  0.10795174212E+03  0.00000000000E+00 0. -1.
         21   -1    0    0  501  503 -0.00000000000E+00 -0.00000000000E+00 -0.38538501314E+03  0.38538501314E+03  0.00000000000E+00 0. -1.
          6    1    1    2  501    0 -0.10632689757E+03 -0.99081450016E+01 -0.15860307578E+03  0.25785173284E+03  0.17300000000E+03 0. -1.
         -6    1    1    2    0  502  0.10632689757E+03  0.99081450016E+01 -0.11883019524E+03  0.23548502242E+03  0.17300000000E+03 0. -1.
<mgrwt>
<rscale>  2 0.20330416E+03</rscale>
<asrwt>0</asrwt>
<pdfrwt beam="1">  1       21 0.16607960E-01 0.20330416E+03</pdfrwt>
<pdfrwt beam="2">  1       21 0.59290002E-01 0.20330416E+03</pdfrwt>
<totfact> 0.86170005E+04</totfact>
</mgrwt>
</event>
<event>
 4    1  0.4035350E+000  0.2489189E+03  0.7546771E-02  0.1113990E+00
         21   -1    0    0  501  502  0.00000000000E+00  0.00000000000E+00  0.25617206423E+03  0.25617206423E+03  0.00000000000E+00 0. -1.
         21   -1    0    0  502  503 -0.00000000000E+00 -0.00000000000E+00 -0.25727795785E+03  0.25727795785E+03  0.00000000000E+00 0. -1.
          6    1    1    2  501    0  0.13088837957E+03  0.12206498978E+03 -0.63376622408E+02  0.25686032373E+03  0.17300000000E+03 0. -1.
         -6    1    1    2    0  503 -0.13088837957E+03 -0.12206498978E+03  0.62270728794E+02  0.25658969835E+03  0.17300000000E+03 0. -1.
<mgrwt>
<rscale>  2 0.24891892E+03</rscale>
<asrwt>0</asrwt>
<pdfrwt beam="1">  1       21 0.39411087E-01 0.24891892E+03</pdfrwt>
<pdfrwt beam="2">  1       21 0.39581224E-01 0.24891892E+03</pdfrwt>
<totfact> 0.37177213E+04</totfact>
</mgrwt>
</event>
<event>
 4    1  0.4035350E+000  0.2279091E+03  0.7546771E-02  0.1128120E+00
         21   -1    0    0  503  502  0.00000000000E+00  0.00000000000E+00  0.21725367793E+03  0.21725367793E+03  0.00000000000E+00 0. -1.
         21   -1    0    0  501  503 -0.00000000000E+00 -0.00000000000E+00 -0.28975661270E+03  0.28975661270E+03  0.00000000000E+00 0.  1.
          6    1    1    2  501    0  0.85612520365E+02  0.12117778462E+03  0.69757674759E+02  0.23834574114E+03  0.17300000000E+03 0.  1.
         -6    1    1    2    0  502 -0.85612520365E+02 -0.12117778462E+03 -0.14226060953E+03  0.26866454949E+03  0.17300000000E+03 0. -1.
<mgrwt>
<rscale>  2 0.22790910E+03</rscale>
<asrwt>0</asrwt>
<pdfrwt beam="1">  1       21 0.33423643E-01 0.22790910E+03</pdfrwt>
<pdfrwt beam="2">  1       21 0.44577941E-01 0.22790910E+03</pdfrwt>
<totfact> 0.40937780E+04</totfact>
</mgrwt>
</event>
<event>
 4    1  0.4035350E+000  0.1762266E+03  0.7546771E-02  0.1171506E+00
         21   -1    0    0  501  502  0.00000000000E+00  0.00000000000E+00  0.16706350910E+03  0.16706350910E+03  0.00000000000E+00 0.  1.
         21   -1    0    0  502  503 -0.00000000000E+00 -0.00000000000E+00 -0.18767831872E+03  0.18767831872E+03  0.00000000000E+00 0.  1.
          6    1    1    2  501    0 -0.22996239357E+02 -0.24453790875E+02 -0.27610429319E+02  0.17837642983E+03  0.17300000000E+03 0. -1.
         -6    1    1    2    0  503  0.22996239357E+02  0.24453790875E+02  0.69956197030E+01  0.17636539799E+03  0.17300000000E+03 0. -1.
<mgrwt>
<rscale>  2 0.17622660E+03</rscale>
<asrwt>0</asrwt>
<pdfrwt beam="1">  1       21 0.25702078E-01 0.17622660E+03</pdfrwt>
<pdfrwt beam="2">  1       21 0.28873588E-01 0.17622660E+03</pdfrwt>
<totfact> 0.16574988E+05</totfact>
</mgrwt>
</event>
<event>
 4    1  0.4035350E+000  0.1794809E+03  0.7546771E-02  0.1168306E+00
         21   -1    0    0  503  502  0.00000000000E+00  0.00000000000E+00  0.45862400183E+03  0.45862400183E+03  0.00000000000E+00 0.  1.
         21   -1    0    0  501  503 -0.00000000000E+00 -0.00000000000E+00 -0.14188004068E+03  0.14188004068E+03  0.00000000000E+00 0.  1.
          6    1    1    2  501    0  0.45819716510E+01 -0.47575012295E+02 -0.54984416455E+02  0.18771431035E+03  0.17300000000E+03 0.  1.
         -6    1    1    2    0  502 -0.45819716510E+01  0.47575012295E+02  0.37172837761E+03  0.41278973216E+03  0.17300000000E+03 0.  1.
<mgrwt>
<rscale>  2 0.17948085E+03</rscale>
<asrwt>0</asrwt>
<pdfrwt beam="1">  1       21 0.70557538E-01 0.17948085E+03</pdfrwt>
<pdfrwt beam="2">  1       21 0.21827699E-01 0.17948085E+03</pdfrwt>
<totfact> 0.35917602E+04</totfact>
</mgrwt>
</event>
<event>
 4    1  0.4035350E+000  0.2358377E+03  0.7546771E-02  0.1122597E+00
         21   -1    0    0  501  502  0.00000000000E+00  0.00000000000E+00  0.20249029846E+03  0.20249029846E+03  0.00000000000E+00 0.  1.
         21   -1    0    0  502  503 -0.00000000000E+00 -0.00000000000E+00 -0.56191912239E+03  0.56191912239E+03  0.00000000000E+00 0.  1.
          6    1    1    2  501    0  0.14420768150E+03 -0.69961079991E+02  0.93550119605E+02  0.25371447140E+03  0.17300000000E+03 0.  1.
         -6    1    1    2    0  503 -0.14420768150E+03  0.69961079991E+02 -0.45297894353E+03  0.51069494945E+03  0.17300000000E+03 0.  1.
<mgrwt>
<rscale>  2 0.23583767E+03</rscale>
<asrwt>0</asrwt>
<pdfrwt beam="1">  1       21 0.31152354E-01 0.23583767E+03</pdfrwt>
<pdfrwt beam="2">  1       21 0.86449095E-01 0.23583767E+03</pdfrwt>
<totfact> 0.11100781E+04</totfact>
</mgrwt>
</event>
<event>
 4    1  0.4035350E+000  0.2145334E+03  0.7546771E-02  0.1138025E+00
         21   -1    0    0  501  502  0.00000000000E+00  0.00000000000E+00  0.17845370255E+04  0.17845370255E+04  0.00000000000E+00 0.  1.
         21   -1    0    0  502  503 -0.00000000000E+00 -0.00000000000E+00 -0.32810664004E+02  0.32810664004E+02  0.00000000000E+00 0. -1.
          6    1    1    2  501    0  0.69419894891E+02 -0.10619068640E+03  0.45555697705E+03  0.50354418180E+03  0.17300000000E+03 0. -1.
         -6    1    1    2    0  503 -0.69419894891E+02  0.10619068640E+03  0.12961693844E+04  0.13138035077E+04  0.17300000000E+03 0.  1.
<mgrwt>
<rscale>  2 0.21453341E+03</rscale>
<asrwt>0</asrwt>
<pdfrwt beam="1">  1       21 0.27454408E+00 0.21453341E+03</pdfrwt>
<pdfrwt beam="2">  1       21 0.50477959E-02 0.21453341E+03</pdfrwt>
<totfact> 0.12403712E+04</totfact>
</mgrwt>
</event>
<event>
 4    1  0.4035350E+000  0.1779560E+03  0.7546771E-02  0.1169796E+00
         21   -1    0    0  503  502  0.00000000000E+00  0.00000000000E+00  0.69685746677E+02  0.69685746677E+02  0.00000000000E+00 0.  1.
         21   -1    0    0  501  503 -0.00000000000E+00 -0.00000000000E+00 -0.47020149196E+03  0.47020149196E+03  0.00000000000E+00 0.  1.
          6    1    1    2  501    0  0.41611928579E+02  0.27919066818E+01 -0.15084282589E+03  0.23328503052E+03  0.17300000000E+03 0. -1.
         -6    1    1    2    0  502 -0.41611928579E+02 -0.27919066818E+01 -0.24967291939E+03  0.30660220811E+03  0.17300000000E+03 0. -1.
<mgrwt>
<rscale>  2 0.17795603E+03</rscale>
<asrwt>0</asrwt>
<pdfrwt beam="1">  1       21 0.10720884E-01 0.17795603E+03</pdfrwt>
<pdfrwt beam="2">  1       21 0.72338694E-01 0.17795603E+03</pdfrwt>
<totfact> 0.12426193E+05</totfact>
</mgrwt>
</event>
<event>
 4    1  0.4035350E+000  0.1794049E+03  0.7546771E-02  0.1168380E+00
         21   -1    0    0  503  502  0.00000000000E+00  0.00000000000E+00  0.47324047000E+03  0.47324047000E+03  0.00000000000E+00 0.  1.
         21   -1    0    0  501  503 -0.00000000000E+00 -0.00000000000E+00 -0.78948205396E+02  0.78948205396E+02  0.00000000000E+00 0.  1.
          6    1    1    2  501    0  0.33547122043E+02  0.33640796988E+02  0.94387984660E+02  0.20271952118E+03  0.17300000000E+03 0.  1.
         -6    1    1    2    0  502 -0.33547122043E+02 -0.33640796988E+02  0.29990427994E+03  0.34946915421E+03  0.17300000000E+03 0.  1.
<mgrwt>
<rscale>  2 0.17940488E+03</rscale>
<asrwt>0</asrwt>
<pdfrwt beam="1">  1       21 0.72806224E-01 0.17940488E+03</pdfrwt>
<pdfrwt beam="2">  1       21 0.12145878E-01 0.17940488E+03</pdfrwt>
<totfact> 0.98051425E+04</totfact>
</mgrwt>
</event>
<event>
 4    1  0.4035350E+000  0.2370343E+03  0.7546771E-02  0.1121784E+00
         21   -1    0    0  503  502  0.00000000000E+00  0.00000000000E+00  0.67410813373E+03  0.67410813373E+03  0.00000000000E+00 0. -1.
         21   -1    0    0  501  503 -0.00000000000E+00 -0.00000000000E+00 -0.84743455040E+02  0.84743455040E+02  0.00000000000E+00 0.  1.
          6    1    1    2  501    0  0.41905024169E+02 -0.15652544036E+03  0.24598495945E+03  0.34160480793E+03  0.17300000000E+03 0.  1.
         -6    1    1    2    0  502 -0.41905024169E+02  0.15652544036E+03  0.34337971925E+03  0.41724678084E+03  0.17300000000E+03 0. -1.
<mgrwt>
<rscale>  2 0.23703427E+03</rscale>
<asrwt>0</asrwt>
<pdfrwt beam="1">  1       21 0.10370894E+00 0.23703427E+03</pdfrwt>
<pdfrwt beam="2">  1       21 0.13037455E-01 0.23703427E+03</pdfrwt>
<totfact> 0.37196895E+04</totfact>
</mgrwt>
</event>
<event>
 4    1  0.4035350E+000  0.1936093E+03  0.7546771E-02  0.1155246E+00
         21   -1    0    0  503  502  0.00000000000E+00  0.00000000000E+00  0.27544941932E+03  0.27544941932E+03  0.00000000000E+00 0. -1.
         21   -1    0    0  501  503 -0.00000000000E+00 -0.00000000000E+00 -0.37124644999E+03  0.37124644999E+03  0.00000000000E+00 0. -1.
          6    1    1    2  501    0 -0.68547006297E+02  0.53449564971E+02 -0.30524720118E+03  0.36146978006E+03  0.17300000000E+03 0. -1.
         -6    1    1    2    0  502  0.68547006297E+02 -0.53449564971E+02  0.20945017050E+03  0.28522608925E+03  0.17300000000E+03 0. -1.
<mgrwt>
<rscale>  2 0.19360927E+03</rscale>
<asrwt>0</asrwt>
<pdfrwt beam="1">  1       21 0.42376834E-01 0.19360927E+03</pdfrwt>
<pdfrwt beam="2">  1       21 0.57114839E-01 0.19360927E+03</pdfrwt>
<totfact> 0.15418152E+04</totfact>
</mgrwt>
</event>
<event>
 4    1  0.4035350E+000  0.2540770E+03  0.7546771E-02  0.1110755E+00
         21   -1    0    0  503  502  0.00000000000E+00  0.00000000000E+00  0.11069162120E+03  0.11069162120E+03  0.00000000000E+00 0. -1.
         21   -1    0    0  501  503 -0.00000000000E+00 -0.00000000000E+00 -0.58709839333E+03  0.58709839333E+03  0.00000000000E+00 0.  1.
          6    1    1    2  501    0  0.15444354671E+03  0.10379459964E+03 -0.26664115723E+03  0.36831051406E+03  0.17300000000E+03 0.  1.
         -6    1    1    2    0  502 -0.15444354671E+03 -0.10379459964E+03 -0.20976561490E+03  0.32947950047E+03  0.17300000000E+03 0. -1.
<mgrwt>
<rscale>  2 0.25407701E+03</rscale>
<asrwt>0</asrwt>
<pdfrwt beam="1">  1       21 0.17029480E-01 0.25407701E+03</pdfrwt>
<pdfrwt beam="2">  1       21 0.90322831E-01 0.25407701E+03</pdfrwt>
<totfact> 0.31410390E+04</totfact>
</mgrwt>
</event>
<event>
 4    1  0.4035350E+000  0.1798865E+03  0.7546771E-02  0.1167913E+00
         21   -1    0    0  501  502  0.00000000000E+00  0.00000000000E+00  0.18050799876E+03  0.18050799876E+03  0.00000000000E+00 0. -1.
         21   -1    0    0  502  503 -0.00000000000E+00 -0.00000000000E+00 -0.20615332202E+03  0.20615332202E+03  0.00000000000E+00 0. -1.
          6    1    1    2  501    0  0.47889119145E+02 -0.11696087633E+02  0.56995679889E+02  0.18869995687E+03  0.17300000000E+03 0. -1.
         -6    1    1    2    0  503 -0.47889119145E+02  0.11696087633E+02 -0.82641003147E+02  0.19796136391E+03  0.17300000000E+03 0. -1.
<mgrwt>
<rscale>  2 0.17988654E+03</rscale>
<asrwt>0</asrwt>
<pdfrwt beam="1">  1       21 0.27770461E-01 0.17988654E+03</pdfrwt>
<pdfrwt beam="2">  1       21 0.31715896E-01 0.17988654E+03</pdfrwt>
<totfact> 0.11885202E+05</totfact>
</mgrwt>
</event>
<event>
 4    1  0.4035350E+000  0.2083897E+03  0.7546771E-02  0.1142848E+00
         21   -1    0    0  501  502  0.00000000000E+00  0.00000000000E+00  0.47748618847E+03  0.47748618847E+03  0.00000000000E+00 0. -1.
         21   -1    0    0  502  503 -0.00000000000E+00 -0.00000000000E+00 -0.10645823947E+03  0.10645823947E+03  0.00000000000E+00 0.  1.
          6    1    1    2  501    0 -0.17711085119E+02 -0.11481983650E+03  0.29696014151E+03  0.36278313499E+03  0.17300000000E+03 0. -1.
         -6    1    1    2    0  503  0.17711085119E+02  0.11481983650E+03  0.74067807500E+02  0.22116129295E+03  0.17300000000E+03 0.  1.
<mgrwt>
<rscale>  2 0.20838972E+03</rscale>
<asrwt>0</asrwt>
<pdfrwt beam="1">  1       21 0.73459412E-01 0.20838972E+03</pdfrwt>
<pdfrwt beam="2">  1       21 0.16378191E-01 0.20838972E+03</pdfrwt>
<totfact> 0.55209237E+04</totfact>
</mgrwt>
</event>
<event>
 4    1  0.4035350E+000  0.1914162E+03  0.7546771E-02  0.1157190E+00
         21   -1    0    0  501  502  0.00000000000E+00  0.00000000000E+00  0.10805427630E+03  0.10805427630E+03  0.00000000000E+00 0.  1.
         21   -1    0    0  502  503 -0.00000000000E+00 -0.00000000000E+00 -0.33950099580E+03  0.33950099580E+03  0.00000000000E+00 0.  1.
          6    1    1    2  501    0 -0.81429984902E+02  0.89610610988E+01 -0.12350774522E+03  0.22780321812E+03  0.17300000000E+03 0.  1.
         -6    1    1    2    0  503  0.81429984902E+02 -0.89610610988E+01 -0.10793897428E+03  0.21975205397E+03  0.17300000000E+03 0.  1.
<mgrwt>
<rscale>  2 0.19141615E+03</rscale>
<asrwt>0</asrwt>
<pdfrwt beam="1">  1       21 0.16623735E-01 0.19141615E+03</pdfrwt>
<pdfrwt beam="2">  1       21 0.52230921E-01 0.19141615E+03</pdfrwt>
<totfact> 0.11311180E+05</totfact>
</mgrwt>
</event>
<event>
 4    1  0.4035350E+000  0.1833377E+03  0.7546771E-02  0.1164611E+00
         21   -1    0    0  501  502  0.00000000000E+00  0.00000000000E+00  0.33689470423E+03  0.33689470423E+03  0.00000000000E+00 0.  1.
         21   -1    0    0  502  503 -0.00000000000E+00 -0.00000000000E+00 -0.11552954583E+03  0.11552954583E+03  0.00000000000E+00 0.  1.
          6    1    1    2  501    0  0.41865340391E+02 -0.43943115732E+02  0.19422590610E+03  0.26708876193E+03  0.17300000000E+03 0.  1.
         -6    1    1    2    0  503 -0.41865340391E+02  0.43943115732E+02  0.27139252300E+02  0.18533548813E+03  0.17300000000E+03 0.  1.
<mgrwt>
<rscale>  2 0.18333768E+03</rscale>
<asrwt>0</asrwt>
<pdfrwt beam="1">  1       21 0.51829954E-01 0.18333768E+03</pdfrwt>
<pdfrwt beam="2">  1       21 0.17773776E-01 0.18333768E+03</pdfrwt>
<totfact> 0.10193761E+05</totfact>
</mgrwt>
</event>
<event>
 4    1  0.4035350E+000  0.3693585E+03  0.7546771E-02  0.1054939E+00
         21   -1    0    0  501  502  0.00000000000E+00  0.00000000000E+00  0.42715308012E+03  0.42715308012E+03  0.00000000000E+00 0. -1.
         21   -1    0    0  502  503 -0.00000000000E+00 -0.00000000000E+00 -0.58287402945E+03  0.58287402945E+03  0.00000000000E+00 0. -1.
          6    1    1    2  501    0  0.26485855697E+03  0.19064788175E+03  0.26168515154E+03  0.45266410124E+03  0.17300000000E+03 0. -1.
         -6    1    1    2    0  503 -0.26485855697E+03 -0.19064788175E+03 -0.41740610086E+03  0.55736300833E+03  0.17300000000E+03 0. -1.
<mgrwt>
<rscale>  2 0.36935846E+03</rscale>
<asrwt>0</asrwt>
<pdfrwt beam="1">  1       21 0.65715859E-01 0.36935846E+03</pdfrwt>
<pdfrwt beam="2">  1       21 0.89672926E-01 0.36935846E+03</pdfrwt>
<totfact> 0.20117013E+03</totfact>
</mgrwt>
</event>
<event>
 4    1  0.4035350E+000  0.3761885E+03  0.7546771E-02  0.1052352E+00
         21   -1    0    0  503  502  0.00000000000E+00  0.00000000000E+00  0.14094900975E+03  0.14094900975E+03  0.00000000000E+00 0.  1.
         21   -1    0    0  501  503 -0.00000000000E+00 -0.00000000000E+00 -0.11942082657E+04  0.11942082657E+04  0.00000000000E+00 0. -1.
          6    1    1    2  501    0  0.28042584313E+03  0.18152162773E+03 -0.79303133206E+03  0.87773370020E+03  0.17300000000E+03 0. -1.
         -6    1    1    2    0  502 -0.28042584313E+03 -0.18152162773E+03 -0.26022792392E+03  0.45742357528E+03  0.17300000000E+03 0.  1.
<mgrwt>
<rscale>  2 0.37618846E+03</rscale>
<asrwt>0</asrwt>
<pdfrwt beam="1">  1       21 0.21684464E-01 0.37618846E+03</pdfrwt>
<pdfrwt beam="2">  1       21 0.18372434E+00 0.37618846E+03</pdfrwt>
<totfact> 0.30093104E+03</totfact>
</mgrwt>
</event>
<event>
 4    1  0.4035350E+000  0.2504314E+03  0.7546771E-02  0.1113033E+00
         21   -1    0    0  503  502  0.00000000000E+00  0.00000000000E+00  0.41807779169E+03  0.41807779169E+03  0.00000000000E+00 0. -1.
         21   -1    0    0  501  503 -0.00000000000E+00 -0.00000000000E+00 -0.18407706157E+03  0.18407706157E+03  0.00000000000E+00 0.  1.
          6    1    1    2  501    0  0.16823745935E+03 -0.66955461724E+02 -0.12522154527E+02  0.25074425405E+03  0.17300000000E+03 0.  1.
         -6    1    1    2    0  502 -0.16823745935E+03  0.66955461724E+02  0.24652288465E+03  0.35141059922E+03  0.17300000000E+03 0. -1.
<mgrwt>
<rscale>  2 0.25043138E+03</rscale>
<asrwt>0</asrwt>
<pdfrwt beam="1">  1       21 0.64319660E-01 0.25043138E+03</pdfrwt>
<pdfrwt beam="2">  1       21 0.28319548E-01 0.25043138E+03</pdfrwt>
<totfact> 0.25792911E+04</totfact>
</mgrwt>
</event>
<event>
 4    1  0.4035350E+000  0.1749100E+03  0.7546771E-02  0.1172822E+00
         21   -1    0    0  501  502  0.00000000000E+00  0.00000000000E+00  0.39368905076E+03  0.39368905076E+03  0.00000000000E+00 0.  1.
         21   -1    0    0  502  503 -0.00000000000E+00 -0.00000000000E+00 -0.54226375433E+03  0.54226375433E+03  0.00000000000E+00 0.  1.
          6    1    1    2  501    0  0.15877888315E+02 -0.20307864747E+02  0.35886105763E+03  0.39921770426E+03  0.17300000000E+03 0.  1.
         -6    1    1    2    0  503 -0.15877888315E+02  0.20307864747E+02 -0.50743576121E+03  0.53673510083E+03  0.17300000000E+03 0.  1.
<mgrwt>
<rscale>  2 0.17491002E+03</rscale>
<asrwt>0</asrwt>
<pdfrwt beam="1">  1       21 0.60567547E-01 0.17491002E+03</pdfrwt>
<pdfrwt beam="2">  1       21 0.83425193E-01 0.17491002E+03</pdfrwt>
<totfact> 0.32248285E+03</totfact>
</mgrwt>
</event>
<event>
 4    1  0.4035350E+000  0.2061474E+03  0.7546771E-02  0.1144654E+00
         21   -1    0    0  503  502  0.00000000000E+00  0.00000000000E+00  0.16339547388E+02  0.16339547388E+02  0.00000000000E+00 0. -1.
         21   -1    0    0  501  503 -0.00000000000E+00 -0.00000000000E+00 -0.28049459664E+04  0.28049459664E+04  0.00000000000E+00 0.  1.
          6    1    1    2  501    0 -0.86438636441E+02  0.71386984633E+02 -0.17748168290E+04  0.17867488676E+04  0.17300000000E+03 0.  1.
         -6    1    1    2    0  502  0.86438636441E+02 -0.71386984633E+02 -0.10137895900E+04  0.10345366461E+04  0.17300000000E+03 0.  1.
<mgrwt>
<rscale>  2 0.20614737E+03</rscale>
<asrwt>0</asrwt>
<pdfrwt beam="1">  1       21 0.25137748E-02 0.20614737E+03</pdfrwt>
<pdfrwt beam="2">  1       21 0.43153044E+00 0.20614737E+03</pdfrwt>
<totfact> 0.45710403E+03</totfact>
</mgrwt>
</event>
<event>
 4    1  0.4035350E+000  0.2221775E+03  0.7546771E-02  0.1132270E+00
         21   -1    0    0  501  502  0.00000000000E+00  0.00000000000E+00  0.36940839473E+03  0.36940839473E+03  0.00000000000E+00 0.  1.
         21   -1    0    0  502  503 -0.00000000000E+00 -0.00000000000E+00 -0.13393742573E+03  0.13393742573E+03  0.00000000000E+00 0.  1.
          6    1    1    2  501    0 -0.13852579574E+03 -0.15634391735E+02  0.10561378246E+03  0.24600223848E+03  0.17300000000E+03 0.  1.
         -6    1    1    2    0  503  0.13852579574E+03  0.15634391735E+02  0.12985718654E+03  0.25734358198E+03  0.17300000000E+03 0.  1.
<mgrwt>
<rscale>  2 0.22217747E+03</rscale>
<asrwt>0</asrwt>
<pdfrwt beam="1">  1       21 0.56832060E-01 0.22217747E+03</pdfrwt>
<pdfrwt beam="2">  1       21 0.20605758E-01 0.22217747E+03</pdfrwt>
<totfact> 0.62685460E+04</totfact>
</mgrwt>
</event>
<event>
 4    1  0.4035350E+000  0.3959593E+03  0.7546771E-02  0.1045188E+00
         21   -1    0    0  501  502  0.00000000000E+00  0.00000000000E+00  0.22766769406E+04  0.22766769406E+04  0.00000000000E+00 0.  1.
         21   -1    0    0  502  503 -0.00000000000E+00 -0.00000000000E+00 -0.70346140235E+02  0.70346140235E+02  0.00000000000E+00 0. -1.
          6    1    1    2  501    0  0.24687604097E+03 -0.25672362119E+03  0.93289584672E+03  0.10134487940E+04  0.17300000000E+03 0.  1.
         -6    1    1    2    0  503 -0.24687604097E+03  0.25672362119E+03  0.12734349537E+04  0.13335742868E+04  0.17300000000E+03 0. -1.
<mgrwt>
<rscale>  2 0.39595934E+03</rscale>
<asrwt>0</asrwt>
<pdfrwt beam="1">  1       21 0.35025794E+00 0.39595934E+03</pdfrwt>
<pdfrwt beam="2">  1       21 0.10822485E-01 0.39595934E+03</pdfrwt>
<totfact> 0.10097752E+03</totfact>
</mgrwt>
</event>
<event>
 4    1  0.4035350E+000  0.1913315E+03  0.7546771E-02  0.1157266E+00
         21   -1    0    0  503  502  0.00000000000E+00  0.00000000000E+00  0.37912101195E+03  0.37912101195E+03  0.00000000000E+00 0. -1.
         21   -1    0    0  501  503 -0.00000000000E+00 -0.00000000000E+00 -0.10656401209E+03  0.10656401209E+03  0.00000000000E+00 0. -1.
          6    1    1    2  501    0  0.80866620713E+02  0.11804076415E+02  0.61870993600E+02  0.20108646502E+03  0.17300000000E+03 0. -1.
         -6    1    1    2    0  502 -0.80866620713E+02 -0.11804076415E+02  0.21068600625E+03  0.28459855902E+03  0.17300000000E+03 0. -1.
<mgrwt>
<rscale>  2 0.19133151E+03</rscale>
<asrwt>0</asrwt>
<pdfrwt beam="1">  1       21 0.58326309E-01 0.19133151E+03</pdfrwt>
<pdfrwt beam="2">  1       21 0.16394464E-01 0.19133151E+03</pdfrwt>
<totfact> 0.91857347E+04</totfact>
</mgrwt>
</event>
<event>
 4    1  0.4035350E+000  0.3472889E+03  0.7546771E-02  0.1063733E+00
         21   -1    0    0  503  502  0.00000000000E+00  0.00000000000E+00  0.38342102499E+03  0.38342102499E+03  0.00000000000E+00 0.  1.
         21   -1    0    0  501  503 -0.00000000000E+00 -0.00000000000E+00 -0.39352384479E+03  0.39352384479E+03  0.00000000000E+00 0. -1.
          6    1    1    2  501    0 -0.17685359998E+02  0.30061234608E+03 -0.17906543633E+03  0.39073518534E+03  0.17300000000E+03 0. -1.
         -6    1    1    2    0  502  0.17685359998E+02 -0.30061234608E+03  0.16896261653E+03  0.38620968445E+03  0.17300000000E+03 0. -1.
<mgrwt>
<rscale>  2 0.34728886E+03</rscale>
<asrwt>0</asrwt>
<pdfrwt beam="1">  1       21 0.58987850E-01 0.34728886E+03</pdfrwt>
<pdfrwt beam="2">  1       21 0.60542130E-01 0.34728886E+03</pdfrwt>
<totfact> 0.62643228E+03</totfact>
</mgrwt>
</event>
<event>
 4    1  0.4035350E+000  0.2296377E+03  0.7546771E-02  0.1126895E+00
         21   -1    0    0  503  502  0.00000000000E+00  0.00000000000E+00  0.10598659608E+03  0.10598659608E+03  0.00000000000E+00 0. -1.
         21   -1    0    0  501  503 -0.00000000000E+00 -0.00000000000E+00 -0.53113152286E+03  0.53113152286E+03  0.00000000000E+00 0.  1.
          6    1    1    2  501    0 -0.10075892577E+03 -0.11248164096E+03 -0.29267537067E+03  0.37201122734E+03  0.17300000000E+03 0.  1.
         -6    1    1    2    0  502  0.10075892577E+03  0.11248164096E+03 -0.13246955612E+03  0.26510689160E+03  0.17300000000E+03 0.  1.
<mgrwt>
<rscale>  2 0.22963772E+03</rscale>
<asrwt>0</asrwt>
<pdfrwt beam="1">  1       21 0.16305630E-01 0.22963772E+03</pdfrwt>
<pdfrwt beam="2">  1       21 0.81712542E-01 0.22963772E+03</pdfrwt>
<totfact> 0.43355508E+04</totfact>
</mgrwt>
</event>
<event>
 4    1  0.4035350E+000  0.1887486E+03  0.7546771E-02  0.1159595E+00
         21   -1    0    0  503  502  0.00000000000E+00  0.00000000000E+00  0.23450418372E+03  0.23450418372E+03  0.00000000000E+00 0. -1.
         21   -1    0    0  501  503 -0.00000000000E+00 -0.00000000000E+00 -0.27884061917E+03  0.27884061917E+03  0.00000000000E+00 0. -1.
          6    1    1    2  501    0 -0.12572115922E+02 -0.74424286889E+02 -0.19533560340E+03  0.27162847887E+03  0.17300000000E+03 0. -1.
         -6    1    1    2    0  502  0.12572115922E+02  0.74424286889E+02  0.15099916795E+03  0.24171632403E+03  0.17300000000E+03 0. -1.
<mgrwt>
<rscale>  2 0.18874860E+03</rscale>
<asrwt>0</asrwt>
<pdfrwt beam="1">  1       21 0.36077567E-01 0.18874860E+03</pdfrwt>
<pdfrwt beam="2">  1       21 0.42898557E-01 0.18874860E+03</pdfrwt>
<totfact> 0.38794848E+04</totfact>
</mgrwt>
</event>
<event>
 4    1  0.4035350E+000  0.2142692E+03  0.7546771E-02  0.1138229E+00
         21   -1    0    0  503  502  0.00000000000E+00  0.00000000000E+00  0.50683301160E+02  0.50683301160E+02  0.00000000000E+00 0.  1.
         21   -1    0    0  501  503 -0.00000000000E+00 -0.00000000000E+00 -0.12727380091E+04  0.12727380091E+04  0.00000000000E+00 0.  1.
          6    1    1    2  501    0  0.57483114303E+02 -0.11259661379E+03 -0.96630450479E+03  0.98977558156E+03  0.17300000000E+03 0.  1.
         -6    1    1    2    0  502 -0.57483114303E+02  0.11259661379E+03 -0.25575020313E+03  0.33364572868E+03  0.17300000000E+03 0.  1.
<mgrwt>
<rscale>  2 0.21426924E+03</rscale>
<asrwt>0</asrwt>
<pdfrwt beam="1">  1       21 0.77974310E-02 0.21426924E+03</pdfrwt>
<pdfrwt beam="2">  1       21 0.19580585E+00 0.21426924E+03</pdfrwt>
<totfact> 0.17644187E+04</totfact>
</mgrwt>
</event>
<event>
 4    1  0.4035350E+000  0.2393031E+03  0.7546771E-02  0.1120258E+00
         21   -1    0    0  501  502  0.00000000000E+00  0.00000000000E+00  0.13420426411E+03  0.13420426411E+03  0.00000000000E+00 0. -1.
         21   -1    0    0  502  503 -0.00000000000E+00 -0.00000000000E+00 -0.58795855413E+03  0.58795855413E+03  0.00000000000E+00 0.  1.
          6    1    1    2  501    0 -0.15853445886E+03  0.46944571382E+02 -0.37780841557E+02  0.24226712410E+03  0.17300000000E+03 0. -1.
         -6    1    1    2    0  503  0.15853445886E+03 -0.46944571382E+02 -0.41597344846E+03  0.47989569414E+03  0.17300000000E+03 0.  1.
<mgrwt>
<rscale>  2 0.23930309E+03</rscale>
<asrwt>0</asrwt>
<pdfrwt beam="1">  1       21 0.20646810E-01 0.23930309E+03</pdfrwt>
<pdfrwt beam="2">  1       21 0.90455161E-01 0.23930309E+03</pdfrwt>
<totfact> 0.22000152E+04</totfact>
</mgrwt>
</event>
<event>
 4    1  0.4035350E+000  0.2082716E+03  0.7546771E-02  0.1142942E+00
         21   -1    0    0  501  502  0.00000000000E+00  0.00000000000E+00  0.95137647460E+02  0.95137647460E+02  0.00000000000E+00 0. -1.
         21   -1    0    0  502  503 -0.00000000000E+00 -0.00000000000E+00 -0.45788362370E+03  0.45788362370E+03  0.00000000000E+00 0.  1.
          6    1    1    2  501    0  0.11583202179E+03  0.55689201813E+01 -0.19938769793E+03  0.28832711324E+03  0.17300000000E+03 0.  1.
         -6    1    1    2    0  503 -0.11583202179E+03 -0.55689201813E+01 -0.16335827831E+03  0.26469415792E+03  0.17300000000E+03 0. -1.
<mgrwt>
<rscale>  2 0.20827163E+03</rscale>
<asrwt>0</asrwt>
<pdfrwt beam="1">  1       21 0.14636561E-01 0.20827163E+03</pdfrwt>
<pdfrwt beam="2">  1       21 0.70443635E-01 0.20827163E+03</pdfrwt>
<totfact> 0.74431735E+04</totfact>
</mgrwt>
</event>
<event>
 4    1  0.4035350E+000  0.2103201E+03  0.7546771E-02  0.1141313E+00
         21   -1    0    0  503  502  0.00000000000E+00  0.00000000000E+00  0.57197233705E+03  0.57197233705E+03  0.00000000000E+00 0.  1.
         21   -1    0    0  501  503 -0.00000000000E+00 -0.00000000000E+00 -0.27687769099E+03  0.27687769099E+03  0.00000000000E+00 0. -1.
          6    1    1    2  501    0  0.92507992841E+01 -0.11924744584E+03 -0.21275984666E+03  0.29916765029E+03  0.17300000000E+03 0. -1.
         -6    1    1    2    0  502 -0.92507992841E+01  0.11924744584E+03  0.50785449273E+03  0.54968237775E+03  0.17300000000E+03 0.  1.
<mgrwt>
<rscale>  2 0.21032007E+03</rscale>
<asrwt>0</asrwt>
<pdfrwt beam="1">  1       21 0.87995744E-01 0.21032007E+03</pdfrwt>
<pdfrwt beam="2">  1       21 0.42596568E-01 0.21032007E+03</pdfrwt>
<totfact> 0.57895506E+03</totfact>
</mgrwt>
</event>
<event>
 4    1  0.4035350E+000  0.1926212E+03  0.7546771E-02  0.1156118E+00
         21   -1    0    0  501  502  0.00000000000E+00  0.00000000000E+00  0.41135748769E+02  0.41135748769E+02  0.00000000000E+00 0.  1.
         21   -1    0    0  502  503 -0.00000000000E+00 -0.00000000000E+00 -0.10085943917E+04  0.10085943917E+04  0.00000000000E+00 0. -1.
          6    1    1    2  501    0 -0.12469876917E+01  0.84689882661E+02 -0.31306939755E+03  0.36758043866E+03  0.17300000000E+03 0.  1.
         -6    1    1    2    0  503  0.12469876917E+01 -0.84689882661E+02 -0.65438924533E+03  0.68214970176E+03  0.17300000000E+03 0. -1.
<mgrwt>
<rscale>  2 0.19262121E+03</rscale>
<asrwt>0</asrwt>
<pdfrwt beam="1">  1       21 0.63285771E-02 0.19262121E+03</pdfrwt>
<pdfrwt beam="2">  1       21 0.15516836E+00 0.19262121E+03</pdfrwt>
<totfact> 0.49181622E+04</totfact>
</mgrwt>
</event>
<event>
 4    1  0.4035350E+000  0.1792975E+03  0.7546771E-02  0.1168485E+00
         21   -1    0    0  503  502  0.00000000000E+00  0.00000000000E+00  0.10416357586E+03  0.10416357586E+03  0.00000000000E+00 0.  1.
         21   -1    0    0  501  503 -0.00000000000E+00 -0.00000000000E+00 -0.32866738150E+03  0.32866738150E+03  0.00000000000E+00 0.  1.
          6    1    1    2  501    0 -0.41873224089E+02 -0.21568973000E+02 -0.58810989355E+02  0.18869636976E+03  0.17300000000E+03 0.  1.
         -6    1    1    2    0  502  0.41873224089E+02  0.21568973000E+02 -0.16569281629E+03  0.24413458760E+03  0.17300000000E+03 0.  1.
<mgrwt>
<rscale>  2 0.17929748E+03</rscale>
<asrwt>0</asrwt>
<pdfrwt beam="1">  1       21 0.16025165E-01 0.17929748E+03</pdfrwt>
<pdfrwt beam="2">  1       21 0.50564213E-01 0.17929748E+03</pdfrwt>
<totfact> 0.13001210E+05</totfact>
</mgrwt>
</event>
<event>
 4    1  0.4035350E+000  0.1791021E+03  0.7546771E-02  0.1168675E+00
         21   -1    0    0  503  502  0.00000000000E+00  0.00000000000E+00  0.75924405803E+03  0.75924405803E+03  0.00000000000E+00 0. -1.
         21   -1    0    0  501  503 -0.00000000000E+00 -0.00000000000E+00 -0.55473310807E+02  0.55473310807E+02  0.00000000000E+00 0. -1.
          6    1    1    2  501    0 -0.43603525594E+02  0.15725301937E+02  0.15299395501E+03  0.23555191112E+03  0.17300000000E+03 0. -1.
         -6    1    1    2    0  502  0.43603525594E+02 -0.15725301937E+02  0.55077679221E+03  0.57916545771E+03  0.17300000000E+03 0. -1.
<mgrwt>
<rscale>  2 0.17910207E+03</rscale>
<asrwt>0</asrwt>
<pdfrwt beam="1">  1       21 0.11680677E+00 0.17910207E+03</pdfrwt>
<pdfrwt beam="2">  1       21 0.85343561E-02 0.17910207E+03</pdfrwt>
<totfact> 0.60907036E+04</totfact>
</mgrwt>
</event>
<event>
 4    1  0.4035350E+000  0.2318864E+03  0.7546771E-02  0.1125319E+00
         21   -1    0    0  503  502  0.00000000000E+00  0.00000000000E+00  0.72115291648E+02  0.72115291648E+02  0.00000000000E+00 0. -1.
         21   -1    0    0  501  503 -0.00000000000E+00 -0.00000000000E+00 -0.90852963463E+03  0.90852963463E+03  0.00000000000E+00 0. -1.
          6    1    1    2  501    0  0.15249892869E+03  0.24215323935E+02 -0.62582883254E+03  0.66740769610E+03  0.17300000000E+03 0. -1.
         -6    1    1    2    0  502 -0.15249892869E+03 -0.24215323935E+02 -0.21058551044E+03  0.31323723018E+03  0.17300000000E+03 0. -1.
<mgrwt>
<rscale>  2 0.23188641E+03</rscale>
<asrwt>0</asrwt>
<pdfrwt beam="1">  1       21 0.11094660E-01 0.23188641E+03</pdfrwt>
<pdfrwt beam="2">  1       21 0.13977379E+00 0.23188641E+03</pdfrwt>
<totfact> 0.23683073E+04</totfact>
</mgrwt>
</event>
<event>
 4    1  0.4035350E+000  0.3807112E+03  0.7546771E-02  0.1050671E+00
         21   -1    0    0  503  502  0.00000000000E+00  0.00000000000E+00  0.10353017053E+04  0.10353017053E+04  0.00000000000E+00 0. -1.
         21   -1    0    0  501  503 -0.00000000000E+00 -0.00000000000E+00 -0.15796278897E+03  0.15796278897E+03  0.00000000000E+00 0.  1.
          6    1    1    2  501    0 -0.33182365803E+03 -0.70036024844E+02  0.23746812632E+03  0.44870045222E+03  0.17300000000E+03 0.  1.
         -6    1    1    2    0  502  0.33182365803E+03  0.70036024844E+02  0.63987079002E+03  0.74456404206E+03  0.17300000000E+03 0. -1.
<mgrwt>
<rscale>  2 0.38071116E+03</rscale>
<asrwt>0</asrwt>
<pdfrwt beam="1">  1       21 0.15927718E+00 0.38071116E+03</pdfrwt>
<pdfrwt beam="2">  1       21 0.24301968E-01 0.38071116E+03</pdfrwt>
<totfact> 0.36192040E+03</totfact>
</mgrwt>
</event>
<event>
 4    1  0.4035350E+000  0.3026852E+03  0.7546771E-02  0.1083906E+00
         21   -1    0    0  501  502  0.00000000000E+00  0.00000000000E+00  0.21024045806E+03  0.21024045806E+03  0.00000000000E+00 0. -1.
         21   -1    0    0  502  503 -0.00000000000E+00 -0.00000000000E+00 -0.54114742898E+03  0.54114742898E+03  0.00000000000E+00 0.  1.
          6    1    1    2  501    0  0.79308319782E+02  0.23537108902E+03 -0.33123336420E+03  0.44870246344E+03  0.17300000000E+03 0.  1.
         -6    1    1    2    0  503 -0.79308319782E+02 -0.23537108902E+03  0.32639328190E+00  0.30268542361E+03  0.17300000000E+03 0. -1.
<mgrwt>
<rscale>  2 0.30268525E+03</rscale>
<asrwt>0</asrwt>
<pdfrwt beam="1">  1       21 0.32344686E-01 0.30268525E+03</pdfrwt>
<pdfrwt beam="2">  1       21 0.83253449E-01 0.30268525E+03</pdfrwt>
<totfact> 0.10868045E+04</totfact>
</mgrwt>
</event>
<event>
 4    1  0.4035350E+000  0.2397759E+03  0.7546771E-02  0.1119942E+00
         21   -1    0    0  501  502  0.00000000000E+00  0.00000000000E+00  0.72929355754E+03  0.72929355754E+03  0.00000000000E+00 0.  1.
         21   -1    0    0  502  503 -0.00000000000E+00 -0.00000000000E+00 -0.13604237606E+03  0.13604237606E+03  0.00000000000E+00 0. -1.
          6    1    1    2  501    0  0.14675955841E+03 -0.77621632365E+02  0.57720176715E+03  0.62502349219E+03  0.17300000000E+03 0.  1.
         -6    1    1    2    0  503 -0.14675955841E+03  0.77621632365E+02  0.16049414331E+02  0.24031244141E+03  0.17300000000E+03 0. -1.
<mgrwt>
<rscale>  2 0.23977591E+03</rscale>
<asrwt>0</asrwt>
<pdfrwt beam="1">  1       21 0.11219901E+00 0.23977591E+03</pdfrwt>
<pdfrwt beam="2">  1       21 0.20929597E-01 0.23977591E+03</pdfrwt>
<totfact> 0.12808999E+04</totfact>
</mgrwt>
</event>
<event>
 4    1  0.4035350E+000  0.2138589E+03  0.7546771E-02  0.1138546E+00
         21   -1    0    0  501  502  0.00000000000E+00  0.00000000000E+00  0.36332496838E+03  0.36332496838E+03  0.00000000000E+00 0. -1.
         21   -1    0    0  502  503 -0.00000000000E+00 -0.00000000000E+00 -0.18494339201E+03  0.18494339201E+03  0.00000000000E+00 0. -1.
          6    1    1    2  501    0  0.12251781238E+03 -0.28214054357E+02  0.24410809345E+03  0.32453722206E+03  0.17300000000E+03 0. -1.
         -6    1    1    2    0  503 -0.12251781238E+03  0.28214054357E+02 -0.65726517072E+02  0.22373113833E+03  0.17300000000E+03 0. -1.
<mgrwt>
<rscale>  2 0.21385894E+03</rscale>
<asrwt>0</asrwt>
<pdfrwt beam="1">  1       21 0.55896149E-01 0.21385894E+03</pdfrwt>
<pdfrwt beam="2">  1       21 0.28452830E-01 0.21385894E+03</pdfrwt>
<totfact> 0.35207989E+04</totfact>
</mgrwt>
</event>
<event>
 4    1  0.4035350E+000  0.2551597E+03  0.7546771E-02  0.1110087E+00
         21   -1    0    0  501  502  0.00000000000E+00  0.00000000000E+00  0.34684726924E+03  0.34684726924E+03  0.00000000000E+00 0.  1.
         21   -1    0    0  502  503 -0.00000000000E+00 -0.00000000000E+00 -0.26873701219E+03  0.26873701219E+03  0.00000000000E+00 0. -1.
          6    1    1    2  501    0 -0.43576188192E+02 -0.18242422465E+03  0.20806434505E+03  0.32923738183E+03  0.17300000000E+03 0.  1.
         -6    1    1    2    0  503  0.43576188192E+02  0.18242422465E+03 -0.12995408800E+03  0.28634689959E+03  0.17300000000E+03 0. -1.
<mgrwt>
<rscale>  2 0.25515972E+03</rscale>
<asrwt>0</asrwt>
<pdfrwt beam="1">  1       21 0.53361118E-01 0.25515972E+03</pdfrwt>
<pdfrwt beam="2">  1       21 0.41344156E-01 0.25515972E+03</pdfrwt>
<totfact> 0.18097591E+04</totfact>
</mgrwt>
</event>
<event>
 4    1  0.4035350E+000  0.2526396E+03  0.7546771E-02  0.1111648E+00
         21   -1    0    0  501  502  0.00000000000E+00  0.00000000000E+00  0.37383076569E+03  0.37383076569E+03  0.00000000000E+00 0. -1.
         21   -1    0    0  502  503 -0.00000000000E+00 -0.00000000000E+00 -0.22664923436E+03  0.22664923436E+03  0.00000000000E+00 0.  1.
          6    1    1    2  501    0 -0.62781839395E+02  0.17307865028E+03  0.22271371434E+03  0.33679099913E+03  0.17300000000E+03 0. -1.
         -6    1    1    2    0  503  0.62781839395E+02 -0.17307865028E+03 -0.75532183006E+02  0.26368900093E+03  0.17300000000E+03 0. -1.
<mgrwt>
<rscale>  2 0.25263962E+03</rscale>
<asrwt>0</asrwt>
<pdfrwt beam="1">  1       21 0.57512425E-01 0.25263962E+03</pdfrwt>
<pdfrwt beam="2">  1       21 0.34869113E-01 0.25263962E+03</pdfrwt>
<totfact> 0.21783435E+04</totfact>
</mgrwt>
</event>
<event>
 4    1  0.4035350E+000  0.2350887E+03  0.7546771E-02  0.1123109E+00
         21   -1    0    0  501  502  0.00000000000E+00  0.00000000000E+00  0.11441714910E+03  0.11441714910E+03  0.00000000000E+00 0. -1.
         21   -1    0    0  502  503 -0.00000000000E+00 -0.00000000000E+00 -0.54573758483E+03  0.54573758483E+03  0.00000000000E+00 0.  1.
          6    1    1    2  501    0 -0.12567849867E+03  0.97686315745E+02 -0.10377045990E+03  0.25697278000E+03  0.17300000000E+03 0. -1.
         -6    1    1    2    0  503  0.12567849867E+03 -0.97686315745E+02 -0.32754997582E+03  0.40318195393E+03  0.17300000000E+03 0.  1.
<mgrwt>
<rscale>  2 0.23508871E+03</rscale>
<asrwt>0</asrwt>
<pdfrwt beam="1">  1       21 0.17602638E-01 0.23508871E+03</pdfrwt>
<pdfrwt beam="2">  1       21 0.83959628E-01 0.23508871E+03</pdfrwt>
<totfact> 0.35285428E+04</totfact>
</mgrwt>
</event>
<event>
 4    1  0.4035350E+000  0.2661936E+03  0.7546771E-02  0.1103478E+00
         21   -1    0    0  503  502  0.00000000000E+00  0.00000000000E+00  0.16414487388E+03  0.16414487388E+03  0.00000000000E+00 0.  1.
         21   -1    0    0  501  503 -0.00000000000E+00 -0.00000000000E+00 -0.50321135668E+03  0.50321135668E+03  0.00000000000E+00 0. -1.
          6    1    1    2  501    0 -0.78321107249E+02 -0.18653649027E+03 -0.43732771375E+02  0.26976214215E+03  0.17300000000E+03 0.  1.
         -6    1    1    2    0  502  0.78321107249E+02  0.18653649027E+03 -0.29533371142E+03  0.39759408842E+03  0.17300000000E+03 0. -1.
<mgrwt>
<rscale>  2 0.26619365E+03</rscale>
<asrwt>0</asrwt>
<pdfrwt beam="1">  1       21 0.25253058E-01 0.26619365E+03</pdfrwt>
<pdfrwt beam="2">  1       21 0.77417132E-01 0.26619365E+03</pdfrwt>
<totfact> 0.21166701E+04</totfact>
</mgrwt>
</event>
<event>
 4    1  0.4035350E+000  0.1892052E+03  0.7546771E-02  0.1159180E+00
         21   -1    0    0  501  502  0.00000000000E+00  0.00000000000E+00  0.61420195389E+03  0.61420195389E+03  0.00000000000E+00 0. -1.
         21   -1    0    0  502  503 -0.00000000000E+00 -0.00000000000E+00 -0.67859269779E+02  0.67859269779E+02  0.00000000000E+00 0. -1.
          6    1    1    2  501    0  0.71502990776E+02  0.27512086934E+02  0.40127095481E+03  0.44364058853E+03  0.17300000000E+03 0. -1.
         -6    1    1    2    0  503 -0.71502990776E+02 -0.27512086934E+02  0.14507172930E+03  0.23842063514E+03  0.17300000000E+03 0. -1.
<mgrwt>
<rscale>  2 0.18920516E+03</rscale>
<asrwt>0</asrwt>
<pdfrwt beam="1">  1       21 0.94492604E-01 0.18920516E+03</pdfrwt>
<pdfrwt beam="2">  1       21 0.10439888E-01 0.18920516E+03</pdfrwt>
<totfact> 0.70644517E+04</totfact>
</mgrwt>
</event>
<event>
 4    1  0.4035350E+000  0.1901333E+03  0.7546771E-02  0.1158341E+00
         21   -1    0    0  503  502  0.00000000000E+00  0.00000000000E+00  0.12164305655E+03  0.12164305655E+03  0.00000000000E+00 0.  1.
         21   -1    0    0  501  503 -0.00000000000E+00 -0.00000000000E+00 -0.33254863350E+03  0.33254863350E+03  0.00000000000E+00 0.  1.
          6    1    1    2  501    0  0.21802735624E+02  0.75804487328E+02 -0.17950713672E+03  0.26148325322E+03  0.17300000000E+03 0. -1.
         -6    1    1    2    0  502 -0.21802735624E+02 -0.75804487328E+02 -0.31398440229E+02  0.19270843684E+03  0.17300000000E+03 0. -1.
<mgrwt>
<rscale>  2 0.19013332E+03</rscale>
<asrwt>0</asrwt>
<pdfrwt beam="1">  1       21 0.18714316E-01 0.19013332E+03</pdfrwt>
<pdfrwt beam="2">  1       21 0.51161329E-01 0.19013332E+03</pdfrwt>
<totfact> 0.94974341E+04</totfact>
</mgrwt>
</event>
<event>
 4    1  0.4035350E+000  0.3802377E+03  0.7546771E-02  0.1050846E+00
         21   -1    0    0  501  502  0.00000000000E+00  0.00000000000E+00  0.27519624090E+03  0.27519624090E+03  0.00000000000E+00 0. -1.
         21   -1    0    0  502  503 -0.00000000000E+00 -0.00000000000E+00 -0.12769053806E+04  0.12769053806E+04  0.00000000000E+00 0.  1.
          6    1    1    2  501    0 -0.18936761587E+03 -0.28069842121E+03  0.94512243942E+02  0.39180768479E+03  0.17300000000E+03 0. -1.
         -6    1    1    2    0  503  0.18936761587E+03  0.28069842121E+03 -0.10962213836E+04  0.11602939367E+04  0.17300000000E+03 0.  1.
<mgrwt>
<rscale>  2 0.38023769E+03</rscale>
<asrwt>0</asrwt>
<pdfrwt beam="1">  1       21 0.42337884E-01 0.38023769E+03</pdfrwt>
<pdfrwt beam="2">  1       21 0.19644698E+00 0.38023769E+03</pdfrwt>
<totfact> 0.65245639E+02</totfact>
</mgrwt>
</event>
<event>
 4    1  0.4035350E+000  0.2373964E+03  0.7546771E-02  0.1121539E+00
         21   -1    0    0  503  502  0.00000000000E+00  0.00000000000E+00  0.15228667299E+03  0.15228667299E+03  0.00000000000E+00 0. -1.
         21   -1    0    0  501  503 -0.00000000000E+00 -0.00000000000E+00 -0.37029266997E+03  0.37029266997E+03  0.00000000000E+00 0.  1.
          6    1    1    2  501    0  0.72163687536E+02 -0.14567246227E+03 -0.10262734519E+03  0.25862992101E+03  0.17300000000E+03 0. -1.
         -6    1    1    2    0  502 -0.72163687536E+02  0.14567246227E+03 -0.11537865179E+03  0.26394942195E+03  0.17300000000E+03 0.  1.
<mgrwt>
<rscale>  2 0.23739643E+03</rscale>
<asrwt>0</asrwt>
<pdfrwt beam="1">  1       21 0.23428719E-01 0.23739643E+03</pdfrwt>
<pdfrwt beam="2">  1       21 0.56968103E-01 0.23739643E+03</pdfrwt>
<totfact> 0.48599670E+04</totfact>
</mgrwt>
</event>
<event>
 4    1  0.4035350E+000  0.1758960E+03  0.7546771E-02  0.1171835E+00
         21   -1    0    0  503  502  0.00000000000E+00  0.00000000000E+00  0.18426705549E+04  0.18426705549E+04  0.00000000000E+00 0. -1.
         21   -1    0    0  501  503 -0.00000000000E+00 -0.00000000000E+00 -0.35624091057E+02  0.35624091057E+02  0.00000000000E+00 0. -1.
          6    1    1    2  501    0  0.21970408912E+02 -0.22972172825E+02  0.22066897101E+03  0.28219534787E+03  0.17300000000E+03 0. -1.
         -6    1    1    2    0  502 -0.21970408912E+02  0.22972172825E+02  0.15863774928E+04  0.15960992981E+04  0.17300000000E+03 0. -1.
<mgrwt>
<rscale>  2 0.17589605E+03</rscale>
<asrwt>0</asrwt>
<pdfrwt beam="1">  1       21 0.28348770E+00 0.17589605E+03</pdfrwt>
<pdfrwt beam="2">  1       21 0.54806308E-02 0.17589605E+03</pdfrwt>
<totfact> 0.99569621E+03</totfact>
</mgrwt>
</event>
<event>
 4    1  0.4035350E+000  0.2138248E+03  0.7546771E-02  0.1138572E+00
         21   -1    0    0  503  502  0.00000000000E+00  0.00000000000E+00  0.13709306967E+03  0.13709306967E+03  0.00000000000E+00 0. -1.
         21   -1    0    0  501  503 -0.00000000000E+00 -0.00000000000E+00 -0.36034274644E+03  0.36034274644E+03  0.00000000000E+00 0. -1.
          6    1    1    2  501    0 -0.12565452907E+03  0.17249509582E+01 -0.17950350243E+03  0.27918191832E+03  0.17300000000E+03 0. -1.
         -6    1    1    2    0  502  0.12565452907E+03 -0.17249509582E+01 -0.43746174331E+02  0.21825389779E+03  0.17300000000E+03 0. -1.
<mgrwt>
<rscale>  2 0.21382478E+03</rscale>
<asrwt>0</asrwt>
<pdfrwt beam="1">  1       21 0.21091242E-01 0.21382478E+03</pdfrwt>
<pdfrwt beam="2">  1       21 0.55437345E-01 0.21382478E+03</pdfrwt>
<totfact> 0.63485817E+04</totfact>
</mgrwt>
</event>
<event>
 4    1  0.4035350E+000  0.1890556E+03  0.7546771E-02  0.1159316E+00
         21   -1    0    0  501  502  0.00000000000E+00  0.00000000000E+00  0.26809242383E+02  0.26809242383E+02  0.00000000000E+00 0.  1.
         21   -1    0    0  502  503 -0.00000000000E+00 -0.00000000000E+00 -0.18546002618E+04  0.18546002618E+04  0.00000000000E+00 0.  1.
          6    1    1    2  501    0  0.19229556103E+00 -0.76242903843E+02 -0.41510887792E+03  0.45613309230E+03  0.17300000000E+03 0.  1.
         -6    1    1    2    0  503 -0.19229556103E+00  0.76242903843E+02 -0.14126821415E+04  0.14252764119E+04  0.17300000000E+03 0.  1.
<mgrwt>
<rscale>  2 0.18905559E+03</rscale>
<asrwt>0</asrwt>
<pdfrwt beam="1">  1       21 0.41245000E-02 0.18905559E+03</pdfrwt>
<pdfrwt beam="2">  1       21 0.28532304E+00 0.18905559E+03</pdfrwt>
<totfact> 0.15489968E+04</totfact>
</mgrwt>
</event>
<event>
 4    1  0.4035350E+000  0.1750684E+03  0.7546771E-02  0.1172663E+00
         21   -1    0    0  503  502  0.00000000000E+00  0.00000000000E+00  0.14019741982E+03  0.14019741982E+03  0.00000000000E+00 0.  1.
         21   -1    0    0  501  503 -0.00000000000E+00 -0.00000000000E+00 -0.43322883181E+03  0.43322883181E+03  0.00000000000E+00 0.  1.
          6    1    1    2  501    0 -0.14826130096E+02 -0.22363334796E+02 -0.34831521592E+03  0.38983640481E+03  0.17300000000E+03 0.  1.
         -6    1    1    2    0  502  0.14826130096E+02  0.22363334796E+02  0.55283803935E+02  0.18358984682E+03  0.17300000000E+03 0.  1.
<mgrwt>
<rscale>  2 0.17506837E+03</rscale>
<asrwt>0</asrwt>
<pdfrwt beam="1">  1       21 0.21568834E-01 0.17506837E+03</pdfrwt>
<pdfrwt beam="2">  1       21 0.66650588E-01 0.17506837E+03</pdfrwt>
<totfact> 0.41714174E+04</totfact>
</mgrwt>
</event>
<event>
 4    1  0.4035350E+000  0.2160388E+03  0.7546771E-02  0.1136871E+00
         21   -1    0    0  503  502  0.00000000000E+00  0.00000000000E+00  0.32118228537E+03  0.32118228537E+03  0.00000000000E+00 0.  1.
         21   -1    0    0  501  503 -0.00000000000E+00 -0.00000000000E+00 -0.16621779007E+03  0.16621779007E+03  0.00000000000E+00 0. -1.
          6    1    1    2  501    0  0.88090326540E+02  0.94783269006E+02 -0.89375963547E+01  0.21622362115E+03  0.17300000000E+03 0.  1.
         -6    1    1    2    0  502 -0.88090326540E+02 -0.94783269006E+02  0.16390209166E+03  0.27117645430E+03  0.17300000000E+03 0. -1.
<mgrwt>
<rscale>  2 0.21603882E+03</rscale>
<asrwt>0</asrwt>
<pdfrwt beam="1">  1       21 0.49412659E-01 0.21603882E+03</pdfrwt>
<pdfrwt beam="2">  1       21 0.25571968E-01 0.21603882E+03</pdfrwt>
<totfact> 0.56038327E+04</totfact>
</mgrwt>
</event>
<event>
 4    1  0.4035350E+000  0.1976066E+03  0.7546771E-02  0.1151774E+00
         21   -1    0    0  501  502  0.00000000000E+00  0.00000000000E+00  0.18790013757E+03  0.18790013757E+03  0.00000000000E+00 0.  1.
         21   -1    0    0  502  503 -0.00000000000E+00 -0.00000000000E+00 -0.25644239336E+03  0.25644239336E+03  0.00000000000E+00 0.  1.
          6    1    1    2  501    0 -0.89930208133E+02  0.32123361258E+02 -0.13101783500E+03  0.23709497203E+03  0.17300000000E+03 0.  1.
         -6    1    1    2    0  503  0.89930208133E+02 -0.32123361258E+02  0.62475579206E+02  0.20724755890E+03  0.17300000000E+03 0.  1.
<mgrwt>
<rscale>  2 0.19760656E+03</rscale>
<asrwt>0</asrwt>
<pdfrwt beam="1">  1       21 0.28907714E-01 0.19760656E+03</pdfrwt>
<pdfrwt beam="2">  1       21 0.39452676E-01 0.19760656E+03</pdfrwt>
<totfact> 0.70779895E+04</totfact>
</mgrwt>
</event>
<event>
 4    1  0.4035350E+000  0.2933866E+03  0.7546771E-02  0.1088594E+00
         21   -1    0    0  503  502  0.00000000000E+00  0.00000000000E+00  0.25186754617E+03  0.25186754617E+03  0.00000000000E+00 0. -1.
         21   -1    0    0  501  503 -0.00000000000E+00 -0.00000000000E+00 -0.73254380068E+03  0.73254380068E+03  0.00000000000E+00 0.  1.
          6    1    1    2  501    0 -0.22873044999E+03 -0.61879646083E+02 -0.59984210799E+03  0.66774715565E+03  0.17300000000E+03 0.  1.
         -6    1    1    2    0  502  0.22873044999E+03  0.61879646083E+02  0.11916585348E+03  0.31666419120E+03  0.17300000000E+03 0.  1.
<mgrwt>
<rscale>  2 0.29338662E+03</rscale>
<asrwt>0</asrwt>
<pdfrwt beam="1">  1       21 0.38748853E-01 0.29338662E+03</pdfrwt>
<pdfrwt beam="2">  1       21 0.11269905E+00 0.29338662E+03</pdfrwt>
<totfact> 0.36894217E+03</totfact>
</mgrwt>
</event>
<event>
 4    1  0.4035350E+000  0.1879630E+03  0.7546771E-02  0.1160311E+00
         21   -1    0    0  501  502  0.00000000000E+00  0.00000000000E+00  0.10139557341E+03  0.10139557341E+03  0.00000000000E+00 0. -1.
         21   -1    0    0  502  503 -0.00000000000E+00 -0.00000000000E+00 -0.42377081680E+03  0.42377081680E+03  0.00000000000E+00 0. -1.
          6    1    1    2  501    0  0.45479357484E+02 -0.57729849898E+02 -0.50476190449E+02  0.19462259203E+03  0.17300000000E+03 0. -1.
         -6    1    1    2    0  503 -0.45479357484E+02  0.57729849898E+02 -0.27189905294E+03  0.33054379818E+03  0.17300000000E+03 0. -1.
<mgrwt>
<rscale>  2 0.18796305E+03</rscale>
<asrwt>0</asrwt>
<pdfrwt beam="1">  1       21 0.15599319E-01 0.18796305E+03</pdfrwt>
<pdfrwt beam="2">  1       21 0.65195509E-01 0.18796305E+03</pdfrwt>
<totfact> 0.79237642E+04</totfact>
</mgrwt>
</event>
<event>
 4    1  0.4035350E+000  0.2127127E+03  0.7546771E-02  0.1139436E+00
         21   -1    0    0  503  502  0.00000000000E+00  0.00000000000E+00  0.11043529331E+03  0.11043529331E+03  0.00000000000E+00 0. -1.
         21   -1    0    0  501  503 -0.00000000000E+00 -0.00000000000E+00 -0.84425800825E+03  0.84425800825E+03  0.00000000000E+00 0. -1.
          6    1    1    2  501    0  0.10160761690E+03 -0.70665203569E+02 -0.70937471072E+03  0.74058028533E+03  0.17300000000E+03 0. -1.
         -6    1    1    2    0  502 -0.10160761690E+03  0.70665203569E+02 -0.24448004214E+02  0.21411301623E+03  0.17300000000E+03 0. -1.
<mgrwt>
<rscale>  2 0.21271267E+03</rscale>
<asrwt>0</asrwt>
<pdfrwt beam="1">  1       21 0.16990046E-01 0.21271267E+03</pdfrwt>
<pdfrwt beam="2">  1       21 0.12988584E+00 0.21271267E+03</pdfrwt>
<totfact> 0.13344962E+04</totfact>
</mgrwt>
</event>
<event>
 4    1  0.4035350E+000  0.2104608E+03  0.7546771E-02  0.1141202E+00
         21   -1    0    0  503  502  0.00000000000E+00  0.00000000000E+00  0.16622802592E+04  0.16622802592E+04  0.00000000000E+00 0.  1.
         21   -1    0    0  501  503 -0.00000000000E+00 -0.00000000000E+00 -0.29440449337E+02  0.29440449337E+02  0.00000000000E+00 0.  1.
          6    1    1    2  501    0 -0.71271122622E+02 -0.96359520451E+02  0.55583692829E+03  0.59434705429E+03  0.17300000000E+03 0.  1.
         -6    1    1    2    0  502  0.71271122622E+02  0.96359520451E+02  0.10770028816E+04  0.10973736542E+04  0.17300000000E+03 0.  1.
<mgrwt>
<rscale>  2 0.21046076E+03</rscale>
<asrwt>0</asrwt>
<pdfrwt beam="1">  1       21 0.25573535E+00 0.21046076E+03</pdfrwt>
<pdfrwt beam="2">  1       21 0.45293012E-02 0.21046076E+03</pdfrwt>
<totfact> 0.19265397E+04</totfact>
</mgrwt>
</event>
<event>
 4    1  0.4035350E+000  0.2886751E+03  0.7546771E-02  0.1091043E+00
         21   -1    0    0  503  502  0.00000000000E+00  0.00000000000E+00  0.21613130512E+03  0.21613130512E+03  0.00000000000E+00 0.  1.
         21   -1    0    0  501  503 -0.00000000000E+00 -0.00000000000E+00 -0.40405009791E+03  0.40405009791E+03  0.00000000000E+00 0. -1.
          6    1    1    2  501    0 -0.15090593846E+03  0.17501922571E+03 -0.16027960256E+03  0.33018613330E+03  0.17300000000E+03 0. -1.
         -6    1    1    2    0  502  0.15090593846E+03 -0.17501922571E+03 -0.27639190232E+02  0.28999526973E+03  0.17300000000E+03 0.  1.
<mgrwt>
<rscale>  2 0.28867513E+03</rscale>
<asrwt>0</asrwt>
<pdfrwt beam="1">  1       21 0.33250970E-01 0.28867513E+03</pdfrwt>
<pdfrwt beam="2">  1       21 0.62161554E-01 0.28867513E+03</pdfrwt>
<totfact> 0.19920611E+04</totfact>
</mgrwt>
</event>
<event>
 4    1  0.4035350E+000  0.1810757E+03  0.7546771E-02  0.1166766E+00
         21   -1    0    0  503  502  0.00000000000E+00  0.00000000000E+00  0.36370476889E+02  0.36370476889E+02  0.00000000000E+00 0. -1.
         21   -1    0    0  501  503 -0.00000000000E+00 -0.00000000000E+00 -0.90436661712E+03  0.90436661712E+03  0.00000000000E+00 0. -1.
          6    1    1    2  501    0  0.31326755106E+02 -0.43336270152E+02 -0.46042757428E+03  0.49475443309E+03  0.17300000000E+03 0. -1.
         -6    1    1    2    0  502 -0.31326755106E+02  0.43336270152E+02 -0.40756856595E+03  0.44598266092E+03  0.17300000000E+03 0. -1.
<mgrwt>
<rscale>  2 0.18107567E+03</rscale>
<asrwt>0</asrwt>
<pdfrwt beam="1">  1       21 0.55954581E-02 0.18107567E+03</pdfrwt>
<pdfrwt beam="2">  1       21 0.13913332E+00 0.18107567E+03</pdfrwt>
<totfact> 0.81231660E+04</totfact>
</mgrwt>
</event>
<event>
 4    1  0.4035350E+000  0.2410506E+03  0.7546771E-02  0.1119095E+00
         21   -1    0    0  503  502  0.00000000000E+00  0.00000000000E+00  0.10407837175E+03  0.10407837175E+03  0.00000000000E+00 0.  1.
         21   -1    0    0  501  503 -0.00000000000E+00 -0.00000000000E+00 -0.85062091485E+03  0.85062091485E+03  0.00000000000E+00 0.  1.
          6    1    1    2  501    0  0.16784498498E+03 -0.21071629668E+01 -0.93431288772E+02  0.25852424420E+03  0.17300000000E+03 0.  1.
         -6    1    1    2    0  502 -0.16784498498E+03  0.21071629668E+01 -0.65311125433E+03  0.69617504239E+03  0.17300000000E+03 0.  1.
<mgrwt>
<rscale>  2 0.24105057E+03</rscale>
<asrwt>0</asrwt>
<pdfrwt beam="1">  1       21 0.16012057E-01 0.24105057E+03</pdfrwt>
<pdfrwt beam="2">  1       21 0.13086476E+00 0.24105057E+03</pdfrwt>
<totfact> 0.14351734E+04</totfact>
</mgrwt>
</event>
<event>
 4    1  0.4035350E+000  0.2449497E+03  0.7546771E-02  0.1116539E+00
         21   -1    0    0  503  502  0.00000000000E+00  0.00000000000E+00  0.82683532078E+03  0.82683532078E+03  0.00000000000E+00 0.  1.
         21   -1    0    0  501  503 -0.00000000000E+00 -0.00000000000E+00 -0.37229199419E+03  0.37229199419E+03  0.00000000000E+00 0.  1.
          6    1    1    2  501    0 -0.96604770433E+02  0.14400998820E+03 -0.31069511614E+03  0.39564101603E+03  0.17300000000E+03 0.  1.
         -6    1    1    2    0  502  0.96604770433E+02 -0.14400998820E+03  0.76523844272E+03  0.80348629895E+03  0.17300000000E+03 0.  1.
<mgrwt>
<rscale>  2 0.24494971E+03</rscale>
<asrwt>0</asrwt>
<pdfrwt beam="1">  1       21 0.12720543E+00 0.24494971E+03</pdfrwt>
<pdfrwt beam="2">  1       21 0.57275691E-01 0.24494971E+03</pdfrwt>
<totfact> 0.12467640E+03</totfact>
</mgrwt>
</event>
<event>
 4    1  0.4035350E+000  0.2077301E+03  0.7546771E-02  0.1143376E+00
         21   -1    0    0  501  502  0.00000000000E+00  0.00000000000E+00  0.29630428502E+03  0.29630428502E+03  0.00000000000E+00 0.  1.
         21   -1    0    0  502  503 -0.00000000000E+00 -0.00000000000E+00 -0.27633643918E+03  0.27633643918E+03  0.00000000000E+00 0.  1.
          6    1    1    2  501    0  0.38216531745E+02  0.10845409219E+03  0.20689767101E+03  0.29318669766E+03  0.17300000000E+03 0.  1.
         -6    1    1    2    0  503 -0.38216531745E+02 -0.10845409219E+03 -0.18692982517E+03  0.27945402654E+03  0.17300000000E+03 0.  1.
<mgrwt>
<rscale>  2 0.20773010E+03</rscale>
<asrwt>0</asrwt>
<pdfrwt beam="1">  1       21 0.45585275E-01 0.20773010E+03</pdfrwt>
<pdfrwt beam="2">  1       21 0.42513298E-01 0.20773010E+03</pdfrwt>
<totfact> 0.24351406E+04</totfact>
</mgrwt>
</event>
<event>
 4    1  0.4035350E+000  0.2713881E+03  0.7546771E-02  0.1100488E+00
         21   -1    0    0  503  502  0.00000000000E+00  0.00000000000E+00  0.18905543284E+03  0.18905543284E+03  0.00000000000E+00 0. -1.
         21   -1    0    0  501  503 -0.00000000000E+00 -0.00000000000E+00 -0.46860502594E+03  0.46860502594E+03  0.00000000000E+00 0. -1.
          6    1    1    2  501    0 -0.11363604162E+01 -0.20909614178E+03 -0.47351898472E+01  0.27142938280E+03  0.17300000000E+03 0. -1.
         -6    1    1    2    0  502  0.11363604162E+01  0.20909614178E+03 -0.27481440325E+03  0.38623107599E+03  0.17300000000E+03 0. -1.
<mgrwt>
<rscale>  2 0.27138808E+03</rscale>
<asrwt>0</asrwt>
<pdfrwt beam="1">  1       21 0.29085452E-01 0.27138808E+03</pdfrwt>
<pdfrwt beam="2">  1       21 0.72093080E-01 0.27138808E+03</pdfrwt>
<totfact> 0.18842697E+04</totfact>
</mgrwt>
</event>
<event>
 4    1  0.4035350E+000  0.2426731E+03  0.7546771E-02  0.1118025E+00
         21   -1    0    0  503  502  0.00000000000E+00  0.00000000000E+00  0.47149743571E+02  0.47149743571E+02  0.00000000000E+00 0.  1.
         21   -1    0    0  501  503 -0.00000000000E+00 -0.00000000000E+00 -0.17982627085E+04  0.17982627085E+04  0.00000000000E+00 0. -1.
          6    1    1    2  501    0 -0.18737908850E+02  0.16914522017E+03 -0.13855038894E+04  0.14065956214E+04  0.17300000000E+03 0. -1.
         -6    1    1    2    0  502  0.18737908850E+02 -0.16914522017E+03 -0.36560907555E+03  0.43881683065E+03  0.17300000000E+03 0.  1.
<mgrwt>
<rscale>  2 0.24267306E+03</rscale>
<asrwt>0</asrwt>
<pdfrwt beam="1">  1       21 0.72538079E-02 0.24267306E+03</pdfrwt>
<pdfrwt beam="2">  1       21 0.27665576E+00 0.24267306E+03</pdfrwt>
<totfact> 0.63039657E+03</totfact>
</mgrwt>
</event>
<event>
 4    1  0.4035350E+000  0.1876863E+03  0.7546771E-02  0.1160565E+00
         21   -1    0    0  501  502  0.00000000000E+00  0.00000000000E+00  0.13118099556E+04  0.13118099556E+04  0.00000000000E+00 0. -1.
         21   -1    0    0  502  503 -0.00000000000E+00 -0.00000000000E+00 -0.27811114187E+02  0.27811114187E+02  0.00000000000E+00 0.  1.
          6    1    1    2  501    0  0.61140879262E+02  0.39483221369E+02  0.76631749800E+03  0.78896681782E+03  0.17300000000E+03 0.  1.
         -6    1    1    2    0  503 -0.61140879262E+02 -0.39483221369E+02  0.51768134340E+03  0.55065425195E+03  0.17300000000E+03 0. -1.
<mgrwt>
<rscale>  2 0.18768626E+03</rscale>
<asrwt>0</asrwt>
<pdfrwt beam="1">  1       21 0.20181687E+00 0.18768626E+03</pdfrwt>
<pdfrwt beam="2">  1       21 0.42786340E-02 0.18768626E+03</pdfrwt>
<totfact> 0.45897882E+04</totfact>
</mgrwt>
</event>
<event>
 4    1  0.4035350E+000  0.1991878E+03  0.7546771E-02  0.1150426E+00
         21   -1    0    0  503  502  0.00000000000E+00  0.00000000000E+00  0.41505986585E+02  0.41505986585E+02  0.00000000000E+00 0.  1.
         21   -1    0    0  501  503 -0.00000000000E+00 -0.00000000000E+00 -0.13240028873E+04  0.13240028873E+04  0.00000000000E+00 0.  1.
          6    1    1    2  501    0  0.67195016459E+02  0.72329985380E+02 -0.10012476101E+04  0.10208685389E+04  0.17300000000E+03 0.  1.
         -6    1    1    2    0  502 -0.67195016459E+02 -0.72329985380E+02 -0.28124929068E+03  0.34464033503E+03  0.17300000000E+03 0.  1.
<mgrwt>
<rscale>  2 0.19918784E+03</rscale>
<asrwt>0</asrwt>
<pdfrwt beam="1">  1       21 0.63855379E-02 0.19918784E+03</pdfrwt>
<pdfrwt beam="2">  1       21 0.20369270E+00 0.19918784E+03</pdfrwt>
<totfact> 0.22424506E+04</totfact>
</mgrwt>
</event>
<event>
 4    1  0.4035350E+000  0.1737300E+03  0.7546771E-02  0.1174013E+00
         21   -1    0    0  503  502  0.00000000000E+00  0.00000000000E+00  0.19626494555E+04  0.19626494555E+04  0.00000000000E+00 0.  1.
         21   -1    0    0  501  503 -0.00000000000E+00 -0.00000000000E+00 -0.22011629563E+02  0.22011629563E+02  0.00000000000E+00 0.  1.
          6    1    1    2  501    0  0.14080511420E+02  0.74052234281E+01  0.42556802172E+03  0.45966318022E+03  0.17300000000E+03 0.  1.
         -6    1    1    2    0  502 -0.14080511420E+02 -0.74052234281E+01  0.15150698042E+04  0.15249979048E+04  0.17300000000E+03 0.  1.
<mgrwt>
<rscale>  2 0.17372996E+03</rscale>
<asrwt>0</asrwt>
<pdfrwt beam="1">  1       21 0.30194593E+00 0.17372996E+03</pdfrwt>
<pdfrwt beam="2">  1       21 0.33864061E-02 0.17372996E+03</pdfrwt>
<totfact> 0.17565592E+04</totfact>
</mgrwt>
</event>
<event>
 4    1  0.4035350E+000  0.2435005E+03  0.7546771E-02  0.1117483E+00
         21   -1    0    0  503  502  0.00000000000E+00  0.00000000000E+00  0.92615502549E+03  0.92615502549E+03  0.00000000000E+00 0.  1.
         21   -1    0    0  501  503 -0.00000000000E+00 -0.00000000000E+00 -0.78620885067E+02  0.78620885067E+02  0.00000000000E+00 0. -1.
          6    1    1    2  501    0  0.16467239758E+03 -0.47397303406E+02  0.20726656625E+03  0.31976856065E+03  0.17300000000E+03 0. -1.
         -6    1    1    2    0  502 -0.16467239758E+03  0.47397303406E+02  0.64026757417E+03  0.68500734990E+03  0.17300000000E+03 0. -1.
<mgrwt>
<rscale>  2 0.24350052E+03</rscale>
<asrwt>0</asrwt>
<pdfrwt beam="1">  1       21 0.14248538E+00 0.24350052E+03</pdfrwt>
<pdfrwt beam="2">  1       21 0.12095521E-01 0.24350052E+03</pdfrwt>
<totfact> 0.19170337E+04</totfact>
</mgrwt>
</event>
<event>
 4    1  0.4035350E+000  0.2188411E+03  0.7546771E-02  0.1134750E+00
         21   -1    0    0  501  502  0.00000000000E+00  0.00000000000E+00  0.25695818634E+03  0.25695818634E+03  0.00000000000E+00 0.  1.
         21   -1    0    0  502  503 -0.00000000000E+00 -0.00000000000E+00 -0.19018612631E+03  0.19018612631E+03  0.00000000000E+00 0.  1.
          6    1    1    2  501    0  0.24892625161E+02  0.13169195665E+03  0.65021212953E+02  0.22829623818E+03  0.17300000000E+03 0.  1.
         -6    1    1    2    0  503 -0.24892625161E+02 -0.13169195665E+03  0.17508470773E+01  0.21884807447E+03  0.17300000000E+03 0.  1.
<mgrwt>
<rscale>  2 0.21884107E+03</rscale>
<asrwt>0</asrwt>
<pdfrwt beam="1">  1       21 0.39532029E-01 0.21884107E+03</pdfrwt>
<pdfrwt beam="2">  1       21 0.29259404E-01 0.21884107E+03</pdfrwt>
<totfact> 0.68221811E+04</totfact>
</mgrwt>
</event>
<event>
 4    1  0.4035350E+000  0.3368291E+03  0.7546771E-02  0.1068155E+00
         21   -1    0    0  501  502  0.00000000000E+00  0.00000000000E+00  0.90692959591E+03  0.90692959591E+03  0.00000000000E+00 0.  1.
         21   -1    0    0  502  503 -0.00000000000E+00 -0.00000000000E+00 -0.12510071960E+03  0.12510071960E+03  0.00000000000E+00 0. -1.
          6    1    1    2  501    0  0.30502145109E+01  0.28899058373E+03  0.39385474430E+03  0.51824262745E+03  0.17300000000E+03 0.  1.
         -6    1    1    2    0  503 -0.30502145109E+01 -0.28899058373E+03  0.38797413201E+03  0.51378768806E+03  0.17300000000E+03 0.  1.
<mgrwt>
<rscale>  2 0.33682913E+03</rscale>
<asrwt>0</asrwt>
<pdfrwt beam="1">  1       21 0.13952763E+00 0.33682913E+03</pdfrwt>
<pdfrwt beam="2">  1       21 0.19246265E-01 0.33682913E+03</pdfrwt>
<totfact> 0.82273919E+03</totfact>
</mgrwt>
</event>
<event>
 4    1  0.4035350E+000  0.2030186E+03  0.7546771E-02  0.1147217E+00
         21   -1    0    0  501  502  0.00000000000E+00  0.00000000000E+00  0.71289283238E+03  0.71289283238E+03  0.00000000000E+00 0. -1.
         21   -1    0    0  502  503 -0.00000000000E+00 -0.00000000000E+00 -0.81178145413E+02  0.81178145413E+02  0.00000000000E+00 0. -1.
          6    1    1    2  501    0  0.66037033610E+02  0.83226471732E+02  0.52885122359E+03  0.56648049578E+03  0.17300000000E+03 0. -1.
         -6    1    1    2    0  503 -0.66037033610E+02 -0.83226471732E+02  0.10286346338E+03  0.22759048201E+03  0.17300000000E+03 0. -1.
<mgrwt>
<rscale>  2 0.20301856E+03</rscale>
<asrwt>0</asrwt>
<pdfrwt beam="1">  1       21 0.10967582E+00 0.20301856E+03</pdfrwt>
<pdfrwt beam="2">  1       21 0.12488946E-01 0.20301856E+03</pdfrwt>
<totfact> 0.35726336E+04</totfact>
</mgrwt>
</event>
<event>
 4    1  0.4035350E+000  0.2307982E+03  0.7546771E-02  0.1126079E+00
         21   -1    0    0  501  502  0.00000000000E+00  0.00000000000E+00  0.85162125165E+02  0.85162125165E+02  0.00000000000E+00 0.  1.
         21   -1    0    0  502  503 -0.00000000000E+00 -0.00000000000E+00 -0.74194493022E+03  0.74194493022E+03  0.00000000000E+00 0.  1.
          6    1    1    2  501    0  0.14864073638E+02  0.15204561972E+03 -0.16454751987E+03  0.28344963831E+03  0.17300000000E+03 0.  1.
         -6    1    1    2    0  503 -0.14864073638E+02 -0.15204561972E+03 -0.49223528519E+03  0.54365741708E+03  0.17300000000E+03 0.  1.
<mgrwt>
<rscale>  2 0.23079820E+03</rscale>
<asrwt>0</asrwt>
<pdfrwt beam="1">  1       21 0.13101866E-01 0.23079820E+03</pdfrwt>
<pdfrwt beam="2">  1       21 0.11414537E+00 0.23079820E+03</pdfrwt>
<totfact> 0.29292812E+04</totfact>
</mgrwt>
</event>
<event>
 4    1  0.4035350E+000  0.1767709E+03  0.7546771E-02  0.1170965E+00
         21   -1    0    0  501  502  0.00000000000E+00  0.00000000000E+00  0.17177362177E+03  0.17177362177E+03  0.00000000000E+00 0. -1.
         21   -1    0    0  502  503 -0.00000000000E+00 -0.00000000000E+00 -0.18417529100E+03  0.18417529100E+03  0.00000000000E+00 0. -1.
          6    1    1    2  501    0 -0.17259516865E+02 -0.31954167941E+02 -0.25923136073E+02  0.17866160403E+03  0.17300000000E+03 0.  1.
         -6    1    1    2    0  503  0.17259516865E+02  0.31954167941E+02  0.13521466842E+02  0.17728730873E+03  0.17300000000E+03 0.  1.
<mgrwt>
<rscale>  2 0.17677092E+03</rscale>
<asrwt>0</asrwt>
<pdfrwt beam="1">  1       21 0.26426711E-01 0.17677092E+03</pdfrwt>
<pdfrwt beam="2">  1       21 0.28334660E-01 0.17677092E+03</pdfrwt>
<totfact> 0.16296806E+05</totfact>
</mgrwt>
</event>
<event>
 4    1  0.4035350E+000  0.2143175E+03  0.7546771E-02  0.1138192E+00
         21   -1    0    0  501  502  0.00000000000E+00  0.00000000000E+00  0.39002242816E+02  0.39002242816E+02  0.00000000000E+00 0.  1.
         21   -1    0    0  502  503 -0.00000000000E+00 -0.00000000000E+00 -0.11777759003E+04  0.11777759003E+04  0.00000000000E+00 0.  1.
          6    1    1    2  501    0  0.74670359230E+02  0.10211422190E+03 -0.56376324510E+03  0.60312600126E+03  0.17300000000E+03 0.  1.
         -6    1    1    2    0  503 -0.74670359230E+02 -0.10211422190E+03 -0.57501041240E+03  0.61365214188E+03  0.17300000000E+03 0.  1.
<mgrwt>
<rscale>  2 0.21431747E+03</rscale>
<asrwt>0</asrwt>
<pdfrwt beam="1">  1       21 0.60003456E-02 0.21431747E+03</pdfrwt>
<pdfrwt beam="2">  1       21 0.18119627E+00 0.21431747E+03</pdfrwt>
<totfact> 0.34720307E+04</totfact>
</mgrwt>
</event>
<event>
 4    1  0.4035350E+000  0.1730778E+03  0.7546771E-02  0.1174676E+00
         21   -1    0    0  503  502  0.00000000000E+00  0.00000000000E+00  0.19848022792E+03  0.19848022792E+03  0.00000000000E+00 0. -1.
         21   -1    0    0  501  503 -0.00000000000E+00 -0.00000000000E+00 -0.15831260663E+03  0.15831260663E+03  0.00000000000E+00 0. -1.
          6    1    1    2  501    0  0.41834404790E+01  0.30677476794E+01 -0.18449668177E+02  0.17405833076E+03  0.17300000000E+03 0. -1.
         -6    1    1    2    0  502 -0.41834404790E+01 -0.30677476794E+01  0.58617289469E+02  0.18273450379E+03  0.17300000000E+03 0. -1.
<mgrwt>
<rscale>  2 0.17307776E+03</rscale>
<asrwt>0</asrwt>
<pdfrwt beam="1">  1       21 0.30535420E-01 0.17307776E+03</pdfrwt>
<pdfrwt beam="2">  1       21 0.24355786E-01 0.17307776E+03</pdfrwt>
<totfact> 0.16489340E+05</totfact>
</mgrwt>
</event>
<event>
 4    1  0.4035350E+000  0.2488148E+03  0.7546771E-02  0.1114056E+00
         21   -1    0    0  501  502  0.00000000000E+00  0.00000000000E+00  0.16330752518E+03  0.16330752518E+03  0.00000000000E+00 0. -1.
         21   -1    0    0  502  503 -0.00000000000E+00 -0.00000000000E+00 -0.40028348867E+03  0.40028348867E+03  0.00000000000E+00 0. -1.
          6    1    1    2  501    0  0.15064172998E+03  0.96368373129E+02 -0.53651820770E+02  0.25453351847E+03  0.17300000000E+03 0. -1.
         -6    1    1    2    0  503 -0.15064172998E+03 -0.96368373129E+02 -0.18332414272E+03  0.30905749539E+03  0.17300000000E+03 0. -1.
<mgrwt>
<rscale>  2 0.24881478E+03</rscale>
<asrwt>0</asrwt>
<pdfrwt beam="1">  1       21 0.25124235E-01 0.24881478E+03</pdfrwt>
<pdfrwt beam="2">  1       21 0.61582074E-01 0.24881478E+03</pdfrwt>
<totfact> 0.35773335E+04</totfact>
</mgrwt>
</event>
<event>
 4    1  0.4035350E+000  0.2442756E+03  0.7546771E-02  0.1116977E+00
         21   -1    0    0  501  502  0.00000000000E+00  0.00000000000E+00  0.30840747494E+03  0.30840747494E+03  0.00000000000E+00 0.  1.
         21   -1    0    0  502  503 -0.00000000000E+00 -0.00000000000E+00 -0.35824667208E+03  0.35824667208E+03  0.00000000000E+00 0. -1.
          6    1    1    2  501    0  0.17047741387E+03 -0.26058240293E+02  0.20113565763E+03  0.31642713742E+03  0.17300000000E+03 0.  1.
         -6    1    1    2    0  503 -0.17047741387E+03  0.26058240293E+02 -0.25097485477E+03  0.35022700960E+03  0.17300000000E+03 0. -1.
<mgrwt>
<rscale>  2 0.24427562E+03</rscale>
<asrwt>0</asrwt>
<pdfrwt beam="1">  1       21 0.47447304E-01 0.24427562E+03</pdfrwt>
<pdfrwt beam="2">  1       21 0.55114873E-01 0.24427562E+03</pdfrwt>
<totfact> 0.12789639E+04</totfact>
</mgrwt>
</event>
<event>
 4    1  0.4035350E+000  0.1792801E+03  0.7546771E-02  0.1168502E+00
         21   -1    0    0  501  502  0.00000000000E+00  0.00000000000E+00  0.17930186124E+03  0.17930186124E+03  0.00000000000E+00 0.  1.
         21   -1    0    0  502  503 -0.00000000000E+00 -0.00000000000E+00 -0.40749324144E+03  0.40749324144E+03  0.00000000000E+00 0.  1.
          6    1    1    2  501    0 -0.46408335760E+02 -0.76574645074E+01  0.10548149914E+03  0.20800893503E+03  0.17300000000E+03 0.  1.
         -6    1    1    2    0  503  0.46408335760E+02  0.76574645074E+01 -0.33367287935E+03  0.37878616765E+03  0.17300000000E+03 0.  1.
<mgrwt>
<rscale>  2 0.17928014E+03</rscale>
<asrwt>0</asrwt>
<pdfrwt beam="1">  1       21 0.27584902E-01 0.17928014E+03</pdfrwt>
<pdfrwt beam="2">  1       21 0.62691268E-01 0.17928014E+03</pdfrwt>
<totfact> 0.29778843E+04</totfact>
</mgrwt>
</event>
<event>
 4    1  0.4035350E+000  0.2897304E+03  0.7546771E-02  0.1090490E+00
         21   -1    0    0  503  502  0.00000000000E+00  0.00000000000E+00  0.19133222190E+03  0.19133222190E+03  0.00000000000E+00 0. -1.
         21   -1    0    0  501  503 -0.00000000000E+00 -0.00000000000E+00 -0.59489224925E+03  0.59489224925E+03  0.00000000000E+00 0.  1.
          6    1    1    2  501    0 -0.38772181888E+02 -0.22915371124E+03 -0.40319030450E+03  0.49649383391E+03  0.17300000000E+03 0.  1.
         -6    1    1    2    0  502  0.38772181888E+02  0.22915371124E+03 -0.36972284030E+00  0.28973063724E+03  0.17300000000E+03 0. -1.
<mgrwt>
<rscale>  2 0.28973040E+03</rscale>
<asrwt>0</asrwt>
<pdfrwt beam="1">  1       21 0.29435726E-01 0.28973040E+03</pdfrwt>
<pdfrwt beam="2">  1       21 0.91521885E-01 0.28973040E+03</pdfrwt>
<totfact> 0.10564333E+04</totfact>
</mgrwt>
</event>
<event>
 4    1  0.4035350E+000  0.1849490E+03  0.7546771E-02  0.1163097E+00
         21   -1    0    0  501  502  0.00000000000E+00  0.00000000000E+00  0.39818299750E+03  0.39818299750E+03  0.00000000000E+00 0. -1.
         21   -1    0    0  502  503 -0.00000000000E+00 -0.00000000000E+00 -0.10709310591E+03  0.10709310591E+03  0.00000000000E+00 0. -1.
          6    1    1    2  501    0  0.22303086087E+02  0.61479400529E+02  0.33172960742E+02  0.18790047808E+03  0.17300000000E+03 0. -1.
         -6    1    1    2    0  503 -0.22303086087E+02 -0.61479400529E+02  0.25791693085E+03  0.31737562534E+03  0.17300000000E+03 0. -1.
<mgrwt>
<rscale>  2 0.18494903E+03</rscale>
<asrwt>0</asrwt>
<pdfrwt beam="1">  1       21 0.61258922E-01 0.18494903E+03</pdfrwt>
<pdfrwt beam="2">  1       21 0.16475863E-01 0.18494903E+03</pdfrwt>
<totfact> 0.82142418E+04</totfact>
</mgrwt>
</event>
<event>
 4    1  0.4035350E+000  0.1826929E+03  0.7546771E-02  0.1165222E+00
         21   -1    0    0  501  502  0.00000000000E+00  0.00000000000E+00  0.71803495406E+03  0.71803495406E+03  0.00000000000E+00 0.  1.
         21   -1    0    0  502  503 -0.00000000000E+00 -0.00000000000E+00 -0.59932107794E+02  0.59932107794E+02  0.00000000000E+00 0.  1.
          6    1    1    2  501    0 -0.41599059279E+02  0.41439311275E+02  0.51331601556E+03  0.54485780722E+03  0.17300000000E+03 0.  1.
         -6    1    1    2    0  503  0.41599059279E+02 -0.41439311275E+02  0.14478683070E+03  0.23310925463E+03  0.17300000000E+03 0.  1.
<mgrwt>
<rscale>  2 0.18269291E+03</rscale>
<asrwt>0</asrwt>
<pdfrwt beam="1">  1       21 0.11046691E+00 0.18269291E+03</pdfrwt>
<pdfrwt beam="2">  1       21 0.92203248E-02 0.18269291E+03</pdfrwt>
<totfact> 0.60812388E+04</totfact>
</mgrwt>
</event>
<event>
 4    1  0.4035350E+000  0.1815794E+03  0.7546771E-02  0.1166283E+00
         21   -1    0    0  503  502  0.00000000000E+00  0.00000000000E+00  0.58961196194E+02  0.58961196194E+02  0.00000000000E+00 0.  1.
         21   -1    0    0  501  503 -0.00000000000E+00 -0.00000000000E+00 -0.67967440401E+03  0.67967440401E+03  0.00000000000E+00 0.  1.
          6    1    1    2  501    0  0.28607218312E+02 -0.47156130904E+02 -0.46584500940E+03  0.49998264610E+03  0.17300000000E+03 0.  1.
         -6    1    1    2    0  502 -0.28607218312E+02  0.47156130904E+02 -0.15486819842E+03  0.23865295411E+03  0.17300000000E+03 0.  1.
<mgrwt>
<rscale>  2 0.18157939E+03</rscale>
<asrwt>0</asrwt>
<pdfrwt beam="1">  1       21 0.90709530E-02 0.18157939E+03</pdfrwt>
<pdfrwt beam="2">  1       21 0.10456530E+00 0.18157939E+03</pdfrwt>
<totfact> 0.71456515E+04</totfact>
</mgrwt>
</event>
<event>
 4    1  0.4035350E+000  0.2483148E+03  0.7546771E-02  0.1114374E+00
         21   -1    0    0  501  502  0.00000000000E+00  0.00000000000E+00  0.10809393235E+03  0.10809393235E+03  0.00000000000E+00 0.  1.
         21   -1    0    0  502  503 -0.00000000000E+00 -0.00000000000E+00 -0.59473555220E+03  0.59473555220E+03  0.00000000000E+00 0.  1.
          6    1    1    2  501    0 -0.12651229042E+03 -0.12540287447E+03 -0.31435913192E+03  0.40060192757E+03  0.17300000000E+03 0.  1.
         -6    1    1    2    0  503  0.12651229042E+03  0.12540287447E+03 -0.17228248793E+03  0.30222755699E+03  0.17300000000E+03 0.  1.
<mgrwt>
<rscale>  2 0.24831480E+03</rscale>
<asrwt>0</asrwt>
<pdfrwt beam="1">  1       21 0.16629836E-01 0.24831480E+03</pdfrwt>
<pdfrwt beam="2">  1       21 0.91497778E-01 0.24831480E+03</pdfrwt>
<totfact> 0.31926481E+04</totfact>
</mgrwt>
</event>
<event>
 4    1  0.4035350E+000  0.2831068E+03  0.7546771E-02  0.1094004E+00
         21   -1    0    0  503  502  0.00000000000E+00  0.00000000000E+00  0.41696249412E+03  0.41696249412E+03  0.00000000000E+00 0. -1.
         21   -1    0    0  501  503 -0.00000000000E+00 -0.00000000000E+00 -0.28803013268E+03  0.28803013268E+03  0.00000000000E+00 0.  1.
          6    1    1    2  501    0  0.90582188962E+02  0.20497643363E+03 -0.13883327907E+03  0.31531595373E+03  0.17300000000E+03 0.  1.
         -6    1    1    2    0  502 -0.90582188962E+02 -0.20497643363E+03  0.26776564051E+03  0.38967667308E+03  0.17300000000E+03 0. -1.
<mgrwt>
<rscale>  2 0.28310682E+03</rscale>
<asrwt>0</asrwt>
<pdfrwt beam="1">  1       21 0.64148076E-01 0.28310682E+03</pdfrwt>
<pdfrwt beam="2">  1       21 0.44312328E-01 0.28310682E+03</pdfrwt>
<totfact> 0.10410712E+04</totfact>
</mgrwt>
</event>
<event>
 4    1  0.4035350E+000  0.2317674E+03  0.7546771E-02  0.1125402E+00
         21   -1    0    0  501  502  0.00000000000E+00  0.00000000000E+00  0.52999892825E+02  0.52999892825E+02  0.00000000000E+00 0.  1.
         21   -1    0    0  502  503 -0.00000000000E+00 -0.00000000000E+00 -0.11241129669E+04  0.11241129669E+04  0.00000000000E+00 0.  1.
          6    1    1    2  501    0 -0.12657895932E+03 -0.88118736137E+02 -0.35094525035E+03  0.42056951072E+03  0.17300000000E+03 0.  1.
         -6    1    1    2    0  503  0.12657895932E+03  0.88118736137E+02 -0.72016782374E+03  0.75654334903E+03  0.17300000000E+03 0.  1.
<mgrwt>
<rscale>  2 0.23176744E+03</rscale>
<asrwt>0</asrwt>
<pdfrwt beam="1">  1       21 0.81538293E-02 0.23176744E+03</pdfrwt>
<pdfrwt beam="2">  1       21 0.17294046E+00 0.23176744E+03</pdfrwt>
<totfact> 0.23026911E+04</totfact>
</mgrwt>
</event>
<event>
 4    1  0.4035350E+000  0.1961290E+03  0.7546771E-02  0.1153047E+00
         21   -1    0    0  501  502  0.00000000000E+00  0.00000000000E+00  0.10856653883E+03  0.10856653883E+03  0.00000000000E+00 0.  1.
         21   -1    0    0  502  503 -0.00000000000E+00 -0.00000000000E+00 -0.42802795243E+03  0.42802795243E+03  0.00000000000E+00 0.  1.
          6    1    1    2  501    0  0.45827485095E+02  0.80233483441E+02 -0.48389220187E+02  0.20201011580E+03  0.17300000000E+03 0.  1.
         -6    1    1    2    0  503 -0.45827485095E+02 -0.80233483441E+02 -0.27107219342E+03  0.33458437546E+03  0.17300000000E+03 0.  1.
<mgrwt>
<rscale>  2 0.19612896E+03</rscale>
<asrwt>0</asrwt>
<pdfrwt beam="1">  1       21 0.16702545E-01 0.19612896E+03</pdfrwt>
<pdfrwt beam="2">  1       21 0.65850453E-01 0.19612896E+03</pdfrwt>
<totfact> 0.68168764E+04</totfact>
</mgrwt>
</event>
<event>
 4    1  0.4035350E+000  0.1963918E+03  0.7546771E-02  0.1152819E+00
         21   -1    0    0  503  502  0.00000000000E+00  0.00000000000E+00  0.58908531341E+03  0.58908531341E+03  0.00000000000E+00 0. -1.
         21   -1    0    0  501  503 -0.00000000000E+00 -0.00000000000E+00 -0.68238774678E+02  0.68238774678E+02  0.00000000000E+00 0.  1.
          6    1    1    2  501    0 -0.92936482068E+02  0.18843475638E+01  0.32657907959E+03  0.38108219020E+03  0.17300000000E+03 0.  1.
         -6    1    1    2    0  502  0.92936482068E+02 -0.18843475638E+01  0.19426745914E+03  0.27624189788E+03  0.17300000000E+03 0.  1.
<mgrwt>
<rscale>  2 0.19639180E+03</rscale>
<asrwt>0</asrwt>
<pdfrwt beam="1">  1       21 0.90628506E-01 0.19639180E+03</pdfrwt>
<pdfrwt beam="2">  1       21 0.10498273E-01 0.19639180E+03</pdfrwt>
<totfact> 0.76841191E+04</totfact>
</mgrwt>
</event>
<event>
 4    1  0.4035350E+000  0.1894351E+03  0.7546771E-02  0.1158972E+00
         21   -1    0    0  503  502  0.00000000000E+00  0.00000000000E+00  0.59777646358E+03  0.59777646358E+03  0.00000000000E+00 0.  1.
         21   -1    0    0  501  503 -0.00000000000E+00 -0.00000000000E+00 -0.62765923957E+02  0.62765923957E+02  0.00000000000E+00 0.  1.
          6    1    1    2  501    0  0.25060271288E+02 -0.72997502404E+02  0.19857492259E+03  0.27444061732E+03  0.17300000000E+03 0.  1.
         -6    1    1    2    0  502 -0.25060271288E+02  0.72997502404E+02  0.33643561704E+03  0.38610177022E+03  0.17300000000E+03 0.  1.
<mgrwt>
<rscale>  2 0.18943509E+03</rscale>
<asrwt>0</asrwt>
<pdfrwt beam="1">  1       21 0.91965606E-01 0.18943509E+03</pdfrwt>
<pdfrwt beam="2">  1       21 0.96562964E-02 0.18943509E+03</pdfrwt>
<totfact> 0.86362348E+04</totfact>
</mgrwt>
</event>
<event>
 4    1  0.4035350E+000  0.2117189E+03  0.7546771E-02  0.1140212E+00
         21   -1    0    0  503  502  0.00000000000E+00  0.00000000000E+00  0.65824659558E+03  0.65824659558E+03  0.00000000000E+00 0. -1.
         21   -1    0    0  501  503 -0.00000000000E+00 -0.00000000000E+00 -0.76164554955E+02  0.76164554955E+02  0.00000000000E+00 0. -1.
          6    1    1    2  501    0 -0.92698326551E+02 -0.79390839048E+02  0.17153414961E+03  0.27248642086E+03  0.17300000000E+03 0. -1.
         -6    1    1    2    0  502  0.92698326551E+02  0.79390839048E+02  0.41054789101E+03  0.46192472967E+03  0.17300000000E+03 0. -1.
<mgrwt>
<rscale>  2 0.21171888E+03</rscale>
<asrwt>0</asrwt>
<pdfrwt beam="1">  1       21 0.10126870E+00 0.21171888E+03</pdfrwt>
<pdfrwt beam="2">  1       21 0.11717624E-01 0.21171888E+03</pdfrwt>
<totfact> 0.48310826E+04</totfact>
</mgrwt>
</event>
<event>
 4    1  0.4035350E+000  0.2385777E+03  0.7546771E-02  0.1120744E+00
         21   -1    0    0  501  502  0.00000000000E+00  0.00000000000E+00  0.25647695743E+03  0.25647695743E+03  0.00000000000E+00 0. -1.
         21   -1    0    0  502  503 -0.00000000000E+00 -0.00000000000E+00 -0.49302358149E+03  0.49302358149E+03  0.00000000000E+00 0. -1.
          6    1    1    2  501    0  0.10078985309E+02  0.16397790112E+03 -0.39616117425E+03  0.46245325600E+03  0.17300000000E+03 0. -1.
         -6    1    1    2    0  503 -0.10078985309E+02 -0.16397790112E+03  0.15961455018E+03  0.28704728292E+03  0.17300000000E+03 0. -1.
<mgrwt>
<rscale>  2 0.23857774E+03</rscale>
<asrwt>0</asrwt>
<pdfrwt beam="1">  1       21 0.39457993E-01 0.23857774E+03</pdfrwt>
<pdfrwt beam="2">  1       21 0.75849782E-01 0.23857774E+03</pdfrwt>
<totfact> 0.93168406E+03</totfact>
</mgrwt>
</event>
<event>
 4    1  0.4035350E+000  0.1804883E+03  0.7546771E-02  0.1167331E+00
         21   -1    0    0  501  502  0.00000000000E+00  0.00000000000E+00  0.95878251300E+03  0.95878251300E+03  0.00000000000E+00 0. -1.
         21   -1    0    0  502  503 -0.00000000000E+00 -0.00000000000E+00 -0.34103098459E+02  0.34103098459E+02  0.00000000000E+00 0. -1.
          6    1    1    2  501    0 -0.14086422097E+02 -0.49483443789E+02  0.43208798449E+03  0.46826922260E+03  0.17300000000E+03 0. -1.
         -6    1    1    2    0  503  0.14086422097E+02  0.49483443789E+02  0.49259143005E+03  0.52461638885E+03  0.17300000000E+03 0. -1.
<mgrwt>
<rscale>  2 0.18048833E+03</rscale>
<asrwt>0</asrwt>
<pdfrwt beam="1">  1       21 0.14750498E+00 0.18048833E+03</pdfrwt>
<pdfrwt beam="2">  1       21 0.52466313E-02 0.18048833E+03</pdfrwt>
<totfact> 0.77903349E+04</totfact>
</mgrwt>
</event>
<event>
 4    1  0.4035350E+000  0.1887740E+03  0.7546771E-02  0.1159572E+00
         21   -1    0    0  501  502  0.00000000000E+00  0.00000000000E+00  0.30755900258E+04  0.30755900258E+04  0.00000000000E+00 0.  1.
         21   -1    0    0  502  503 -0.00000000000E+00 -0.00000000000E+00 -0.21110113027E+02  0.21110113027E+02  0.00000000000E+00 0.  1.
          6    1    1    2  501    0  0.35549203651E+02 -0.66654920384E+02  0.25672140511E+04  0.25741452190E+04  0.17300000000E+03 0. -1.
         -6    1    1    2    0  503 -0.35549203651E+02  0.66654920384E+02  0.48726586165E+03  0.52255491981E+03  0.17300000000E+03 0. -1.
<mgrwt>
<rscale>  2 0.18877400E+03</rscale>
<asrwt>0</asrwt>
<pdfrwt beam="1">  1       21 0.47316734E+00 0.18877400E+03</pdfrwt>
<pdfrwt beam="2">  1       21 0.32477121E-02 0.18877400E+03</pdfrwt>
<totfact> 0.16221796E+03</totfact>
</mgrwt>
</event>
<event>
 4    1  0.4035350E+000  0.1881307E+03  0.7546771E-02  0.1160158E+00
         21   -1    0    0  503  502  0.00000000000E+00  0.00000000000E+00  0.10343434191E+04  0.10343434191E+04  0.00000000000E+00 0. -1.
         21   -1    0    0  501  503 -0.00000000000E+00 -0.00000000000E+00 -0.84366290546E+02  0.84366290546E+02  0.00000000000E+00 0. -1.
          6    1    1    2  501    0  0.32997542120E+01  0.73846166645E+02  0.43736607729E+02  0.19314770400E+03  0.17300000000E+03 0. -1.
         -6    1    1    2    0  502 -0.32997542120E+01 -0.73846166645E+02  0.90624052082E+03  0.92556200564E+03  0.17300000000E+03 0. -1.
<mgrwt>
<rscale>  2 0.18813066E+03</rscale>
<asrwt>0</asrwt>
<pdfrwt beam="1">  1       21 0.15912975E+00 0.18813066E+03</pdfrwt>
<pdfrwt beam="2">  1       21 0.12979430E-01 0.18813066E+03</pdfrwt>
<totfact> 0.13064016E+04</totfact>
</mgrwt>
</event>
<event>
 4    1  0.4035350E+000  0.2092699E+03  0.7546771E-02  0.1142145E+00
         21   -1    0    0  501  502  0.00000000000E+00  0.00000000000E+00  0.13994221780E+03  0.13994221780E+03  0.00000000000E+00 0.  1.
         21   -1    0    0  502  503 -0.00000000000E+00 -0.00000000000E+00 -0.46331589718E+03  0.46331589718E+03  0.00000000000E+00 0.  1.
          6    1    1    2  501    0  0.12374405705E+01 -0.11774276444E+03  0.10151414260E+02  0.20951596848E+03  0.17300000000E+03 0.  1.
         -6    1    1    2    0  503 -0.12374405705E+01  0.11774276444E+03 -0.33352509364E+03  0.39374214650E+03  0.17300000000E+03 0.  1.
<mgrwt>
<rscale>  2 0.20926990E+03</rscale>
<asrwt>0</asrwt>
<pdfrwt beam="1">  1       21 0.21529572E-01 0.20926990E+03</pdfrwt>
<pdfrwt beam="2">  1       21 0.71279370E-01 0.20926990E+03</pdfrwt>
<totfact> 0.35477203E+04</totfact>
</mgrwt>
</event>
<event>
 4    1  0.4035350E+000  0.2454033E+03  0.7546771E-02  0.1116245E+00
         21   -1    0    0  503  502  0.00000000000E+00  0.00000000000E+00  0.68085125119E+03  0.68085125119E+03  0.00000000000E+00 0.  1.
         21   -1    0    0  501  503 -0.00000000000E+00 -0.00000000000E+00 -0.14092186535E+03  0.14092186535E+03  0.00000000000E+00 0.  1.
          6    1    1    2  501    0 -0.16945384178E+03  0.39739115888E+02  0.19245937087E+02  0.24615687665E+03  0.17300000000E+03 0.  1.
         -6    1    1    2    0  502  0.16945384178E+03 -0.39739115888E+02  0.52068344875E+03  0.57561623989E+03  0.17300000000E+03 0.  1.
<mgrwt>
<rscale>  2 0.24540335E+03</rscale>
<asrwt>0</asrwt>
<pdfrwt beam="1">  1       21 0.10474634E+00 0.24540335E+03</pdfrwt>
<pdfrwt beam="2">  1       21 0.21680287E-01 0.24540335E+03</pdfrwt>
<totfact> 0.14119730E+04</totfact>
</mgrwt>
</event>
<event>
 4    1  0.4035350E+000  0.2066662E+03  0.7546771E-02  0.1144234E+00
         21   -1    0    0  503  502  0.00000000000E+00  0.00000000000E+00  0.46234920873E+03  0.46234920873E+03  0.00000000000E+00 0. -1.
         21   -1    0    0  501  503 -0.00000000000E+00 -0.00000000000E+00 -0.93244288261E+02  0.93244288261E+02  0.00000000000E+00 0.  1.
          6    1    1    2  501    0 -0.73020436918E+01 -0.11282112185E+03  0.15777737298E+03  0.26000889370E+03  0.17300000000E+03 0. -1.
         -6    1    1    2    0  502  0.73020436918E+01  0.11282112185E+03  0.21132754749E+03  0.29558460329E+03  0.17300000000E+03 0. -1.
<mgrwt>
<rscale>  2 0.20666622E+03</rscale>
<asrwt>0</asrwt>
<pdfrwt beam="1">  1       21 0.71130646E-01 0.20666622E+03</pdfrwt>
<pdfrwt beam="2">  1       21 0.14345275E-01 0.20666622E+03</pdfrwt>
<totfact> 0.75615728E+04</totfact>
</mgrwt>
</event>
<event>
 4    1  0.4035350E+000  0.1926985E+03  0.7546771E-02  0.1156050E+00
         21   -1    0    0  503  502  0.00000000000E+00  0.00000000000E+00  0.11805778573E+03  0.11805778573E+03  0.00000000000E+00 0.  1.
         21   -1    0    0  501  503 -0.00000000000E+00 -0.00000000000E+00 -0.33534648038E+03  0.33534648038E+03  0.00000000000E+00 0.  1.
          6    1    1    2  501    0 -0.73918549847E+02 -0.41710469094E+02 -0.16512664951E+03  0.25377061615E+03  0.17300000000E+03 0.  1.
         -6    1    1    2    0  502  0.73918549847E+02  0.41710469094E+02 -0.52162045140E+02  0.19963364996E+03  0.17300000000E+03 0.  1.
<mgrwt>
<rscale>  2 0.19269851E+03</rscale>
<asrwt>0</asrwt>
<pdfrwt beam="1">  1       21 0.18162736E-01 0.19269851E+03</pdfrwt>
<pdfrwt beam="2">  1       21 0.51591766E-01 0.19269851E+03</pdfrwt>
<totfact> 0.98548144E+04</totfact>
</mgrwt>
</event>
<event>
 4    1  0.4035350E+000  0.2143430E+03  0.7546771E-02  0.1138172E+00
         21   -1    0    0  501  502  0.00000000000E+00  0.00000000000E+00  0.13663550790E+04  0.13663550790E+04  0.00000000000E+00 0. -1.
         21   -1    0    0  502  503 -0.00000000000E+00 -0.00000000000E+00 -0.20012681250E+03  0.20012681250E+03  0.00000000000E+00 0. -1.
          6    1    1    2  501    0  0.93840690992E+02  0.84899114374E+02  0.12975330525E+04  0.13151178492E+04  0.17300000000E+03 0. -1.
         -6    1    1    2    0  503 -0.93840690992E+02 -0.84899114374E+02 -0.13130478605E+03  0.25136404227E+03  0.17300000000E+03 0. -1.
<mgrwt>
<rscale>  2 0.21434303E+03</rscale>
<asrwt>0</asrwt>
<pdfrwt beam="1">  1       21 0.21020847E+00 0.21434303E+03</pdfrwt>
<pdfrwt beam="2">  1       21 0.30788741E-01 0.21434303E+03</pdfrwt>
<totfact> 0.11446180E+03</totfact>
</mgrwt>
</event>
<event>
 4    1  0.4035350E+000  0.1763276E+03  0.7546771E-02  0.1171405E+00
         21   -1    0    0  501  502  0.00000000000E+00  0.00000000000E+00  0.30678276875E+02  0.30678276875E+02  0.00000000000E+00 0. -1.
         21   -1    0    0  502  503 -0.00000000000E+00 -0.00000000000E+00 -0.10219782290E+04  0.10219782290E+04  0.00000000000E+00 0. -1.
          6    1    1    2  501    0  0.25244010014E+02 -0.22916386210E+02 -0.44761778952E+03  0.48109573506E+03  0.17300000000E+03 0. -1.
         -6    1    1    2    0  503 -0.25244010014E+02  0.22916386210E+02 -0.54368216258E+03  0.57156077079E+03  0.17300000000E+03 0. -1.
<mgrwt>
<rscale>  2 0.17632760E+03</rscale>
<asrwt>0</asrwt>
<pdfrwt beam="1">  1       21 0.47197350E-02 0.17632760E+03</pdfrwt>
<pdfrwt beam="2">  1       21 0.15722742E+00 0.17632760E+03</pdfrwt>
<totfact> 0.78911890E+04</totfact>
</mgrwt>
</event>
<event>
 4    1  0.4035350E+000  0.2328215E+03  0.7546771E-02  0.1124669E+00
         21   -1    0    0  501  502  0.00000000000E+00  0.00000000000E+00  0.16419181345E+03  0.16419181345E+03  0.00000000000E+00 0. -1.
         21   -1    0    0  502  503 -0.00000000000E+00 -0.00000000000E+00 -0.12219428935E+04  0.12219428935E+04  0.00000000000E+00 0. -1.
          6    1    1    2  501    0  0.94650399341E+02  0.12376654639E+03  0.63210828030E+02  0.24124979768E+03  0.17300000000E+03 0. -1.
         -6    1    1    2    0  503 -0.94650399341E+02 -0.12376654639E+03 -0.11209619081E+04  0.11448849093E+04  0.17300000000E+03 0. -1.
<mgrwt>
<rscale>  2 0.23282151E+03</rscale>
<asrwt>0</asrwt>
<pdfrwt beam="1">  1       21 0.25260278E-01 0.23282151E+03</pdfrwt>
<pdfrwt beam="2">  1       21 0.18799122E+00 0.23282151E+03</pdfrwt>
<totfact> 0.23003436E+03</totfact>
</mgrwt>
</event>
<event>
 4    1  0.4035350E+000  0.2951761E+03  0.7546771E-02  0.1087677E+00
         21   -1    0    0  503  502  0.00000000000E+00  0.00000000000E+00  0.27315217279E+04  0.27315217279E+04  0.00000000000E+00 0.  1.
         21   -1    0    0  501  503 -0.00000000000E+00 -0.00000000000E+00 -0.33464084985E+02  0.33464084985E+02  0.00000000000E+00 0. -1.
          6    1    1    2  501    0 -0.18542189420E+03 -0.15105850437E+03  0.10499136620E+04  0.10906180120E+04  0.17300000000E+03 0. -1.
         -6    1    1    2    0  502  0.18542189420E+03  0.15105850437E+03  0.16481439810E+04  0.16743678009E+04  0.17300000000E+03 0.  1.
<mgrwt>
<rscale>  2 0.29517613E+03</rscale>
<asrwt>0</asrwt>
<pdfrwt beam="1">  1       21 0.42023394E+00 0.29517613E+03</pdfrwt>
<pdfrwt beam="2">  1       21 0.51483229E-02 0.29517613E+03</pdfrwt>
<totfact> 0.14694485E+03</totfact>
</mgrwt>
</event>
<event>
 4    1  0.4035350E+000  0.2309413E+03  0.7546771E-02  0.1125979E+00
         21   -1    0    0  503  502  0.00000000000E+00  0.00000000000E+00  0.48688724851E+03  0.48688724851E+03  0.00000000000E+00 0.  1.
         21   -1    0    0  501  503 -0.00000000000E+00 -0.00000000000E+00 -0.12579823727E+03  0.12579823727E+03  0.00000000000E+00 0.  1.
          6    1    1    2  501    0  0.15092941822E+03 -0.25003792671E+02  0.29067312551E+03  0.37124755194E+03  0.17300000000E+03 0.  1.
         -6    1    1    2    0  502 -0.15092941822E+03  0.25003792671E+02  0.70415885735E+02  0.24143793384E+03  0.17300000000E+03 0.  1.
<mgrwt>
<rscale>  2 0.23094129E+03</rscale>
<asrwt>0</asrwt>
<pdfrwt beam="1">  1       21 0.74905729E-01 0.23094129E+03</pdfrwt>
<pdfrwt beam="2">  1       21 0.19353575E-01 0.23094129E+03</pdfrwt>
<totfact> 0.38385041E+04</totfact>
</mgrwt>
</event>
<event>
 4    1  0.4035350E+000  0.5456584E+03  0.7546771E-02  0.1002504E+00
         21   -1    0    0  503  502  0.00000000000E+00  0.00000000000E+00  0.16189319437E+03  0.16189319437E+03  0.00000000000E+00 0. -1.
         21   -1    0    0  501  503 -0.00000000000E+00 -0.00000000000E+00 -0.19272459057E+04  0.19272459057E+04  0.00000000000E+00 0.  1.
          6    1    1    2  501    0  0.41280905445E+03  0.31209414648E+03 -0.65932466960E+03  0.85583414961E+03  0.17300000000E+03 0. -1.
         -6    1    1    2    0  502 -0.41280905445E+03 -0.31209414648E+03 -0.11060280417E+04  0.12333049504E+04  0.17300000000E+03 0.  1.
<mgrwt>
<rscale>  2 0.54565838E+03</rscale>
<asrwt>0</asrwt>
<pdfrwt beam="1">  1       21 0.24906644E-01 0.54565838E+03</pdfrwt>
<pdfrwt beam="2">  1       21 0.29649939E+00 0.54565838E+03</pdfrwt>
<totfact> 0.41329162E+02</totfact>
</mgrwt>
</event>
<event>
 4    1  0.4035350E+000  0.2001488E+03  0.7546771E-02  0.1149613E+00
         21   -1    0    0  503  502  0.00000000000E+00  0.00000000000E+00  0.40392027966E+03  0.40392027966E+03  0.00000000000E+00 0.  1.
         21   -1    0    0  501  503 -0.00000000000E+00 -0.00000000000E+00 -0.10475402957E+03  0.10475402957E+03  0.00000000000E+00 0.  1.
          6    1    1    2  501    0  0.38648042629E+02 -0.92934848748E+02  0.90897710077E+02  0.21982254436E+03  0.17300000000E+03 0. -1.
         -6    1    1    2    0  502 -0.38648042629E+02  0.92934848748E+02  0.20826854001E+03  0.28885176487E+03  0.17300000000E+03 0. -1.
<mgrwt>
<rscale>  2 0.20014884E+03</rscale>
<asrwt>0</asrwt>
<pdfrwt beam="1">  1       21 0.62141581E-01 0.20014884E+03</pdfrwt>
<pdfrwt beam="2">  1       21 0.16116005E-01 0.20014884E+03</pdfrwt>
<totfact> 0.82409482E+04</totfact>
</mgrwt>
</event>
<event>
 4    1  0.4035350E+000  0.3974907E+03  0.7546771E-02  0.1044652E+00
         21   -1    0    0  503  502  0.00000000000E+00  0.00000000000E+00  0.24763023969E+03  0.24763023969E+03  0.00000000000E+00 0. -1.
         21   -1    0    0  501  503 -0.00000000000E+00 -0.00000000000E+00 -0.63873017620E+03  0.63873017620E+03  0.00000000000E+00 0.  1.
          6    1    1    2  501    0 -0.56574379951E+02  0.35336837384E+03 -0.21008090046E+03  0.44959187363E+03  0.17300000000E+03 0. -1.
         -6    1    1    2    0  502  0.56574379951E+02 -0.35336837384E+03 -0.18101903606E+03  0.43676854226E+03  0.17300000000E+03 0.  1.
<mgrwt>
<rscale>  2 0.39749071E+03</rscale>
<asrwt>0</asrwt>
<pdfrwt beam="1">  1       21 0.38096960E-01 0.39749071E+03</pdfrwt>
<pdfrwt beam="2">  1       21 0.98266180E-01 0.39749071E+03</pdfrwt>
<totfact> 0.50873260E+03</totfact>
</mgrwt>
</event>
<event>
 4    1  0.4035350E+000  0.1891132E+03  0.7546771E-02  0.1159264E+00
         21   -1    0    0  501  502  0.00000000000E+00  0.00000000000E+00  0.88496981705E+03  0.88496981705E+03  0.00000000000E+00 0.  1.
         21   -1    0    0  502  503 -0.00000000000E+00 -0.00000000000E+00 -0.40511615563E+02  0.40511615563E+02  0.00000000000E+00 0.  1.
          6    1    1    2  501    0 -0.76198200535E+02  0.53513854486E+01  0.44512285265E+03  0.48363018624E+03  0.17300000000E+03 0.  1.
         -6    1    1    2    0  503  0.76198200535E+02 -0.53513854486E+01  0.39933534884E+03  0.44185124637E+03  0.17300000000E+03 0.  1.
<mgrwt>
<rscale>  2 0.18911320E+03</rscale>
<asrwt>0</asrwt>
<pdfrwt beam="1">  1       21 0.13614919E+00 0.18911320E+03</pdfrwt>
<pdfrwt beam="2">  1       21 0.62325569E-02 0.18911320E+03</pdfrwt>
<totfact> 0.71147182E+04</totfact>
</mgrwt>
</event>
<event>
 4    1  0.4035350E+000  0.2323232E+03  0.7546771E-02  0.1125015E+00
         21   -1    0    0  503  502  0.00000000000E+00  0.00000000000E+00  0.24574671874E+04  0.24574671874E+04  0.00000000000E+00 0.  1.
         21   -1    0    0  501  503 -0.00000000000E+00 -0.00000000000E+00 -0.22568041721E+02  0.22568041721E+02  0.00000000000E+00 0.  1.
          6    1    1    2  501    0 -0.14649359039E+03  0.50840019690E+02  0.10144630226E+04  0.10407253739E+04  0.17300000000E+03 0.  1.
         -6    1    1    2    0  502  0.14649359039E+03 -0.50840019690E+02  0.14204361231E+04  0.14393098553E+04  0.17300000000E+03 0.  1.
<mgrwt>
<rscale>  2 0.23232322E+03</rscale>
<asrwt>0</asrwt>
<pdfrwt beam="1">  1       21 0.37807166E+00 0.23232322E+03</pdfrwt>
<pdfrwt beam="2">  1       21 0.34720084E-02 0.23232322E+03</pdfrwt>
<totfact> 0.56212140E+03</totfact>
</mgrwt>
</event>
<event>
 4    1  0.4035350E+000  0.2501027E+03  0.7546771E-02  0.1113240E+00
         21   -1    0    0  503  502  0.00000000000E+00  0.00000000000E+00  0.63649829485E+03  0.63649829485E+03  0.00000000000E+00 0. -1.
         21   -1    0    0  501  503 -0.00000000000E+00 -0.00000000000E+00 -0.11832936432E+03  0.11832936432E+03  0.00000000000E+00 0. -1.
          6    1    1    2  501    0 -0.88407096208E+02 -0.15750088125E+03  0.10370809529E+03  0.27075212147E+03  0.17300000000E+03 0. -1.
         -6    1    1    2    0  502  0.88407096208E+02  0.15750088125E+03  0.41446083524E+03  0.48407553770E+03  0.17300000000E+03 0. -1.
<mgrwt>
<rscale>  2 0.25010266E+03</rscale>
<asrwt>0</asrwt>
<pdfrwt beam="1">  1       21 0.97922812E-01 0.25010266E+03</pdfrwt>
<pdfrwt beam="2">  1       21 0.18204518E-01 0.25010266E+03</pdfrwt>
<totfact> 0.22985593E+04</totfact>
</mgrwt>
</event>
<event>
 4    1  0.4035350E+000  0.1993608E+03  0.7546771E-02  0.1150279E+00
         21   -1    0    0  501  502  0.00000000000E+00  0.00000000000E+00  0.16687752378E+03  0.16687752378E+03  0.00000000000E+00 0. -1.
         21   -1    0    0  502  503 -0.00000000000E+00 -0.00000000000E+00 -0.24482850134E+03  0.24482850134E+03  0.00000000000E+00 0.  1.
          6    1    1    2  501    0  0.10020527492E+02 -0.98566247604E+02 -0.50197722581E+01  0.19942395606E+03  0.17300000000E+03 0. -1.
         -6    1    1    2    0  503 -0.10020527492E+02  0.98566247604E+02 -0.72931205304E+02  0.21228206906E+03  0.17300000000E+03 0. -1.
<mgrwt>
<rscale>  2 0.19936077E+03</rscale>
<asrwt>0</asrwt>
<pdfrwt beam="1">  1       21 0.25673465E-01 0.19936077E+03</pdfrwt>
<pdfrwt beam="2">  1       21 0.37665923E-01 0.19936077E+03</pdfrwt>
<totfact> 0.97598250E+04</totfact>
</mgrwt>
</event>
<event>
 4    1  0.4035350E+000  0.1820267E+03  0.7546771E-02  0.1165856E+00
         21   -1    0    0  503  502  0.00000000000E+00  0.00000000000E+00  0.38740335907E+02  0.38740335907E+02  0.00000000000E+00 0. -1.
         21   -1    0    0  501  503 -0.00000000000E+00 -0.00000000000E+00 -0.15081844116E+04  0.15081844116E+04  0.00000000000E+00 0. -1.
          6    1    1    2  501    0 -0.51403684763E+02  0.23714183863E+02 -0.12436284379E+04  0.12568792277E+04  0.17300000000E+03 0. -1.
         -6    1    1    2    0  502  0.51403684763E+02 -0.23714183863E+02 -0.22581563780E+03  0.29004551987E+03  0.17300000000E+03 0. -1.
<mgrwt>
<rscale>  2 0.18202665E+03</rscale>
<asrwt>0</asrwt>
<pdfrwt beam="1">  1       21 0.59600504E-02 0.18202665E+03</pdfrwt>
<pdfrwt beam="2">  1       21 0.23202842E+00 0.18202665E+03</pdfrwt>
<totfact> 0.17114739E+04</totfact>
</mgrwt>
</event>
<event>
 4    1  0.4035350E+000  0.2235896E+03  0.7546771E-02  0.1131235E+00
         21   -1    0    0  503  502  0.00000000000E+00  0.00000000000E+00  0.34582140972E+03  0.34582140972E+03  0.00000000000E+00 0.  1.
         21   -1    0    0  501  503 -0.00000000000E+00 -0.00000000000E+00 -0.32983564637E+03  0.32983564637E+03  0.00000000000E+00 0.  1.
          6    1    1    2  501    0  0.21206169859E+02 -0.14004853916E+03 -0.24520233796E+03  0.33183803505E+03  0.17300000000E+03 0.  1.
         -6    1    1    2    0  502 -0.21206169859E+02  0.14004853916E+03  0.26118810132E+03  0.34381902104E+03  0.17300000000E+03 0.  1.
<mgrwt>
<rscale>  2 0.22358957E+03</rscale>
<asrwt>0</asrwt>
<pdfrwt beam="1">  1       21 0.53203294E-01 0.22358957E+03</pdfrwt>
<pdfrwt beam="2">  1       21 0.50743945E-01 0.22358957E+03</pdfrwt>
<totfact> 0.12119680E+04</totfact>
</mgrwt>
</event>
<event>
 4    1  0.4035350E+000  0.1801180E+03  0.7546771E-02  0.1167689E+00
         21   -1    0    0  501  502  0.00000000000E+00  0.00000000000E+00  0.85547465578E+02  0.85547465578E+02  0.00000000000E+00 0.  1.
         21   -1    0    0  502  503 -0.00000000000E+00 -0.00000000000E+00 -0.60097053672E+03  0.60097053672E+03  0.00000000000E+00 0.  1.
          6    1    1    2  501    0 -0.49654133314E+02  0.69249804736E+01 -0.49207629951E+02  0.18671871667E+03  0.17300000000E+03 0.  1.
         -6    1    1    2    0  503  0.49654133314E+02 -0.69249804736E+01 -0.46621544119E+03  0.49979928562E+03  0.17300000000E+03 0.  1.
<mgrwt>
<rscale>  2 0.18011798E+03</rscale>
<asrwt>0</asrwt>
<pdfrwt beam="1">  1       21 0.13161148E-01 0.18011798E+03</pdfrwt>
<pdfrwt beam="2">  1       21 0.92457007E-01 0.18011798E+03</pdfrwt>
<totfact> 0.49369982E+04</totfact>
</mgrwt>
</event>
<event>
 4    1  0.4035350E+000  0.1879607E+03  0.7546771E-02  0.1160314E+00
         21   -1    0    0  501  502  0.00000000000E+00  0.00000000000E+00  0.50198119872E+03  0.50198119872E+03  0.00000000000E+00 0. -1.
         21   -1    0    0  502  503 -0.00000000000E+00 -0.00000000000E+00 -0.71696377566E+02  0.71696377566E+02  0.00000000000E+00 0. -1.
          6    1    1    2  501    0 -0.13267864548E+01  0.73474153877E+02  0.25401589515E+03  0.31599570668E+03  0.17300000000E+03 0. -1.
         -6    1    1    2    0  503  0.13267864548E+01 -0.73474153877E+02  0.17626892601E+03  0.25768186961E+03  0.17300000000E+03 0. -1.
<mgrwt>
<rscale>  2 0.18796067E+03</rscale>
<asrwt>0</asrwt>
<pdfrwt beam="1">  1       21 0.77227875E-01 0.18796067E+03</pdfrwt>
<pdfrwt beam="2">  1       21 0.11030212E-01 0.18796067E+03</pdfrwt>
<totfact> 0.10174026E+05</totfact>
</mgrwt>
</event>
<event>
 4    1  0.4035350E+000  0.1950274E+03  0.7546771E-02  0.1154004E+00
         21   -1    0    0  503  502  0.00000000000E+00  0.00000000000E+00  0.16497983647E+03  0.16497983647E+03  0.00000000000E+00 0. -1.
         21   -1    0    0  501  503 -0.00000000000E+00 -0.00000000000E+00 -0.35138670356E+03  0.35138670356E+03  0.00000000000E+00 0. -1.
          6    1    1    2  501    0  0.40698298220E+02 -0.80313959927E+02 -0.24460815516E+03  0.31283994823E+03  0.17300000000E+03 0. -1.
         -6    1    1    2    0  502 -0.40698298220E+02  0.80313959927E+02  0.58201288074E+02  0.20352659180E+03  0.17300000000E+03 0. -1.
<mgrwt>
<rscale>  2 0.19502739E+03</rscale>
<asrwt>0</asrwt>
<pdfrwt beam="1">  1       21 0.25381514E-01 0.19502739E+03</pdfrwt>
<pdfrwt beam="2">  1       21 0.54059492E-01 0.19502739E+03</pdfrwt>
<totfact> 0.47547445E+04</totfact>
</mgrwt>
</event>
<event>
 4    1  0.4035350E+000  0.1898180E+03  0.7546771E-02  0.1158626E+00
         21   -1    0    0  501  502  0.00000000000E+00  0.00000000000E+00  0.60511289784E+02  0.60511289784E+02  0.00000000000E+00 0.  1.
         21   -1    0    0  502  503 -0.00000000000E+00 -0.00000000000E+00 -0.61099737756E+03  0.61099737756E+03  0.00000000000E+00 0.  1.
          6    1    1    2  501    0 -0.16681089141E+02 -0.76312636373E+02 -0.22166805141E+03  0.29183488863E+03  0.17300000000E+03 0. -1.
         -6    1    1    2    0  503  0.16681089141E+02  0.76312636373E+02 -0.32881803637E+03  0.37967377872E+03  0.17300000000E+03 0. -1.
<mgrwt>
<rscale>  2 0.18981801E+03</rscale>
<asrwt>0</asrwt>
<pdfrwt beam="1">  1       21 0.93094295E-02 0.18981801E+03</pdfrwt>
<pdfrwt beam="2">  1       21 0.93999594E-01 0.18981801E+03</pdfrwt>
<totfact> 0.87515413E+04</totfact>
</mgrwt>
</event>
<event>
 4    1  0.4035350E+000  0.2469141E+03  0.7546771E-02  0.1115271E+00
         21   -1    0    0  501  502  0.00000000000E+00  0.00000000000E+00  0.14843908189E+04  0.14843908189E+04  0.00000000000E+00 0.  1.
         21   -1    0    0  502  503 -0.00000000000E+00 -0.00000000000E+00 -0.41806698650E+02  0.41806698650E+02  0.00000000000E+00 0.  1.
          6    1    1    2  501    0  0.80119296595E+02  0.15690267515E+03  0.62011505457E+03  0.66746477964E+03  0.17300000000E+03 0.  1.
         -6    1    1    2    0  503 -0.80119296595E+02 -0.15690267515E+03  0.82246906568E+03  0.85873273791E+03  0.17300000000E+03 0.  1.
<mgrwt>
<rscale>  2 0.24691406E+03</rscale>
<asrwt>0</asrwt>
<pdfrwt beam="1">  1       21 0.22836778E+00 0.24691406E+03</pdfrwt>
<pdfrwt beam="2">  1       21 0.64318009E-02 0.24691406E+03</pdfrwt>
<totfact> 0.15015044E+04</totfact>
</mgrwt>
</event>
<event>
 4    1  0.4035350E+000  0.1893487E+03  0.7546771E-02  0.1159050E+00
         21   -1    0    0  501  502  0.00000000000E+00  0.00000000000E+00  0.10852724335E+03  0.10852724335E+03  0.00000000000E+00 0.  1.
         21   -1    0    0  502  503 -0.00000000000E+00 -0.00000000000E+00 -0.52875518954E+03  0.52875518954E+03  0.00000000000E+00 0.  1.
          6    1    1    2  501    0  0.21981375890E+02 -0.73761524751E+02 -0.14931248709E+02  0.18993653047E+03  0.17300000000E+03 0.  1.
         -6    1    1    2    0  503 -0.21981375890E+02  0.73761524751E+02 -0.40529669748E+03  0.44734590241E+03  0.17300000000E+03 0.  1.
<mgrwt>
<rscale>  2 0.18934873E+03</rscale>
<asrwt>0</asrwt>
<pdfrwt beam="1">  1       21 0.16696500E-01 0.18934873E+03</pdfrwt>
<pdfrwt beam="2">  1       21 0.81346949E-01 0.18934873E+03</pdfrwt>
<totfact> 0.42778143E+04</totfact>
</mgrwt>
</event>
<event>
 4    1  0.4035350E+000  0.1807650E+03  0.7546771E-02  0.1167065E+00
         21   -1    0    0  501  502  0.00000000000E+00  0.00000000000E+00  0.11481152947E+03  0.11481152947E+03  0.00000000000E+00 0. -1.
         21   -1    0    0  502  503 -0.00000000000E+00 -0.00000000000E+00 -0.39560293227E+03  0.39560293227E+03  0.00000000000E+00 0. -1.
          6    1    1    2  501    0 -0.30566531568E+02 -0.42575667792E+02 -0.52134855145E+01  0.18084020784E+03  0.17300000000E+03 0. -1.
         -6    1    1    2    0  503  0.30566531568E+02  0.42575667792E+02 -0.27557791728E+03  0.32957425390E+03  0.17300000000E+03 0. -1.
<mgrwt>
<rscale>  2 0.18076504E+03</rscale>
<asrwt>0</asrwt>
<pdfrwt beam="1">  1       21 0.17663312E-01 0.18076504E+03</pdfrwt>
<pdfrwt beam="2">  1       21 0.60861990E-01 0.18076504E+03</pdfrwt>
<totfact> 0.73425626E+04</totfact>
</mgrwt>
</event>
<event>
 4    1  0.4035350E+000  0.1805846E+03  0.7546771E-02  0.1167238E+00
         21   -1    0    0  503  502  0.00000000000E+00  0.00000000000E+00  0.14096513457E+04  0.14096513457E+04  0.00000000000E+00 0. -1.
         21   -1    0    0  501  503 -0.00000000000E+00 -0.00000000000E+00 -0.58029103241E+02  0.58029103241E+02  0.00000000000E+00 0. -1.
          6    1    1    2  501    0 -0.39352193634E+02 -0.33663201547E+02  0.10674710124E+03  0.20977547499E+03  0.17300000000E+03 0. -1.
         -6    1    1    2    0  502  0.39352193634E+02  0.33663201547E+02  0.12448751412E+04  0.12579049739E+04  0.17300000000E+03 0. -1.
<mgrwt>
<rscale>  2 0.18058462E+03</rscale>
<asrwt>0</asrwt>
<pdfrwt beam="1">  1       21 0.21686941E+00 0.18058462E+03</pdfrwt>
<pdfrwt beam="2">  1       21 0.89275554E-02 0.18058462E+03</pdfrwt>
<totfact> 0.10531770E+04</totfact>
</mgrwt>
</event>
<event>
 4    1  0.4035350E+000  0.1991327E+03  0.7546771E-02  0.1150473E+00
         21   -1    0    0  503  502  0.00000000000E+00  0.00000000000E+00  0.70086378136E+02  0.70086378136E+02  0.00000000000E+00 0. -1.
         21   -1    0    0  501  503 -0.00000000000E+00 -0.00000000000E+00 -0.58583711955E+03  0.58583711955E+03  0.00000000000E+00 0.  1.
          6    1    1    2  501    0 -0.19892742454E+02 -0.96587334001E+02 -0.19719993416E+03  0.28025282929E+03  0.17300000000E+03 0. -1.
         -6    1    1    2    0  502  0.19892742454E+02  0.96587334001E+02 -0.31855080725E+03  0.37567066839E+03  0.17300000000E+03 0. -1.
<mgrwt>
<rscale>  2 0.19913271E+03</rscale>
<asrwt>0</asrwt>
<pdfrwt beam="1">  1       21 0.10782520E-01 0.19913271E+03</pdfrwt>
<pdfrwt beam="2">  1       21 0.90128786E-01 0.19913271E+03</pdfrwt>
<totfact> 0.74132826E+04</totfact>
</mgrwt>
</event>
<event>
 4    1  0.4035350E+000  0.2238709E+03  0.7546771E-02  0.1131030E+00
         21   -1    0    0  501  502  0.00000000000E+00  0.00000000000E+00  0.13868315570E+03  0.13868315570E+03  0.00000000000E+00 0. -1.
         21   -1    0    0  502  503 -0.00000000000E+00 -0.00000000000E+00 -0.45069101608E+03  0.45069101608E+03  0.00000000000E+00 0.  1.
          6    1    1    2  501    0 -0.12211583853E+03 -0.72642238374E+02 -0.24826476655E+02  0.22524326129E+03  0.17300000000E+03 0. -1.
         -6    1    1    2    0  503  0.12211583853E+03  0.72642238374E+02 -0.28718138373E+03  0.36413091049E+03  0.17300000000E+03 0.  1.
<mgrwt>
<rscale>  2 0.22387088E+03</rscale>
<asrwt>0</asrwt>
<pdfrwt beam="1">  1       21 0.21335870E-01 0.22387088E+03</pdfrwt>
<pdfrwt beam="2">  1       21 0.69337078E-01 0.22387088E+03</pdfrwt>
<totfact> 0.38085529E+04</totfact>
</mgrwt>
</event>
<event>
 4    1  0.4035350E+000  0.2454957E+03  0.7546771E-02  0.1116185E+00
         21   -1    0    0  503  502  0.00000000000E+00  0.00000000000E+00  0.17879688815E+03  0.17879688815E+03  0.00000000000E+00 0.  1.
         21   -1    0    0  501  503 -0.00000000000E+00 -0.00000000000E+00 -0.40077664520E+03  0.40077664520E+03  0.00000000000E+00 0. -1.
          6    1    1    2  501    0 -0.15349941336E+03 -0.82322859054E+02 -0.22652115803E+03  0.33403586344E+03  0.17300000000E+03 0. -1.
         -6    1    1    2    0  502  0.15349941336E+03  0.82322859054E+02  0.45414009797E+01  0.24553766992E+03  0.17300000000E+03 0.  1.
<mgrwt>
<rscale>  2 0.24549567E+03</rscale>
<asrwt>0</asrwt>
<pdfrwt beam="1">  1       21 0.27507214E-01 0.24549567E+03</pdfrwt>
<pdfrwt beam="2">  1       21 0.61657945E-01 0.24549567E+03</pdfrwt>
<totfact> 0.29994929E+04</totfact>
</mgrwt>
</event>
<event>
 4    1  0.4035350E+000  0.2947066E+03  0.7546771E-02  0.1087917E+00
         21   -1    0    0  503  502  0.00000000000E+00  0.00000000000E+00  0.10550371120E+04  0.10550371120E+04  0.00000000000E+00 0.  1.
         21   -1    0    0  501  503 -0.00000000000E+00 -0.00000000000E+00 -0.83200947006E+02  0.83200947006E+02  0.00000000000E+00 0. -1.
          6    1    1    2  501    0  0.36553150962E+02  0.23576856842E+03  0.42739718915E+03  0.51915345322E+03  0.17300000000E+03 0.  1.
         -6    1    1    2    0  502 -0.36553150962E+02 -0.23576856842E+03  0.54443897587E+03  0.61908460580E+03  0.17300000000E+03 0.  1.
<mgrwt>
<rscale>  2 0.29470655E+03</rscale>
<asrwt>0</asrwt>
<pdfrwt beam="1">  1       21 0.16231339E+00 0.29470655E+03</pdfrwt>
<pdfrwt beam="2">  1       21 0.12800146E-01 0.29470655E+03</pdfrwt>
<totfact> 0.11876649E+04</totfact>
</mgrwt>
</event>
<event>
 4    1  0.4035350E+000  0.1824639E+03  0.7546771E-02  0.1165440E+00
         21   -1    0    0  501  502  0.00000000000E+00  0.00000000000E+00  0.71774531305E+03  0.71774531305E+03  0.00000000000E+00 0.  1.
         21   -1    0    0  502  503 -0.00000000000E+00 -0.00000000000E+00 -0.78942089208E+02  0.78942089208E+02  0.00000000000E+00 0.  1.
          6    1    1    2  501    0  0.20029267542E+02  0.54432421394E+02  0.57521443340E+03  0.60346060721E+03  0.17300000000E+03 0.  1.
         -6    1    1    2    0  503 -0.20029267542E+02 -0.54432421394E+02  0.63588790445E+02  0.19322679506E+03  0.17300000000E+03 0.  1.
<mgrwt>
<rscale>  2 0.18246386E+03</rscale>
<asrwt>0</asrwt>
<pdfrwt beam="1">  1       21 0.11042235E+00 0.18246386E+03</pdfrwt>
<pdfrwt beam="2">  1       21 0.12144937E-01 0.18246386E+03</pdfrwt>
<totfact> 0.37371205E+04</totfact>
</mgrwt>
</event>
<event>
 4    1  0.4035350E+000  0.3085963E+03  0.7546771E-02  0.1081021E+00
         21   -1    0    0  501  502  0.00000000000E+00  0.00000000000E+00  0.18220527712E+03  0.18220527712E+03  0.00000000000E+00 0.  1.
         21   -1    0    0  502  503 -0.00000000000E+00 -0.00000000000E+00 -0.99145997223E+03  0.99145997223E+03  0.00000000000E+00 0.  1.
          6    1    1    2  501    0 -0.21468270367E+03 -0.13861473165E+03 -0.11030489302E+01  0.30859832113E+03  0.17300000000E+03 0.  1.
         -6    1    1    2    0  503  0.21468270367E+03  0.13861473165E+03 -0.80815164618E+03  0.86506692823E+03  0.17300000000E+03 0.  1.
<mgrwt>
<rscale>  2 0.30859635E+03</rscale>
<asrwt>0</asrwt>
<pdfrwt beam="1">  1       21 0.28031581E-01 0.30859635E+03</pdfrwt>
<pdfrwt beam="2">  1       21 0.15253230E+00 0.30859635E+03</pdfrwt>
<totfact> 0.31997323E+03</totfact>
</mgrwt>
</event>
<event>
 4    1  0.4035350E+000  0.2581376E+03  0.7546771E-02  0.1108267E+00
         21   -1    0    0  503  502  0.00000000000E+00  0.00000000000E+00  0.37072788787E+03  0.37072788787E+03  0.00000000000E+00 0.  1.
         21   -1    0    0  501  503 -0.00000000000E+00 -0.00000000000E+00 -0.18151467117E+03  0.18151467117E+03  0.00000000000E+00 0.  1.
          6    1    1    2  501    0  0.13956189347E+03  0.13125731567E+03  0.12190137152E+03  0.28547320261E+03  0.17300000000E+03 0.  1.
         -6    1    1    2    0  502 -0.13956189347E+03 -0.13125731567E+03  0.67311845179E+02  0.26676935643E+03  0.17300000000E+03 0.  1.
<mgrwt>
<rscale>  2 0.25813757E+03</rscale>
<asrwt>0</asrwt>
<pdfrwt beam="1">  1       21 0.57035060E-01 0.25813757E+03</pdfrwt>
<pdfrwt beam="2">  1       21 0.27925334E-01 0.25813757E+03</pdfrwt>
<totfact> 0.34273644E+04</totfact>
</mgrwt>
</event>
<event>
 4    1  0.4035350E+000  0.3799042E+03  0.7546771E-02  0.1050969E+00
         21   -1    0    0  501  502  0.00000000000E+00  0.00000000000E+00  0.63586998810E+03  0.63586998810E+03  0.00000000000E+00 0.  1.
         21   -1    0    0  502  503 -0.00000000000E+00 -0.00000000000E+00 -0.30282276885E+03  0.30282276885E+03  0.00000000000E+00 0. -1.
          6    1    1    2  501    0 -0.33810310201E+03  0.91920315954E+01  0.40141541422E+03  0.55268574779E+03  0.17300000000E+03 0.  1.
         -6    1    1    2    0  503  0.33810310201E+03 -0.91920315954E+01 -0.68368194979E+02  0.38600700916E+03  0.17300000000E+03 0. -1.
<mgrwt>
<rscale>  2 0.37990420E+03</rscale>
<asrwt>0</asrwt>
<pdfrwt beam="1">  1       21 0.97826152E-01 0.37990420E+03</pdfrwt>
<pdfrwt beam="2">  1       21 0.46588118E-01 0.37990420E+03</pdfrwt>
<totfact> 0.34155991E+03</totfact>
</mgrwt>
</event>
<event>
 4    1  0.4035350E+000  0.1899768E+03  0.7546771E-02  0.1158482E+00
         21   -1    0    0  501  502  0.00000000000E+00  0.00000000000E+00  0.85685104743E+03  0.85685104743E+03  0.00000000000E+00 0. -1.
         21   -1    0    0  502  503 -0.00000000000E+00 -0.00000000000E+00 -0.43104263357E+02  0.43104263357E+02  0.00000000000E+00 0. -1.
          6    1    1    2  501    0 -0.23812960683E+02  0.74800527117E+02  0.47484529331E+03  0.51143839173E+03  0.17300000000E+03 0. -1.
         -6    1    1    2    0  503  0.23812960683E+02 -0.74800527117E+02  0.33890149076E+03  0.38851691905E+03  0.17300000000E+03 0. -1.
<mgrwt>
<rscale>  2 0.18997678E+03</rscale>
<asrwt>0</asrwt>
<pdfrwt beam="1">  1       21 0.13182323E+00 0.18997678E+03</pdfrwt>
<pdfrwt beam="2">  1       21 0.66314258E-02 0.18997678E+03</pdfrwt>
<totfact> 0.69387676E+04</totfact>
</mgrwt>
</event>
<event>
 4    1  0.4035350E+000  0.2119528E+03  0.7546771E-02  0.1140029E+00
         21   -1    0    0  501  502  0.00000000000E+00  0.00000000000E+00  0.12230546294E+04  0.12230546294E+04  0.00000000000E+00 0. -1.
         21   -1    0    0  502  503 -0.00000000000E+00 -0.00000000000E+00 -0.86126709715E+02  0.86126709715E+02  0.00000000000E+00 0. -1.
          6    1    1    2  501    0 -0.12067662120E+03  0.20788007161E+02  0.10641944263E+04  0.10850962008E+04  0.17300000000E+03 0. -1.
         -6    1    1    2    0  503  0.12067662120E+03 -0.20788007161E+02  0.72733493448E+02  0.22408513832E+03  0.17300000000E+03 0. -1.
<mgrwt>
<rscale>  2 0.21195280E+03</rscale>
<asrwt>0</asrwt>
<pdfrwt beam="1">  1       21 0.18816224E+00 0.21195280E+03</pdfrwt>
<pdfrwt beam="2">  1       21 0.13250264E-01 0.21195280E+03</pdfrwt>
<totfact> 0.77522506E+03</totfact>
</mgrwt>
</event>
<event>
 4    1  0.4035350E+000  0.1927294E+03  0.7546771E-02  0.1156022E+00
         21   -1    0    0  503  502  0.00000000000E+00  0.00000000000E+00  0.62986692800E+02  0.62986692800E+02  0.00000000000E+00 0.  1.
         21   -1    0    0  501  503 -0.00000000000E+00 -0.00000000000E+00 -0.83055214700E+03  0.83055214700E+03  0.00000000000E+00 0.  1.
          6    1    1    2  501    0  0.84916822492E+02  0.21826073292E+01 -0.62436051408E+03  0.65342993661E+03  0.17300000000E+03 0.  1.
         -6    1    1    2    0  502 -0.84916822492E+02 -0.21826073292E+01 -0.14320494012E+03  0.24010890319E+03  0.17300000000E+03 0.  1.
<mgrwt>
<rscale>  2 0.19272942E+03</rscale>
<asrwt>0</asrwt>
<pdfrwt beam="1">  1       21 0.96902604E-02 0.19272942E+03</pdfrwt>
<pdfrwt beam="2">  1       21 0.12777725E+00 0.19272942E+03</pdfrwt>
<totfact> 0.38724174E+04</totfact>
</mgrwt>
</event>
<event>
 4    1  0.4035350E+000  0.2605339E+03  0.7546771E-02  0.1106823E+00
         21   -1    0    0  501  502  0.00000000000E+00  0.00000000000E+00  0.26663816091E+03  0.26663816091E+03  0.00000000000E+00 0.  1.
         21   -1    0    0  502  503 -0.00000000000E+00 -0.00000000000E+00 -0.42605984292E+03  0.42605984292E+03  0.00000000000E+00 0. -1.
          6    1    1    2  501    0 -0.16722462471E+02 -0.19408579422E+03  0.14002378901E+03  0.29577795347E+03  0.17300000000E+03 0.  1.
         -6    1    1    2    0  503  0.16722462471E+02  0.19408579422E+03 -0.29944547102E+03  0.39692005037E+03  0.17300000000E+03 0. -1.
<mgrwt>
<rscale>  2 0.26053394E+03</rscale>
<asrwt>0</asrwt>
<pdfrwt beam="1">  1       21 0.41021256E-01 0.26053394E+03</pdfrwt>
<pdfrwt beam="2">  1       21 0.65547667E-01 0.26053394E+03</pdfrwt>
<totfact> 0.11766754E+04</totfact>
</mgrwt>
</event>
<event>
 4    1  0.4035350E+000  0.2672489E+03  0.7546771E-02  0.1102865E+00
         21   -1    0    0  503  502  0.00000000000E+00  0.00000000000E+00  0.16023452022E+03  0.16023452022E+03  0.00000000000E+00 0.  1.
         21   -1    0    0  501  503 -0.00000000000E+00 -0.00000000000E+00 -0.48510361057E+03  0.48510361057E+03  0.00000000000E+00 0.  1.
          6    1    1    2  501    0  0.20018012817E+03  0.37694790679E+02 -0.25435673993E+03  0.36894353512E+03  0.17300000000E+03 0.  1.
         -6    1    1    2    0  502 -0.20018012817E+03 -0.37694790679E+02 -0.70512350414E+02  0.27639459567E+03  0.17300000000E+03 0.  1.
<mgrwt>
<rscale>  2 0.26724891E+03</rscale>
<asrwt>0</asrwt>
<pdfrwt beam="1">  1       21 0.24651465E-01 0.26724891E+03</pdfrwt>
<pdfrwt beam="2">  1       21 0.74631324E-01 0.26724891E+03</pdfrwt>
<totfact> 0.24072572E+04</totfact>
</mgrwt>
</event>
<event>
 4    1  0.4035350E+000  0.1817270E+03  0.7546771E-02  0.1166142E+00
         21   -1    0    0  501  502  0.00000000000E+00  0.00000000000E+00  0.18164454905E+03  0.18164454905E+03  0.00000000000E+00 0. -1.
         21   -1    0    0  502  503 -0.00000000000E+00 -0.00000000000E+00 -0.18386301117E+03  0.18386301117E+03  0.00000000000E+00 0. -1.
          6    1    1    2  501    0 -0.54668596696E+02 -0.10346903293E+02  0.18204329449E+02  0.18263655571E+03  0.17300000000E+03 0. -1.
         -6    1    1    2    0  503  0.54668596696E+02  0.10346903293E+02 -0.20422791574E+02  0.18287100450E+03  0.17300000000E+03 0. -1.
<mgrwt>
<rscale>  2 0.18172703E+03</rscale>
<asrwt>0</asrwt>
<pdfrwt beam="1">  1       21 0.27945315E-01 0.18172703E+03</pdfrwt>
<pdfrwt beam="2">  1       21 0.28286617E-01 0.18172703E+03</pdfrwt>
<totfact> 0.14660883E+05</totfact>
</mgrwt>
</event>
<event>
 4    1  0.4035350E+000  0.2029533E+03  0.7546771E-02  0.1147271E+00
         21   -1    0    0  501  502  0.00000000000E+00  0.00000000000E+00  0.57356824123E+03  0.57356824123E+03  0.00000000000E+00 0.  1.
         21   -1    0    0  502  503 -0.00000000000E+00 -0.00000000000E+00 -0.90673390000E+02  0.90673390000E+02  0.00000000000E+00 0.  1.
          6    1    1    2  501    0 -0.65270744895E+02 -0.83670652963E+02  0.39291638121E+03  0.44223673630E+03  0.17300000000E+03 0.  1.
         -6    1    1    2    0  503  0.65270744895E+02  0.83670652963E+02  0.89978470014E+02  0.22200489493E+03  0.17300000000E+03 0.  1.
<mgrwt>
<rscale>  2 0.20295332E+03</rscale>
<asrwt>0</asrwt>
<pdfrwt beam="1">  1       21 0.88241266E-01 0.20295332E+03</pdfrwt>
<pdfrwt beam="2">  1       21 0.13949753E-01 0.20295332E+03</pdfrwt>
<totfact> 0.48954770E+04</totfact>
</mgrwt>
</event>
<event>
 4    1  0.4035350E+000  0.1780182E+03  0.7546771E-02  0.1169735E+00
         21   -1    0    0  503  502  0.00000000000E+00  0.00000000000E+00  0.32352192324E+03  0.32352192324E+03  0.00000000000E+00 0. -1.
         21   -1    0    0  501  503 -0.00000000000E+00 -0.00000000000E+00 -0.16531838456E+03  0.16531838456E+03  0.00000000000E+00 0. -1.
          6    1    1    2  501    0 -0.85652457411E+00 -0.41961202786E+02 -0.76921552682E+02  0.19392627837E+03  0.17300000000E+03 0. -1.
         -6    1    1    2    0  502  0.85652457411E+00  0.41961202786E+02  0.23512509136E+03  0.29491402944E+03  0.17300000000E+03 0. -1.
<mgrwt>
<rscale>  2 0.17801819E+03</rscale>
<asrwt>0</asrwt>
<pdfrwt beam="1">  1       21 0.49772603E-01 0.17801819E+03</pdfrwt>
<pdfrwt beam="2">  1       21 0.25433598E-01 0.17801819E+03</pdfrwt>
<totfact> 0.56760724E+04</totfact>
</mgrwt>
</event>
<event>
 4    1  0.4035350E+000  0.2450762E+03  0.7546771E-02  0.1116457E+00
         21   -1    0    0  501  502  0.00000000000E+00  0.00000000000E+00  0.19297371816E+03  0.19297371816E+03  0.00000000000E+00 0. -1.
         21   -1    0    0  502  503 -0.00000000000E+00 -0.00000000000E+00 -0.37012763379E+03  0.37012763379E+03  0.00000000000E+00 0. -1.
          6    1    1    2  501    0  0.11522208668E+03  0.12983536750E+03  0.23720445065E+02  0.24622146825E+03  0.17300000000E+03 0. -1.
         -6    1    1    2    0  503 -0.11522208668E+03 -0.12983536750E+03 -0.20087436070E+03  0.31687988371E+03  0.17300000000E+03 0. -1.
<mgrwt>
<rscale>  2 0.24507622E+03</rscale>
<asrwt>0</asrwt>
<pdfrwt beam="1">  1       21 0.29688265E-01 0.24507622E+03</pdfrwt>
<pdfrwt beam="2">  1       21 0.56942712E-01 0.24507622E+03</pdfrwt>
<totfact> 0.30691269E+04</totfact>
</mgrwt>
</event>
<event>
 4    1  0.4035350E+000  0.2115122E+03  0.7546771E-02  0.1140374E+00
         21   -1    0    0  501  502  0.00000000000E+00  0.00000000000E+00  0.45609144684E+03  0.45609144684E+03  0.00000000000E+00 0. -1.
         21   -1    0    0  502  503 -0.00000000000E+00 -0.00000000000E+00 -0.10384590271E+03  0.10384590271E+03  0.00000000000E+00 0.  1.
          6    1    1    2  501    0 -0.23036321584E+01 -0.12166804567E+03  0.24204323895E+03  0.32143794048E+03  0.17300000000E+03 0. -1.
         -6    1    1    2    0  503  0.23036321584E+01  0.12166804567E+03  0.11020230518E+03  0.23849940907E+03  0.17300000000E+03 0.  1.
<mgrwt>
<rscale>  2 0.21151222E+03</rscale>
<asrwt>0</asrwt>
<pdfrwt beam="1">  1       21 0.70167914E-01 0.21151222E+03</pdfrwt>
<pdfrwt beam="2">  1       21 0.15976293E-01 0.21151222E+03</pdfrwt>
<totfact> 0.63884680E+04</totfact>
</mgrwt>
</event>
<event>
 4    1  0.4035350E+000  0.2032979E+03  0.7546771E-02  0.1146986E+00
         21   -1    0    0  501  502  0.00000000000E+00  0.00000000000E+00  0.16875048193E+03  0.16875048193E+03  0.00000000000E+00 0.  1.
         21   -1    0    0  502  503 -0.00000000000E+00 -0.00000000000E+00 -0.75837436151E+03  0.75837436151E+03  0.00000000000E+00 0.  1.
          6    1    1    2  501    0 -0.18858097126E+02  0.10509706769E+03  0.86620999064E+02  0.22098239510E+03  0.17300000000E+03 0.  1.
         -6    1    1    2    0  503  0.18858097126E+02 -0.10509706769E+03 -0.67624487865E+03  0.70614244835E+03  0.17300000000E+03 0.  1.
<mgrwt>
<rscale>  2 0.20329786E+03</rscale>
<asrwt>0</asrwt>
<pdfrwt beam="1">  1       21 0.25961613E-01 0.20329786E+03</pdfrwt>
<pdfrwt beam="2">  1       21 0.11667298E+00 0.20329786E+03</pdfrwt>
<totfact> 0.79121380E+03</totfact>
</mgrwt>
</event>
<event>
 4    1  0.4035350E+000  0.2128578E+03  0.7546771E-02  0.1139323E+00
         21   -1    0    0  503  502  0.00000000000E+00  0.00000000000E+00  0.54584663931E+03  0.54584663931E+03  0.00000000000E+00 0.  1.
         21   -1    0    0  501  503 -0.00000000000E+00 -0.00000000000E+00 -0.16940214954E+03  0.16940214954E+03  0.00000000000E+00 0.  1.
          6    1    1    2  501    0  0.75356580938E+02  0.98492716475E+02 -0.67174529506E+02  0.22320583976E+03  0.17300000000E+03 0.  1.
         -6    1    1    2    0  502 -0.75356580938E+02 -0.98492716475E+02  0.44361901927E+03  0.49204294909E+03  0.17300000000E+03 0.  1.
<mgrwt>
<rscale>  2 0.21285777E+03</rscale>
<asrwt>0</asrwt>
<pdfrwt beam="1">  1       21 0.83976405E-01 0.21285777E+03</pdfrwt>
<pdfrwt beam="2">  1       21 0.26061869E-01 0.21285777E+03</pdfrwt>
<totfact> 0.17017108E+04</totfact>
</mgrwt>
</event>
<event>
 4    1  0.4035350E+000  0.2272389E+03  0.7546771E-02  0.1128598E+00
         21   -1    0    0  503  502  0.00000000000E+00  0.00000000000E+00  0.22985115721E+03  0.22985115721E+03  0.00000000000E+00 0. -1.
         21   -1    0    0  501  503 -0.00000000000E+00 -0.00000000000E+00 -0.24092231555E+03  0.24092231555E+03  0.00000000000E+00 0. -1.
          6    1    1    2  501    0  0.80439688942E+02  0.12344215124E+03  0.55626775458E+02  0.23394838407E+03  0.17300000000E+03 0. -1.
         -6    1    1    2    0  502 -0.80439688942E+02 -0.12344215124E+03 -0.66697933794E+02  0.23682508869E+03  0.17300000000E+03 0. -1.
<mgrwt>
<rscale>  2 0.22723888E+03</rscale>
<asrwt>0</asrwt>
<pdfrwt beam="1">  1       21 0.35361716E-01 0.22723888E+03</pdfrwt>
<pdfrwt beam="2">  1       21 0.37064972E-01 0.22723888E+03</pdfrwt>
<totfact> 0.53276558E+04</totfact>
</mgrwt>
</event>
<event>
 4    1  0.4035350E+000  0.1981205E+03  0.7546771E-02  0.1151334E+00
         21   -1    0    0  501  502  0.00000000000E+00  0.00000000000E+00  0.54031944818E+03  0.54031944818E+03  0.00000000000E+00 0.  1.
         21   -1    0    0  502  503 -0.00000000000E+00 -0.00000000000E+00 -0.37088013840E+03  0.37088013840E+03  0.00000000000E+00 0.  1.
          6    1    1    2  501    0 -0.49768693366E+02 -0.82739493108E+02  0.49327021670E+03  0.53157055340E+03  0.17300000000E+03 0.  1.
         -6    1    1    2    0  503  0.49768693366E+02  0.82739493108E+02 -0.32383090692E+03  0.37962903318E+03  0.17300000000E+03 0.  1.
<mgrwt>
<rscale>  2 0.19812054E+03</rscale>
<asrwt>0</asrwt>
<pdfrwt beam="1">  1       21 0.83126069E-01 0.19812054E+03</pdfrwt>
<pdfrwt beam="2">  1       21 0.57058482E-01 0.19812054E+03</pdfrwt>
<totfact> 0.36213632E+03</totfact>
</mgrwt>
</event>
<event>
 4    1  0.4035350E+000  0.2636676E+03  0.7546771E-02  0.1104959E+00
         21   -1    0    0  503  502  0.00000000000E+00  0.00000000000E+00  0.20800609289E+03  0.20800609289E+03  0.00000000000E+00 0.  1.
         21   -1    0    0  501  503 -0.00000000000E+00 -0.00000000000E+00 -0.53133432822E+03  0.53133432822E+03  0.00000000000E+00 0.  1.
          6    1    1    2  501    0 -0.18888859026E+02 -0.19807776842E+03  0.63492856635E+02  0.27120459838E+03  0.17300000000E+03 0.  1.
         -6    1    1    2    0  502  0.18888859026E+02  0.19807776842E+03 -0.38682109197E+03  0.46813582273E+03  0.17300000000E+03 0.  1.
<mgrwt>
<rscale>  2 0.26366758E+03</rscale>
<asrwt>0</asrwt>
<pdfrwt beam="1">  1       21 0.32000937E-01 0.26366758E+03</pdfrwt>
<pdfrwt beam="2">  1       21 0.81743743E-01 0.26366758E+03</pdfrwt>
<totfact> 0.11794207E+04</totfact>
</mgrwt>
</event>
<event>
 4    1  0.4035350E+000  0.2648401E+03  0.7546771E-02  0.1104270E+00
         21   -1    0    0  501  502  0.00000000000E+00  0.00000000000E+00  0.60330835129E+03  0.60330835129E+03  0.00000000000E+00 0. -1.
         21   -1    0    0  502  503 -0.00000000000E+00 -0.00000000000E+00 -0.13512834627E+03  0.13512834627E+03  0.00000000000E+00 0.  1.
          6    1    1    2  501    0 -0.18406326174E+03 -0.79573841497E+02  0.37205966713E+03  0.45669319732E+03  0.17300000000E+03 0. -1.
         -6    1    1    2    0  503  0.18406326174E+03  0.79573841497E+02  0.96120337884E+02  0.28174350024E+03  0.17300000000E+03 0.  1.
<mgrwt>
<rscale>  2 0.26484010E+03</rscale>
<asrwt>0</asrwt>
<pdfrwt beam="1">  1       21 0.92816668E-01 0.26484010E+03</pdfrwt>
<pdfrwt beam="2">  1       21 0.20788977E-01 0.26484010E+03</pdfrwt>
<totfact> 0.20194871E+04</totfact>
</mgrwt>
</event>
<event>
 4    1  0.4035350E+000  0.2088708E+03  0.7546771E-02  0.1142463E+00
         21   -1    0    0  503  502  0.00000000000E+00  0.00000000000E+00  0.44673275749E+02  0.44673275749E+02  0.00000000000E+00 0.  1.
         21   -1    0    0  501  503 -0.00000000000E+00 -0.00000000000E+00 -0.99109192759E+03  0.99109192759E+03  0.00000000000E+00 0.  1.
          6    1    1    2  501    0 -0.11525367959E+03 -0.20362129320E+02 -0.53587606910E+03  0.57514362415E+03  0.17300000000E+03 0.  1.
         -6    1    1    2    0  502  0.11525367959E+03  0.20362129320E+02 -0.41054258274E+03  0.46062157919E+03  0.17300000000E+03 0.  1.
<mgrwt>
<rscale>  2 0.20887084E+03</rscale>
<asrwt>0</asrwt>
<pdfrwt beam="1">  1       21 0.68728121E-02 0.20887084E+03</pdfrwt>
<pdfrwt beam="2">  1       21 0.15247567E+00 0.20887084E+03</pdfrwt>
<totfact> 0.44276392E+04</totfact>
</mgrwt>
</event>
<event>
 4    1  0.4035350E+000  0.1899468E+03  0.7546771E-02  0.1158509E+00
         21   -1    0    0  503  502  0.00000000000E+00  0.00000000000E+00  0.10252100496E+03  0.10252100496E+03  0.00000000000E+00 0.  1.
         21   -1    0    0  501  503 -0.00000000000E+00 -0.00000000000E+00 -0.35193452203E+03  0.35193452203E+03  0.00000000000E+00 0.  1.
          6    1    1    2  501    0  0.34833533736E+02  0.70266782725E+02 -0.12583216232E+03  0.22784540571E+03  0.17300000000E+03 0.  1.
         -6    1    1    2    0  502 -0.34833533736E+02 -0.70266782725E+02 -0.12358135475E+03  0.22661012129E+03  0.17300000000E+03 0.  1.
<mgrwt>
<rscale>  2 0.18994682E+03</rscale>
<asrwt>0</asrwt>
<pdfrwt beam="1">  1       21 0.15772463E-01 0.18994682E+03</pdfrwt>
<pdfrwt beam="2">  1       21 0.54143771E-01 0.18994682E+03</pdfrwt>
<totfact> 0.11552678E+05</totfact>
</mgrwt>
</event>
<event>
 4    1  0.4035350E+000  0.1895993E+03  0.7546771E-02  0.1158823E+00
         21   -1    0    0  501  502  0.00000000000E+00  0.00000000000E+00  0.25996903851E+03  0.25996903851E+03  0.00000000000E+00 0. -1.
         21   -1    0    0  502  503 -0.00000000000E+00 -0.00000000000E+00 -0.17721021464E+03  0.17721021464E+03  0.00000000000E+00 0.  1.
          6    1    1    2  501    0  0.77332766250E+02 -0.62071207237E+01  0.14383653680E+03  0.23798494575E+03  0.17300000000E+03 0. -1.
         -6    1    1    2    0  503 -0.77332766250E+02  0.62071207237E+01 -0.61077712930E+02  0.19919430740E+03  0.17300000000E+03 0.  1.
<mgrwt>
<rscale>  2 0.18959928E+03</rscale>
<asrwt>0</asrwt>
<pdfrwt beam="1">  1       21 0.39995237E-01 0.18959928E+03</pdfrwt>
<pdfrwt beam="2">  1       21 0.27263110E-01 0.18959928E+03</pdfrwt>
<totfact> 0.77383122E+04</totfact>
</mgrwt>
</event>
<event>
 4    1  0.4035350E+000  0.1945553E+03  0.7546771E-02  0.1154416E+00
         21   -1    0    0  501  502  0.00000000000E+00  0.00000000000E+00  0.30914727802E+03  0.30914727802E+03  0.00000000000E+00 0.  1.
         21   -1    0    0  502  503 -0.00000000000E+00 -0.00000000000E+00 -0.20967828593E+03  0.20967828593E+03  0.00000000000E+00 0.  1.
          6    1    1    2  501    0  0.75387276769E+02  0.47323614193E+02  0.21706303926E+03  0.29149293126E+03  0.17300000000E+03 0.  1.
         -6    1    1    2    0  503 -0.75387276769E+02 -0.47323614193E+02 -0.11759404717E+03  0.22733263270E+03  0.17300000000E+03 0.  1.
<mgrwt>
<rscale>  2 0.19455530E+03</rscale>
<asrwt>0</asrwt>
<pdfrwt beam="1">  1       21 0.47561120E-01 0.19455530E+03</pdfrwt>
<pdfrwt beam="2">  1       21 0.32258198E-01 0.19455530E+03</pdfrwt>
<totfact> 0.39048138E+04</totfact>
</mgrwt>
</event>
<event>
 4    1  0.4035350E+000  0.2207207E+03  0.7546771E-02  0.1133347E+00
         21   -1    0    0  503  502  0.00000000000E+00  0.00000000000E+00  0.13099888700E+04  0.13099888700E+04  0.00000000000E+00 0. -1.
         21   -1    0    0  501  503 -0.00000000000E+00 -0.00000000000E+00 -0.40957135691E+02  0.40957135691E+02  0.00000000000E+00 0. -1.
          6    1    1    2  501    0  0.11268409981E+03 -0.78044261151E+02  0.83939005784E+03  0.86792469849E+03  0.17300000000E+03 0.  1.
         -6    1    1    2    0  502 -0.11268409981E+03  0.78044261151E+02  0.42964167645E+03  0.48302130718E+03  0.17300000000E+03 0.  1.
<mgrwt>
<rscale>  2 0.22072067E+03</rscale>
<asrwt>0</asrwt>
<pdfrwt beam="1">  1       21 0.20153672E+00 0.22072067E+03</pdfrwt>
<pdfrwt beam="2">  1       21 0.63010988E-02 0.22072067E+03</pdfrwt>
<totfact> 0.23322769E+04</totfact>
</mgrwt>
</event>
<event>
 4    1  0.4035350E+000  0.2177037E+03  0.7546771E-02  0.1135607E+00
         21   -1    0    0  503  502  0.00000000000E+00  0.00000000000E+00  0.18286384513E+02  0.18286384513E+02  0.00000000000E+00 0.  1.
         21   -1    0    0  501  503 -0.00000000000E+00 -0.00000000000E+00 -0.30580339339E+04  0.30580339339E+04  0.00000000000E+00 0. -1.
          6    1    1    2  501    0 -0.11416269222E+03  0.66578997099E+02 -0.21204614900E+04  0.21316078002E+04  0.17300000000E+03 0. -1.
         -6    1    1    2    0  502  0.11416269222E+03 -0.66578997099E+02 -0.91928605939E+03  0.94471251825E+03  0.17300000000E+03 0.  1.
<mgrwt>
<rscale>  2 0.21770366E+03</rscale>
<asrwt>0</asrwt>
<pdfrwt beam="1">  1       21 0.28132902E-02 0.21770366E+03</pdfrwt>
<pdfrwt beam="2">  1       21 0.47046671E+00 0.21770366E+03</pdfrwt>
<totfact> 0.20584834E+03</totfact>
</mgrwt>
</event>
<event>
 4    1  0.4035350E+000  0.1745074E+03  0.7546771E-02  0.1173227E+00
         21   -1    0    0  501  502  0.00000000000E+00  0.00000000000E+00  0.19984877984E+04  0.19984877984E+04  0.00000000000E+00 0. -1.
         21   -1    0    0  502  503 -0.00000000000E+00 -0.00000000000E+00 -0.30253289732E+03  0.30253289732E+03  0.00000000000E+00 0. -1.
          6    1    1    2  501    0 -0.15766049899E+02  0.16590748380E+02  0.19691390990E+04  0.19768564977E+04  0.17300000000E+03 0. -1.
         -6    1    1    2    0  503  0.15766049899E+02 -0.16590748380E+02 -0.27318419795E+03  0.32416419801E+03  0.17300000000E+03 0. -1.
<mgrwt>
<rscale>  2 0.17450737E+03</rscale>
<asrwt>0</asrwt>
<pdfrwt beam="1">  1       21 0.30745965E+00 0.17450737E+03</pdfrwt>
<pdfrwt beam="2">  1       21 0.46543524E-01 0.17450737E+03</pdfrwt>
<totfact> 0.14100353E+02</totfact>
</mgrwt>
</event>
<event>
 4    1  0.4035350E+000  0.2191553E+03  0.7546771E-02  0.1134514E+00
         21   -1    0    0  501  502  0.00000000000E+00  0.00000000000E+00  0.78442714071E+03  0.78442714071E+03  0.00000000000E+00 0. -1.
         21   -1    0    0  502  503 -0.00000000000E+00 -0.00000000000E+00 -0.12441305743E+03  0.12441305743E+03  0.00000000000E+00 0.  1.
          6    1    1    2  501    0  0.11218808149E+03  0.74255369163E+02  0.65384758156E+03  0.68959820576E+03  0.17300000000E+03 0. -1.
         -6    1    1    2    0  503 -0.11218808149E+03 -0.74255369163E+02  0.61665017208E+01  0.21924199238E+03  0.17300000000E+03 0.  1.
<mgrwt>
<rscale>  2 0.21915525E+03</rscale>
<asrwt>0</asrwt>
<pdfrwt beam="1">  1       21 0.12068110E+00 0.21915525E+03</pdfrwt>
<pdfrwt beam="2">  1       21 0.19140471E-01 0.21915525E+03</pdfrwt>
<totfact> 0.12815817E+04</totfact>
</mgrwt>
</event>
<event>
 4    1  0.4035350E+000  0.2974727E+03  0.7546771E-02  0.1086511E+00
         21   -1    0    0  503  502  0.00000000000E+00  0.00000000000E+00  0.15093403896E+04  0.15093403896E+04  0.00000000000E+00 0.  1.
         21   -1    0    0  501  503 -0.00000000000E+00 -0.00000000000E+00 -0.82502121984E+02  0.82502121984E+02  0.00000000000E+00 0. -1.
          6    1    1    2  501    0 -0.47922122655E+00  0.24199330519E+03  0.28526617301E+03  0.41214897655E+03  0.17300000000E+03 0. -1.
         -6    1    1    2    0  502  0.47922122655E+00 -0.24199330519E+03  0.11415720946E+04  0.11796935351E+04  0.17300000000E+03 0.  1.
<mgrwt>
<rscale>  2 0.29747267E+03</rscale>
<asrwt>0</asrwt>
<pdfrwt beam="1">  1       21 0.23220619E+00 0.29747267E+03</pdfrwt>
<pdfrwt beam="2">  1       21 0.12692635E-01 0.29747267E+03</pdfrwt>
<totfact> 0.41299078E+03</totfact>
</mgrwt>
</event>
<event>
 4    1  0.4035350E+000  0.1958500E+03  0.7546771E-02  0.1153288E+00
         21   -1    0    0  503  502  0.00000000000E+00  0.00000000000E+00  0.78400150400E+03  0.78400150400E+03  0.00000000000E+00 0. -1.
         21   -1    0    0  501  503 -0.00000000000E+00 -0.00000000000E+00 -0.30708936211E+03  0.30708936211E+03  0.00000000000E+00 0. -1.
          6    1    1    2  501    0 -0.51106276698E+02 -0.76265133271E+02 -0.26174744365E+03  0.32690816192E+03  0.17300000000E+03 0. -1.
         -6    1    1    2    0  502  0.51106276698E+02  0.76265133271E+02  0.73865958555E+03  0.76418270419E+03  0.17300000000E+03 0. -1.
<mgrwt>
<rscale>  2 0.19585000E+03</rscale>
<asrwt>0</asrwt>
<pdfrwt beam="1">  1       21 0.12061562E+00 0.19585000E+03</pdfrwt>
<pdfrwt beam="2">  1       21 0.47244517E-01 0.19585000E+03</pdfrwt>
<totfact> 0.22286205E+03</totfact>
</mgrwt>
</event>
<event>
 4    1  0.4035350E+000  0.1991265E+03  0.7546771E-02  0.1150478E+00
         21   -1    0    0  503  502  0.00000000000E+00  0.00000000000E+00  0.78862332323E+02  0.78862332323E+02  0.00000000000E+00 0. -1.
         21   -1    0    0  501  503 -0.00000000000E+00 -0.00000000000E+00 -0.65072101811E+03  0.65072101811E+03  0.00000000000E+00 0.  1.
          6    1    1    2  501    0  0.98573091798E+02 -0.23915057592E+01 -0.45985904111E+03  0.50112045600E+03  0.17300000000E+03 0.  1.
         -6    1    1    2    0  502 -0.98573091798E+02  0.23915057592E+01 -0.11199964467E+03  0.22846289443E+03  0.17300000000E+03 0. -1.
<mgrwt>
<rscale>  2 0.19912653E+03</rscale>
<asrwt>0</asrwt>
<pdfrwt beam="1">  1       21 0.12132666E-01 0.19912653E+03</pdfrwt>
<pdfrwt beam="2">  1       21 0.10011093E+00 0.19912653E+03</pdfrwt>
<totfact> 0.46954471E+04</totfact>
</mgrwt>
</event>
<event>
 4    1  0.4035350E+000  0.1958827E+03  0.7546771E-02  0.1153260E+00
         21   -1    0    0  503  502  0.00000000000E+00  0.00000000000E+00  0.19327830241E+03  0.19327830241E+03  0.00000000000E+00 0.  1.
         21   -1    0    0  501  503 -0.00000000000E+00 -0.00000000000E+00 -0.36474513975E+03  0.36474513975E+03  0.00000000000E+00 0.  1.
          6    1    1    2  501    0  0.62092963747E+02 -0.67716382365E+02 -0.27408665978E+03  0.33688802540E+03  0.17300000000E+03 0.  1.
         -6    1    1    2    0  502 -0.62092963747E+02  0.67716382365E+02  0.10261982244E+03  0.22113541676E+03  0.17300000000E+03 0.  1.
<mgrwt>
<rscale>  2 0.19588273E+03</rscale>
<asrwt>0</asrwt>
<pdfrwt beam="1">  1       21 0.29735124E-01 0.19588273E+03</pdfrwt>
<pdfrwt beam="2">  1       21 0.56114636E-01 0.19588273E+03</pdfrwt>
<totfact> 0.32354392E+04</totfact>
</mgrwt>
</event>
<event>
 4    1  0.4035350E+000  0.2243534E+03  0.7546771E-02  0.1130678E+00
         21   -1    0    0  501  502  0.00000000000E+00  0.00000000000E+00  0.12142532166E+03  0.12142532166E+03  0.00000000000E+00 0. -1.
         21   -1    0    0  502  503 -0.00000000000E+00 -0.00000000000E+00 -0.52662917921E+03  0.52662917921E+03  0.00000000000E+00 0.  1.
          6    1    1    2  501    0  0.76527134412E+02 -0.12061945363E+03 -0.35209808707E+03  0.41750151834E+03  0.17300000000E+03 0.  1.
         -6    1    1    2    0  503 -0.76527134412E+02  0.12061945363E+03 -0.53105770479E+02  0.23055298253E+03  0.17300000000E+03 0. -1.
<mgrwt>
<rscale>  2 0.22435342E+03</rscale>
<asrwt>0</asrwt>
<pdfrwt beam="1">  1       21 0.18680819E-01 0.22435342E+03</pdfrwt>
<pdfrwt beam="2">  1       21 0.81019874E-01 0.22435342E+03</pdfrwt>
<totfact> 0.34453174E+04</totfact>
</mgrwt>
</event>
<event>
 4    1  0.4035350E+000  0.1934489E+03  0.7546771E-02  0.1155387E+00
         21   -1    0    0  501  502  0.00000000000E+00  0.00000000000E+00  0.70096566571E+02  0.70096566571E+02  0.00000000000E+00 0. -1.
         21   -1    0    0  502  503 -0.00000000000E+00 -0.00000000000E+00 -0.57220436133E+03  0.57220436133E+03  0.00000000000E+00 0. -1.
          6    1    1    2  501    0  0.64096665649E+02  0.58181498886E+02 -0.33417778496E+03  0.38613114524E+03  0.17300000000E+03 0. -1.
         -6    1    1    2    0  503 -0.64096665649E+02 -0.58181498886E+02 -0.16793000980E+03  0.25616978267E+03  0.17300000000E+03 0. -1.
<mgrwt>
<rscale>  2 0.19344888E+03</rscale>
<asrwt>0</asrwt>
<pdfrwt beam="1">  1       21 0.10784087E-01 0.19344888E+03</pdfrwt>
<pdfrwt beam="2">  1       21 0.88031440E-01 0.19344888E+03</pdfrwt>
<totfact> 0.78466046E+04</totfact>
</mgrwt>
</event>
<event>
 4    1  0.4035350E+000  0.2063220E+03  0.7546771E-02  0.1144512E+00
         21   -1    0    0  503  502  0.00000000000E+00  0.00000000000E+00  0.27949630920E+03  0.27949630920E+03  0.00000000000E+00 0. -1.
         21   -1    0    0  501  503 -0.00000000000E+00 -0.00000000000E+00 -0.39115737614E+03  0.39115737614E+03  0.00000000000E+00 0.  1.
          6    1    1    2  501    0 -0.10090011197E+03 -0.49587620277E+02 -0.31786419332E+03  0.37895436411E+03  0.17300000000E+03 0.  1.
         -6    1    1    2    0  502  0.10090011197E+03  0.49587620277E+02  0.20620312638E+03  0.29169932123E+03  0.17300000000E+03 0. -1.
<mgrwt>
<rscale>  2 0.20632199E+03</rscale>
<asrwt>0</asrwt>
<pdfrwt beam="1">  1       21 0.42999432E-01 0.20632199E+03</pdfrwt>
<pdfrwt beam="2">  1       21 0.60178058E-01 0.20632199E+03</pdfrwt>
<totfact> 0.13272821E+04</totfact>
</mgrwt>
</event>
<event>
 4    1  0.4035350E+000  0.1979931E+03  0.7546771E-02  0.1151443E+00
         21   -1    0    0  501  502  0.00000000000E+00  0.00000000000E+00  0.12252604181E+03  0.12252604181E+03  0.00000000000E+00 0. -1.
         21   -1    0    0  502  503 -0.00000000000E+00 -0.00000000000E+00 -0.34342334845E+03  0.34342334845E+03  0.00000000000E+00 0. -1.
          6    1    1    2  501    0 -0.12466027990E+02 -0.95482312925E+02 -0.49529787750E+02  0.20409427677E+03  0.17300000000E+03 0. -1.
         -6    1    1    2    0  503  0.12466027990E+02  0.95482312925E+02 -0.17136751889E+03  0.26185511350E+03  0.17300000000E+03 0. -1.
<mgrwt>
<rscale>  2 0.19799312E+03</rscale>
<asrwt>0</asrwt>
<pdfrwt beam="1">  1       21 0.18850160E-01 0.19799312E+03</pdfrwt>
<pdfrwt beam="2">  1       21 0.52834361E-01 0.19799312E+03</pdfrwt>
<totfact> 0.87308506E+04</totfact>
</mgrwt>
</event>
<event>
 4    1  0.4035350E+000  0.2314966E+03  0.7546771E-02  0.1125591E+00
         21   -1    0    0  501  502  0.00000000000E+00  0.00000000000E+00  0.30339515763E+03  0.30339515763E+03  0.00000000000E+00 0. -1.
         21   -1    0    0  502  503 -0.00000000000E+00 -0.00000000000E+00 -0.26378747932E+03  0.26378747932E+03  0.00000000000E+00 0.  1.
          6    1    1    2  501    0  0.70625774628E+01 -0.15366128750E+03  0.18280919562E+03  0.29497436038E+03  0.17300000000E+03 0. -1.
         -6    1    1    2    0  503 -0.70625774628E+01  0.15366128750E+03 -0.14320151731E+03  0.27220827658E+03  0.17300000000E+03 0.  1.
<mgrwt>
<rscale>  2 0.23149659E+03</rscale>
<asrwt>0</asrwt>
<pdfrwt beam="1">  1       21 0.46676178E-01 0.23149659E+03</pdfrwt>
<pdfrwt beam="2">  1       21 0.40582689E-01 0.23149659E+03</pdfrwt>
<totfact> 0.25174887E+04</totfact>
</mgrwt>
</event>
<event>
 4    1  0.4035350E+000  0.1780406E+03  0.7546771E-02  0.1169713E+00
         21   -1    0    0  503  502  0.00000000000E+00  0.00000000000E+00  0.40555583021E+03  0.40555583021E+03  0.00000000000E+00 0. -1.
         21   -1    0    0  501  503 -0.00000000000E+00 -0.00000000000E+00 -0.91845838810E+02  0.91845838810E+02  0.00000000000E+00 0. -1.
          6    1    1    2  501    0 -0.43273689616E+01 -0.41841541580E+02  0.60854052112E+02  0.18815327896E+03  0.17300000000E+03 0. -1.
         -6    1    1    2    0  502  0.43273689616E+01  0.41841541580E+02  0.25285593929E+03  0.30924839007E+03  0.17300000000E+03 0. -1.
<mgrwt>
<rscale>  2 0.17804056E+03</rscale>
<asrwt>0</asrwt>
<pdfrwt beam="1">  1       21 0.62393204E-01 0.17804056E+03</pdfrwt>
<pdfrwt beam="2">  1       21 0.14130129E-01 0.17804056E+03</pdfrwt>
<totfact> 0.10472394E+05</totfact>
</mgrwt>
</event>
<event>
 4    1  0.4035350E+000  0.1765539E+03  0.7546771E-02  0.1171180E+00
         21   -1    0    0  501  502  0.00000000000E+00  0.00000000000E+00  0.58658086116E+02  0.58658086116E+02  0.00000000000E+00 0. -1.
         21   -1    0    0  502  503 -0.00000000000E+00 -0.00000000000E+00 -0.61957039653E+03  0.61957039653E+03  0.00000000000E+00 0. -1.
          6    1    1    2  501    0 -0.30781916479E+02  0.17168853289E+02 -0.40837830977E+03  0.44490913656E+03  0.17300000000E+03 0. -1.
         -6    1    1    2    0  503  0.30781916479E+02 -0.17168853289E+02 -0.15253400065E+03  0.23331934609E+03  0.17300000000E+03 0. -1.
<mgrwt>
<rscale>  2 0.17655395E+03</rscale>
<asrwt>0</asrwt>
<pdfrwt beam="1">  1       21 0.90243214E-02 0.17655395E+03</pdfrwt>
<pdfrwt beam="2">  1       21 0.95318518E-01 0.17655395E+03</pdfrwt>
<totfact> 0.89967632E+04</totfact>
</mgrwt>
</event>
<event>
 4    1  0.4035350E+000  0.2064600E+03  0.7546771E-02  0.1144400E+00
         21   -1    0    0  503  502  0.00000000000E+00  0.00000000000E+00  0.20234240825E+02  0.20234240825E+02  0.00000000000E+00 0.  1.
         21   -1    0    0  501  503 -0.00000000000E+00 -0.00000000000E+00 -0.22767612235E+04  0.22767612235E+04  0.00000000000E+00 0.  1.
          6    1    1    2  501    0  0.10520723262E+03 -0.40350456947E+02 -0.14422309983E+04  0.14569337574E+04  0.17300000000E+03 0. -1.
         -6    1    1    2    0  502 -0.10520723262E+03  0.40350456947E+02 -0.81429598441E+03  0.84006170690E+03  0.17300000000E+03 0. -1.
<mgrwt>
<rscale>  2 0.20645997E+03</rscale>
<asrwt>0</asrwt>
<pdfrwt beam="1">  1       21 0.31129596E-02 0.20645997E+03</pdfrwt>
<pdfrwt beam="2">  1       21 0.35027101E+00 0.20645997E+03</pdfrwt>
<totfact> 0.10205664E+04</totfact>
</mgrwt>
</event>
<event>
 4    1  0.4035350E+000  0.2465433E+03  0.7546771E-02  0.1115509E+00
         21   -1    0    0  501  502  0.00000000000E+00  0.00000000000E+00  0.25710256326E+03  0.25710256326E+03  0.00000000000E+00 0.  1.
         21   -1    0    0  502  503 -0.00000000000E+00 -0.00000000000E+00 -0.23644718854E+03  0.23644718854E+03  0.00000000000E+00 0. -1.
          6    1    1    2  501    0  0.10379568541E+03  0.14170761692E+03  0.13084234932E+02  0.24689023919E+03  0.17300000000E+03 0. -1.
         -6    1    1    2    0  503 -0.10379568541E+03 -0.14170761692E+03  0.75711397901E+01  0.24665951261E+03  0.17300000000E+03 0. -1.
<mgrwt>
<rscale>  2 0.24654329E+03</rscale>
<asrwt>0</asrwt>
<pdfrwt beam="1">  1       21 0.39554241E-01 0.24654329E+03</pdfrwt>
<pdfrwt beam="2">  1       21 0.36376490E-01 0.24654329E+03</pdfrwt>
<totfact> 0.43801463E+04</totfact>
</mgrwt>
</event>
<event>
 4    1  0.4035350E+000  0.3375974E+03  0.7546771E-02  0.1067824E+00
         21   -1    0    0  503  502  0.00000000000E+00  0.00000000000E+00  0.11744644842E+03  0.11744644842E+03  0.00000000000E+00 0.  1.
         21   -1    0    0  501  503 -0.00000000000E+00 -0.00000000000E+00 -0.11308062630E+04  0.11308062630E+04  0.00000000000E+00 0. -1.
          6    1    1    2  501    0 -0.20004378293E+03  0.20982258450E+03 -0.27162677461E+03  0.43330490043E+03  0.17300000000E+03 0.  1.
         -6    1    1    2    0  502  0.20004378293E+03 -0.20982258450E+03 -0.74173303995E+03  0.81494781097E+03  0.17300000000E+03 0. -1.
<mgrwt>
<rscale>  2 0.33759744E+03</rscale>
<asrwt>0</asrwt>
<pdfrwt beam="1">  1       21 0.18068685E-01 0.33759744E+03</pdfrwt>
<pdfrwt beam="2">  1       21 0.17397019E+00 0.33759744E+03</pdfrwt>
<totfact> 0.50697343E+03</totfact>
</mgrwt>
</event>
<event>
 4    1  0.4035350E+000  0.2021630E+03  0.7546771E-02  0.1147927E+00
         21   -1    0    0  503  502  0.00000000000E+00  0.00000000000E+00  0.57594345838E+02  0.57594345838E+02  0.00000000000E+00 0. -1.
         21   -1    0    0  501  503 -0.00000000000E+00 -0.00000000000E+00 -0.72768228091E+03  0.72768228091E+03  0.00000000000E+00 0.  1.
          6    1    1    2  501    0 -0.10446178923E+03  0.53492925854E+01 -0.27317770869E+03  0.33984693741E+03  0.17300000000E+03 0. -1.
         -6    1    1    2    0  502  0.10446178923E+03 -0.53492925854E+01 -0.39691022638E+03  0.44542968934E+03  0.17300000000E+03 0.  1.
<mgrwt>
<rscale>  2 0.20216300E+03</rscale>
<asrwt>0</asrwt>
<pdfrwt beam="1">  1       21 0.88606681E-02 0.20216300E+03</pdfrwt>
<pdfrwt beam="2">  1       21 0.11195113E+00 0.20216300E+03</pdfrwt>
<totfact> 0.62533958E+04</totfact>
</mgrwt>
</event>
<event>
 4    1  0.4035350E+000  0.1756459E+03  0.7546771E-02  0.1172085E+00
         21   -1    0    0  501  502  0.00000000000E+00  0.00000000000E+00  0.11145647059E+04  0.11145647059E+04  0.00000000000E+00 0. -1.
         21   -1    0    0  502  503 -0.00000000000E+00 -0.00000000000E+00 -0.58874155946E+02  0.58874155946E+02  0.00000000000E+00 0. -1.
          6    1    1    2  501    0 -0.26710132696E+02 -0.14458279634E+02  0.95491888188E+03  0.97093848621E+03  0.17300000000E+03 0. -1.
         -6    1    1    2    0  503  0.26710132696E+02  0.14458279634E+02  0.10077166804E+03  0.20250037560E+03  0.17300000000E+03 0. -1.
<mgrwt>
<rscale>  2 0.17564587E+03</rscale>
<asrwt>0</asrwt>
<pdfrwt beam="1">  1       21 0.17147148E+00 0.17564587E+03</pdfrwt>
<pdfrwt beam="2">  1       21 0.90575633E-02 0.17564587E+03</pdfrwt>
<totfact> 0.20375502E+04</totfact>
</mgrwt>
</event>
<event>
 4    1  0.4035350E+000  0.3161689E+03  0.7546771E-02  0.1077426E+00
         21   -1    0    0  501  502  0.00000000000E+00  0.00000000000E+00  0.12189551500E+03  0.12189551500E+03  0.00000000000E+00 0. -1.
         21   -1    0    0  502  503 -0.00000000000E+00 -0.00000000000E+00 -0.83128055955E+03  0.83128055955E+03  0.00000000000E+00 0. -1.
          6    1    1    2  501    0  0.18174548789E+03  0.19235999606E+03 -0.41003941251E+03  0.51777901682E+03  0.17300000000E+03 0. -1.
         -6    1    1    2    0  503 -0.18174548789E+03 -0.19235999606E+03 -0.29934563204E+03  0.43539705772E+03  0.17300000000E+03 0. -1.
<mgrwt>
<rscale>  2 0.31616893E+03</rscale>
<asrwt>0</asrwt>
<pdfrwt beam="1">  1       21 0.18753156E-01 0.31616893E+03</pdfrwt>
<pdfrwt beam="2">  1       21 0.12788932E+00 0.31616893E+03</pdfrwt>
<totfact> 0.10925340E+04</totfact>
</mgrwt>
</event>
<event>
 4    1  0.4035350E+000  0.1896839E+03  0.7546771E-02  0.1158747E+00
         21   -1    0    0  503  502  0.00000000000E+00  0.00000000000E+00  0.22222372289E+03  0.22222372289E+03  0.00000000000E+00 0.  1.
         21   -1    0    0  501  503 -0.00000000000E+00 -0.00000000000E+00 -0.24627391159E+03  0.24627391159E+03  0.00000000000E+00 0.  1.
          6    1    1    2  501    0  0.75336390397E+02 -0.19375745658E+02 -0.14912888813E+03  0.24128700030E+03  0.17300000000E+03 0.  1.
         -6    1    1    2    0  502 -0.75336390397E+02  0.19375745658E+02  0.12507869943E+03  0.22721063419E+03  0.17300000000E+03 0.  1.
<mgrwt>
<rscale>  2 0.18968392E+03</rscale>
<asrwt>0</asrwt>
<pdfrwt beam="1">  1       21 0.34188265E-01 0.18968392E+03</pdfrwt>
<pdfrwt beam="2">  1       21 0.37888294E-01 0.18968392E+03</pdfrwt>
<totfact> 0.55460372E+04</totfact>
</mgrwt>
</event>
<event>
 4    1  0.4035350E+000  0.2519462E+03  0.7546771E-02  0.1112081E+00
         21   -1    0    0  501  502  0.00000000000E+00  0.00000000000E+00  0.25417057784E+03  0.25417057784E+03  0.00000000000E+00 0. -1.
         21   -1    0    0  502  503 -0.00000000000E+00 -0.00000000000E+00 -0.74511676315E+03  0.74511676315E+03  0.00000000000E+00 0. -1.
          6    1    1    2  501    0 -0.17608401214E+03 -0.50421532261E+02  0.16192166370E+03  0.29949212915E+03  0.17300000000E+03 0. -1.
         -6    1    1    2    0  503  0.17608401214E+03  0.50421532261E+02 -0.65286784901E+03  0.69979521185E+03  0.17300000000E+03 0. -1.
<mgrwt>
<rscale>  2 0.25194624E+03</rscale>
<asrwt>0</asrwt>
<pdfrwt beam="1">  1       21 0.39103166E-01 0.25194624E+03</pdfrwt>
<pdfrwt beam="2">  1       21 0.11463335E+00 0.25194624E+03</pdfrwt>
<totfact> 0.35620540E+03</totfact>
</mgrwt>
</event>
<event>
 4    1  0.4035350E+000  0.1902152E+03  0.7546771E-02  0.1158267E+00
         21   -1    0    0  503  502  0.00000000000E+00  0.00000000000E+00  0.50614388309E+03  0.50614388309E+03  0.00000000000E+00 0. -1.
         21   -1    0    0  501  503 -0.00000000000E+00 -0.00000000000E+00 -0.12226506238E+03  0.12226506238E+03  0.00000000000E+00 0. -1.
          6    1    1    2  501    0  0.12052648872E+02  0.78150768838E+02  0.39443092639E+03  0.43790131846E+03  0.17300000000E+03 0. -1.
         -6    1    1    2    0  502 -0.12052648872E+02 -0.78150768838E+02 -0.10552105684E+02  0.19050762701E+03  0.17300000000E+03 0. -1.
<mgrwt>
<rscale>  2 0.19021517E+03</rscale>
<asrwt>0</asrwt>
<pdfrwt beam="1">  1       21 0.77868289E-01 0.19021517E+03</pdfrwt>
<pdfrwt beam="2">  1       21 0.18810010E-01 0.19021517E+03</pdfrwt>
<totfact> 0.37872909E+04</totfact>
</mgrwt>
</event>
<event>
 4    1  0.4035350E+000  0.1899375E+03  0.7546771E-02  0.1158518E+00
         21   -1    0    0  503  502  0.00000000000E+00  0.00000000000E+00  0.16991937057E+03  0.16991937057E+03  0.00000000000E+00 0. -1.
         21   -1    0    0  501  503 -0.00000000000E+00 -0.00000000000E+00 -0.21557327751E+03  0.21557327751E+03  0.00000000000E+00 0. -1.
          6    1    1    2  501    0 -0.16484075730E+02  0.76652121875E+02 -0.46526764433E+02  0.19555309343E+03  0.17300000000E+03 0. -1.
         -6    1    1    2    0  502  0.16484075730E+02 -0.76652121875E+02  0.87285748811E+00  0.18993955465E+03  0.17300000000E+03 0. -1.
<mgrwt>
<rscale>  2 0.18993755E+03</rscale>
<asrwt>0</asrwt>
<pdfrwt beam="1">  1       21 0.26141442E-01 0.18993755E+03</pdfrwt>
<pdfrwt beam="2">  1       21 0.33165120E-01 0.18993755E+03</pdfrwt>
<totfact> 0.12185606E+05</totfact>
</mgrwt>
</event>
<event>
 4    1  0.4035350E+000  0.2289408E+03  0.7546771E-02  0.1127387E+00
         21   -1    0    0  503  502  0.00000000000E+00  0.00000000000E+00  0.89073452273E+02  0.89073452273E+02  0.00000000000E+00 0. -1.
         21   -1    0    0  501  503 -0.00000000000E+00 -0.00000000000E+00 -0.76226018831E+03  0.76226018831E+03  0.00000000000E+00 0. -1.
          6    1    1    2  501    0  0.50724565912E+02  0.14110958286E+03 -0.53986422054E+03  0.58640197184E+03  0.17300000000E+03 0. -1.
         -6    1    1    2    0  502 -0.50724565912E+02 -0.14110958286E+03 -0.13332251550E+03  0.26493166874E+03  0.17300000000E+03 0. -1.
<mgrwt>
<rscale>  2 0.22894081E+03</rscale>
<asrwt>0</asrwt>
<pdfrwt beam="1">  1       21 0.13703608E-01 0.22894081E+03</pdfrwt>
<pdfrwt beam="2">  1       21 0.11727080E+00 0.22894081E+03</pdfrwt>
<totfact> 0.25295857E+04</totfact>
</mgrwt>
</event>
<event>
 4    1  0.4035350E+000  0.1811297E+03  0.7546771E-02  0.1166714E+00
         21   -1    0    0  503  502  0.00000000000E+00  0.00000000000E+00  0.18488937902E+03  0.18488937902E+03  0.00000000000E+00 0.  1.
         21   -1    0    0  501  503 -0.00000000000E+00 -0.00000000000E+00 -0.34464322052E+03  0.34464322052E+03  0.00000000000E+00 0.  1.
          6    1    1    2  501    0  0.79722340943E+01  0.53060594998E+02 -0.26428996737E+03  0.32040157633E+03  0.17300000000E+03 0.  1.
         -6    1    1    2    0  502 -0.79722340943E+01 -0.53060594998E+02  0.10453612587E+03  0.20913102321E+03  0.17300000000E+03 0.  1.
<mgrwt>
<rscale>  2 0.18112974E+03</rscale>
<asrwt>0</asrwt>
<pdfrwt beam="1">  1       21 0.28444520E-01 0.18112974E+03</pdfrwt>
<pdfrwt beam="2">  1       21 0.53022034E-01 0.18112974E+03</pdfrwt>
<totfact> 0.40053007E+04</totfact>
</mgrwt>
</event>
<event>
 4    1  0.4035350E+000  0.1763496E+03  0.7546771E-02  0.1171383E+00
         21   -1    0    0  503  502  0.00000000000E+00  0.00000000000E+00  0.26957273810E+03  0.26957273810E+03  0.00000000000E+00 0.  1.
         21   -1    0    0  501  503 -0.00000000000E+00 -0.00000000000E+00 -0.12853900157E+03  0.12853900157E+03  0.00000000000E+00 0.  1.
          6    1    1    2  501    0 -0.31825066856E+02  0.12543226882E+02  0.67900877504E+01  0.17648023321E+03  0.17300000000E+03 0. -1.
         -6    1    1    2    0  502  0.31825066856E+02 -0.12543226882E+02  0.13424364878E+03  0.22163150646E+03  0.17300000000E+03 0. -1.
<mgrwt>
<rscale>  2 0.17634956E+03</rscale>
<asrwt>0</asrwt>
<pdfrwt beam="1">  1       21 0.41472729E-01 0.17634956E+03</pdfrwt>
<pdfrwt beam="2">  1       21 0.19775231E-01 0.17634956E+03</pdfrwt>
<totfact> 0.13271368E+05</totfact>
</mgrwt>
</event>
<event>
 4    1  0.4035350E+000  0.2021306E+03  0.7546771E-02  0.1147954E+00
         21   -1    0    0  501  502  0.00000000000E+00  0.00000000000E+00  0.11054731478E+03  0.11054731478E+03  0.00000000000E+00 0. -1.
         21   -1    0    0  502  503 -0.00000000000E+00 -0.00000000000E+00 -0.91826053481E+03  0.91826053481E+03  0.00000000000E+00 0. -1.
          6    1    1    2  501    0  0.10440107636E+03 -0.53116330116E+01 -0.62271924546E+01  0.20222654651E+03  0.17300000000E+03 0. -1.
         -6    1    1    2    0  503 -0.10440107636E+03  0.53116330116E+01 -0.80148602757E+03  0.82658130307E+03  0.17300000000E+03 0. -1.
<mgrwt>
<rscale>  2 0.20213065E+03</rscale>
<asrwt>0</asrwt>
<pdfrwt beam="1">  1       21 0.17007280E-01 0.20213065E+03</pdfrwt>
<pdfrwt beam="2">  1       21 0.14127085E+00 0.20213065E+03</pdfrwt>
<totfact> 0.10820937E+04</totfact>
</mgrwt>
</event>
<event>
 4    1  0.4035350E+000  0.2797488E+03  0.7546771E-02  0.1095826E+00
         21   -1    0    0  501  502  0.00000000000E+00  0.00000000000E+00  0.36969384439E+03  0.36969384439E+03  0.00000000000E+00 0.  1.
         21   -1    0    0  502  503 -0.00000000000E+00 -0.00000000000E+00 -0.72534022551E+03  0.72534022551E+03  0.00000000000E+00 0.  1.
          6    1    1    2  501    0  0.20553968281E+03  0.77998948952E+02  0.28292299189E+03  0.39787537821E+03  0.17300000000E+03 0.  1.
         -6    1    1    2    0  503 -0.20553968281E+03 -0.77998948952E+02 -0.63856937301E+03  0.69715869169E+03  0.17300000000E+03 0.  1.
<mgrwt>
<rscale>  2 0.27974881E+03</rscale>
<asrwt>0</asrwt>
<pdfrwt beam="1">  1       21 0.56875976E-01 0.27974881E+03</pdfrwt>
<pdfrwt beam="2">  1       21 0.11159080E+00 0.27974881E+03</pdfrwt>
<totfact> 0.17106903E+03</totfact>
</mgrwt>
</event>
<event>
 4    1  0.4035350E+000  0.2952841E+03  0.7546771E-02  0.1087622E+00
         21   -1    0    0  501  502  0.00000000000E+00  0.00000000000E+00  0.85727682677E+03  0.85727682677E+03  0.00000000000E+00 0. -1.
         21   -1    0    0  502  503 -0.00000000000E+00 -0.00000000000E+00 -0.12752487614E+03  0.12752487614E+03  0.00000000000E+00 0. -1.
          6    1    1    2  501    0  0.94628654914E+02  0.21979333997E+03  0.58642278573E+03  0.65657016247E+03  0.17300000000E+03 0. -1.
         -6    1    1    2    0  503 -0.94628654914E+02 -0.21979333997E+03  0.14332916491E+03  0.32823154044E+03  0.17300000000E+03 0. -1.
<mgrwt>
<rscale>  2 0.29528409E+03</rscale>
<asrwt>0</asrwt>
<pdfrwt beam="1">  1       21 0.13188874E+00 0.29528409E+03</pdfrwt>
<pdfrwt beam="2">  1       21 0.19619212E-01 0.29528409E+03</pdfrwt>
<totfact> 0.93659212E+03</totfact>
</mgrwt>
</event>
<event>
 4    1  0.4035350E+000  0.2009952E+03  0.7546771E-02  0.1148902E+00
         21   -1    0    0  501  502  0.00000000000E+00  0.00000000000E+00  0.23473919961E+03  0.23473919961E+03  0.00000000000E+00 0.  1.
         21   -1    0    0  502  503 -0.00000000000E+00 -0.00000000000E+00 -0.17466346110E+03  0.17466346110E+03  0.00000000000E+00 0. -1.
          6    1    1    2  501    0 -0.34920593077E+02  0.96180224139E+02  0.54827176005E+02  0.20833891275E+03  0.17300000000E+03 0.  1.
         -6    1    1    2    0  503  0.34920593077E+02 -0.96180224139E+02  0.52485625010E+01  0.20106374796E+03  0.17300000000E+03 0. -1.
<mgrwt>
<rscale>  2 0.20099523E+03</rscale>
<asrwt>0</asrwt>
<pdfrwt beam="1">  1       21 0.36113723E-01 0.20099523E+03</pdfrwt>
<pdfrwt beam="2">  1       21 0.26871302E-01 0.20099523E+03</pdfrwt>
<totfact> 0.97198363E+04</totfact>
</mgrwt>
</event>
<event>
 4    1  0.4035350E+000  0.2104167E+03  0.7546771E-02  0.1141236E+00
         21   -1    0    0  503  502  0.00000000000E+00  0.00000000000E+00  0.73869075501E+03  0.73869075501E+03  0.00000000000E+00 0. -1.
         21   -1    0    0  501  503 -0.00000000000E+00 -0.00000000000E+00 -0.68912280260E+02  0.68912280260E+02  0.00000000000E+00 0. -1.
          6    1    1    2  501    0 -0.61488946045E+00  0.11977405258E+03  0.18916425309E+03  0.28294578352E+03  0.17300000000E+03 0. -1.
         -6    1    1    2    0  502  0.61488946045E+00 -0.11977405258E+03  0.48061422166E+03  0.52465725175E+03  0.17300000000E+03 0. -1.
<mgrwt>
<rscale>  2 0.21041673E+03</rscale>
<asrwt>0</asrwt>
<pdfrwt beam="1">  1       21 0.11364473E+00 0.21041673E+03</pdfrwt>
<pdfrwt beam="2">  1       21 0.10601890E-01 0.21041673E+03</pdfrwt>
<totfact> 0.43735695E+04</totfact>
</mgrwt>
</event>
<event>
 4    1  0.4035350E+000  0.1817592E+03  0.7546771E-02  0.1166111E+00
         21   -1    0    0  503  502  0.00000000000E+00  0.00000000000E+00  0.28779657652E+03  0.28779657652E+03  0.00000000000E+00 0.  1.
         21   -1    0    0  501  503 -0.00000000000E+00 -0.00000000000E+00 -0.28248204710E+03  0.28248204710E+03  0.00000000000E+00 0.  1.
          6    1    1    2  501    0 -0.47559468535E+02  0.29077534075E+02 -0.21703604820E+03  0.28309195018E+03  0.17300000000E+03 0.  1.
         -6    1    1    2    0  502  0.47559468535E+02 -0.29077534075E+02  0.22235057762E+03  0.28718667344E+03  0.17300000000E+03 0.  1.
<mgrwt>
<rscale>  2 0.18175920E+03</rscale>
<asrwt>0</asrwt>
<pdfrwt beam="1">  1       21 0.44276396E-01 0.18175920E+03</pdfrwt>
<pdfrwt beam="2">  1       21 0.43458776E-01 0.18175920E+03</pdfrwt>
<totfact> 0.25085298E+04</totfact>
</mgrwt>
</event>
<event>
 4    1  0.4035350E+000  0.1873096E+03  0.7546771E-02  0.1160910E+00
         21   -1    0    0  501  502  0.00000000000E+00  0.00000000000E+00  0.21292324375E+03  0.21292324375E+03  0.00000000000E+00 0.  1.
         21   -1    0    0  502  503 -0.00000000000E+00 -0.00000000000E+00 -0.18423247350E+03  0.18423247350E+03  0.00000000000E+00 0.  1.
          6    1    1    2  501    0 -0.53308745355E+02 -0.48104819859E+02 -0.50185317874E+02  0.19391612144E+03  0.17300000000E+03 0.  1.
         -6    1    1    2    0  503  0.53308745355E+02  0.48104819859E+02  0.78876088121E+02  0.20323959580E+03  0.17300000000E+03 0.  1.
<mgrwt>
<rscale>  2 0.18730963E+03</rscale>
<asrwt>0</asrwt>
<pdfrwt beam="1">  1       21 0.32757422E-01 0.18730963E+03</pdfrwt>
<pdfrwt beam="2">  1       21 0.28343458E-01 0.18730963E+03</pdfrwt>
<totfact> 0.10694716E+05</totfact>
</mgrwt>
</event>
<event>
 4    1  0.4035350E+000  0.2152444E+03  0.7546771E-02  0.1137479E+00
         21   -1    0    0  501  502  0.00000000000E+00  0.00000000000E+00  0.11686113580E+04  0.11686113580E+04  0.00000000000E+00 0.  1.
         21   -1    0    0  502  503 -0.00000000000E+00 -0.00000000000E+00 -0.45158703887E+02  0.45158703887E+02  0.00000000000E+00 0. -1.
          6    1    1    2  501    0 -0.12696022356E+03 -0.16800306287E+02  0.77377659632E+03  0.80315650384E+03  0.17300000000E+03 0.  1.
         -6    1    1    2    0  503  0.12696022356E+03  0.16800306287E+02  0.34967605784E+03  0.41061355808E+03  0.17300000000E+03 0. -1.
<mgrwt>
<rscale>  2 0.21524439E+03</rscale>
<asrwt>0</asrwt>
<pdfrwt beam="1">  1       21 0.17978634E+00 0.21524439E+03</pdfrwt>
<pdfrwt beam="2">  1       21 0.69474938E-02 0.21524439E+03</pdfrwt>
<totfact> 0.27558670E+04</totfact>
</mgrwt>
</event>
<event>
 4    1  0.4035350E+000  0.1990642E+03  0.7546771E-02  0.1150531E+00
         21   -1    0    0  503  502  0.00000000000E+00  0.00000000000E+00  0.19999894236E+03  0.19999894236E+03  0.00000000000E+00 0.  1.
         21   -1    0    0  501  503 -0.00000000000E+00 -0.00000000000E+00 -0.79051434759E+03  0.79051434759E+03  0.00000000000E+00 0.  1.
          6    1    1    2  501    0 -0.98385105690E+02  0.42349300262E+01 -0.72397973533E+03  0.75084833410E+03  0.17300000000E+03 0.  1.
         -6    1    1    2    0  502  0.98385105690E+02 -0.42349300262E+01  0.13346433010E+03  0.23966495585E+03  0.17300000000E+03 0.  1.
<mgrwt>
<rscale>  2 0.19906422E+03</rscale>
<asrwt>0</asrwt>
<pdfrwt beam="1">  1       21 0.30769067E-01 0.19906422E+03</pdfrwt>
<pdfrwt beam="2">  1       21 0.12161759E+00 0.19906422E+03</pdfrwt>
<totfact> 0.51543228E+03</totfact>
</mgrwt>
</event>
<event>
 4    1  0.4035350E+000  0.3104222E+03  0.7546771E-02  0.1080144E+00
         21   -1    0    0  501  502  0.00000000000E+00  0.00000000000E+00  0.62078853611E+03  0.62078853611E+03  0.00000000000E+00 0.  1.
         21   -1    0    0  502  503 -0.00000000000E+00 -0.00000000000E+00 -0.27467287880E+03  0.27467287880E+03  0.00000000000E+00 0. -1.
          6    1    1    2  501    0 -0.12038844163E+03  0.22790260035E+03  0.46831333308E+03  0.56185349520E+03  0.17300000000E+03 0.  1.
         -6    1    1    2    0  503  0.12038844163E+03 -0.22790260035E+03 -0.12219767578E+03  0.33360791971E+03  0.17300000000E+03 0. -1.
<mgrwt>
<rscale>  2 0.31042225E+03</rscale>
<asrwt>0</asrwt>
<pdfrwt beam="1">  1       21 0.95505928E-01 0.31042225E+03</pdfrwt>
<pdfrwt beam="2">  1       21 0.42257366E-01 0.31042225E+03</pdfrwt>
<totfact> 0.45739212E+03</totfact>
</mgrwt>
</event>
<event>
 4    1  0.4035350E+000  0.1798972E+03  0.7546771E-02  0.1167903E+00
         21   -1    0    0  501  502  0.00000000000E+00  0.00000000000E+00  0.23497061750E+03  0.23497061750E+03  0.00000000000E+00 0.  1.
         21   -1    0    0  502  503 -0.00000000000E+00 -0.00000000000E+00 -0.14210686168E+03  0.14210686168E+03  0.00000000000E+00 0. -1.
          6    1    1    2  501    0  0.27686057812E+01  0.49258036515E+02  0.13351880372E+02  0.18039205096E+03  0.17300000000E+03 0.  1.
         -6    1    1    2    0  503 -0.27686057812E+01 -0.49258036515E+02  0.79511875443E+02  0.19668542822E+03  0.17300000000E+03 0. -1.
<mgrwt>
<rscale>  2 0.17989725E+03</rscale>
<asrwt>0</asrwt>
<pdfrwt beam="1">  1       21 0.36149326E-01 0.17989725E+03</pdfrwt>
<pdfrwt beam="2">  1       21 0.21862594E-01 0.17989725E+03</pdfrwt>
<totfact> 0.14474213E+05</totfact>
</mgrwt>
</event>
<event>
 4    1  0.4035350E+000  0.1774132E+03  0.7546771E-02  0.1170330E+00
         21   -1    0    0  503  502  0.00000000000E+00  0.00000000000E+00  0.56000354119E+03  0.56000354119E+03  0.00000000000E+00 0.  1.
         21   -1    0    0  501  503 -0.00000000000E+00 -0.00000000000E+00 -0.57979712733E+02  0.57979712733E+02  0.00000000000E+00 0.  1.
          6    1    1    2  501    0  0.10191722943E+02 -0.37981029940E+02  0.19696404674E+03  0.26508539296E+03  0.17300000000E+03 0.  1.
         -6    1    1    2    0  502 -0.10191722943E+02  0.37981029940E+02  0.30505978172E+03  0.35289786096E+03  0.17300000000E+03 0.  1.
<mgrwt>
<rscale>  2 0.17741316E+03</rscale>
<asrwt>0</asrwt>
<pdfrwt beam="1">  1       21 0.86154387E-01 0.17741316E+03</pdfrwt>
<pdfrwt beam="2">  1       21 0.89199562E-02 0.17741316E+03</pdfrwt>
<totfact> 0.11595165E+05</totfact>
</mgrwt>
</event>
<event>
 4    1  0.4035350E+000  0.1847795E+03  0.7546771E-02  0.1163256E+00
         21   -1    0    0  501  502  0.00000000000E+00  0.00000000000E+00  0.33452333912E+02  0.33452333912E+02  0.00000000000E+00 0. -1.
         21   -1    0    0  502  503 -0.00000000000E+00 -0.00000000000E+00 -0.17536506557E+04  0.17536506557E+04  0.00000000000E+00 0. -1.
          6    1    1    2  501    0  0.31217976559E+02  0.56920251020E+02 -0.28240616079E+03  0.33748587628E+03  0.17300000000E+03 0. -1.
         -6    1    1    2    0  503 -0.31217976559E+02 -0.56920251020E+02 -0.14377921610E+04  0.14496171133E+04  0.17300000000E+03 0. -1.
<mgrwt>
<rscale>  2 0.18477954E+03</rscale>
<asrwt>0</asrwt>
<pdfrwt beam="1">  1       21 0.51465139E-02 0.18477954E+03</pdfrwt>
<pdfrwt beam="2">  1       21 0.26979236E+00 0.18477954E+03</pdfrwt>
<totfact> 0.13158132E+04</totfact>
</mgrwt>
</event>
<event>
 4    1  0.4035350E+000  0.2114656E+03  0.7546771E-02  0.1140411E+00
         21   -1    0    0  501  502  0.00000000000E+00  0.00000000000E+00  0.59572837251E+03  0.59572837251E+03  0.00000000000E+00 0.  1.
         21   -1    0    0  502  503 -0.00000000000E+00 -0.00000000000E+00 -0.10978285469E+03  0.10978285469E+03  0.00000000000E+00 0.  1.
          6    1    1    2  501    0 -0.29447117412E+02 -0.11798969815E+03  0.44134912249E+03  0.48939426797E+03  0.17300000000E+03 0.  1.
         -6    1    1    2    0  503  0.29447117412E+02  0.11798969815E+03  0.44596395333E+02  0.21611695924E+03  0.17300000000E+03 0.  1.
<mgrwt>
<rscale>  2 0.21146560E+03</rscale>
<asrwt>0</asrwt>
<pdfrwt beam="1">  1       21 0.91650517E-01 0.21146560E+03</pdfrwt>
<pdfrwt beam="2">  1       21 0.16889670E-01 0.21146560E+03</pdfrwt>
<totfact> 0.31471329E+04</totfact>
</mgrwt>
</event>
<event>
 4    1  0.4035350E+000  0.2087175E+03  0.7546771E-02  0.1142586E+00
         21   -1    0    0  501  502  0.00000000000E+00  0.00000000000E+00  0.34696536822E+03  0.34696536822E+03  0.00000000000E+00 0.  1.
         21   -1    0    0  502  503 -0.00000000000E+00 -0.00000000000E+00 -0.38213227302E+03  0.38213227302E+03  0.00000000000E+00 0.  1.
          6    1    1    2  501    0  0.11395338411E+03 -0.25467687298E+02  0.28113260276E+03  0.35014071054E+03  0.17300000000E+03 0.  1.
         -6    1    1    2    0  503 -0.11395338411E+03  0.25467687298E+02 -0.31629950756E+03  0.37895693070E+03  0.17300000000E+03 0.  1.
<mgrwt>
<rscale>  2 0.20871746E+03</rscale>
<asrwt>0</asrwt>
<pdfrwt beam="1">  1       21 0.53379287E-01 0.20871746E+03</pdfrwt>
<pdfrwt beam="2">  1       21 0.58789580E-01 0.20871746E+03</pdfrwt>
<totfact> 0.88935008E+03</totfact>
</mgrwt>
</event>
<event>
 4    1  0.4035350E+000  0.1842238E+03  0.7546771E-02  0.1163777E+00
         21   -1    0    0  501  502  0.00000000000E+00  0.00000000000E+00  0.70893962737E+02  0.70893962737E+02  0.00000000000E+00 0.  1.
         21   -1    0    0  502  503 -0.00000000000E+00 -0.00000000000E+00 -0.48145448672E+03  0.48145448672E+03  0.00000000000E+00 0.  1.
          6    1    1    2  501    0 -0.18935318437E+02 -0.60422248270E+02 -0.18446880373E+03  0.26070507076E+03  0.17300000000E+03 0.  1.
         -6    1    1    2    0  503  0.18935318437E+02  0.60422248270E+02 -0.22609172025E+03  0.29164337869E+03  0.17300000000E+03 0.  1.
<mgrwt>
<rscale>  2 0.18422376E+03</rscale>
<asrwt>0</asrwt>
<pdfrwt beam="1">  1       21 0.10906763E-01 0.18422376E+03</pdfrwt>
<pdfrwt beam="2">  1       21 0.74069922E-01 0.18422376E+03</pdfrwt>
<totfact> 0.11410263E+05</totfact>
</mgrwt>
</event>
<event>
 4    1  0.4035350E+000  0.2216501E+03  0.7546771E-02  0.1132659E+00
         21   -1    0    0  503  502  0.00000000000E+00  0.00000000000E+00  0.98035742589E+03  0.98035742589E+03  0.00000000000E+00 0.  1.
         21   -1    0    0  501  503 -0.00000000000E+00 -0.00000000000E+00 -0.88075809071E+02  0.88075809071E+02  0.00000000000E+00 0.  1.
          6    1    1    2  501    0  0.11468356514E+03  0.77765228322E+02  0.95415048981E+02  0.24131469582E+03  0.17300000000E+03 0.  1.
         -6    1    1    2    0  502 -0.11468356514E+03 -0.77765228322E+02  0.79686656784E+03  0.82711853914E+03  0.17300000000E+03 0.  1.
<mgrwt>
<rscale>  2 0.22165006E+03</rscale>
<asrwt>0</asrwt>
<pdfrwt beam="1">  1       21 0.15082421E+00 0.22165006E+03</pdfrwt>
<pdfrwt beam="2">  1       21 0.13550125E-01 0.22165006E+03</pdfrwt>
<totfact> 0.13619924E+04</totfact>
</mgrwt>
</event>
<event>
 4    1  0.4035350E+000  0.3708861E+03  0.7546771E-02  0.1054355E+00
         21   -1    0    0  503  502  0.00000000000E+00  0.00000000000E+00  0.15270659649E+04  0.15270659649E+04  0.00000000000E+00 0.  1.
         21   -1    0    0  501  503 -0.00000000000E+00 -0.00000000000E+00 -0.17921916907E+03  0.17921916907E+03  0.00000000000E+00 0. -1.
          6    1    1    2  501    0  0.18198779872E+03 -0.27296148967E+03  0.72242568585E+02  0.37785648392E+03  0.17300000000E+03 0. -1.
         -6    1    1    2    0  502 -0.18198779872E+03  0.27296148967E+03  0.12756042272E+04  0.13284286501E+04  0.17300000000E+03 0.  1.
<mgrwt>
<rscale>  2 0.37088615E+03</rscale>
<asrwt>0</asrwt>
<pdfrwt beam="1">  1       21 0.23493322E+00 0.37088615E+03</pdfrwt>
<pdfrwt beam="2">  1       21 0.27572181E-01 0.37088615E+03</pdfrwt>
<totfact> 0.88097243E+02</totfact>
</mgrwt>
</event>
<event>
 4    1  0.4035350E+000  0.1731719E+03  0.7546771E-02  0.1174580E+00
         21   -1    0    0  503  502  0.00000000000E+00  0.00000000000E+00  0.33554748871E+03  0.33554748871E+03  0.00000000000E+00 0. -1.
         21   -1    0    0  501  503 -0.00000000000E+00 -0.00000000000E+00 -0.10510435753E+03  0.10510435753E+03  0.00000000000E+00 0. -1.
          6    1    1    2  501    0 -0.74509894939E+01 -0.19967153863E+01  0.29979486201E+02  0.17574775592E+03  0.17300000000E+03 0. -1.
         -6    1    1    2    0  502  0.74509894939E+01  0.19967153863E+01  0.20046364498E+03  0.26490409033E+03  0.17300000000E+03 0. -1.
<mgrwt>
<rscale>  2 0.17317189E+03</rscale>
<asrwt>0</asrwt>
<pdfrwt beam="1">  1       21 0.51622690E-01 0.17317189E+03</pdfrwt>
<pdfrwt beam="2">  1       21 0.16169901E-01 0.17317189E+03</pdfrwt>
<totfact> 0.12275359E+05</totfact>
</mgrwt>
</event>
<event>
 4    1  0.4035350E+000  0.1784594E+03  0.7546771E-02  0.1169302E+00
         21   -1    0    0  501  502  0.00000000000E+00  0.00000000000E+00  0.29918340880E+03  0.29918340880E+03  0.00000000000E+00 0.  1.
         21   -1    0    0  502  503 -0.00000000000E+00 -0.00000000000E+00 -0.13157151499E+03  0.13157151499E+03  0.00000000000E+00 0.  1.
          6    1    1    2  501    0  0.34611706013E+02 -0.26847726897E+02  0.17791924457E+03  0.25199807186E+03  0.17300000000E+03 0.  1.
         -6    1    1    2    0  503 -0.34611706013E+02  0.26847726897E+02 -0.10307350762E+02  0.17875685193E+03  0.17300000000E+03 0.  1.
<mgrwt>
<rscale>  2 0.17845944E+03</rscale>
<asrwt>0</asrwt>
<pdfrwt beam="1">  1       21 0.46028217E-01 0.17845944E+03</pdfrwt>
<pdfrwt beam="2">  1       21 0.20241772E-01 0.17845944E+03</pdfrwt>
<totfact> 0.10264235E+05</totfact>
</mgrwt>
</event>
<event>
 4    1  0.4035350E+000  0.1759246E+03  0.7546771E-02  0.1171807E+00
         21   -1    0    0  503  502  0.00000000000E+00  0.00000000000E+00  0.32047385807E+03  0.32047385807E+03  0.00000000000E+00 0.  1.
         21   -1    0    0  501  503 -0.00000000000E+00 -0.00000000000E+00 -0.20722039414E+03  0.20722039414E+03  0.00000000000E+00 0. -1.
          6    1    1    2  501    0 -0.31624541409E+02 -0.45105407431E+01 -0.13617221870E+03  0.22246871633E+03  0.17300000000E+03 0. -1.
         -6    1    1    2    0  502  0.31624541409E+02  0.45105407431E+01  0.24942568263E+03  0.30522553588E+03  0.17300000000E+03 0.  1.
<mgrwt>
<rscale>  2 0.17592458E+03</rscale>
<asrwt>0</asrwt>
<pdfrwt beam="1">  1       21 0.49303671E-01 0.17592458E+03</pdfrwt>
<pdfrwt beam="2">  1       21 0.31880060E-01 0.17592458E+03</pdfrwt>
<totfact> 0.37443163E+04</totfact>
</mgrwt>
</event>
<event>
 4    1  0.4035350E+000  0.1860486E+03  0.7546771E-02  0.1162074E+00
         21   -1    0    0  503  502  0.00000000000E+00  0.00000000000E+00  0.51160632750E+02  0.51160632750E+02  0.00000000000E+00 0.  1.
         21   -1    0    0  501  503 -0.00000000000E+00 -0.00000000000E+00 -0.83275306460E+03  0.83275306460E+03  0.00000000000E+00 0.  1.
          6    1    1    2  501    0 -0.88434912406E+01  0.67873965910E+02 -0.58219080735E+03  0.61119572867E+03  0.17300000000E+03 0.  1.
         -6    1    1    2    0  502  0.88434912406E+01 -0.67873965910E+02 -0.19940162450E+03  0.27271796868E+03  0.17300000000E+03 0.  1.
<mgrwt>
<rscale>  2 0.18604860E+03</rscale>
<asrwt>0</asrwt>
<pdfrwt beam="1">  1       21 0.78708666E-02 0.18604860E+03</pdfrwt>
<pdfrwt beam="2">  1       21 0.12811586E+00 0.18604860E+03</pdfrwt>
<totfact> 0.55548055E+04</totfact>
</mgrwt>
</event>
<event>
 4    1  0.4035350E+000  0.1833690E+03  0.7546771E-02  0.1164582E+00
         21   -1    0    0  501  502  0.00000000000E+00  0.00000000000E+00  0.52073227528E+03  0.52073227528E+03  0.00000000000E+00 0. -1.
         21   -1    0    0  502  503 -0.00000000000E+00 -0.00000000000E+00 -0.11768421666E+03  0.11768421666E+03  0.00000000000E+00 0. -1.
          6    1    1    2  501    0  0.46883508422E+02 -0.38692747540E+02  0.41596925661E+03  0.45459280078E+03  0.17300000000E+03 0. -1.
         -6    1    1    2    0  503 -0.46883508422E+02  0.38692747540E+02 -0.12921197989E+02  0.18382369116E+03  0.17300000000E+03 0. -1.
<mgrwt>
<rscale>  2 0.18336901E+03</rscale>
<asrwt>0</asrwt>
<pdfrwt beam="1">  1       21 0.80112656E-01 0.18336901E+03</pdfrwt>
<pdfrwt beam="2">  1       21 0.18105264E-01 0.18336901E+03</pdfrwt>
<totfact> 0.38261576E+04</totfact>
</mgrwt>
</event>
<event>
 4    1  0.4035350E+000  0.3214151E+03  0.7546771E-02  0.1075000E+00
         21   -1    0    0  501  502  0.00000000000E+00  0.00000000000E+00  0.21106312011E+03  0.21106312011E+03  0.00000000000E+00 0. -1.
         21   -1    0    0  502  503 -0.00000000000E+00 -0.00000000000E+00 -0.78612986577E+03  0.78612986577E+03  0.00000000000E+00 0. -1.
          6    1    1    2  501    0  0.45924772068E+02 -0.26696364170E+03  0.18759087465E+02  0.32196206926E+03  0.17300000000E+03 0. -1.
         -6    1    1    2    0  503 -0.45924772068E+02  0.26696364170E+03 -0.59382583313E+03  0.67523091662E+03  0.17300000000E+03 0. -1.
<mgrwt>
<rscale>  2 0.32141511E+03</rscale>
<asrwt>0</asrwt>
<pdfrwt beam="1">  1       21 0.32471250E-01 0.32141511E+03</pdfrwt>
<pdfrwt beam="2">  1       21 0.12094306E+00 0.32141511E+03</pdfrwt>
<totfact> 0.43509445E+03</totfact>
</mgrwt>
</event>
<event>
 4    1  0.4035350E+000  0.2635944E+03  0.7546771E-02  0.1105003E+00
         21   -1    0    0  501  502  0.00000000000E+00  0.00000000000E+00  0.48699274059E+02  0.48699274059E+02  0.00000000000E+00 0. -1.
         21   -1    0    0  502  503 -0.00000000000E+00 -0.00000000000E+00 -0.14629958073E+04  0.14629958073E+04  0.00000000000E+00 0.  1.
          6    1    1    2  501    0  0.19358980091E+03 -0.45562864165E+02 -0.58818713337E+03  0.64455107592E+03  0.17300000000E+03 0.  1.
         -6    1    1    2    0  503 -0.19358980091E+03  0.45562864165E+02 -0.82610939983E+03  0.86714400540E+03  0.17300000000E+03 0.  1.
<mgrwt>
<rscale>  2 0.26359436E+03</rscale>
<asrwt>0</asrwt>
<pdfrwt beam="1">  1       21 0.74921970E-02 0.26359436E+03</pdfrwt>
<pdfrwt beam="2">  1       21 0.22507625E+00 0.26359436E+03</pdfrwt>
<totfact> 0.11934443E+04</totfact>
</mgrwt>
</event>
<event>
 4    1  0.4035350E+000  0.2424352E+03  0.7546771E-02  0.1118181E+00
         21   -1    0    0  501  502  0.00000000000E+00  0.00000000000E+00  0.14753606012E+03  0.14753606012E+03  0.00000000000E+00 0. -1.
         21   -1    0    0  502  503 -0.00000000000E+00 -0.00000000000E+00 -0.78825704938E+03  0.78825704938E+03  0.00000000000E+00 0.  1.
          6    1    1    2  501    0 -0.16745925596E+03  0.28341599962E+02  0.87046560954E+01  0.24259146673E+03  0.17300000000E+03 0. -1.
         -6    1    1    2    0  503  0.16745925596E+03 -0.28341599962E+02 -0.64942564536E+03  0.69320164277E+03  0.17300000000E+03 0.  1.
<mgrwt>
<rscale>  2 0.24243525E+03</rscale>
<asrwt>0</asrwt>
<pdfrwt beam="1">  1       21 0.22697855E-01 0.24243525E+03</pdfrwt>
<pdfrwt beam="2">  1       21 0.12127032E+00 0.24243525E+03</pdfrwt>
<totfact> 0.90525898E+03</totfact>
</mgrwt>
</event>
<event>
 4    1  0.4035350E+000  0.3223034E+03  0.7546771E-02  0.1074594E+00
         21   -1    0    0  503  502  0.00000000000E+00  0.00000000000E+00  0.25231902820E+03  0.25231902820E+03  0.00000000000E+00 0. -1.
         21   -1    0    0  501  503 -0.00000000000E+00 -0.00000000000E+00 -0.48209957862E+03  0.48209957862E+03  0.00000000000E+00 0.  1.
          6    1    1    2  501    0  0.26066542808E+01  0.27192588062E+03  0.25434244857E+02  0.32330539743E+03  0.17300000000E+03 0. -1.
         -6    1    1    2    0  502 -0.26066542808E+01 -0.27192588062E+03 -0.25521479528E+03  0.41111320938E+03  0.17300000000E+03 0.  1.
<mgrwt>
<rscale>  2 0.32230340E+03</rscale>
<asrwt>0</asrwt>
<pdfrwt beam="1">  1       21 0.38818312E-01 0.32230340E+03</pdfrwt>
<pdfrwt beam="2">  1       21 0.74169165E-01 0.32230340E+03</pdfrwt>
<totfact> 0.97185475E+03</totfact>
</mgrwt>
</event>
<event>
 4    1  0.4035350E+000  0.1766693E+03  0.7546771E-02  0.1171066E+00
         21   -1    0    0  501  502  0.00000000000E+00  0.00000000000E+00  0.14384444404E+03  0.14384444404E+03  0.00000000000E+00 0. -1.
         21   -1    0    0  502  503 -0.00000000000E+00 -0.00000000000E+00 -0.22843803739E+03  0.22843803739E+03  0.00000000000E+00 0. -1.
          6    1    1    2  501    0 -0.13322817696E+02  0.33249696739E+02 -0.61706511939E+00  0.17667037265E+03  0.17300000000E+03 0. -1.
         -6    1    1    2    0  503  0.13322817696E+02 -0.33249696739E+02 -0.83976528236E+02  0.19561210877E+03  0.17300000000E+03 0. -1.
<mgrwt>
<rscale>  2 0.17666930E+03</rscale>
<asrwt>0</asrwt>
<pdfrwt beam="1">  1       21 0.22129914E-01 0.17666930E+03</pdfrwt>
<pdfrwt beam="2">  1       21 0.35144314E-01 0.17666930E+03</pdfrwt>
<totfact> 0.14977656E+05</totfact>
</mgrwt>
</event>
<event>
 4    1  0.4035350E+000  0.2360812E+03  0.7546771E-02  0.1122431E+00
         21   -1    0    0  501  502  0.00000000000E+00  0.00000000000E+00  0.10812277177E+03  0.10812277177E+03  0.00000000000E+00 0. -1.
         21   -1    0    0  502  503 -0.00000000000E+00 -0.00000000000E+00 -0.52086001729E+03  0.52086001729E+03  0.00000000000E+00 0.  1.
          6    1    1    2  501    0 -0.15715784926E+03  0.33267897586E+02 -0.23835260116E+03  0.33547921705E+03  0.17300000000E+03 0. -1.
         -6    1    1    2    0  503  0.15715784926E+03 -0.33267897586E+02 -0.17438464436E+03  0.29350357201E+03  0.17300000000E+03 0. -1.
<mgrwt>
<rscale>  2 0.23608122E+03</rscale>
<asrwt>0</asrwt>
<pdfrwt beam="1">  1       21 0.16634272E-01 0.23608122E+03</pdfrwt>
<pdfrwt beam="2">  1       21 0.80132311E-01 0.23608122E+03</pdfrwt>
<totfact> 0.43564219E+04</totfact>
</mgrwt>
</event>
<event>
 4    1  0.4035350E+000  0.2008411E+03  0.7546771E-02  0.1149031E+00
         21   -1    0    0  501  502  0.00000000000E+00  0.00000000000E+00  0.23952629674E+03  0.23952629674E+03  0.00000000000E+00 0.  1.
         21   -1    0    0  502  503 -0.00000000000E+00 -0.00000000000E+00 -0.18009734658E+03  0.18009734658E+03  0.00000000000E+00 0. -1.
          6    1    1    2  501    0 -0.59062644918E+02 -0.83185036162E+02  0.83176921218E+02  0.21738340896E+03  0.17300000000E+03 0.  1.
         -6    1    1    2    0  503  0.59062644918E+02  0.83185036162E+02 -0.23747971063E+02  0.20224023436E+03  0.17300000000E+03 0. -1.
<mgrwt>
<rscale>  2 0.20084110E+03</rscale>
<asrwt>0</asrwt>
<pdfrwt beam="1">  1       21 0.36850199E-01 0.20084110E+03</pdfrwt>
<pdfrwt beam="2">  1       21 0.27707284E-01 0.20084110E+03</pdfrwt>
<totfact> 0.88003590E+04</totfact>
</mgrwt>
</event>
<event>
 4    1  0.4035350E+000  0.2513707E+03  0.7546771E-02  0.1112442E+00
         21   -1    0    0  501  502  0.00000000000E+00  0.00000000000E+00  0.19247149814E+04  0.19247149814E+04  0.00000000000E+00 0. -1.
         21   -1    0    0  502  503 -0.00000000000E+00 -0.00000000000E+00 -0.49820200749E+02  0.49820200749E+02  0.00000000000E+00 0. -1.
          6    1    1    2  501    0 -0.18094038518E+03  0.22777180986E+02  0.15140002991E+04  0.15347260761E+04  0.17300000000E+03 0. -1.
         -6    1    1    2    0  503  0.18094038518E+03 -0.22777180986E+02  0.36089448160E+03  0.43980910610E+03  0.17300000000E+03 0. -1.
<mgrwt>
<rscale>  2 0.25137069E+03</rscale>
<asrwt>0</asrwt>
<pdfrwt beam="1">  1       21 0.29610994E+00 0.25137069E+03</pdfrwt>
<pdfrwt beam="2">  1       21 0.76646478E-02 0.25137069E+03</pdfrwt>
<totfact> 0.43751270E+03</totfact>
</mgrwt>
</event>
<event>
 4    1  0.4035350E+000  0.1898362E+03  0.7546771E-02  0.1158609E+00
         21   -1    0    0  501  502  0.00000000000E+00  0.00000000000E+00  0.57455563190E+02  0.57455563190E+02  0.00000000000E+00 0. -1.
         21   -1    0    0  502  503 -0.00000000000E+00 -0.00000000000E+00 -0.12827602434E+04  0.12827602434E+04  0.00000000000E+00 0. -1.
          6    1    1    2  501    0 -0.74666956323E+02 -0.23100336930E+02 -0.13361564598E+03  0.23214418103E+03  0.17300000000E+03 0. -1.
         -6    1    1    2    0  503  0.74666956323E+02  0.23100336930E+02 -0.10916890342E+04  0.11080716256E+04  0.17300000000E+03 0. -1.
<mgrwt>
<rscale>  2 0.18983619E+03</rscale>
<asrwt>0</asrwt>
<pdfrwt beam="1">  1       21 0.88393173E-02 0.18983619E+03</pdfrwt>
<pdfrwt beam="2">  1       21 0.19734773E+00 0.18983619E+03</pdfrwt>
<totfact> 0.14111551E+04</totfact>
</mgrwt>
</event>
<event>
 4    1  0.4035350E+000  0.2058650E+03  0.7546771E-02  0.1144883E+00
         21   -1    0    0  503  502  0.00000000000E+00  0.00000000000E+00  0.38114495756E+03  0.38114495756E+03  0.00000000000E+00 0.  1.
         21   -1    0    0  501  503 -0.00000000000E+00 -0.00000000000E+00 -0.18727546193E+03  0.18727546193E+03  0.00000000000E+00 0.  1.
          6    1    1    2  501    0 -0.10951383875E+03  0.21403944514E+02 -0.84217331803E+02  0.22242519798E+03  0.17300000000E+03 0.  1.
         -6    1    1    2    0  502  0.10951383875E+03 -0.21403944514E+02  0.27808682743E+03  0.34599522151E+03  0.17300000000E+03 0.  1.
<mgrwt>
<rscale>  2 0.20586503E+03</rscale>
<asrwt>0</asrwt>
<pdfrwt beam="1">  1       21 0.58637685E-01 0.20586503E+03</pdfrwt>
<pdfrwt beam="2">  1       21 0.28811610E-01 0.20586503E+03</pdfrwt>
<totfact> 0.31151617E+04</totfact>
</mgrwt>
</event>
<event>
 4    1  0.4035350E+000  0.1905786E+03  0.7546771E-02  0.1157940E+00
         21   -1    0    0  503  502  0.00000000000E+00  0.00000000000E+00  0.32277810350E+03  0.32277810350E+03  0.00000000000E+00 0.  1.
         21   -1    0    0  501  503 -0.00000000000E+00 -0.00000000000E+00 -0.81249253807E+03  0.81249253807E+03  0.00000000000E+00 0.  1.
          6    1    1    2  501    0 -0.15888730258E+02  0.78350261910E+02 -0.77172184982E+03  0.79490554708E+03  0.17300000000E+03 0.  1.
         -6    1    1    2    0  502  0.15888730258E+02 -0.78350261910E+02  0.28200741524E+03  0.34036509448E+03  0.17300000000E+03 0.  1.
<mgrwt>
<rscale>  2 0.19057863E+03</rscale>
<asrwt>0</asrwt>
<pdfrwt beam="1">  1       21 0.49658170E-01 0.19057863E+03</pdfrwt>
<pdfrwt beam="2">  1       21 0.12499885E+00 0.19057863E+03</pdfrwt>
<totfact> 0.18475667E+03</totfact>
</mgrwt>
</event>
<event>
 4    1  0.4035350E+000  0.1818483E+03  0.7546771E-02  0.1166026E+00
         21   -1    0    0  501  502  0.00000000000E+00  0.00000000000E+00  0.59660348862E+03  0.59660348862E+03  0.00000000000E+00 0.  1.
         21   -1    0    0  502  503 -0.00000000000E+00 -0.00000000000E+00 -0.38767988805E+03  0.38767988805E+03  0.00000000000E+00 0.  1.
          6    1    1    2  501    0  0.48593281533E+02 -0.27901264085E+02  0.56006521948E+03  0.58884789005E+03  0.17300000000E+03 0.  1.
         -6    1    1    2    0  503 -0.48593281533E+02  0.27901264085E+02 -0.35114161891E+03  0.39543548662E+03  0.17300000000E+03 0.  1.
<mgrwt>
<rscale>  2 0.18184825E+03</rscale>
<asrwt>0</asrwt>
<pdfrwt beam="1">  1       21 0.91785152E-01 0.18184825E+03</pdfrwt>
<pdfrwt beam="2">  1       21 0.59643060E-01 0.18184825E+03</pdfrwt>
<totfact> 0.26599248E+03</totfact>
</mgrwt>
</event>
<event>
 4    1  0.4035350E+000  0.2191510E+03  0.7546771E-02  0.1134518E+00
         21   -1    0    0  501  502  0.00000000000E+00  0.00000000000E+00  0.10368059138E+03  0.10368059138E+03  0.00000000000E+00 0. -1.
         21   -1    0    0  502  503 -0.00000000000E+00 -0.00000000000E+00 -0.52264880533E+03  0.52264880533E+03  0.00000000000E+00 0.  1.
          6    1    1    2  501    0  0.13406404470E+03  0.11179586048E+02 -0.10388547431E+03  0.24252699437E+03  0.17300000000E+03 0. -1.
         -6    1    1    2    0  503 -0.13406404470E+03 -0.11179586048E+02 -0.31508273964E+03  0.38380240234E+03  0.17300000000E+03 0.  1.
<mgrwt>
<rscale>  2 0.21915098E+03</rscale>
<asrwt>0</asrwt>
<pdfrwt beam="1">  1       21 0.15950860E-01 0.21915098E+03</pdfrwt>
<pdfrwt beam="2">  1       21 0.80407510E-01 0.21915098E+03</pdfrwt>
<totfact> 0.47056810E+04</totfact>
</mgrwt>
</event>
<event>
 4    1  0.4035350E+000  0.1875736E+03  0.7546771E-02  0.1160668E+00
         21   -1    0    0  501  502  0.00000000000E+00  0.00000000000E+00  0.40062961378E+03  0.40062961378E+03  0.00000000000E+00 0. -1.
         21   -1    0    0  502  503 -0.00000000000E+00 -0.00000000000E+00 -0.20887937519E+03  0.20887937519E+03  0.00000000000E+00 0.  1.
          6    1    1    2  501    0  0.34986346721E+02  0.63488655630E+02  0.32788102551E+03  0.37774306180E+03  0.17300000000E+03 0. -1.
         -6    1    1    2    0  503 -0.34986346721E+02 -0.63488655630E+02 -0.13613078692E+03  0.23176592717E+03  0.17300000000E+03 0.  1.
<mgrwt>
<rscale>  2 0.18757360E+03</rscale>
<asrwt>0</asrwt>
<pdfrwt beam="1">  1       21 0.61635325E-01 0.18757360E+03</pdfrwt>
<pdfrwt beam="2">  1       21 0.32135289E-01 0.18757360E+03</pdfrwt>
<totfact> 0.22846097E+04</totfact>
</mgrwt>
</event>
<event>
 4    1  0.4035350E+000  0.2330367E+03  0.7546771E-02  0.1124520E+00
         21   -1    0    0  501  502  0.00000000000E+00  0.00000000000E+00  0.42525151572E+03  0.42525151572E+03  0.00000000000E+00 0. -1.
         21   -1    0    0  502  503 -0.00000000000E+00 -0.00000000000E+00 -0.17604993856E+03  0.17604993856E+03  0.00000000000E+00 0. -1.
          6    1    1    2  501    0  0.93030714643E+02 -0.12538895128E+03 -0.32952185336E+02  0.23535494362E+03  0.17300000000E+03 0. -1.
         -6    1    1    2    0  503 -0.93030714643E+02  0.12538895128E+03  0.28215376249E+03  0.36594651065E+03  0.17300000000E+03 0. -1.
<mgrwt>
<rscale>  2 0.23303670E+03</rscale>
<asrwt>0</asrwt>
<pdfrwt beam="1">  1       21 0.65423310E-01 0.23303670E+03</pdfrwt>
<pdfrwt beam="2">  1       21 0.27084606E-01 0.23303670E+03</pdfrwt>
<totfact> 0.27320528E+04</totfact>
</mgrwt>
</event>
<event>
 4    1  0.4035350E+000  0.2603863E+03  0.7546771E-02  0.1106911E+00
         21   -1    0    0  503  502  0.00000000000E+00  0.00000000000E+00  0.57603399817E+03  0.57603399817E+03  0.00000000000E+00 0.  1.
         21   -1    0    0  501  503 -0.00000000000E+00 -0.00000000000E+00 -0.20353506331E+03  0.20353506331E+03  0.00000000000E+00 0.  1.
          6    1    1    2  501    0 -0.13991195261E+03  0.13526521665E+03 -0.66872188067E+02  0.26883623799E+03  0.17300000000E+03 0.  1.
         -6    1    1    2    0  502  0.13991195261E+03 -0.13526521665E+03  0.43937112293E+03  0.51073282349E+03  0.17300000000E+03 0.  1.
<mgrwt>
<rscale>  2 0.26038632E+03</rscale>
<asrwt>0</asrwt>
<pdfrwt beam="1">  1       21 0.88620615E-01 0.26038632E+03</pdfrwt>
<pdfrwt beam="2">  1       21 0.31313087E-01 0.26038632E+03</pdfrwt>
<totfact> 0.10235104E+04</totfact>
</mgrwt>
</event>
<event>
 4    1  0.4035350E+000  0.2016019E+03  0.7546771E-02  0.1148394E+00
         21   -1    0    0  503  502  0.00000000000E+00  0.00000000000E+00  0.29271477314E+03  0.29271477314E+03  0.00000000000E+00 0. -1.
         21   -1    0    0  501  503 -0.00000000000E+00 -0.00000000000E+00 -0.13908475127E+03  0.13908475127E+03  0.00000000000E+00 0. -1.
          6    1    1    2  501    0  0.90356961773E+02 -0.50497141831E+02  0.85691597015E+02  0.21905796418E+03  0.17300000000E+03 0.  1.
         -6    1    1    2    0  502 -0.90356961773E+02  0.50497141831E+02  0.67938424855E+02  0.21274156022E+03  0.17300000000E+03 0.  1.
<mgrwt>
<rscale>  2 0.20160194E+03</rscale>
<asrwt>0</asrwt>
<pdfrwt beam="1">  1       21 0.45033042E-01 0.20160194E+03</pdfrwt>
<pdfrwt beam="2">  1       21 0.21397654E-01 0.20160194E+03</pdfrwt>
<totfact> 0.95880694E+04</totfact>
</mgrwt>
</event>
<event>
 4    1  0.4035350E+000  0.1919737E+03  0.7546771E-02  0.1156693E+00
         21   -1    0    0  501  502  0.00000000000E+00  0.00000000000E+00  0.14852039417E+03  0.14852039417E+03  0.00000000000E+00 0. -1.
         21   -1    0    0  502  503 -0.00000000000E+00 -0.00000000000E+00 -0.63024779820E+03  0.63024779820E+03  0.00000000000E+00 0.  1.
          6    1    1    2  501    0  0.81381285538E+02  0.17377857775E+02  0.62326588178E+02  0.20183782393E+03  0.17300000000E+03 0. -1.
         -6    1    1    2    0  503 -0.81381285538E+02 -0.17377857775E+02 -0.54405399221E+03  0.57693036843E+03  0.17300000000E+03 0.  1.
<mgrwt>
<rscale>  2 0.19197371E+03</rscale>
<asrwt>0</asrwt>
<pdfrwt beam="1">  1       21 0.22849291E-01 0.19197371E+03</pdfrwt>
<pdfrwt beam="2">  1       21 0.96961200E-01 0.19197371E+03</pdfrwt>
<totfact> 0.15875439E+04</totfact>
</mgrwt>
</event>
<event>
 4    1  0.4035350E+000  0.1882680E+03  0.7546771E-02  0.1160033E+00
         21   -1    0    0  501  502  0.00000000000E+00  0.00000000000E+00  0.12182027233E+03  0.12182027233E+03  0.00000000000E+00 0. -1.
         21   -1    0    0  502  503 -0.00000000000E+00 -0.00000000000E+00 -0.30145050024E+03  0.30145050024E+03  0.00000000000E+00 0.  1.
          6    1    1    2  501    0 -0.63385805168E+02  0.38704876485E+02 -0.50335022059E+02  0.19488058448E+03  0.17300000000E+03 0.  1.
         -6    1    1    2    0  503  0.63385805168E+02 -0.38704876485E+02 -0.12929520586E+03  0.22839018809E+03  0.17300000000E+03 0.  1.
<mgrwt>
<rscale>  2 0.18826797E+03</rscale>
<asrwt>0</asrwt>
<pdfrwt beam="1">  1       21 0.18741580E-01 0.18826797E+03</pdfrwt>
<pdfrwt beam="2">  1       21 0.46377000E-01 0.18826797E+03</pdfrwt>
<totfact> 0.11621291E+05</totfact>
</mgrwt>
</event>
<event>
 4    1  0.4035350E+000  0.3059739E+03  0.7546771E-02  0.1082292E+00
         21   -1    0    0  501  502  0.00000000000E+00  0.00000000000E+00  0.10765786577E+03  0.10765786577E+03  0.00000000000E+00 0.  1.
         21   -1    0    0  502  503 -0.00000000000E+00 -0.00000000000E+00 -0.15575817158E+04  0.15575817158E+04  0.00000000000E+00 0.  1.
          6    1    1    2  501    0 -0.11439602192E+03  0.22495456315E+03 -0.12783217576E+04  0.13144301127E+04  0.17300000000E+03 0.  1.
         -6    1    1    2    0  503  0.11439602192E+03 -0.22495456315E+03 -0.17160209247E+03  0.35080946888E+03  0.17300000000E+03 0.  1.
<mgrwt>
<rscale>  2 0.30597386E+03</rscale>
<asrwt>0</asrwt>
<pdfrwt beam="1">  1       21 0.16562748E-01 0.30597386E+03</pdfrwt>
<pdfrwt beam="2">  1       21 0.23962796E+00 0.30597386E+03</pdfrwt>
<totfact> 0.22696369E+03</totfact>
</mgrwt>
</event>
<event>
 4    1  0.4035350E+000  0.2892420E+03  0.7546771E-02  0.1090746E+00
         21   -1    0    0  503  502  0.00000000000E+00  0.00000000000E+00  0.17147972896E+03  0.17147972896E+03  0.00000000000E+00 0. -1.
         21   -1    0    0  501  503 -0.00000000000E+00 -0.00000000000E+00 -0.50318418301E+03  0.50318418301E+03  0.00000000000E+00 0.  1.
          6    1    1    2  501    0  0.10986755775E+03 -0.20411041826E+03 -0.10701561729E+03  0.30840441863E+03  0.17300000000E+03 0.  1.
         -6    1    1    2    0  502 -0.10986755775E+03  0.20411041826E+03 -0.22468883677E+03  0.36625949333E+03  0.17300000000E+03 0. -1.
<mgrwt>
<rscale>  2 0.28924201E+03</rscale>
<asrwt>0</asrwt>
<pdfrwt beam="1">  1       21 0.26381497E-01 0.28924201E+03</pdfrwt>
<pdfrwt beam="2">  1       21 0.77412951E-01 0.28924201E+03</pdfrwt>
<totfact> 0.19260210E+04</totfact>
</mgrwt>
</event>
<event>
 4    1  0.4035350E+000  0.1980509E+03  0.7546771E-02  0.1151394E+00
         21   -1    0    0  501  502  0.00000000000E+00  0.00000000000E+00  0.29028789651E+02  0.29028789651E+02  0.00000000000E+00 0. -1.
         21   -1    0    0  502  503 -0.00000000000E+00 -0.00000000000E+00 -0.15012440613E+04  0.15012440613E+04  0.00000000000E+00 0. -1.
          6    1    1    2  501    0 -0.75449730456E+02 -0.60020758848E+02 -0.49422758042E+03  0.53243314563E+03  0.17300000000E+03 0. -1.
         -6    1    1    2    0  503  0.75449730456E+02  0.60020758848E+02 -0.97798769128E+03  0.99783970537E+03  0.17300000000E+03 0. -1.
<mgrwt>
<rscale>  2 0.19805089E+03</rscale>
<asrwt>0</asrwt>
<pdfrwt beam="1">  1       21 0.44659667E-02 0.19805089E+03</pdfrwt>
<pdfrwt beam="2">  1       21 0.23096067E+00 0.19805089E+03</pdfrwt>
<totfact> 0.27977412E+04</totfact>
</mgrwt>
</event>
<event>
 4    1  0.4035350E+000  0.1933696E+03  0.7546771E-02  0.1155457E+00
         21   -1    0    0  503  502  0.00000000000E+00  0.00000000000E+00  0.39753243882E+03  0.39753243882E+03  0.00000000000E+00 0.  1.
         21   -1    0    0  501  503 -0.00000000000E+00 -0.00000000000E+00 -0.23527342186E+03  0.23527342186E+03  0.00000000000E+00 0.  1.
          6    1    1    2  501    0 -0.86165405813E+02  0.61915127678E+01 -0.16399819476E+03  0.25354924546E+03  0.17300000000E+03 0.  1.
         -6    1    1    2    0  502  0.86165405813E+02 -0.61915127678E+01  0.32625721172E+03  0.37925661522E+03  0.17300000000E+03 0.  1.
<mgrwt>
<rscale>  2 0.19336963E+03</rscale>
<asrwt>0</asrwt>
<pdfrwt beam="1">  1       21 0.61158837E-01 0.19336963E+03</pdfrwt>
<pdfrwt beam="2">  1       21 0.36195911E-01 0.19336963E+03</pdfrwt>
<totfact> 0.18297493E+04</totfact>
</mgrwt>
</event>
<event>
 4    1  0.4035350E+000  0.1802196E+03  0.7546771E-02  0.1167591E+00
         21   -1    0    0  501  502  0.00000000000E+00  0.00000000000E+00  0.26408667707E+03  0.26408667707E+03  0.00000000000E+00 0.  1.
         21   -1    0    0  502  503 -0.00000000000E+00 -0.00000000000E+00 -0.21408768979E+03  0.21408768979E+03  0.00000000000E+00 0.  1.
          6    1    1    2  501    0 -0.35614015600E+02  0.35801712096E+02  0.18096273430E+03  0.25539505066E+03  0.17300000000E+03 0.  1.
         -6    1    1    2    0  503  0.35614015600E+02 -0.35801712096E+02 -0.13096374701E+03  0.22277931620E+03  0.17300000000E+03 0.  1.
<mgrwt>
<rscale>  2 0.18021965E+03</rscale>
<asrwt>0</asrwt>
<pdfrwt beam="1">  1       21 0.40628719E-01 0.18021965E+03</pdfrwt>
<pdfrwt beam="2">  1       21 0.32936568E-01 0.18021965E+03</pdfrwt>
<totfact> 0.52093485E+04</totfact>
</mgrwt>
</event>
<event>
 4    1  0.4035350E+000  0.2414173E+03  0.7546771E-02  0.1118852E+00
         21   -1    0    0  501  502  0.00000000000E+00  0.00000000000E+00  0.22438196356E+03  0.22438196356E+03  0.00000000000E+00 0. -1.
         21   -1    0    0  502  503 -0.00000000000E+00 -0.00000000000E+00 -0.29729658653E+03  0.29729658653E+03  0.00000000000E+00 0.  1.
          6    1    1    2  501    0  0.10163574409E+03  0.13425159097E+03 -0.12915874967E+03  0.27379608612E+03  0.17300000000E+03 0.  1.
         -6    1    1    2    0  503 -0.10163574409E+03 -0.13425159097E+03  0.56244126709E+02  0.24788246397E+03  0.17300000000E+03 0. -1.
<mgrwt>
<rscale>  2 0.24141730E+03</rscale>
<asrwt>0</asrwt>
<pdfrwt beam="1">  1       21 0.34520302E-01 0.24141730E+03</pdfrwt>
<pdfrwt beam="2">  1       21 0.45737936E-01 0.24141730E+03</pdfrwt>
<totfact> 0.36192146E+04</totfact>
</mgrwt>
</event>
<event>
 4    1  0.4035350E+000  0.1991376E+03  0.7546771E-02  0.1150469E+00
         21   -1    0    0  501  502  0.00000000000E+00  0.00000000000E+00  0.51623784742E+02  0.51623784742E+02  0.00000000000E+00 0.  1.
         21   -1    0    0  502  503 -0.00000000000E+00 -0.00000000000E+00 -0.13400842208E+04  0.13400842208E+04  0.00000000000E+00 0. -1.
          6    1    1    2  501    0 -0.50771693469E+02  0.84551772245E+02 -0.18964209226E+03  0.27499070930E+03  0.17300000000E+03 0.  1.
         -6    1    1    2    0  503  0.50771693469E+02 -0.84551772245E+02 -0.10988183438E+04  0.11167172963E+04  0.17300000000E+03 0. -1.
<mgrwt>
<rscale>  2 0.19913756E+03</rscale>
<asrwt>0</asrwt>
<pdfrwt beam="1">  1       21 0.79421203E-02 0.19913756E+03</pdfrwt>
<pdfrwt beam="2">  1       21 0.20616681E+00 0.19913756E+03</pdfrwt>
<totfact> 0.14829128E+04</totfact>
</mgrwt>
</event>
<event>
 4    1  0.4035350E+000  0.1853064E+03  0.7546771E-02  0.1162764E+00
         21   -1    0    0  503  502  0.00000000000E+00  0.00000000000E+00  0.23620357154E+03  0.23620357154E+03  0.00000000000E+00 0.  1.
         21   -1    0    0  501  503 -0.00000000000E+00 -0.00000000000E+00 -0.16289994121E+03  0.16289994121E+03  0.00000000000E+00 0. -1.
          6    1    1    2  501    0  0.35838139958E+02  0.55902582976E+02 -0.28797273893E+02  0.18753067494E+03  0.17300000000E+03 0. -1.
         -6    1    1    2    0  502 -0.35838139958E+02 -0.55902582976E+02  0.10210090421E+03  0.21157283781E+03  0.17300000000E+03 0.  1.
<mgrwt>
<rscale>  2 0.18530642E+03</rscale>
<asrwt>0</asrwt>
<pdfrwt beam="1">  1       21 0.36339011E-01 0.18530642E+03</pdfrwt>
<pdfrwt beam="2">  1       21 0.25061530E-01 0.18530642E+03</pdfrwt>
<totfact> 0.11039129E+05</totfact>
</mgrwt>
</event>
<event>
 4    1  0.4035350E+000  0.2241171E+03  0.7546771E-02  0.1130850E+00
         21   -1    0    0  501  502  0.00000000000E+00  0.00000000000E+00  0.10968191160E+03  0.10968191160E+03  0.00000000000E+00 0.  1.
         21   -1    0    0  502  503 -0.00000000000E+00 -0.00000000000E+00 -0.56357473993E+03  0.56357473993E+03  0.00000000000E+00 0.  1.
          6    1    1    2  501    0 -0.45466151528E+02 -0.13502711448E+03 -0.81211343871E+02  0.23837737928E+03  0.17300000000E+03 0.  1.
         -6    1    1    2    0  503  0.45466151528E+02  0.13502711448E+03 -0.37268148445E+03  0.43487927225E+03  0.17300000000E+03 0.  1.
<mgrwt>
<rscale>  2 0.22411714E+03</rscale>
<asrwt>0</asrwt>
<pdfrwt beam="1">  1       21 0.16874140E-01 0.22411714E+03</pdfrwt>
<pdfrwt beam="2">  1       21 0.86703807E-01 0.22411714E+03</pdfrwt>
<totfact> 0.35619706E+04</totfact>
</mgrwt>
</event>
<event>
 4    1  0.4035350E+000  0.2414065E+03  0.7546771E-02  0.1118859E+00
         21   -1    0    0  501  502  0.00000000000E+00  0.00000000000E+00  0.57594364869E+03  0.57594364869E+03  0.00000000000E+00 0.  1.
         21   -1    0    0  502  503 -0.00000000000E+00 -0.00000000000E+00 -0.10243082493E+03  0.10243082493E+03  0.00000000000E+00 0. -1.
          6    1    1    2  501    0 -0.16836154576E+03 -0.15774647989E+01  0.27415712756E+03  0.36529334661E+03  0.17300000000E+03 0. -1.
         -6    1    1    2    0  503  0.16836154576E+03  0.15774647989E+01  0.19935569620E+03  0.31308112702E+03  0.17300000000E+03 0.  1.
<mgrwt>
<rscale>  2 0.24140650E+03</rscale>
<asrwt>0</asrwt>
<pdfrwt beam="1">  1       21 0.88606713E-01 0.24140650E+03</pdfrwt>
<pdfrwt beam="2">  1       21 0.15758589E-01 0.24140650E+03</pdfrwt>
<totfact> 0.38111456E+04</totfact>
</mgrwt>
</event>
<event>
 4    1  0.4035350E+000  0.1924148E+03  0.7546771E-02  0.1156301E+00
         21   -1    0    0  503  502  0.00000000000E+00  0.00000000000E+00  0.21359318007E+03  0.21359318007E+03  0.00000000000E+00 0.  1.
         21   -1    0    0  501  503 -0.00000000000E+00 -0.00000000000E+00 -0.25563213883E+03  0.25563213883E+03  0.00000000000E+00 0.  1.
          6    1    1    2  501    0  0.83668619755E+02 -0.96953702902E+01 -0.15413626415E+03  0.24653889361E+03  0.17300000000E+03 0.  1.
         -6    1    1    2    0  502 -0.83668619755E+02  0.96953702902E+01  0.11209730538E+03  0.22268642529E+03  0.17300000000E+03 0.  1.
<mgrwt>
<rscale>  2 0.19241476E+03</rscale>
<asrwt>0</asrwt>
<pdfrwt beam="1">  1       21 0.32860489E-01 0.19241476E+03</pdfrwt>
<pdfrwt beam="2">  1       21 0.39328021E-01 0.19241476E+03</pdfrwt>
<totfact> 0.55575038E+04</totfact>
</mgrwt>
</event>
<event>
 4    1  0.4035350E+000  0.2229779E+03  0.7546771E-02  0.1131682E+00
         21   -1    0    0  501  502  0.00000000000E+00  0.00000000000E+00  0.69389873845E+03  0.69389873845E+03  0.00000000000E+00 0.  1.
         21   -1    0    0  502  503 -0.00000000000E+00 -0.00000000000E+00 -0.10434654208E+03  0.10434654208E+03  0.00000000000E+00 0.  1.
          6    1    1    2  501    0  0.13133329451E+03 -0.50415578498E+02  0.51818764202E+03  0.56412551542E+03  0.17300000000E+03 0.  1.
         -6    1    1    2    0  503 -0.13133329451E+03  0.50415578498E+02  0.71364554342E+02  0.23411976512E+03  0.17300000000E+03 0.  1.
<mgrwt>
<rscale>  2 0.22297795E+03</rscale>
<asrwt>0</asrwt>
<pdfrwt beam="1">  1       21 0.10675365E+00 0.22297795E+03</pdfrwt>
<pdfrwt beam="2">  1       21 0.16053315E-01 0.22297795E+03</pdfrwt>
<totfact> 0.23904891E+04</totfact>
</mgrwt>
</event>
<event>
 4    1  0.4035350E+000  0.1972961E+03  0.7546771E-02  0.1152041E+00
         21   -1    0    0  501  502  0.00000000000E+00  0.00000000000E+00  0.50069599377E+03  0.50069599377E+03  0.00000000000E+00 0. -1.
         21   -1    0    0  502  503 -0.00000000000E+00 -0.00000000000E+00 -0.11182838871E+03  0.11182838871E+03  0.00000000000E+00 0. -1.
          6    1    1    2  501    0 -0.23300157644E+02  0.91944932117E+02  0.36351661033E+03  0.41360620628E+03  0.17300000000E+03 0. -1.
         -6    1    1    2    0  503  0.23300157644E+02 -0.91944932117E+02  0.25350994738E+02  0.19891817620E+03  0.17300000000E+03 0. -1.
<mgrwt>
<rscale>  2 0.19729614E+03</rscale>
<asrwt>0</asrwt>
<pdfrwt beam="1">  1       21 0.77030152E-01 0.19729614E+03</pdfrwt>
<pdfrwt beam="2">  1       21 0.17204368E-01 0.19729614E+03</pdfrwt>
<totfact> 0.45598635E+04</totfact>
</mgrwt>
</event>
<event>
 4    1  0.4035350E+000  0.1834754E+03  0.7546771E-02  0.1164481E+00
         21   -1    0    0  503  502  0.00000000000E+00  0.00000000000E+00  0.64050588928E+03  0.64050588928E+03  0.00000000000E+00 0.  1.
         21   -1    0    0  501  503 -0.00000000000E+00 -0.00000000000E+00 -0.38388149249E+03  0.38388149249E+03  0.00000000000E+00 0.  1.
          6    1    1    2  501    0  0.42001439441E+02 -0.44386012157E+02 -0.34752921085E+03  0.39298828403E+03  0.17300000000E+03 0.  1.
         -6    1    1    2    0  502 -0.42001439441E+02  0.44386012157E+02  0.60415360765E+03  0.63139909774E+03  0.17300000000E+03 0.  1.
<mgrwt>
<rscale>  2 0.18347545E+03</rscale>
<asrwt>0</asrwt>
<pdfrwt beam="1">  1       21 0.98539368E-01 0.18347545E+03</pdfrwt>
<pdfrwt beam="2">  1       21 0.59058691E-01 0.18347545E+03</pdfrwt>
<totfact> 0.22976273E+03</totfact>
</mgrwt>
</event>
<event>
 4    1  0.4035350E+000  0.2881653E+03  0.7546771E-02  0.1091311E+00
         21   -1    0    0  501  502  0.00000000000E+00  0.00000000000E+00  0.23004555329E+03  0.23004555329E+03  0.00000000000E+00 0. -1.
         21   -1    0    0  502  503 -0.00000000000E+00 -0.00000000000E+00 -0.42177515118E+03  0.42177515118E+03  0.00000000000E+00 0. -1.
          6    1    1    2  501    0 -0.58925237955E+02 -0.22279597624E+03 -0.21961123528E+03  0.36230970917E+03  0.17300000000E+03 0. -1.
         -6    1    1    2    0  503  0.58925237955E+02  0.22279597624E+03  0.27881637387E+02  0.28951099530E+03  0.17300000000E+03 0. -1.
<mgrwt>
<rscale>  2 0.28816528E+03</rscale>
<asrwt>0</asrwt>
<pdfrwt beam="1">  1       21 0.35391624E-01 0.28816528E+03</pdfrwt>
<pdfrwt beam="2">  1       21 0.64888485E-01 0.28816528E+03</pdfrwt>
<totfact> 0.16009945E+04</totfact>
</mgrwt>
</event>
<event>
 4    1  0.4035350E+000  0.1780667E+03  0.7546771E-02  0.1169687E+00
         21   -1    0    0  503  502  0.00000000000E+00  0.00000000000E+00  0.49254878365E+03  0.49254878365E+03  0.00000000000E+00 0. -1.
         21   -1    0    0  501  503 -0.00000000000E+00 -0.00000000000E+00 -0.98166966780E+02  0.98166966780E+02  0.00000000000E+00 0. -1.
          6    1    1    2  501    0 -0.37267849161E+02  0.19744395668E+02  0.23900776309E+02  0.17966352120E+03  0.17300000000E+03 0.  1.
         -6    1    1    2    0  502  0.37267849161E+02 -0.19744395668E+02  0.37048104056E+03  0.41105222923E+03  0.17300000000E+03 0.  1.
<mgrwt>
<rscale>  2 0.17806666E+03</rscale>
<asrwt>0</asrwt>
<pdfrwt beam="1">  1       21 0.75776735E-01 0.17806666E+03</pdfrwt>
<pdfrwt beam="2">  1       21 0.15102611E-01 0.17806666E+03</pdfrwt>
<totfact> 0.60601678E+04</totfact>
</mgrwt>
</event>
<event>
 4    1  0.4035350E+000  0.1971619E+03  0.7546771E-02  0.1152156E+00
         21   -1    0    0  503  502  0.00000000000E+00  0.00000000000E+00  0.25319711260E+03  0.25319711260E+03  0.00000000000E+00 0. -1.
         21   -1    0    0  501  503 -0.00000000000E+00 -0.00000000000E+00 -0.20773678844E+03  0.20773678844E+03  0.00000000000E+00 0. -1.
          6    1    1    2  501    0 -0.60760126429E+02  0.72470761239E+02 -0.94999925042E+02  0.21885563725E+03  0.17300000000E+03 0. -1.
         -6    1    1    2    0  502  0.60760126429E+02 -0.72470761239E+02  0.14046024920E+03  0.24207826380E+03  0.17300000000E+03 0. -1.
<mgrwt>
<rscale>  2 0.19716187E+03</rscale>
<asrwt>0</asrwt>
<pdfrwt beam="1">  1       21 0.38953402E-01 0.19716187E+03</pdfrwt>
<pdfrwt beam="2">  1       21 0.31959506E-01 0.19716187E+03</pdfrwt>
<totfact> 0.59705646E+04</totfact>
</mgrwt>
</event>
<event>
 4    1  0.4035350E+000  0.1823576E+03  0.7546771E-02  0.1165541E+00
         21   -1    0    0  501  502  0.00000000000E+00  0.00000000000E+00  0.20802921407E+02  0.20802921407E+02  0.00000000000E+00 0.  1.
         21   -1    0    0  502  503 -0.00000000000E+00 -0.00000000000E+00 -0.20480699159E+04  0.20480699159E+04  0.00000000000E+00 0.  1.
          6    1    1    2  501    0  0.43467097625E+02 -0.37893356344E+02 -0.52900285091E+03  0.55955188437E+03  0.17300000000E+03 0.  1.
         -6    1    1    2    0  503 -0.43467097625E+02  0.37893356344E+02 -0.14982641436E+04  0.15093209529E+04  0.17300000000E+03 0.  1.
<mgrwt>
<rscale>  2 0.18235760E+03</rscale>
<asrwt>0</asrwt>
<pdfrwt beam="1">  1       21 0.32004494E-02 0.18235760E+03</pdfrwt>
<pdfrwt beam="2">  1       21 0.31508769E+00 0.18235760E+03</pdfrwt>
<totfact> 0.16061473E+04</totfact>
</mgrwt>
</event>
<event>
 4    1  0.4035350E+000  0.2295943E+03  0.7546771E-02  0.1126926E+00
         21   -1    0    0  503  502  0.00000000000E+00  0.00000000000E+00  0.54198177595E+03  0.54198177595E+03  0.00000000000E+00 0. -1.
         21   -1    0    0  501  503 -0.00000000000E+00 -0.00000000000E+00 -0.17857885745E+03  0.17857885745E+03  0.00000000000E+00 0. -1.
          6    1    1    2  501    0 -0.14727904773E+03 -0.33066747350E+02 -0.61417751317E+02  0.23766713668E+03  0.17300000000E+03 0. -1.
         -6    1    1    2    0  502  0.14727904773E+03  0.33066747350E+02  0.42482066981E+03  0.48289349672E+03  0.17300000000E+03 0. -1.
<mgrwt>
<rscale>  2 0.22959427E+03</rscale>
<asrwt>0</asrwt>
<pdfrwt beam="1">  1       21 0.83381811E-01 0.22959427E+03</pdfrwt>
<pdfrwt beam="2">  1       21 0.27473671E-01 0.22959427E+03</pdfrwt>
<totfact> 0.15471240E+04</totfact>
</mgrwt>
</event>
<event>
 4    1  0.4035350E+000  0.1837487E+03  0.7546771E-02  0.1164224E+00
         21   -1    0    0  501  502  0.00000000000E+00  0.00000000000E+00  0.41250750985E+02  0.41250750985E+02  0.00000000000E+00 0. -1.
         21   -1    0    0  502  503 -0.00000000000E+00 -0.00000000000E+00 -0.16693902924E+04  0.16693902924E+04  0.00000000000E+00 0. -1.
          6    1    1    2  501    0 -0.25177642158E+02  0.56574459357E+02 -0.20342632025E+03  0.27412743549E+03  0.17300000000E+03 0. -1.
         -6    1    1    2    0  503  0.25177642158E+02 -0.56574459357E+02 -0.14247132211E+04  0.14365136079E+04  0.17300000000E+03 0. -1.
<mgrwt>
<rscale>  2 0.18374870E+03</rscale>
<asrwt>0</asrwt>
<pdfrwt beam="1">  1       21 0.63462679E-02 0.18374870E+03</pdfrwt>
<pdfrwt beam="2">  1       21 0.25682934E+00 0.18374870E+03</pdfrwt>
<totfact> 0.10954875E+04</totfact>
</mgrwt>
</event>
<event>
 4    1  0.4035350E+000  0.2061536E+03  0.7546771E-02  0.1144649E+00
         21   -1    0    0  501  502  0.00000000000E+00  0.00000000000E+00  0.29842161100E+03  0.29842161100E+03  0.00000000000E+00 0. -1.
         21   -1    0    0  502  503 -0.00000000000E+00 -0.00000000000E+00 -0.18735838283E+03  0.18735838283E+03  0.00000000000E+00 0. -1.
          6    1    1    2  501    0  0.62948611277E+02  0.92778008101E+02 -0.63431647223E+02  0.21569158611E+03  0.17300000000E+03 0. -1.
         -6    1    1    2    0  503 -0.62948611277E+02 -0.92778008101E+02  0.17449487540E+03  0.27008840773E+03  0.17300000000E+03 0. -1.
<mgrwt>
<rscale>  2 0.20615355E+03</rscale>
<asrwt>0</asrwt>
<pdfrwt beam="1">  1       21 0.45911017E-01 0.20615355E+03</pdfrwt>
<pdfrwt beam="2">  1       21 0.28824366E-01 0.20615355E+03</pdfrwt>
<totfact> 0.52034750E+04</totfact>
</mgrwt>
</event>
<event>
 4    1  0.4035350E+000  0.2469059E+03  0.7546771E-02  0.1115276E+00
         21   -1    0    0  501  502  0.00000000000E+00  0.00000000000E+00  0.20301718210E+03  0.20301718210E+03  0.00000000000E+00 0. -1.
         21   -1    0    0  502  503 -0.00000000000E+00 -0.00000000000E+00 -0.35714947189E+04  0.35714947189E+04  0.00000000000E+00 0.  1.
          6    1    1    2  501    0  0.60785787861E+01 -0.17605843362E+03  0.12193758631E+03  0.27537482841E+03  0.17300000000E+03 0. -1.
         -6    1    1    2    0  503 -0.60785787861E+01  0.17605843362E+03 -0.34904151232E+04  0.34991370726E+04  0.17300000000E+03 0.  1.
<mgrwt>
<rscale>  2 0.24690590E+03</rscale>
<asrwt>0</asrwt>
<pdfrwt beam="1">  1       21 0.31233413E-01 0.24690590E+03</pdfrwt>
<pdfrwt beam="2">  1       21 0.54946072E+00 0.24690590E+03</pdfrwt>
<totfact> 0.73777553E+00</totfact>
</mgrwt>
</event>
<event>
 4    1  0.4035350E+000  0.1766850E+03  0.7546771E-02  0.1171050E+00
         21   -1    0    0  503  502  0.00000000000E+00  0.00000000000E+00  0.10475528239E+03  0.10475528239E+03  0.00000000000E+00 0.  1.
         21   -1    0    0  501  503 -0.00000000000E+00 -0.00000000000E+00 -0.30829921428E+03  0.30829921428E+03  0.00000000000E+00 0.  1.
          6    1    1    2  501    0 -0.18444574859E+02  0.30795915695E+02 -0.13951086219E+03  0.22512412450E+03  0.17300000000E+03 0.  1.
         -6    1    1    2    0  502  0.18444574859E+02 -0.30795915695E+02 -0.64033069707E+02  0.18793037216E+03  0.17300000000E+03 0.  1.
<mgrwt>
<rscale>  2 0.17668500E+03</rscale>
<asrwt>0</asrwt>
<pdfrwt beam="1">  1       21 0.16116197E-01 0.17668500E+03</pdfrwt>
<pdfrwt beam="2">  1       21 0.47430648E-01 0.17668500E+03</pdfrwt>
<totfact> 0.14706806E+05</totfact>
</mgrwt>
</event>
<event>
 4    1  0.4035350E+000  0.2098818E+03  0.7546771E-02  0.1141660E+00
         21   -1    0    0  501  502  0.00000000000E+00  0.00000000000E+00  0.17793304559E+04  0.17793304559E+04  0.00000000000E+00 0. -1.
         21   -1    0    0  502  503 -0.00000000000E+00 -0.00000000000E+00 -0.31974569127E+02  0.31974569127E+02  0.00000000000E+00 0. -1.
          6    1    1    2  501    0  0.10911833962E+03  0.47059081460E+02  0.13039700982E+04  0.13207529619E+04  0.17300000000E+03 0. -1.
         -6    1    1    2    0  503 -0.10911833962E+03 -0.47059081460E+02  0.44338578849E+03  0.49055206311E+03  0.17300000000E+03 0. -1.
<mgrwt>
<rscale>  2 0.20988180E+03</rscale>
<asrwt>0</asrwt>
<pdfrwt beam="1">  1       21 0.27374307E+00 0.20988180E+03</pdfrwt>
<pdfrwt beam="2">  1       21 0.49191659E-02 0.20988180E+03</pdfrwt>
<totfact> 0.13155460E+04</totfact>
</mgrwt>
</event>
<event>
 4    1  0.4035350E+000  0.1741763E+03  0.7546771E-02  0.1173561E+00
         21   -1    0    0  501  502  0.00000000000E+00  0.00000000000E+00  0.10170978435E+04  0.10170978435E+04  0.00000000000E+00 0.  1.
         21   -1    0    0  502  503 -0.00000000000E+00 -0.00000000000E+00 -0.62037145968E+02  0.62037145968E+02  0.00000000000E+00 0.  1.
          6    1    1    2  501    0 -0.16653040392E+02  0.11447666461E+02  0.86631901753E+03  0.88365491735E+03  0.17300000000E+03 0.  1.
         -6    1    1    2    0  503  0.16653040392E+02 -0.11447666461E+02  0.88741679981E+02  0.19548007210E+03  0.17300000000E+03 0.  1.
<mgrwt>
<rscale>  2 0.17417627E+03</rscale>
<asrwt>0</asrwt>
<pdfrwt beam="1">  1       21 0.15647658E+00 0.17417627E+03</pdfrwt>
<pdfrwt beam="2">  1       21 0.95441771E-02 0.17417627E+03</pdfrwt>
<totfact> 0.23838434E+04</totfact>
</mgrwt>
</event>
<event>
 4    1  0.4035350E+000  0.2002593E+03  0.7546771E-02  0.1149520E+00
         21   -1    0    0  503  502  0.00000000000E+00  0.00000000000E+00  0.20112115268E+03  0.20112115268E+03  0.00000000000E+00 0. -1.
         21   -1    0    0  501  503 -0.00000000000E+00 -0.00000000000E+00 -0.61843769056E+03  0.61843769056E+03  0.00000000000E+00 0. -1.
          6    1    1    2  501    0  0.53371271732E+02 -0.85593705732E+02 -0.54596744383E+03  0.58153609074E+03  0.17300000000E+03 0. -1.
         -6    1    1    2    0  502 -0.53371271732E+02  0.85593705732E+02  0.12865090595E+03  0.23802275250E+03  0.17300000000E+03 0. -1.
<mgrwt>
<rscale>  2 0.20025927E+03</rscale>
<asrwt>0</asrwt>
<pdfrwt beam="1">  1       21 0.30941716E-01 0.20025927E+03</pdfrwt>
<pdfrwt beam="2">  1       21 0.95144259E-01 0.20025927E+03</pdfrwt>
<totfact> 0.92101602E+03</totfact>
</mgrwt>
</event>
<event>
 4    1  0.4035350E+000  0.2351709E+03  0.7546771E-02  0.1123052E+00
         21   -1    0    0  501  502  0.00000000000E+00  0.00000000000E+00  0.99833285258E+02  0.99833285258E+02  0.00000000000E+00 0.  1.
         21   -1    0    0  502  503 -0.00000000000E+00 -0.00000000000E+00 -0.82281886388E+03  0.82281886388E+03  0.00000000000E+00 0.  1.
          6    1    1    2  501    0  0.12760609304E+03 -0.95357383120E+02 -0.97796318266E+02  0.25469484754E+03  0.17300000000E+03 0.  1.
         -6    1    1    2    0  503 -0.12760609304E+03  0.95357383120E+02 -0.62518926036E+03  0.66795730160E+03  0.17300000000E+03 0.  1.
<mgrwt>
<rscale>  2 0.23517089E+03</rscale>
<asrwt>0</asrwt>
<pdfrwt beam="1">  1       21 0.15358967E-01 0.23517089E+03</pdfrwt>
<pdfrwt beam="2">  1       21 0.12658752E+00 0.23517089E+03</pdfrwt>
<totfact> 0.16910691E+04</totfact>
</mgrwt>
</event>
<event>
 4    1  0.4035350E+000  0.2026266E+03  0.7546771E-02  0.1147542E+00
         21   -1    0    0  503  502  0.00000000000E+00  0.00000000000E+00  0.20372596043E+03  0.20372596043E+03  0.00000000000E+00 0. -1.
         21   -1    0    0  501  503 -0.00000000000E+00 -0.00000000000E+00 -0.31466574552E+03  0.31466574552E+03  0.00000000000E+00 0.  1.
          6    1    1    2  501    0 -0.77440370784E+02 -0.71634680919E+02 -0.21088640259E+03  0.29245617336E+03  0.17300000000E+03 0.  1.
         -6    1    1    2    0  502  0.77440370784E+02  0.71634680919E+02  0.99946617503E+02  0.22593553259E+03  0.17300000000E+03 0. -1.
<mgrwt>
<rscale>  2 0.20262660E+03</rscale>
<asrwt>0</asrwt>
<pdfrwt beam="1">  1       21 0.31342455E-01 0.20262660E+03</pdfrwt>
<pdfrwt beam="2">  1       21 0.48410115E-01 0.20262660E+03</pdfrwt>
<totfact> 0.39662701E+04</totfact>
</mgrwt>
</event>
<event>
 4    1  0.4035350E+000  0.3026944E+03  0.7546771E-02  0.1083901E+00
         21   -1    0    0  501  502  0.00000000000E+00  0.00000000000E+00  0.60179689989E+02  0.60179689989E+02  0.00000000000E+00 0. -1.
         21   -1    0    0  502  503 -0.00000000000E+00 -0.00000000000E+00 -0.27095274707E+04  0.27095274707E+04  0.00000000000E+00 0.  1.
          6    1    1    2  501    0 -0.14384912902E+03 -0.20249028061E+03 -0.40805980096E+03  0.50807153711E+03  0.17300000000E+03 0. -1.
         -6    1    1    2    0  503  0.14384912902E+03  0.20249028061E+03 -0.22412879797E+04  0.22616356236E+04  0.17300000000E+03 0.  1.
<mgrwt>
<rscale>  2 0.30269438E+03</rscale>
<asrwt>0</asrwt>
<pdfrwt beam="1">  1       21 0.92584148E-02 0.30269438E+03</pdfrwt>
<pdfrwt beam="2">  1       21 0.41685034E+00 0.30269438E+03</pdfrwt>
<totfact> 0.55165175E+02</totfact>
</mgrwt>
</event>
<event>
 4    1  0.4035350E+000  0.2167303E+03  0.7546771E-02  0.1136344E+00
         21   -1    0    0  503  502  0.00000000000E+00  0.00000000000E+00  0.82876616987E+02  0.82876616987E+02  0.00000000000E+00 0. -1.
         21   -1    0    0  501  503 -0.00000000000E+00 -0.00000000000E+00 -0.72201101257E+03  0.72201101257E+03  0.00000000000E+00 0. -1.
          6    1    1    2  501    0  0.49042048938E+02 -0.12098726397E+03 -0.50617747594E+03  0.55062480670E+03  0.17300000000E+03 0. -1.
         -6    1    1    2    0  502 -0.49042048938E+02  0.12098726397E+03 -0.13295691965E+03  0.25426282286E+03  0.17300000000E+03 0. -1.
<mgrwt>
<rscale>  2 0.21673034E+03</rscale>
<asrwt>0</asrwt>
<pdfrwt beam="1">  1       21 0.12750248E-01 0.21673034E+03</pdfrwt>
<pdfrwt beam="2">  1       21 0.11107862E+00 0.21673034E+03</pdfrwt>
<totfact> 0.33126113E+04</totfact>
</mgrwt>
</event>
<event>
 4    1  0.4035350E+000  0.1775997E+03  0.7546771E-02  0.1170146E+00
         21   -1    0    0  501  502  0.00000000000E+00  0.00000000000E+00  0.28544727025E+02  0.28544727025E+02  0.00000000000E+00 0. -1.
         21   -1    0    0  502  503 -0.00000000000E+00 -0.00000000000E+00 -0.12872850928E+04  0.12872850928E+04  0.00000000000E+00 0. -1.
          6    1    1    2  501    0  0.40156072277E+02 -0.38891820663E+00 -0.38178829646E+03  0.42107477330E+03  0.17300000000E+03 0. -1.
         -6    1    1    2    0  503 -0.40156072277E+02  0.38891820663E+00 -0.87695206927E+03  0.89475504648E+03  0.17300000000E+03 0. -1.
<mgrwt>
<rscale>  2 0.17759972E+03</rscale>
<asrwt>0</asrwt>
<pdfrwt beam="1">  1       21 0.43914960E-02 0.17759972E+03</pdfrwt>
<pdfrwt beam="2">  1       21 0.19804388E+00 0.17759972E+03</pdfrwt>
<totfact> 0.46762878E+04</totfact>
</mgrwt>
</event>
<event>
 4    1  0.4035350E+000  0.1975298E+03  0.7546771E-02  0.1151840E+00
         21   -1    0    0  501  502  0.00000000000E+00  0.00000000000E+00  0.93958485158E+02  0.93958485158E+02  0.00000000000E+00 0. -1.
         21   -1    0    0  502  503 -0.00000000000E+00 -0.00000000000E+00 -0.42091965688E+03  0.42091965688E+03  0.00000000000E+00 0.  1.
          6    1    1    2  501    0 -0.10972770604E+02 -0.94702740757E+02 -0.13365157926E+03  0.23849686673E+03  0.17300000000E+03 0.  1.
         -6    1    1    2    0  503  0.10972770604E+02  0.94702740757E+02 -0.19330959246E+03  0.27638127530E+03  0.17300000000E+03 0. -1.
<mgrwt>
<rscale>  2 0.19752977E+03</rscale>
<asrwt>0</asrwt>
<pdfrwt beam="1">  1       21 0.14455152E-01 0.19752977E+03</pdfrwt>
<pdfrwt beam="2">  1       21 0.64756868E-01 0.19752977E+03</pdfrwt>
<totfact> 0.92008665E+04</totfact>
</mgrwt>
</event>
<event>
 4    1  0.4035350E+000  0.2006132E+03  0.7546771E-02  0.1149223E+00
         21   -1    0    0  503  502  0.00000000000E+00  0.00000000000E+00  0.77701084439E+02  0.77701084439E+02  0.00000000000E+00 0.  1.
         21   -1    0    0  501  503 -0.00000000000E+00 -0.00000000000E+00 -0.51822456012E+03  0.51822456012E+03  0.00000000000E+00 0.  1.
          6    1    1    2  501    0 -0.25998828147E+02 -0.98187156977E+02 -0.22705873748E+03  0.30298733823E+03  0.17300000000E+03 0.  1.
         -6    1    1    2    0  502  0.25998828147E+02  0.98187156977E+02 -0.21346473820E+03  0.29293830633E+03  0.17300000000E+03 0.  1.
<mgrwt>
<rscale>  2 0.20061320E+03</rscale>
<asrwt>0</asrwt>
<pdfrwt beam="1">  1       21 0.11954013E-01 0.20061320E+03</pdfrwt>
<pdfrwt beam="2">  1       21 0.79726855E-01 0.20061320E+03</pdfrwt>
<totfact> 0.81607370E+04</totfact>
</mgrwt>
</event>
<event>
 4    1  0.4035350E+000  0.1887816E+03  0.7546771E-02  0.1159565E+00
         21   -1    0    0  501  502  0.00000000000E+00  0.00000000000E+00  0.53612160627E+03  0.53612160627E+03  0.00000000000E+00 0. -1.
         21   -1    0    0  502  503 -0.00000000000E+00 -0.00000000000E+00 -0.79305473818E+02  0.79305473818E+02  0.00000000000E+00 0. -1.
          6    1    1    2  501    0  0.57022489683E+02  0.49577525108E+02  0.35218004119E+03  0.39958638207E+03  0.17300000000E+03 0. -1.
         -6    1    1    2    0  503 -0.57022489683E+02 -0.49577525108E+02  0.10463609126E+03  0.21584069802E+03  0.17300000000E+03 0. -1.
<mgrwt>
<rscale>  2 0.18878161E+03</rscale>
<asrwt>0</asrwt>
<pdfrwt beam="1">  1       21 0.82480245E-01 0.18878161E+03</pdfrwt>
<pdfrwt beam="2">  1       21 0.12200842E-01 0.18878161E+03</pdfrwt>
<totfact> 0.73230373E+04</totfact>
</mgrwt>
</event>
<event>
 4    1  0.4035350E+000  0.2217404E+03  0.7546771E-02  0.1132592E+00
         21   -1    0    0  501  502  0.00000000000E+00  0.00000000000E+00  0.37224336858E+03  0.37224336858E+03  0.00000000000E+00 0. -1.
         21   -1    0    0  502  503 -0.00000000000E+00 -0.00000000000E+00 -0.16134479857E+03  0.16134479857E+03  0.00000000000E+00 0. -1.
          6    1    1    2  501    0 -0.13172579435E+03 -0.43452715976E+02  0.21905842701E+03  0.31169763854E+03  0.17300000000E+03 0. -1.
         -6    1    1    2    0  503  0.13172579435E+03  0.43452715976E+02 -0.81598570067E+01  0.22189052862E+03  0.17300000000E+03 0. -1.
<mgrwt>
<rscale>  2 0.22174044E+03</rscale>
<asrwt>0</asrwt>
<pdfrwt beam="1">  1       21 0.57268210E-01 0.22174044E+03</pdfrwt>
<pdfrwt beam="2">  1       21 0.24822277E-01 0.22174044E+03</pdfrwt>
<totfact> 0.43333274E+04</totfact>
</mgrwt>
</event>
<event>
 4    1  0.4035350E+000  0.1989836E+03  0.7546771E-02  0.1150599E+00
         21   -1    0    0  503  502  0.00000000000E+00  0.00000000000E+00  0.18485495826E+04  0.18485495826E+04  0.00000000000E+00 0.  1.
         21   -1    0    0  501  503 -0.00000000000E+00 -0.00000000000E+00 -0.21503442002E+02  0.21503442002E+02  0.00000000000E+00 0.  1.
          6    1    1    2  501    0 -0.58226419865E+02  0.79215778979E+02  0.85499948276E+03  0.87784883159E+03  0.17300000000E+03 0.  1.
         -6    1    1    2    0  502  0.58226419865E+02 -0.79215778979E+02  0.97204665780E+03  0.99220419298E+03  0.17300000000E+03 0.  1.
<mgrwt>
<rscale>  2 0.19898356E+03</rscale>
<asrwt>0</asrwt>
<pdfrwt beam="1">  1       21 0.28439212E+00 0.19898356E+03</pdfrwt>
<pdfrwt beam="2">  1       21 0.33082233E-02 0.19898356E+03</pdfrwt>
<totfact> 0.22452325E+04</totfact>
</mgrwt>
</event>
<event>
 4    1  0.4035350E+000  0.2003962E+03  0.7546771E-02  0.1149405E+00
         21   -1    0    0  501  502  0.00000000000E+00  0.00000000000E+00  0.18206629356E+03  0.18206629356E+03  0.00000000000E+00 0.  1.
         21   -1    0    0  502  503 -0.00000000000E+00 -0.00000000000E+00 -0.24964801632E+03  0.24964801632E+03  0.00000000000E+00 0.  1.
          6    1    1    2  501    0  0.47120432797E+02 -0.89494740682E+02  0.39876180903E+02  0.20432511740E+03  0.17300000000E+03 0.  1.
         -6    1    1    2    0  503 -0.47120432797E+02  0.89494740682E+02 -0.10745790366E+03  0.22738919248E+03  0.17300000000E+03 0.  1.
<mgrwt>
<rscale>  2 0.20039622E+03</rscale>
<asrwt>0</asrwt>
<pdfrwt beam="1">  1       21 0.28010199E-01 0.20039622E+03</pdfrwt>
<pdfrwt beam="2">  1       21 0.38407387E-01 0.20039622E+03</pdfrwt>
<totfact> 0.79324803E+04</totfact>
</mgrwt>
</event>
<event>
 4    1  0.4035350E+000  0.1836577E+03  0.7546771E-02  0.1164309E+00
         21   -1    0    0  503  502  0.00000000000E+00  0.00000000000E+00  0.33639722482E+02  0.33639722482E+02  0.00000000000E+00 0.  1.
         21   -1    0    0  501  503 -0.00000000000E+00 -0.00000000000E+00 -0.10199448150E+04  0.10199448150E+04  0.00000000000E+00 0.  1.
          6    1    1    2  501    0 -0.42313160163E+02  0.44841301610E+02 -0.42463032177E+03  0.46264571329E+03  0.17300000000E+03 0. -1.
         -6    1    1    2    0  502  0.42313160163E+02 -0.44841301610E+02 -0.56167477077E+03  0.59093882422E+03  0.17300000000E+03 0. -1.
<mgrwt>
<rscale>  2 0.18365769E+03</rscale>
<asrwt>0</asrwt>
<pdfrwt beam="1">  1       21 0.51753419E-02 0.18365769E+03</pdfrwt>
<pdfrwt beam="2">  1       21 0.15691459E+00 0.18365769E+03</pdfrwt>
<totfact> 0.67613330E+04</totfact>
</mgrwt>
</event>
<event>
 4    1  0.4035350E+000  0.2397479E+03  0.7546771E-02  0.1119961E+00
         21   -1    0    0  503  502  0.00000000000E+00  0.00000000000E+00  0.60699921014E+02  0.60699921014E+02  0.00000000000E+00 0.  1.
         21   -1    0    0  501  503 -0.00000000000E+00 -0.00000000000E+00 -0.95159075160E+03  0.95159075160E+03  0.00000000000E+00 0. -1.
          6    1    1    2  501    0 -0.16511860557E+03 -0.16908961649E+02 -0.48083709356E+03  0.53729263669E+03  0.17300000000E+03 0.  1.
         -6    1    1    2    0  502  0.16511860557E+03  0.16908961649E+02 -0.41005373702E+03  0.47499803593E+03  0.17300000000E+03 0. -1.
<mgrwt>
<rscale>  2 0.23974792E+03</rscale>
<asrwt>0</asrwt>
<pdfrwt beam="1">  1       21 0.93384493E-02 0.23974792E+03</pdfrwt>
<pdfrwt beam="2">  1       21 0.14639858E+00 0.23974792E+03</pdfrwt>
<totfact> 0.28374142E+04</totfact>
</mgrwt>
</event>
<event>
 4    1  0.4035350E+000  0.1801234E+03  0.7546771E-02  0.1167684E+00
         21   -1    0    0  503  502  0.00000000000E+00  0.00000000000E+00  0.25750672989E+02  0.25750672989E+02  0.00000000000E+00 0.  1.
         21   -1    0    0  501  503 -0.00000000000E+00 -0.00000000000E+00 -0.17794950459E+04  0.17794950459E+04  0.00000000000E+00 0.  1.
          6    1    1    2  501    0  0.37862461040E+02 -0.32891568834E+02 -0.13645935725E+04  0.13764301797E+04  0.17300000000E+03 0.  1.
         -6    1    1    2    0  502 -0.37862461040E+02  0.32891568834E+02 -0.38915080037E+03  0.42881553923E+03  0.17300000000E+03 0.  1.
<mgrwt>
<rscale>  2 0.18012335E+03</rscale>
<asrwt>0</asrwt>
<pdfrwt beam="1">  1       21 0.39616413E-02 0.18012335E+03</pdfrwt>
<pdfrwt beam="2">  1       21 0.27376852E+00 0.18012335E+03</pdfrwt>
<totfact> 0.19485727E+04</totfact>
</mgrwt>
</event>
<event>
 4    1  0.4035350E+000  0.1872041E+03  0.7546771E-02  0.1161007E+00
         21   -1    0    0  501  502  0.00000000000E+00  0.00000000000E+00  0.43389790033E+03  0.43389790033E+03  0.00000000000E+00 0. -1.
         21   -1    0    0  502  503 -0.00000000000E+00 -0.00000000000E+00 -0.10484638977E+03  0.10484638977E+03  0.00000000000E+00 0. -1.
          6    1    1    2  501    0 -0.70006449553E+02 -0.14679404217E+02  0.29361289146E+03  0.34821533269E+03  0.17300000000E+03 0. -1.
         -6    1    1    2    0  503  0.70006449553E+02  0.14679404217E+02  0.35438619103E+02  0.19052895741E+03  0.17300000000E+03 0. -1.
<mgrwt>
<rscale>  2 0.18720413E+03</rscale>
<asrwt>0</asrwt>
<pdfrwt beam="1">  1       21 0.66753522E-01 0.18720413E+03</pdfrwt>
<pdfrwt beam="2">  1       21 0.16130214E-01 0.18720413E+03</pdfrwt>
<totfact> 0.70816803E+04</totfact>
</mgrwt>
</event>
<event>
 4    1  0.4035350E+000  0.2338239E+03  0.7546771E-02  0.1123977E+00
         21   -1    0    0  501  502  0.00000000000E+00  0.00000000000E+00  0.10568707072E+04  0.10568707072E+04  0.00000000000E+00 0.  1.
         21   -1    0    0  502  503 -0.00000000000E+00 -0.00000000000E+00 -0.51867310288E+02  0.51867310288E+02  0.00000000000E+00 0.  1.
          6    1    1    2  501    0  0.32246238020E+02 -0.15396362735E+03  0.47414538401E+03  0.52866573900E+03  0.17300000000E+03 0.  1.
         -6    1    1    2    0  503 -0.32246238020E+02  0.15396362735E+03  0.53085801294E+03  0.58007227852E+03  0.17300000000E+03 0.  1.
<mgrwt>
<rscale>  2 0.23382390E+03</rscale>
<asrwt>0</asrwt>
<pdfrwt beam="1">  1       21 0.16259548E+00 0.23382390E+03</pdfrwt>
<pdfrwt beam="2">  1       21 0.79795870E-02 0.23382390E+03</pdfrwt>
<totfact> 0.28319784E+04</totfact>
</mgrwt>
</event>
<event>
 4    1  0.4035350E+000  0.2919010E+03  0.7546771E-02  0.1089361E+00
         21   -1    0    0  503  502  0.00000000000E+00  0.00000000000E+00  0.54931728243E+02  0.54931728243E+02  0.00000000000E+00 0. -1.
         21   -1    0    0  501  503 -0.00000000000E+00 -0.00000000000E+00 -0.15961222533E+04  0.15961222533E+04  0.00000000000E+00 0.  1.
          6    1    1    2  501    0 -0.95765975847E+02 -0.21472321207E+03 -0.63199202591E+03  0.69614660866E+03  0.17300000000E+03 0. -1.
         -6    1    1    2    0  502  0.95765975847E+02  0.21472321207E+03 -0.90919849910E+03  0.95490737283E+03  0.17300000000E+03 0.  1.
<mgrwt>
<rscale>  2 0.29190098E+03</rscale>
<asrwt>0</asrwt>
<pdfrwt beam="1">  1       21 0.84510341E-02 0.29190098E+03</pdfrwt>
<pdfrwt beam="2">  1       21 0.24555730E+00 0.29190098E+03</pdfrwt>
<totfact> 0.71120516E+03</totfact>
</mgrwt>
</event>
<event>
 4    1  0.4035350E+000  0.1749020E+03  0.7546771E-02  0.1172830E+00
         21   -1    0    0  503  502  0.00000000000E+00  0.00000000000E+00  0.18714205330E+03  0.18714205330E+03  0.00000000000E+00 0. -1.
         21   -1    0    0  501  503 -0.00000000000E+00 -0.00000000000E+00 -0.17512823079E+03  0.17512823079E+03  0.00000000000E+00 0. -1.
          6    1    1    2  501    0  0.25652897573E+02 -0.19039542694E+01 -0.40743105811E+02  0.17958479019E+03  0.17300000000E+03 0. -1.
         -6    1    1    2    0  502 -0.25652897573E+02  0.19039542694E+01  0.52756928316E+02  0.18268549390E+03  0.17300000000E+03 0. -1.
<mgrwt>
<rscale>  2 0.17490196E+03</rscale>
<asrwt>0</asrwt>
<pdfrwt beam="1">  1       21 0.28791085E-01 0.17490196E+03</pdfrwt>
<pdfrwt beam="2">  1       21 0.26942805E-01 0.17490196E+03</pdfrwt>
<totfact> 0.15234832E+05</totfact>
</mgrwt>
</event>
<event>
 4    1  0.4035350E+000  0.2223251E+03  0.7546771E-02  0.1132161E+00
         21   -1    0    0  501  502  0.00000000000E+00  0.00000000000E+00  0.83573670482E+03  0.83573670482E+03  0.00000000000E+00 0.  1.
         21   -1    0    0  502  503 -0.00000000000E+00 -0.00000000000E+00 -0.65858537712E+02  0.65858537712E+02  0.00000000000E+00 0. -1.
          6    1    1    2  501    0  0.12266670780E+03 -0.66725652449E+02  0.24099353122E+03  0.32788155787E+03  0.17300000000E+03 0. -1.
         -6    1    1    2    0  503 -0.12266670780E+03  0.66725652449E+02  0.52888463588E+03  0.57371368467E+03  0.17300000000E+03 0.  1.
<mgrwt>
<rscale>  2 0.22232506E+03</rscale>
<asrwt>0</asrwt>
<pdfrwt beam="1">  1       21 0.12857487E+00 0.22232506E+03</pdfrwt>
<pdfrwt beam="2">  1       21 0.10132083E-01 0.22232506E+03</pdfrwt>
<totfact> 0.34652517E+04</totfact>
</mgrwt>
</event>
<event>
 4    1  0.4035350E+000  0.2829159E+03  0.7546771E-02  0.1094107E+00
         21   -1    0    0  501  502  0.00000000000E+00  0.00000000000E+00  0.10317730935E+04  0.10317730935E+04  0.00000000000E+00 0.  1.
         21   -1    0    0  502  503 -0.00000000000E+00 -0.00000000000E+00 -0.85505973471E+02  0.85505973471E+02  0.00000000000E+00 0. -1.
          6    1    1    2  501    0 -0.17844187632E+03 -0.13516983943E+03  0.64325320345E+03  0.70272047961E+03  0.17300000000E+03 0.  1.
         -6    1    1    2    0  503  0.17844187632E+03  0.13516983943E+03  0.30301391660E+03  0.41455858738E+03  0.17300000000E+03 0. -1.
<mgrwt>
<rscale>  2 0.28291587E+03</rscale>
<asrwt>0</asrwt>
<pdfrwt beam="1">  1       21 0.15873431E+00 0.28291587E+03</pdfrwt>
<pdfrwt beam="2">  1       21 0.13154766E-01 0.28291587E+03</pdfrwt>
<totfact> 0.12086538E+04</totfact>
</mgrwt>
</event>
<event>
 4    1  0.4035350E+000  0.1909525E+03  0.7546771E-02  0.1157605E+00
         21   -1    0    0  503  502  0.00000000000E+00  0.00000000000E+00  0.16703122257E+03  0.16703122257E+03  0.00000000000E+00 0.  1.
         21   -1    0    0  501  503 -0.00000000000E+00 -0.00000000000E+00 -0.32705406345E+03  0.32705406345E+03  0.00000000000E+00 0.  1.
          6    1    1    2  501    0 -0.29790800877E+02 -0.75142336336E+02 -0.22246899128E+03  0.29318136811E+03  0.17300000000E+03 0.  1.
         -6    1    1    2    0  502  0.29790800877E+02  0.75142336336E+02  0.62446150402E+02  0.20090391790E+03  0.17300000000E+03 0.  1.
<mgrwt>
<rscale>  2 0.19095251E+03</rscale>
<asrwt>0</asrwt>
<pdfrwt beam="1">  1       21 0.25697111E-01 0.19095251E+03</pdfrwt>
<pdfrwt beam="2">  1       21 0.50316009E-01 0.19095251E+03</pdfrwt>
<totfact> 0.54088388E+04</totfact>
</mgrwt>
</event>
<event>
 4    1  0.4035350E+000  0.2587804E+03  0.7546771E-02  0.1107878E+00
         21   -1    0    0  503  502  0.00000000000E+00  0.00000000000E+00  0.49838758370E+02  0.49838758370E+02  0.00000000000E+00 0. -1.
         21   -1    0    0  501  503 -0.00000000000E+00 -0.00000000000E+00 -0.13893543664E+04  0.13893543664E+04  0.00000000000E+00 0.  1.
          6    1    1    2  501    0 -0.18805252966E+03  0.40921295891E+02 -0.80023130332E+03  0.84103355770E+03  0.17300000000E+03 0.  1.
         -6    1    1    2    0  502  0.18805252966E+03 -0.40921295891E+02 -0.53928430471E+03  0.59815956707E+03  0.17300000000E+03 0. -1.
<mgrwt>
<rscale>  2 0.25878042E+03</rscale>
<asrwt>0</asrwt>
<pdfrwt beam="1">  1       21 0.76675011E-02 0.25878042E+03</pdfrwt>
<pdfrwt beam="2">  1       21 0.21374683E+00 0.25878042E+03</pdfrwt>
<totfact> 0.13530922E+04</totfact>
</mgrwt>
</event>
<event>
 4    1  0.4035350E+000  0.1876109E+03  0.7546771E-02  0.1160634E+00
         21   -1    0    0  503  502  0.00000000000E+00  0.00000000000E+00  0.32764820270E+03  0.32764820270E+03  0.00000000000E+00 0.  1.
         21   -1    0    0  501  503 -0.00000000000E+00 -0.00000000000E+00 -0.24374658064E+03  0.24374658064E+03  0.00000000000E+00 0.  1.
          6    1    1    2  501    0  0.43797411330E+02  0.57884724907E+02 -0.17170667689E+03  0.25432466948E+03  0.17300000000E+03 0.  1.
         -6    1    1    2    0  502 -0.43797411330E+02 -0.57884724907E+02  0.25560829895E+03  0.31707011387E+03  0.17300000000E+03 0.  1.
<mgrwt>
<rscale>  2 0.18761091E+03</rscale>
<asrwt>0</asrwt>
<pdfrwt beam="1">  1       21 0.50407416E-01 0.18761091E+03</pdfrwt>
<pdfrwt beam="2">  1       21 0.37499474E-01 0.18761091E+03</pdfrwt>
<totfact> 0.25767098E+04</totfact>
</mgrwt>
</event>
<event>
 4    1  0.4035350E+000  0.2524134E+03  0.7546771E-02  0.1111789E+00
         21   -1    0    0  503  502  0.00000000000E+00  0.00000000000E+00  0.24222438004E+03  0.24222438004E+03  0.00000000000E+00 0.  1.
         21   -1    0    0  501  503 -0.00000000000E+00 -0.00000000000E+00 -0.32975130673E+03  0.32975130673E+03  0.00000000000E+00 0. -1.
          6    1    1    2  501    0 -0.17575918844E+03 -0.53779329480E+02  0.84878746696E+02  0.26630229110E+03  0.17300000000E+03 0.  1.
         -6    1    1    2    0  502  0.17575918844E+03  0.53779329480E+02 -0.17240567339E+03  0.30567339567E+03  0.17300000000E+03 0. -1.
<mgrwt>
<rscale>  2 0.25241337E+03</rscale>
<asrwt>0</asrwt>
<pdfrwt beam="1">  1       21 0.37265289E-01 0.25241337E+03</pdfrwt>
<pdfrwt beam="2">  1       21 0.50730970E-01 0.25241337E+03</pdfrwt>
<totfact> 0.24890722E+04</totfact>
</mgrwt>
</event>
<event>
 4    1  0.4035350E+000  0.2961467E+03  0.7546771E-02  0.1087183E+00
         21   -1    0    0  501  502  0.00000000000E+00  0.00000000000E+00  0.51631001201E+03  0.51631001201E+03  0.00000000000E+00 0.  1.
         21   -1    0    0  502  503 -0.00000000000E+00 -0.00000000000E+00 -0.21618518964E+03  0.21618518964E+03  0.00000000000E+00 0. -1.
          6    1    1    2  501    0  0.22547056675E+03  0.83288168246E+02 -0.19468124707E+02  0.29678595540E+03  0.17300000000E+03 0. -1.
         -6    1    1    2    0  503 -0.22547056675E+03 -0.83288168246E+02  0.31959294708E+03  0.43570924625E+03  0.17300000000E+03 0. -1.
<mgrwt>
<rscale>  2 0.29614675E+03</rscale>
<asrwt>0</asrwt>
<pdfrwt beam="1">  1       21 0.79432309E-01 0.29614675E+03</pdfrwt>
<pdfrwt beam="2">  1       21 0.33259260E-01 0.29614675E+03</pdfrwt>
<totfact> 0.11485196E+04</totfact>
</mgrwt>
</event>
<event>
 4    1  0.4035350E+000  0.2038515E+03  0.7546771E-02  0.1146530E+00
         21   -1    0    0  501  502  0.00000000000E+00  0.00000000000E+00  0.17477766705E+03  0.17477766705E+03  0.00000000000E+00 0.  1.
         21   -1    0    0  502  503 -0.00000000000E+00 -0.00000000000E+00 -0.28794658234E+03  0.28794658234E+03  0.00000000000E+00 0.  1.
          6    1    1    2  501    0 -0.10779038712E+03  0.27698905158E+01  0.40003423906E+02  0.20773953349E+03  0.17300000000E+03 0.  1.
         -6    1    1    2    0  503  0.10779038712E+03 -0.27698905158E+01 -0.15317233919E+03  0.25498471590E+03  0.17300000000E+03 0.  1.
<mgrwt>
<rscale>  2 0.20385151E+03</rscale>
<asrwt>0</asrwt>
<pdfrwt beam="1">  1       21 0.26888872E-01 0.20385151E+03</pdfrwt>
<pdfrwt beam="2">  1       21 0.44299474E-01 0.20385151E+03</pdfrwt>
<totfact> 0.64136721E+04</totfact>
</mgrwt>
</event>
<event>
 4    1  0.4035350E+000  0.1888629E+03  0.7546771E-02  0.1159491E+00
         21   -1    0    0  501  502  0.00000000000E+00  0.00000000000E+00  0.58862659352E+02  0.58862659352E+02  0.00000000000E+00 0.  1.
         21   -1    0    0  502  503 -0.00000000000E+00 -0.00000000000E+00 -0.74593001108E+03  0.74593001108E+03  0.00000000000E+00 0.  1.
          6    1    1    2  501    0  0.47484333248E+02 -0.59037626999E+02 -0.16923192415E+03  0.25359149721E+03  0.17300000000E+03 0. -1.
         -6    1    1    2    0  503 -0.47484333248E+02  0.59037626999E+02 -0.51783542758E+03  0.55120117323E+03  0.17300000000E+03 0. -1.
<mgrwt>
<rscale>  2 0.18886292E+03</rscale>
<asrwt>0</asrwt>
<pdfrwt beam="1">  1       21 0.90557935E-02 0.18886292E+03</pdfrwt>
<pdfrwt beam="2">  1       21 0.11475847E+00 0.18886292E+03</pdfrwt>
<totfact> 0.57048045E+04</totfact>
</mgrwt>
</event>
<event>
 4    1  0.4035350E+000  0.1938524E+03  0.7546771E-02  0.1155032E+00
         21   -1    0    0  503  502  0.00000000000E+00  0.00000000000E+00  0.20132115756E+03  0.20132115756E+03  0.00000000000E+00 0.  1.
         21   -1    0    0  501  503 -0.00000000000E+00 -0.00000000000E+00 -0.31199709805E+03  0.31199709805E+03  0.00000000000E+00 0.  1.
          6    1    1    2  501    0  0.80794407398E+02 -0.33496448643E+02  0.10733673946E+03  0.22158502652E+03  0.17300000000E+03 0.  1.
         -6    1    1    2    0  502 -0.80794407398E+02  0.33496448643E+02 -0.21801267995E+03  0.29173322909E+03  0.17300000000E+03 0.  1.
<mgrwt>
<rscale>  2 0.19385239E+03</rscale>
<asrwt>0</asrwt>
<pdfrwt beam="1">  1       21 0.30972486E-01 0.19385239E+03</pdfrwt>
<pdfrwt beam="2">  1       21 0.47999554E-01 0.19385239E+03</pdfrwt>
<totfact> 0.41509683E+04</totfact>
</mgrwt>
</event>
<event>
 4    1  0.4035350E+000  0.1851091E+03  0.7546771E-02  0.1162948E+00
         21   -1    0    0  503  502  0.00000000000E+00  0.00000000000E+00  0.97179661347E+02  0.97179661347E+02  0.00000000000E+00 0.  1.
         21   -1    0    0  501  503 -0.00000000000E+00 -0.00000000000E+00 -0.44443863193E+03  0.44443863193E+03  0.00000000000E+00 0.  1.
          6    1    1    2  501    0  0.64984457450E+02 -0.10649595852E+02 -0.29673397758E+03  0.34973768321E+03  0.17300000000E+03 0.  1.
         -6    1    1    2    0  502 -0.64984457450E+02  0.10649595852E+02 -0.50524992994E+02  0.19188061007E+03  0.17300000000E+03 0.  1.
<mgrwt>
<rscale>  2 0.18510914E+03</rscale>
<asrwt>0</asrwt>
<pdfrwt beam="1">  1       21 0.14950717E-01 0.18510914E+03</pdfrwt>
<pdfrwt beam="2">  1       21 0.68375173E-01 0.18510914E+03</pdfrwt>
<totfact> 0.77244650E+04</totfact>
</mgrwt>
</event>
<event>
 4    1  0.4035350E+000  0.1890115E+03  0.7546771E-02  0.1159356E+00
         21   -1    0    0  503  502  0.00000000000E+00  0.00000000000E+00  0.21411734227E+03  0.21411734227E+03  0.00000000000E+00 0.  1.
         21   -1    0    0  501  503 -0.00000000000E+00 -0.00000000000E+00 -0.25414820235E+03  0.25414820235E+03  0.00000000000E+00 0.  1.
          6    1    1    2  501    0 -0.76088005988E+02  0.26389770941E+01 -0.15723714527E+03  0.24586351642E+03  0.17300000000E+03 0.  1.
         -6    1    1    2    0  502  0.76088005988E+02 -0.26389770941E+01  0.11720628520E+03  0.22240202819E+03  0.17300000000E+03 0.  1.
<mgrwt>
<rscale>  2 0.18901150E+03</rscale>
<asrwt>0</asrwt>
<pdfrwt beam="1">  1       21 0.32941130E-01 0.18901150E+03</pdfrwt>
<pdfrwt beam="2">  1       21 0.39099723E-01 0.18901150E+03</pdfrwt>
<totfact> 0.56043071E+04</totfact>
</mgrwt>
</event>
<event>
 4    1  0.4035350E+000  0.2229274E+03  0.7546771E-02  0.1131719E+00
         21   -1    0    0  501  502  0.00000000000E+00  0.00000000000E+00  0.22057528270E+03  0.22057528270E+03  0.00000000000E+00 0.  1.
         21   -1    0    0  502  503 -0.00000000000E+00 -0.00000000000E+00 -0.56779300760E+03  0.56779300760E+03  0.00000000000E+00 0. -1.
          6    1    1    2  501    0 -0.80985067128E+02 -0.11493066480E+03  0.13253604039E+03  0.25935003530E+03  0.17300000000E+03 0.  1.
         -6    1    1    2    0  503  0.80985067128E+02  0.11493066480E+03 -0.47975376529E+03  0.52901825500E+03  0.17300000000E+03 0. -1.
<mgrwt>
<rscale>  2 0.22292743E+03</rscale>
<asrwt>0</asrwt>
<pdfrwt beam="1">  1       21 0.33934659E-01 0.22292743E+03</pdfrwt>
<pdfrwt beam="2">  1       21 0.87352770E-01 0.22292743E+03</pdfrwt>
<totfact> 0.92244529E+03</totfact>
</mgrwt>
</event>
<event>
 4    1  0.4035350E+000  0.2753970E+03  0.7546771E-02  0.1098230E+00
         21   -1    0    0  503  502  0.00000000000E+00  0.00000000000E+00  0.26209825187E+03  0.26209825187E+03  0.00000000000E+00 0. -1.
         21   -1    0    0  501  503 -0.00000000000E+00 -0.00000000000E+00 -0.42370853144E+03  0.42370853144E+03  0.00000000000E+00 0. -1.
          6    1    1    2  501    0 -0.16814282315E+03 -0.13282498572E+03 -0.27388535197E+03  0.38840271862E+03  0.17300000000E+03 0. -1.
         -6    1    1    2    0  502  0.16814282315E+03  0.13282498572E+03  0.11227507240E+03  0.29740406469E+03  0.17300000000E+03 0. -1.
<mgrwt>
<rscale>  2 0.27539696E+03</rscale>
<asrwt>0</asrwt>
<pdfrwt beam="1">  1       21 0.40322808E-01 0.27539696E+03</pdfrwt>
<pdfrwt beam="2">  1       21 0.65185927E-01 0.27539696E+03</pdfrwt>
<totfact> 0.12245053E+04</totfact>
</mgrwt>
</event>
<event>
 4    1  0.4035350E+000  0.1954308E+03  0.7546771E-02  0.1153652E+00
         21   -1    0    0  501  502  0.00000000000E+00  0.00000000000E+00  0.19902838077E+04  0.19902838077E+04  0.00000000000E+00 0.  1.
         21   -1    0    0  502  503 -0.00000000000E+00 -0.00000000000E+00 -0.21144500089E+02  0.21144500089E+02  0.00000000000E+00 0. -1.
          6    1    1    2  501    0  0.85600681618E+02 -0.30606197001E+02  0.12903518071E+04  0.13050674320E+04  0.17300000000E+03 0.  1.
         -6    1    1    2    0  503 -0.85600681618E+02  0.30606197001E+02  0.67878750046E+03  0.70636087573E+03  0.17300000000E+03 0. -1.
<mgrwt>
<rscale>  2 0.19543085E+03</rscale>
<asrwt>0</asrwt>
<pdfrwt beam="1">  1       21 0.30619736E+00 0.19543085E+03</pdfrwt>
<pdfrwt beam="2">  1       21 0.32530016E-02 0.19543085E+03</pdfrwt>
<totfact> 0.17345966E+04</totfact>
</mgrwt>
</event>
<event>
 4    1  0.4035350E+000  0.2548002E+03  0.7546771E-02  0.1110308E+00
         21   -1    0    0  503  502  0.00000000000E+00  0.00000000000E+00  0.89688370466E+02  0.89688370466E+02  0.00000000000E+00 0. -1.
         21   -1    0    0  501  503 -0.00000000000E+00 -0.00000000000E+00 -0.81806170428E+03  0.81806170428E+03  0.00000000000E+00 0.  1.
          6    1    1    2  501    0  0.12351377242E+03 -0.14049365017E+03 -0.51819328687E+03  0.57744904561E+03  0.17300000000E+03 0.  1.
         -6    1    1    2    0  502 -0.12351377242E+03  0.14049365017E+03 -0.21018004695E+03  0.33030102914E+03  0.17300000000E+03 0. -1.
<mgrwt>
<rscale>  2 0.25480015E+03</rscale>
<asrwt>0</asrwt>
<pdfrwt beam="1">  1       21 0.13798211E-01 0.25480015E+03</pdfrwt>
<pdfrwt beam="2">  1       21 0.12585565E+00 0.25480015E+03</pdfrwt>
<totfact> 0.20654640E+04</totfact>
</mgrwt>
</event>
<event>
 4    1  0.4035350E+000  0.1967785E+03  0.7546771E-02  0.1152486E+00
         21   -1    0    0  501  502  0.00000000000E+00  0.00000000000E+00  0.17912861743E+02  0.17912861743E+02  0.00000000000E+00 0. -1.
         21   -1    0    0  502  503 -0.00000000000E+00 -0.00000000000E+00 -0.24213884322E+04  0.24213884322E+04  0.00000000000E+00 0.  1.
          6    1    1    2  501    0 -0.19546107309E+02 -0.91710039613E+02 -0.80229866287E+03  0.82607803876E+03  0.17300000000E+03 0.  1.
         -6    1    1    2    0  503  0.19546107309E+02  0.91710039613E+02 -0.16011769075E+04  0.16132232551E+04  0.17300000000E+03 0.  1.
<mgrwt>
<rscale>  2 0.19677851E+03</rscale>
<asrwt>0</asrwt>
<pdfrwt beam="1">  1       21 0.27558250E-02 0.19677851E+03</pdfrwt>
<pdfrwt beam="2">  1       21 0.37252128E+00 0.19677851E+03</pdfrwt>
<totfact> 0.92961610E+03</totfact>
</mgrwt>
</event>
<event>
 4    1  0.4035350E+000  0.1821570E+03  0.7546771E-02  0.1165732E+00
         21   -1    0    0  501  502  0.00000000000E+00  0.00000000000E+00  0.21187100228E+02  0.21187100228E+02  0.00000000000E+00 0. -1.
         21   -1    0    0  502  503 -0.00000000000E+00 -0.00000000000E+00 -0.17352654285E+04  0.17352654285E+04  0.00000000000E+00 0. -1.
          6    1    1    2  501    0  0.27547302027E+02 -0.49933191310E+02 -0.58283398791E+03  0.61063625417E+03  0.17300000000E+03 0. -1.
         -6    1    1    2    0  503 -0.27547302027E+02  0.49933191310E+02 -0.11312443403E+04  0.11458162745E+04  0.17300000000E+03 0. -1.
<mgrwt>
<rscale>  2 0.18215701E+03</rscale>
<asrwt>0</asrwt>
<pdfrwt beam="1">  1       21 0.32595533E-02 0.18215701E+03</pdfrwt>
<pdfrwt beam="2">  1       21 0.26696396E+00 0.18215701E+03</pdfrwt>
<totfact> 0.29463940E+04</totfact>
</mgrwt>
</event>
<event>
 4    1  0.4035350E+000  0.1829924E+03  0.7546771E-02  0.1164938E+00
         21   -1    0    0  501  502  0.00000000000E+00  0.00000000000E+00  0.75098881237E+02  0.75098881237E+02  0.00000000000E+00 0.  1.
         21   -1    0    0  502  503 -0.00000000000E+00 -0.00000000000E+00 -0.57028313815E+03  0.57028313815E+03  0.00000000000E+00 0.  1.
          6    1    1    2  501    0 -0.39892120738E+02  0.44337873296E+02 -0.96886042756E+02  0.20705828548E+03  0.17300000000E+03 0. -1.
         -6    1    1    2    0  503  0.39892120738E+02 -0.44337873296E+02 -0.39829821416E+03  0.43832373391E+03  0.17300000000E+03 0. -1.
<mgrwt>
<rscale>  2 0.18299243E+03</rscale>
<asrwt>0</asrwt>
<pdfrwt beam="1">  1       21 0.11553674E-01 0.18299243E+03</pdfrwt>
<pdfrwt beam="2">  1       21 0.87735866E-01 0.18299243E+03</pdfrwt>
<totfact> 0.70266568E+04</totfact>
</mgrwt>
</event>
<event>
 4    1  0.4035350E+000  0.2079372E+03  0.7546771E-02  0.1143210E+00
         21   -1    0    0  501  502  0.00000000000E+00  0.00000000000E+00  0.13323015988E+04  0.13323015988E+04  0.00000000000E+00 0.  1.
         21   -1    0    0  502  503 -0.00000000000E+00 -0.00000000000E+00 -0.67363872690E+02  0.67363872690E+02  0.00000000000E+00 0.  1.
          6    1    1    2  501    0  0.11093107249E+03 -0.31672904223E+02  0.11362685026E+04  0.11551380808E+04  0.17300000000E+03 0.  1.
         -6    1    1    2    0  503 -0.11093107249E+03  0.31672904223E+02  0.12866922344E+03  0.24452739063E+03  0.17300000000E+03 0.  1.
<mgrwt>
<rscale>  2 0.20793719E+03</rscale>
<asrwt>0</asrwt>
<pdfrwt beam="1">  1       21 0.20496946E+00 0.20793719E+03</pdfrwt>
<pdfrwt beam="2">  1       21 0.10363674E-01 0.20793719E+03</pdfrwt>
<totfact> 0.93863605E+03</totfact>
</mgrwt>
</event>
<event>
 4    1  0.4035350E+000  0.2232561E+03  0.7546771E-02  0.1131479E+00
         21   -1    0    0  501  502  0.00000000000E+00  0.00000000000E+00  0.46206933911E+03  0.46206933911E+03  0.00000000000E+00 0.  1.
         21   -1    0    0  502  503 -0.00000000000E+00 -0.00000000000E+00 -0.10795866996E+03  0.10795866996E+03  0.00000000000E+00 0.  1.
          6    1    1    2  501    0 -0.10278881222E+03  0.96688845511E+02  0.18523814642E+03  0.29009730032E+03  0.17300000000E+03 0.  1.
         -6    1    1    2    0  503  0.10278881222E+03 -0.96688845511E+02  0.16887252273E+03  0.27993070874E+03  0.17300000000E+03 0.  1.
<mgrwt>
<rscale>  2 0.22325607E+03</rscale>
<asrwt>0</asrwt>
<pdfrwt beam="1">  1       21 0.71087590E-01 0.22325607E+03</pdfrwt>
<pdfrwt beam="2">  1       21 0.16609026E-01 0.22325607E+03</pdfrwt>
<totfact> 0.57492884E+04</totfact>
</mgrwt>
</event>
<event>
 4    1  0.4035350E+000  0.3341001E+03  0.7546771E-02  0.1069337E+00
         21   -1    0    0  501  502  0.00000000000E+00  0.00000000000E+00  0.65031127329E+03  0.65031127329E+03  0.00000000000E+00 0.  1.
         21   -1    0    0  502  503 -0.00000000000E+00 -0.00000000000E+00 -0.18694441583E+03  0.18694441583E+03  0.00000000000E+00 0. -1.
          6    1    1    2  501    0 -0.25401041984E+03  0.13104410398E+03  0.35144170378E+03  0.48490630201E+03  0.17300000000E+03 0.  1.
         -6    1    1    2    0  503  0.25401041984E+03 -0.13104410398E+03  0.11192515368E+03  0.35234938712E+03  0.17300000000E+03 0. -1.
<mgrwt>
<rscale>  2 0.33410006E+03</rscale>
<asrwt>0</asrwt>
<pdfrwt beam="1">  1       21 0.10004789E+00 0.33410006E+03</pdfrwt>
<pdfrwt beam="2">  1       21 0.28760680E-01 0.33410006E+03</pdfrwt>
<totfact> 0.87713156E+03</totfact>
</mgrwt>
</event>
<event>
 4    1  0.4035350E+000  0.1758749E+03  0.7546771E-02  0.1171856E+00
         21   -1    0    0  501  502  0.00000000000E+00  0.00000000000E+00  0.32544230207E+02  0.32544230207E+02  0.00000000000E+00 0. -1.
         21   -1    0    0  502  503 -0.00000000000E+00 -0.00000000000E+00 -0.13328390063E+04  0.13328390063E+04  0.00000000000E+00 0. -1.
          6    1    1    2  501    0 -0.24218846192E+02 -0.20406231988E+02 -0.28448260834E+03  0.33445825040E+03  0.17300000000E+03 0. -1.
         -6    1    1    2    0  503  0.24218846192E+02  0.20406231988E+02 -0.10158121677E+04  0.10309249861E+04  0.17300000000E+03 0. -1.
<mgrwt>
<rscale>  2 0.17587486E+03</rscale>
<asrwt>0</asrwt>
<pdfrwt beam="1">  1       21 0.50068039E-02 0.17587486E+03</pdfrwt>
<pdfrwt beam="2">  1       21 0.20505218E+00 0.17587486E+03</pdfrwt>
<totfact> 0.33867002E+04</totfact>
</mgrwt>
</event>
<event>
 4    1  0.4035350E+000  0.2051255E+03  0.7546771E-02  0.1145485E+00
         21   -1    0    0  503  502  0.00000000000E+00  0.00000000000E+00  0.37774477426E+02  0.37774477426E+02  0.00000000000E+00 0.  1.
         21   -1    0    0  501  503 -0.00000000000E+00 -0.00000000000E+00 -0.12138804730E+04  0.12138804730E+04  0.00000000000E+00 0.  1.
          6    1    1    2  501    0  0.14855218875E+02 -0.10920994999E+03 -0.76767229201E+03  0.79460508344E+03  0.17300000000E+03 0.  1.
         -6    1    1    2    0  502 -0.14855218875E+02  0.10920994999E+03 -0.40843370354E+03  0.45704986696E+03  0.17300000000E+03 0.  1.
<mgrwt>
<rscale>  2 0.20512555E+03</rscale>
<asrwt>0</asrwt>
<pdfrwt beam="1">  1       21 0.58114586E-02 0.20512555E+03</pdfrwt>
<pdfrwt beam="2">  1       21 0.18675083E+00 0.20512555E+03</pdfrwt>
<totfact> 0.33844985E+04</totfact>
</mgrwt>
</event>
<event>
 4    1  0.4035350E+000  0.1862627E+03  0.7546771E-02  0.1161876E+00
         21   -1    0    0  501  502  0.00000000000E+00  0.00000000000E+00  0.61555296401E+02  0.61555296401E+02  0.00000000000E+00 0. -1.
         21   -1    0    0  502  503 -0.00000000000E+00 -0.00000000000E+00 -0.11497637117E+04  0.11497637117E+04  0.00000000000E+00 0. -1.
          6    1    1    2  501    0  0.21014340965E+02 -0.65751115361E+02 -0.11166386842E+03  0.21716959089E+03  0.17300000000E+03 0. -1.
         -6    1    1    2    0  503 -0.21014340965E+02  0.65751115361E+02 -0.97654454689E+03  0.99414941722E+03  0.17300000000E+03 0. -1.
<mgrwt>
<rscale>  2 0.18626275E+03</rscale>
<asrwt>0</asrwt>
<pdfrwt beam="1">  1       21 0.94700461E-02 0.18626275E+03</pdfrwt>
<pdfrwt beam="2">  1       21 0.17688672E+00 0.18626275E+03</pdfrwt>
<totfact> 0.17150782E+04</totfact>
</mgrwt>
</event>
<event>
 4    1  0.4035350E+000  0.2415854E+03  0.7546771E-02  0.1118741E+00
         21   -1    0    0  501  502  0.00000000000E+00  0.00000000000E+00  0.49872822523E+03  0.49872822523E+03  0.00000000000E+00 0.  1.
         21   -1    0    0  502  503 -0.00000000000E+00 -0.00000000000E+00 -0.15695577441E+03  0.15695577441E+03  0.00000000000E+00 0.  1.
          6    1    1    2  501    0  0.13294254204E+03  0.10373415295E+03  0.33624670879E+03  0.41403543706E+03  0.17300000000E+03 0.  1.
         -6    1    1    2    0  503 -0.13294254204E+03 -0.10373415295E+03  0.55257420374E+01  0.24164856258E+03  0.17300000000E+03 0.  1.
<mgrwt>
<rscale>  2 0.24158538E+03</rscale>
<asrwt>0</asrwt>
<pdfrwt beam="1">  1       21 0.76727419E-01 0.24158538E+03</pdfrwt>
<pdfrwt beam="2">  1       21 0.24147042E-01 0.24158538E+03</pdfrwt>
<totfact> 0.23810545E+04</totfact>
</mgrwt>
</event>
<event>
 4    1  0.4035350E+000  0.2007793E+03  0.7546771E-02  0.1149083E+00
         21   -1    0    0  503  502  0.00000000000E+00  0.00000000000E+00  0.58990139952E+03  0.58990139952E+03  0.00000000000E+00 0. -1.
         21   -1    0    0  501  503 -0.00000000000E+00 -0.00000000000E+00 -0.88295882639E+02  0.88295882639E+02  0.00000000000E+00 0. -1.
          6    1    1    2  501    0 -0.59775296229E+02 -0.82524212057E+02  0.89582536383E+02  0.21985759582E+03  0.17300000000E+03 0. -1.
         -6    1    1    2    0  502  0.59775296229E+02  0.82524212057E+02  0.41202298050E+03  0.45833968634E+03  0.17300000000E+03 0. -1.
<mgrwt>
<rscale>  2 0.20077931E+03</rscale>
<asrwt>0</asrwt>
<pdfrwt beam="1">  1       21 0.90754059E-01 0.20077931E+03</pdfrwt>
<pdfrwt beam="2">  1       21 0.13583982E-01 0.20077931E+03</pdfrwt>
<totfact> 0.48188024E+04</totfact>
</mgrwt>
</event>
<event>
 4    1  0.4035350E+000  0.2910107E+03  0.7546771E-02  0.1089823E+00
         21   -1    0    0  501  502  0.00000000000E+00  0.00000000000E+00  0.13458738590E+04  0.13458738590E+04  0.00000000000E+00 0. -1.
         21   -1    0    0  502  503 -0.00000000000E+00 -0.00000000000E+00 -0.64297888402E+02  0.64297888402E+02  0.00000000000E+00 0.  1.
          6    1    1    2  501    0 -0.20712281269E+03  0.10889612568E+03  0.53770596824E+03  0.61140406771E+03  0.17300000000E+03 0. -1.
         -6    1    1    2    0  503  0.20712281269E+03 -0.10889612568E+03  0.74387000240E+03  0.79876767973E+03  0.17300000000E+03 0. -1.
<mgrwt>
<rscale>  2 0.29101070E+03</rscale>
<asrwt>0</asrwt>
<pdfrwt beam="1">  1       21 0.20705750E+00 0.29101070E+03</pdfrwt>
<pdfrwt beam="2">  1       21 0.98919838E-02 0.29101070E+03</pdfrwt>
<totfact> 0.93374825E+03</totfact>
</mgrwt>
</event>
<event>
 4    1  0.4035350E+000  0.1954034E+03  0.7546771E-02  0.1153676E+00
         21   -1    0    0  503  502  0.00000000000E+00  0.00000000000E+00  0.76915598074E+02  0.76915598074E+02  0.00000000000E+00 0. -1.
         21   -1    0    0  501  503 -0.00000000000E+00 -0.00000000000E+00 -0.56147980753E+03  0.56147980753E+03  0.00000000000E+00 0. -1.
          6    1    1    2  501    0  0.89642229988E+02  0.14757299964E+02 -0.35093622618E+03  0.40166994179E+03  0.17300000000E+03 0. -1.
         -6    1    1    2    0  502 -0.89642229988E+02 -0.14757299964E+02 -0.13362798328E+03  0.23672546381E+03  0.17300000000E+03 0. -1.
<mgrwt>
<rscale>  2 0.19540345E+03</rscale>
<asrwt>0</asrwt>
<pdfrwt beam="1">  1       21 0.11833169E-01 0.19540345E+03</pdfrwt>
<pdfrwt beam="2">  1       21 0.86381510E-01 0.19540345E+03</pdfrwt>
<totfact> 0.69397257E+04</totfact>
</mgrwt>
</event>
<event>
 4    1  0.4035350E+000  0.2488506E+03  0.7546771E-02  0.1114033E+00
         21   -1    0    0  501  502  0.00000000000E+00  0.00000000000E+00  0.22217818622E+03  0.22217818622E+03  0.00000000000E+00 0. -1.
         21   -1    0    0  502  503 -0.00000000000E+00 -0.00000000000E+00 -0.78608111304E+03  0.78608111304E+03  0.00000000000E+00 0.  1.
          6    1    1    2  501    0  0.17636986201E+03 -0.29854354633E+02  0.12305785600E+03  0.27761456489E+03  0.17300000000E+03 0. -1.
         -6    1    1    2    0  503 -0.17636986201E+03  0.29854354633E+02 -0.68696078282E+03  0.73064473436E+03  0.17300000000E+03 0.  1.
<mgrwt>
<rscale>  2 0.24885058E+03</rscale>
<asrwt>0</asrwt>
<pdfrwt beam="1">  1       21 0.34181260E-01 0.24885058E+03</pdfrwt>
<pdfrwt beam="2">  1       21 0.12093555E+00 0.24885058E+03</pdfrwt>
<totfact> 0.40956080E+03</totfact>
</mgrwt>
</event>
<event>
 4    1  0.4035350E+000  0.2583485E+03  0.7546771E-02  0.1108140E+00
         21   -1    0    0  503  502  0.00000000000E+00  0.00000000000E+00  0.20019611136E+04  0.20019611136E+04  0.00000000000E+00 0.  1.
         21   -1    0    0  501  503 -0.00000000000E+00 -0.00000000000E+00 -0.71229891219E+02  0.71229891219E+02  0.00000000000E+00 0.  1.
          6    1    1    2  501    0  0.15746912390E+03 -0.10962859333E+03  0.20932704003E+03  0.33250829034E+03  0.17300000000E+03 0.  1.
         -6    1    1    2    0  502 -0.15746912390E+03  0.10962859333E+03  0.17214041823E+04  0.17406827144E+04  0.17300000000E+03 0.  1.
<mgrwt>
<rscale>  2 0.25834851E+03</rscale>
<asrwt>0</asrwt>
<pdfrwt beam="1">  1       21 0.30799397E+00 0.25834851E+03</pdfrwt>
<pdfrwt beam="2">  1       21 0.10958446E-01 0.25834851E+03</pdfrwt>
<totfact> 0.19691689E+03</totfact>
</mgrwt>
</event>
<event>
 4    1  0.4035350E+000  0.2114844E+03  0.7546771E-02  0.1140396E+00
         21   -1    0    0  501  502  0.00000000000E+00  0.00000000000E+00  0.92894057198E+03  0.92894057198E+03  0.00000000000E+00 0. -1.
         21   -1    0    0  502  503 -0.00000000000E+00 -0.00000000000E+00 -0.50501481369E+02  0.50501481369E+02  0.00000000000E+00 0. -1.
          6    1    1    2  501    0 -0.10651797033E+03 -0.58741702809E+02  0.54496163833E+03  0.58455868217E+03  0.17300000000E+03 0. -1.
         -6    1    1    2    0  503  0.10651797033E+03  0.58741702809E+02  0.33347745228E+03  0.39488337118E+03  0.17300000000E+03 0. -1.
<mgrwt>
<rscale>  2 0.21148443E+03</rscale>
<asrwt>0</asrwt>
<pdfrwt beam="1">  1       21 0.14291392E+00 0.21148443E+03</pdfrwt>
<pdfrwt beam="2">  1       21 0.77694594E-02 0.21148443E+03</pdfrwt>
<totfact> 0.42374758E+04</totfact>
</mgrwt>
</event>
<event>
 4    1  0.4035350E+000  0.1943894E+03  0.7546771E-02  0.1154561E+00
         21   -1    0    0  503  502  0.00000000000E+00  0.00000000000E+00  0.53783341566E+03  0.53783341566E+03  0.00000000000E+00 0. -1.
         21   -1    0    0  501  503 -0.00000000000E+00 -0.00000000000E+00 -0.14881460716E+03  0.14881460716E+03  0.00000000000E+00 0. -1.
          6    1    1    2  501    0 -0.79436155896E+02 -0.39346553129E+02  0.44395277393E+03  0.48464556079E+03  0.17300000000E+03 0. -1.
         -6    1    1    2    0  502  0.79436155896E+02  0.39346553129E+02 -0.54933965434E+02  0.20200246203E+03  0.17300000000E+03 0. -1.
<mgrwt>
<rscale>  2 0.19438944E+03</rscale>
<asrwt>0</asrwt>
<pdfrwt beam="1">  1       21 0.82743601E-01 0.19438944E+03</pdfrwt>
<pdfrwt beam="2">  1       21 0.22894555E-01 0.19438944E+03</pdfrwt>
<totfact> 0.22788563E+04</totfact>
</mgrwt>
</event>
<event>
 4    1  0.4035350E+000  0.2258465E+03  0.7546771E-02  0.1129598E+00
         21   -1    0    0  501  502  0.00000000000E+00  0.00000000000E+00  0.39235341258E+03  0.39235341258E+03  0.00000000000E+00 0. -1.
         21   -1    0    0  502  503 -0.00000000000E+00 -0.00000000000E+00 -0.21645547895E+03  0.21645547895E+03  0.00000000000E+00 0. -1.
          6    1    1    2  501    0 -0.91184327949E+02  0.11297365153E+03 -0.10443044003E+03  0.24882191304E+03  0.17300000000E+03 0. -1.
         -6    1    1    2    0  503  0.91184327949E+02 -0.11297365153E+03  0.28032837366E+03  0.35998697849E+03  0.17300000000E+03 0. -1.
<mgrwt>
<rscale>  2 0.22584647E+03</rscale>
<asrwt>0</asrwt>
<pdfrwt beam="1">  1       21 0.60362063E-01 0.22584647E+03</pdfrwt>
<pdfrwt beam="2">  1       21 0.33300843E-01 0.22584647E+03</pdfrwt>
<totfact> 0.21798595E+04</totfact>
</mgrwt>
</event>
<event>
 4    1  0.4035350E+000  0.2038737E+03  0.7546771E-02  0.1146511E+00
         21   -1    0    0  503  502  0.00000000000E+00  0.00000000000E+00  0.33620048539E+03  0.33620048539E+03  0.00000000000E+00 0.  1.
         21   -1    0    0  501  503 -0.00000000000E+00 -0.00000000000E+00 -0.13814324970E+03  0.13814324970E+03  0.00000000000E+00 0.  1.
          6    1    1    2  501    0 -0.56127705957E+02 -0.92114941038E+02  0.22154530504E+02  0.20507390122E+03  0.17300000000E+03 0.  1.
         -6    1    1    2    0  502  0.56127705957E+02  0.92114941038E+02  0.17590270519E+03  0.26926983387E+03  0.17300000000E+03 0.  1.
<mgrwt>
<rscale>  2 0.20387369E+03</rscale>
<asrwt>0</asrwt>
<pdfrwt beam="1">  1       21 0.51723151E-01 0.20387369E+03</pdfrwt>
<pdfrwt beam="2">  1       21 0.21252808E-01 0.20387369E+03</pdfrwt>
<totfact> 0.72763943E+04</totfact>
</mgrwt>
</event>
<event>
 4    1  0.4035350E+000  0.2265497E+03  0.7546771E-02  0.1129092E+00
         21   -1    0    0  501  502  0.00000000000E+00  0.00000000000E+00  0.60278747684E+03  0.60278747684E+03  0.00000000000E+00 0. -1.
         21   -1    0    0  502  503 -0.00000000000E+00 -0.00000000000E+00 -0.85161918629E+02  0.85161918629E+02  0.00000000000E+00 0.  1.
          6    1    1    2  501    0  0.14626365742E+03 -0.16508617526E+01  0.26355454765E+03  0.34754249009E+03  0.17300000000E+03 0.  1.
         -6    1    1    2    0  503 -0.14626365742E+03  0.16508617526E+01  0.25407101056E+03  0.34040690539E+03  0.17300000000E+03 0. -1.
<mgrwt>
<rscale>  2 0.22654974E+03</rscale>
<asrwt>0</asrwt>
<pdfrwt beam="1">  1       21 0.92736532E-01 0.22654974E+03</pdfrwt>
<pdfrwt beam="2">  1       21 0.13101834E-01 0.22654974E+03</pdfrwt>
<totfact> 0.48309414E+04</totfact>
</mgrwt>
</event>
<event>
 4    1  0.4035350E+000  0.3019834E+03  0.7546771E-02  0.1084253E+00
         21   -1    0    0  501  502  0.00000000000E+00  0.00000000000E+00  0.27293892979E+03  0.27293892979E+03  0.00000000000E+00 0.  1.
         21   -1    0    0  502  503 -0.00000000000E+00 -0.00000000000E+00 -0.38958583002E+03  0.38958583002E+03  0.00000000000E+00 0.  1.
          6    1    1    2  501    0 -0.24061320779E+03  0.58054103471E+02  0.66670349715E+02  0.30925544494E+03  0.17300000000E+03 0.  1.
         -6    1    1    2    0  503  0.24061320779E+03 -0.58054103471E+02 -0.18331724995E+03  0.35326931486E+03  0.17300000000E+03 0.  1.
<mgrwt>
<rscale>  2 0.30198343E+03</rscale>
<asrwt>0</asrwt>
<pdfrwt beam="1">  1       21 0.41990604E-01 0.30198343E+03</pdfrwt>
<pdfrwt beam="2">  1       21 0.59936282E-01 0.30198343E+03</pdfrwt>
<totfact> 0.13377029E+04</totfact>
</mgrwt>
</event>
<event>
 4    1  0.4035350E+000  0.2480466E+03  0.7546771E-02  0.1114546E+00
         21   -1    0    0  501  502  0.00000000000E+00  0.00000000000E+00  0.24218121893E+03  0.24218121893E+03  0.00000000000E+00 0.  1.
         21   -1    0    0  502  503 -0.00000000000E+00 -0.00000000000E+00 -0.26332616699E+03  0.26332616699E+03  0.00000000000E+00 0. -1.
          6    1    1    2  501    0  0.59034947535E+02  0.16766928462E+03 -0.58001093226E+02  0.25473759214E+03  0.17300000000E+03 0. -1.
         -6    1    1    2    0  503 -0.59034947535E+02 -0.16766928462E+03  0.36856145167E+02  0.25076979378E+03  0.17300000000E+03 0. -1.
<mgrwt>
<rscale>  2 0.24804660E+03</rscale>
<asrwt>0</asrwt>
<pdfrwt beam="1">  1       21 0.37258649E-01 0.24804660E+03</pdfrwt>
<pdfrwt beam="2">  1       21 0.40511718E-01 0.24804660E+03</pdfrwt>
<totfact> 0.39736209E+04</totfact>
</mgrwt>
</event>
<event>
 4    1  0.4035350E+000  0.1911682E+03  0.7546771E-02  0.1157412E+00
         21   -1    0    0  501  502  0.00000000000E+00  0.00000000000E+00  0.28520612967E+02  0.28520612967E+02  0.00000000000E+00 0. -1.
         21   -1    0    0  502  503 -0.00000000000E+00 -0.00000000000E+00 -0.17948194406E+04  0.17948194406E+04  0.00000000000E+00 0. -1.
          6    1    1    2  501    0  0.22715171609E+02 -0.78104394207E+02 -0.39553240991E+03  0.43930759464E+03  0.17300000000E+03 0. -1.
         -6    1    1    2    0  503 -0.22715171609E+02  0.78104394207E+02 -0.13707664177E+04  0.13840324589E+04  0.17300000000E+03 0. -1.
<mgrwt>
<rscale>  2 0.19116819E+03</rscale>
<asrwt>0</asrwt>
<pdfrwt beam="1">  1       21 0.43877849E-02 0.19116819E+03</pdfrwt>
<pdfrwt beam="2">  1       21 0.27612618E+00 0.19116819E+03</pdfrwt>
<totfact> 0.15737746E+04</totfact>
</mgrwt>
</event>
<event>
 4    1  0.4035350E+000  0.3278828E+03  0.7546771E-02  0.1072078E+00
         21   -1    0    0  503  502  0.00000000000E+00  0.00000000000E+00  0.26839545949E+03  0.26839545949E+03  0.00000000000E+00 0. -1.
         21   -1    0    0  501  503 -0.00000000000E+00 -0.00000000000E+00 -0.63015412168E+03  0.63015412168E+03  0.00000000000E+00 0. -1.
          6    1    1    2  501    0  0.27322431032E+03  0.54098040039E+02 -0.45206944098E+03  0.55845671377E+03  0.17300000000E+03 0. -1.
         -6    1    1    2    0  502 -0.27322431032E+03 -0.54098040039E+02  0.90310778791E+02  0.34009286740E+03  0.17300000000E+03 0. -1.
<mgrwt>
<rscale>  2 0.32788279E+03</rscale>
<asrwt>0</asrwt>
<pdfrwt beam="1">  1       21 0.41291610E-01 0.32788279E+03</pdfrwt>
<pdfrwt beam="2">  1       21 0.96946786E-01 0.32788279E+03</pdfrwt>
<totfact> 0.45892891E+03</totfact>
</mgrwt>
</event>
<event>
 4    1  0.4035350E+000  0.1772939E+03  0.7546771E-02  0.1170448E+00
         21   -1    0    0  501  502  0.00000000000E+00  0.00000000000E+00  0.84860880546E+03  0.84860880546E+03  0.00000000000E+00 0.  1.
         21   -1    0    0  502  503 -0.00000000000E+00 -0.00000000000E+00 -0.94822032790E+02  0.94822032790E+02  0.00000000000E+00 0.  1.
          6    1    1    2  501    0  0.35766064896E+02  0.14996964667E+02  0.74512321893E+03  0.76592540873E+03  0.17300000000E+03 0.  1.
         -6    1    1    2    0  503 -0.35766064896E+02 -0.14996964667E+02  0.86635537436E+01  0.17750542952E+03  0.17300000000E+03 0.  1.
<mgrwt>
<rscale>  2 0.17729388E+03</rscale>
<asrwt>0</asrwt>
<pdfrwt beam="1">  1       21 0.13055520E+00 0.17729388E+03</pdfrwt>
<pdfrwt beam="2">  1       21 0.14588006E-01 0.17729388E+03</pdfrwt>
<totfact> 0.17829121E+04</totfact>
</mgrwt>
</event>
<event>
 4    1  0.4035350E+000  0.1780015E+03  0.7546771E-02  0.1169751E+00
         21   -1    0    0  503  502  0.00000000000E+00  0.00000000000E+00  0.88804837304E+03  0.88804837304E+03  0.00000000000E+00 0. -1.
         21   -1    0    0  501  503 -0.00000000000E+00 -0.00000000000E+00 -0.65219045588E+02  0.65219045588E+02  0.00000000000E+00 0. -1.
          6    1    1    2  501    0 -0.26145763164E+02  0.32740565276E+02  0.90636933046E+02  0.19974884024E+03  0.17300000000E+03 0. -1.
         -6    1    1    2    0  502  0.26145763164E+02 -0.32740565276E+02  0.73219239440E+03  0.75351857838E+03  0.17300000000E+03 0. -1.
<mgrwt>
<rscale>  2 0.17800153E+03</rscale>
<asrwt>0</asrwt>
<pdfrwt beam="1">  1       21 0.13662282E+00 0.17800153E+03</pdfrwt>
<pdfrwt beam="2">  1       21 0.10033700E-01 0.17800153E+03</pdfrwt>
<totfact> 0.31010977E+04</totfact>
</mgrwt>
</event>
<event>
 4    1  0.4035350E+000  0.2191118E+03  0.7546771E-02  0.1134547E+00
         21   -1    0    0  501  502  0.00000000000E+00  0.00000000000E+00  0.51486945867E+03  0.51486945867E+03  0.00000000000E+00 0.  1.
         21   -1    0    0  502  503 -0.00000000000E+00 -0.00000000000E+00 -0.34011423426E+03  0.34011423426E+03  0.00000000000E+00 0.  1.
          6    1    1    2  501    0  0.27515419507E+02  0.13162013789E+03  0.45158376885E+03  0.50193411848E+03  0.17300000000E+03 0.  1.
         -6    1    1    2    0  503 -0.27515419507E+02 -0.13162013789E+03 -0.27682854444E+03  0.35304957445E+03  0.17300000000E+03 0.  1.
<mgrwt>
<rscale>  2 0.21911175E+03</rscale>
<asrwt>0</asrwt>
<pdfrwt beam="1">  1       21 0.79210686E-01 0.21911175E+03</pdfrwt>
<pdfrwt beam="2">  1       21 0.52325267E-01 0.21911175E+03</pdfrwt>
<totfact> 0.47759617E+03</totfact>
</mgrwt>
</event>
<event>
 4    1  0.4035350E+000  0.2740507E+03  0.7546771E-02  0.1098983E+00
         21   -1    0    0  501  502  0.00000000000E+00  0.00000000000E+00  0.55064930887E+03  0.55064930887E+03  0.00000000000E+00 0.  1.
         21   -1    0    0  502  503 -0.00000000000E+00 -0.00000000000E+00 -0.31574402379E+03  0.31574402379E+03  0.00000000000E+00 0.  1.
          6    1    1    2  501    0 -0.68013905633E+02  0.20136753929E+03  0.44394387235E+03  0.52171825638E+03  0.17300000000E+03 0.  1.
         -6    1    1    2    0  503  0.68013905633E+02 -0.20136753929E+03 -0.20903858728E+03  0.34467507628E+03  0.17300000000E+03 0.  1.
<mgrwt>
<rscale>  2 0.27405068E+03</rscale>
<asrwt>0</asrwt>
<pdfrwt beam="1">  1       21 0.84715278E-01 0.27405068E+03</pdfrwt>
<pdfrwt beam="2">  1       21 0.48576004E-01 0.27405068E+03</pdfrwt>
<totfact> 0.46233065E+03</totfact>
</mgrwt>
</event>
<event>
 4    1  0.4035350E+000  0.2097839E+03  0.7546771E-02  0.1141737E+00
         21   -1    0    0  501  502  0.00000000000E+00  0.00000000000E+00  0.13655327560E+03  0.13655327560E+03  0.00000000000E+00 0.  1.
         21   -1    0    0  502  503 -0.00000000000E+00 -0.00000000000E+00 -0.51570908736E+03  0.51570908736E+03  0.00000000000E+00 0. -1.
          6    1    1    2  501    0  0.11484929464E+03 -0.29831285341E+02  0.10152239405E+02  0.21002936468E+03  0.17300000000E+03 0.  1.
         -6    1    1    2    0  503 -0.11484929464E+03  0.29831285341E+02 -0.38930805117E+03  0.44223299828E+03  0.17300000000E+03 0. -1.
<mgrwt>
<rscale>  2 0.20978386E+03</rscale>
<asrwt>0</asrwt>
<pdfrwt beam="1">  1       21 0.21008197E-01 0.20978386E+03</pdfrwt>
<pdfrwt beam="2">  1       21 0.79339858E-01 0.20978386E+03</pdfrwt>
<totfact> 0.29221259E+04</totfact>
</mgrwt>
</event>
<event>
 4    1  0.4035350E+000  0.1765668E+03  0.7546771E-02  0.1171168E+00
         21   -1    0    0  503  502  0.00000000000E+00  0.00000000000E+00  0.20205806746E+02  0.20205806746E+02  0.00000000000E+00 0. -1.
         21   -1    0    0  501  503 -0.00000000000E+00 -0.00000000000E+00 -0.15453749355E+04  0.15453749355E+04  0.00000000000E+00 0. -1.
          6    1    1    2  501    0 -0.30536575399E+02 -0.17729702884E+02 -0.73134773778E+03  0.75235984632E+03  0.17300000000E+03 0. -1.
         -6    1    1    2    0  502  0.30536575399E+02  0.17729702884E+02 -0.79382139098E+03  0.81322089593E+03  0.17300000000E+03 0. -1.
<mgrwt>
<rscale>  2 0.17656677E+03</rscale>
<asrwt>0</asrwt>
<pdfrwt beam="1">  1       21 0.31085859E-02 0.17656677E+03</pdfrwt>
<pdfrwt beam="2">  1       21 0.23774997E+00 0.17656677E+03</pdfrwt>
<totfact> 0.47453931E+04</totfact>
</mgrwt>
</event>
<event>
 4    1  0.4035350E+000  0.2095726E+03  0.7546771E-02  0.1141905E+00
         21   -1    0    0  501  502  0.00000000000E+00  0.00000000000E+00  0.14607643705E+04  0.14607643705E+04  0.00000000000E+00 0.  1.
         21   -1    0    0  502  503 -0.00000000000E+00 -0.00000000000E+00 -0.33285821863E+02  0.33285821863E+02  0.00000000000E+00 0.  1.
          6    1    1    2  501    0 -0.11554993088E+03 -0.25295639110E+02  0.94604546533E+03  0.96898022599E+03  0.17300000000E+03 0.  1.
         -6    1    1    2    0  503  0.11554993088E+03  0.25295639110E+02  0.48143308329E+03  0.52506996636E+03  0.17300000000E+03 0.  1.
<mgrwt>
<rscale>  2 0.20957256E+03</rscale>
<asrwt>0</asrwt>
<pdfrwt beam="1">  1       21 0.22473293E+00 0.20957256E+03</pdfrwt>
<pdfrwt beam="2">  1       21 0.51208968E-02 0.20957256E+03</pdfrwt>
<totfact> 0.23993679E+04</totfact>
</mgrwt>
</event>
<event>
 4    1  0.4035350E+000  0.2143103E+03  0.7546771E-02  0.1138197E+00
         21   -1    0    0  501  502  0.00000000000E+00  0.00000000000E+00  0.41919945501E+03  0.41919945501E+03  0.00000000000E+00 0.  1.
         21   -1    0    0  502  503 -0.00000000000E+00 -0.00000000000E+00 -0.18809818305E+03  0.18809818305E+03  0.00000000000E+00 0.  1.
          6    1    1    2  501    0  0.46674180862E+01  0.12640459533E+03  0.31175578177E+03  0.37831279912E+03  0.17300000000E+03 0.  1.
         -6    1    1    2    0  503 -0.46674180862E+01 -0.12640459533E+03 -0.80654509803E+02  0.22898483894E+03  0.17300000000E+03 0.  1.
<mgrwt>
<rscale>  2 0.21431030E+03</rscale>
<asrwt>0</asrwt>
<pdfrwt beam="1">  1       21 0.64492224E-01 0.21431030E+03</pdfrwt>
<pdfrwt beam="2">  1       21 0.28938182E-01 0.21431030E+03</pdfrwt>
<totfact> 0.25031630E+04</totfact>
</mgrwt>
</event>
<event>
 4    1  0.4035350E+000  0.1783477E+03  0.7546771E-02  0.1169412E+00
         21   -1    0    0  503  502  0.00000000000E+00  0.00000000000E+00  0.28226582007E+02  0.28226582007E+02  0.00000000000E+00 0.  1.
         21   -1    0    0  501  503 -0.00000000000E+00 -0.00000000000E+00 -0.11869890859E+04  0.11869890859E+04  0.00000000000E+00 0.  1.
          6    1    1    2  501    0 -0.37015898370E+02 -0.22555069597E+02 -0.71611575145E+03  0.73799029626E+03  0.17300000000E+03 0.  1.
         -6    1    1    2    0  502  0.37015898370E+02  0.22555069597E+02 -0.44264675245E+03  0.47722537166E+03  0.17300000000E+03 0.  1.
<mgrwt>
<rscale>  2 0.17834772E+03</rscale>
<asrwt>0</asrwt>
<pdfrwt beam="1">  1       21 0.43425506E-02 0.17834772E+03</pdfrwt>
<pdfrwt beam="2">  1       21 0.18261373E+00 0.17834772E+03</pdfrwt>
<totfact> 0.60142610E+04</totfact>
</mgrwt>
</event>
<event>
 4    1  0.4035350E+000  0.1955683E+03  0.7546771E-02  0.1153533E+00
         21   -1    0    0  503  502  0.00000000000E+00  0.00000000000E+00  0.19029409231E+04  0.19029409231E+04  0.00000000000E+00 0.  1.
         21   -1    0    0  501  503 -0.00000000000E+00 -0.00000000000E+00 -0.99726406304E+02  0.99726406304E+02  0.00000000000E+00 0.  1.
          6    1    1    2  501    0 -0.68869991832E+02 -0.59790495279E+02  0.68497573869E+01  0.19568826811E+03  0.17300000000E+03 0.  1.
         -6    1    1    2    0  502  0.68869991832E+02  0.59790495279E+02  0.17963647594E+04  0.18069790613E+04  0.17300000000E+03 0.  1.
<mgrwt>
<rscale>  2 0.19556835E+03</rscale>
<asrwt>0</asrwt>
<pdfrwt beam="1">  1       21 0.29276011E+00 0.19556835E+03</pdfrwt>
<pdfrwt beam="2">  1       21 0.15342525E-01 0.19556835E+03</pdfrwt>
<totfact> 0.14091818E+03</totfact>
</mgrwt>
</event>
<event>
 4    1  0.4035350E+000  0.1940450E+03  0.7546771E-02  0.1154863E+00
         21   -1    0    0  503  502  0.00000000000E+00  0.00000000000E+00  0.13097577001E+04  0.13097577001E+04  0.00000000000E+00 0.  1.
         21   -1    0    0  501  503 -0.00000000000E+00 -0.00000000000E+00 -0.31532634042E+02  0.31532634042E+02  0.00000000000E+00 0.  1.
          6    1    1    2  501    0  0.35782715826E+02  0.80274929379E+02  0.43983247993E+03  0.48073493470E+03  0.17300000000E+03 0.  1.
         -6    1    1    2    0  502 -0.35782715826E+02 -0.80274929379E+02  0.83839258618E+03  0.86055539949E+03  0.17300000000E+03 0.  1.
<mgrwt>
<rscale>  2 0.19404501E+03</rscale>
<asrwt>0</asrwt>
<pdfrwt beam="1">  1       21 0.20150114E+00 0.19404501E+03</pdfrwt>
<pdfrwt beam="2">  1       21 0.48511755E-02 0.19404501E+03</pdfrwt>
<totfact> 0.37146326E+04</totfact>
</mgrwt>
</event>
<event>
 4    1  0.4035350E+000  0.2170606E+03  0.7546771E-02  0.1136094E+00
         21   -1    0    0  503  502  0.00000000000E+00  0.00000000000E+00  0.13011323040E+03  0.13011323040E+03  0.00000000000E+00 0.  1.
         21   -1    0    0  501  503 -0.00000000000E+00 -0.00000000000E+00 -0.36441953997E+03  0.36441953997E+03  0.00000000000E+00 0. -1.
          6    1    1    2  501    0 -0.11767496440E+03 -0.57783119727E+02 -0.97468022823E+02  0.23793970170E+03  0.17300000000E+03 0. -1.
         -6    1    1    2    0  502  0.11767496440E+03  0.57783119727E+02 -0.13683828675E+03  0.25659306868E+03  0.17300000000E+03 0.  1.
<mgrwt>
<rscale>  2 0.21706056E+03</rscale>
<asrwt>0</asrwt>
<pdfrwt beam="1">  1       21 0.20017420E-01 0.21706056E+03</pdfrwt>
<pdfrwt beam="2">  1       21 0.56064544E-01 0.21706056E+03</pdfrwt>
<totfact> 0.68280490E+04</totfact>
</mgrwt>
</event>
<event>
 4    1  0.4035350E+000  0.2594726E+03  0.7546771E-02  0.1107461E+00
         21   -1    0    0  501  502  0.00000000000E+00  0.00000000000E+00  0.29536710141E+03  0.29536710141E+03  0.00000000000E+00 0. -1.
         21   -1    0    0  502  503 -0.00000000000E+00 -0.00000000000E+00 -0.23419796761E+03  0.23419796761E+03  0.00000000000E+00 0. -1.
          6    1    1    2  501    0  0.19229754079E+03 -0.20461830348E+02 -0.12697513992E+02  0.25978309713E+03  0.17300000000E+03 0. -1.
         -6    1    1    2    0  503 -0.19229754079E+03  0.20461830348E+02  0.73866647789E+02  0.26978197188E+03  0.17300000000E+03 0. -1.
<mgrwt>
<rscale>  2 0.25947260E+03</rscale>
<asrwt>0</asrwt>
<pdfrwt beam="1">  1       21 0.45441093E-01 0.25947260E+03</pdfrwt>
<pdfrwt beam="2">  1       21 0.36030457E-01 0.25947260E+03</pdfrwt>
<totfact> 0.33415477E+04</totfact>
</mgrwt>
</event>
<event>
 4    1  0.4035350E+000  0.1990661E+03  0.7546771E-02  0.1150529E+00
         21   -1    0    0  501  502  0.00000000000E+00  0.00000000000E+00  0.40946827023E+03  0.40946827023E+03  0.00000000000E+00 0. -1.
         21   -1    0    0  502  503 -0.00000000000E+00 -0.00000000000E+00 -0.28080670217E+03  0.28080670217E+03  0.00000000000E+00 0. -1.
          6    1    1    2  501    0 -0.65971037211E+02  0.73117268381E+02  0.34373424207E+03  0.39721598893E+03  0.17300000000E+03 0. -1.
         -6    1    1    2    0  503  0.65971037211E+02 -0.73117268381E+02 -0.21507267402E+03  0.29305898347E+03  0.17300000000E+03 0. -1.
<mgrwt>
<rscale>  2 0.19906610E+03</rscale>
<asrwt>0</asrwt>
<pdfrwt beam="1">  1       21 0.62995118E-01 0.19906610E+03</pdfrwt>
<pdfrwt beam="2">  1       21 0.43201031E-01 0.19906610E+03</pdfrwt>
<totfact> 0.11966492E+04</totfact>
</mgrwt>
</event>
<event>
 4    1  0.4035350E+000  0.3106607E+03  0.7546771E-02  0.1080030E+00
         21   -1    0    0  501  502  0.00000000000E+00  0.00000000000E+00  0.42059721581E+03  0.42059721581E+03  0.00000000000E+00 0.  1.
         21   -1    0    0  502  503 -0.00000000000E+00 -0.00000000000E+00 -0.54327457780E+03  0.54327457780E+03  0.00000000000E+00 0.  1.
          6    1    1    2  501    0  0.14730402574E+03 -0.21185517204E+03  0.30494399939E+03  0.43531704846E+03  0.17300000000E+03 0.  1.
         -6    1    1    2    0  503 -0.14730402574E+03  0.21185517204E+03 -0.42762136137E+03  0.52855474515E+03  0.17300000000E+03 0.  1.
<mgrwt>
<rscale>  2 0.31066073E+03</rscale>
<asrwt>0</asrwt>
<pdfrwt beam="1">  1       21 0.64707264E-01 0.31066073E+03</pdfrwt>
<pdfrwt beam="2">  1       21 0.83580704E-01 0.31066073E+03</pdfrwt>
<totfact> 0.25261361E+03</totfact>
</mgrwt>
</event>
<event>
 4    1  0.4035350E+000  0.1740765E+03  0.7546771E-02  0.1173662E+00
         21   -1    0    0  501  502  0.00000000000E+00  0.00000000000E+00  0.55726157615E+03  0.55726157615E+03  0.00000000000E+00 0. -1.
         21   -1    0    0  502  503 -0.00000000000E+00 -0.00000000000E+00 -0.13800881644E+03  0.13800881644E+03  0.00000000000E+00 0. -1.
          6    1    1    2  501    0  0.18812076710E+02  0.44439038069E+01  0.48024276385E+03  0.51081871025E+03  0.17300000000E+03 0. -1.
         -6    1    1    2    0  503 -0.18812076710E+02 -0.44439038069E+01 -0.60990004141E+02  0.18445168234E+03  0.17300000000E+03 0. -1.
<mgrwt>
<rscale>  2 0.17407654E+03</rscale>
<asrwt>0</asrwt>
<pdfrwt beam="1">  1       21 0.85732549E-01 0.17407654E+03</pdfrwt>
<pdfrwt beam="2">  1       21 0.21232126E-01 0.17407654E+03</pdfrwt>
<totfact> 0.24514999E+04</totfact>
</mgrwt>
</event>
<event>
 4    1  0.4035350E+000  0.2066574E+03  0.7546771E-02  0.1144241E+00
         21   -1    0    0  503  502  0.00000000000E+00  0.00000000000E+00  0.56729329167E+03  0.56729329167E+03  0.00000000000E+00 0.  1.
         21   -1    0    0  501  503 -0.00000000000E+00 -0.00000000000E+00 -0.20928201369E+03  0.20928201369E+03  0.00000000000E+00 0. -1.
          6    1    1    2  501    0  0.39864439206E+02 -0.10577852236E+03 -0.13169289522E+03  0.24505160264E+03  0.17300000000E+03 0. -1.
         -6    1    1    2    0  502 -0.39864439206E+02  0.10577852236E+03  0.48970417320E+03  0.53152370272E+03  0.17300000000E+03 0.  1.
<mgrwt>
<rscale>  2 0.20665737E+03</rscale>
<asrwt>0</asrwt>
<pdfrwt beam="1">  1       21 0.87275890E-01 0.20665737E+03</pdfrwt>
<pdfrwt beam="2">  1       21 0.32197233E-01 0.20665737E+03</pdfrwt>
<totfact> 0.10364928E+04</totfact>
</mgrwt>
</event>
<event>
 4    1  0.4035350E+000  0.1858071E+03  0.7546771E-02  0.1162298E+00
         21   -1    0    0  503  502  0.00000000000E+00  0.00000000000E+00  0.31426406842E+03  0.31426406842E+03  0.00000000000E+00 0.  1.
         21   -1    0    0  501  503 -0.00000000000E+00 -0.00000000000E+00 -0.11272787718E+03  0.11272787718E+03  0.00000000000E+00 0.  1.
          6    1    1    2  501    0  0.17835337456E+01 -0.67764887487E+02  0.66700267062E+02  0.19741627743E+03  0.17300000000E+03 0.  1.
         -6    1    1    2    0  502 -0.17835337456E+01  0.67764887487E+02  0.13483592417E+03  0.22957566817E+03  0.17300000000E+03 0.  1.
<mgrwt>
<rscale>  2 0.18580705E+03</rscale>
<asrwt>0</asrwt>
<pdfrwt beam="1">  1       21 0.48348318E-01 0.18580705E+03</pdfrwt>
<pdfrwt beam="2">  1       21 0.17342750E-01 0.18580705E+03</pdfrwt>
<totfact> 0.12317058E+05</totfact>
</mgrwt>
</event>
<event>
 4    1  0.4035350E+000  0.1954017E+03  0.7546771E-02  0.1153678E+00
         21   -1    0    0  501  502  0.00000000000E+00  0.00000000000E+00  0.22170640770E+02  0.22170640770E+02  0.00000000000E+00 0. -1.
         21   -1    0    0  502  503 -0.00000000000E+00 -0.00000000000E+00 -0.17289671462E+04  0.17289671462E+04  0.00000000000E+00 0.  1.
          6    1    1    2  501    0 -0.68399138644E+02 -0.59785975747E+02 -0.90826162322E+03  0.92904304598E+03  0.17300000000E+03 0.  1.
         -6    1    1    2    0  503  0.68399138644E+02  0.59785975747E+02 -0.79853488220E+03  0.82209474098E+03  0.17300000000E+03 0. -1.
<mgrwt>
<rscale>  2 0.19540165E+03</rscale>
<asrwt>0</asrwt>
<pdfrwt beam="1">  1       21 0.34108668E-02 0.19540165E+03</pdfrwt>
<pdfrwt beam="2">  1       21 0.26599502E+00 0.19540165E+03</pdfrwt>
<totfact> 0.27355214E+04</totfact>
</mgrwt>
</event>
<event>
 4    1  0.4035350E+000  0.1788724E+03  0.7546771E-02  0.1168899E+00
         21   -1    0    0  501  502  0.00000000000E+00  0.00000000000E+00  0.13114204627E+03  0.13114204627E+03  0.00000000000E+00 0. -1.
         21   -1    0    0  502  503 -0.00000000000E+00 -0.00000000000E+00 -0.34820201848E+03  0.34820201848E+03  0.00000000000E+00 0. -1.
          6    1    1    2  501    0  0.37095601669E+02 -0.26272667894E+02  0.22597148977E+02  0.18029411494E+03  0.17300000000E+03 0. -1.
         -6    1    1    2    0  503 -0.37095601669E+02  0.26272667894E+02 -0.23965712119E+03  0.29904994980E+03  0.17300000000E+03 0. -1.
<mgrwt>
<rscale>  2 0.17887240E+03</rscale>
<asrwt>0</asrwt>
<pdfrwt beam="1">  1       21 0.20175700E-01 0.17887240E+03</pdfrwt>
<pdfrwt beam="2">  1       21 0.53569541E-01 0.17887240E+03</pdfrwt>
<totfact> 0.75318765E+04</totfact>
</mgrwt>
</event>
<event>
 4    1  0.4035350E+000  0.1745383E+03  0.7546771E-02  0.1173196E+00
         21   -1    0    0  501  502  0.00000000000E+00  0.00000000000E+00  0.23784023231E+03  0.23784023231E+03  0.00000000000E+00 0. -1.
         21   -1    0    0  502  503 -0.00000000000E+00 -0.00000000000E+00 -0.28301699481E+03  0.28301699481E+03  0.00000000000E+00 0. -1.
          6    1    1    2  501    0 -0.15065528706E+02  0.17540338845E+02  0.17009922366E+03  0.24371577613E+03  0.17300000000E+03 0. -1.
         -6    1    1    2    0  503  0.15065528706E+02 -0.17540338845E+02 -0.21527598617E+03  0.27714145100E+03  0.17300000000E+03 0. -1.
<mgrwt>
<rscale>  2 0.17453834E+03</rscale>
<asrwt>0</asrwt>
<pdfrwt beam="1">  1       21 0.36590805E-01 0.17453834E+03</pdfrwt>
<pdfrwt beam="2">  1       21 0.43541076E-01 0.17453834E+03</pdfrwt>
<totfact> 0.36861602E+04</totfact>
</mgrwt>
</event>
<event>
 4    1  0.4035350E+000  0.1863911E+03  0.7546771E-02  0.1161757E+00
         21   -1    0    0  503  502  0.00000000000E+00  0.00000000000E+00  0.22714156503E+03  0.22714156503E+03  0.00000000000E+00 0.  1.
         21   -1    0    0  501  503 -0.00000000000E+00 -0.00000000000E+00 -0.16843642457E+03  0.16843642457E+03  0.00000000000E+00 0. -1.
          6    1    1    2  501    0 -0.64014001572E+02 -0.26736846296E+02 -0.30617996531E+02  0.18888915548E+03  0.17300000000E+03 0. -1.
         -6    1    1    2    0  502  0.64014001572E+02  0.26736846296E+02  0.89323136985E+02  0.20668883412E+03  0.17300000000E+03 0.  1.
<mgrwt>
<rscale>  2 0.18639112E+03</rscale>
<asrwt>0</asrwt>
<pdfrwt beam="1">  1       21 0.34944856E-01 0.18639112E+03</pdfrwt>
<pdfrwt beam="2">  1       21 0.25913296E-01 0.18639112E+03</pdfrwt>
<totfact> 0.11189024E+05</totfact>
</mgrwt>
</event>
<event>
 4    1  0.4035350E+000  0.1776317E+03  0.7546771E-02  0.1170115E+00
         21   -1    0    0  501  502  0.00000000000E+00  0.00000000000E+00  0.65824000366E+03  0.65824000366E+03  0.00000000000E+00 0.  1.
         21   -1    0    0  502  503 -0.00000000000E+00 -0.00000000000E+00 -0.40036473736E+03  0.40036473736E+03  0.00000000000E+00 0.  1.
          6    1    1    2  501    0 -0.35603469025E+02 -0.18878712659E+02  0.62554360979E+03  0.65027518832E+03  0.17300000000E+03 0.  1.
         -6    1    1    2    0  503  0.35603469025E+02  0.18878712659E+02 -0.36766834350E+03  0.40832955270E+03  0.17300000000E+03 0.  1.
<mgrwt>
<rscale>  2 0.17763168E+03</rscale>
<asrwt>0</asrwt>
<pdfrwt beam="1">  1       21 0.10126769E+00 0.17763168E+03</pdfrwt>
<pdfrwt beam="2">  1       21 0.61594575E-01 0.17763168E+03</pdfrwt>
<totfact> 0.19789517E+03</totfact>
</mgrwt>
</event>
<event>
 4    1  0.4035350E+000  0.2130904E+03  0.7546771E-02  0.1139142E+00
         21   -1    0    0  501  502  0.00000000000E+00  0.00000000000E+00  0.50376346497E+03  0.50376346497E+03  0.00000000000E+00 0. -1.
         21   -1    0    0  502  503 -0.00000000000E+00 -0.00000000000E+00 -0.93928160584E+02  0.93928160584E+02  0.00000000000E+00 0.  1.
          6    1    1    2  501    0 -0.12438437936E+03 -0.26534431593E+01  0.26496026136E+03  0.34001684471E+03  0.17300000000E+03 0. -1.
         -6    1    1    2    0  503  0.12438437936E+03  0.26534431593E+01  0.14487504303E+03  0.25767478084E+03  0.17300000000E+03 0.  1.
<mgrwt>
<rscale>  2 0.21309039E+03</rscale>
<asrwt>0</asrwt>
<pdfrwt beam="1">  1       21 0.77502070E-01 0.21309039E+03</pdfrwt>
<pdfrwt beam="2">  1       21 0.14450487E-01 0.21309039E+03</pdfrwt>
<totfact> 0.61430299E+04</totfact>
</mgrwt>
</event>
<event>
 4    1  0.4035350E+000  0.1759923E+03  0.7546771E-02  0.1171739E+00
         21   -1    0    0  501  502  0.00000000000E+00  0.00000000000E+00  0.74128134745E+02  0.74128134745E+02  0.00000000000E+00 0.  1.
         21   -1    0    0  502  503 -0.00000000000E+00 -0.00000000000E+00 -0.45857342790E+03  0.45857342790E+03  0.00000000000E+00 0.  1.
          6    1    1    2  501    0 -0.32043172132E+02  0.41852194175E+01 -0.11283459675E+03  0.20905723419E+03  0.17300000000E+03 0.  1.
         -6    1    1    2    0  503  0.32043172132E+02 -0.41852194175E+01 -0.27161069640E+03  0.32364432846E+03  0.17300000000E+03 0.  1.
<mgrwt>
<rscale>  2 0.17599228E+03</rscale>
<asrwt>0</asrwt>
<pdfrwt beam="1">  1       21 0.11404328E-01 0.17599228E+03</pdfrwt>
<pdfrwt beam="2">  1       21 0.70549759E-01 0.17599228E+03</pdfrwt>
<totfact> 0.11776769E+05</totfact>
</mgrwt>
</event>
<event>
 4    1  0.4035350E+000  0.2261331E+03  0.7546771E-02  0.1129391E+00
         21   -1    0    0  501  502  0.00000000000E+00  0.00000000000E+00  0.81640777508E+03  0.81640777508E+03  0.00000000000E+00 0. -1.
         21   -1    0    0  502  503 -0.00000000000E+00 -0.00000000000E+00 -0.62664364927E+02  0.62664364927E+02  0.00000000000E+00 0.  1.
          6    1    1    2  501    0  0.14296973639E+03  0.27692111468E+02  0.36745618338E+03  0.43146291297E+03  0.17300000000E+03 0.  1.
         -6    1    1    2    0  503 -0.14296973639E+03 -0.27692111468E+02  0.38628722677E+03  0.44760922704E+03  0.17300000000E+03 0.  1.
<mgrwt>
<rscale>  2 0.22613314E+03</rscale>
<asrwt>0</asrwt>
<pdfrwt beam="1">  1       21 0.12560119E+00 0.22613314E+03</pdfrwt>
<pdfrwt beam="2">  1       21 0.96406721E-02 0.22613314E+03</pdfrwt>
<totfact> 0.40066015E+04</totfact>
</mgrwt>
</event>
<event>
 4    1  0.4035350E+000  0.2038484E+03  0.7546771E-02  0.1146532E+00
         21   -1    0    0  501  502  0.00000000000E+00  0.00000000000E+00  0.19360851385E+03  0.19360851385E+03  0.00000000000E+00 0.  1.
         21   -1    0    0  502  503 -0.00000000000E+00 -0.00000000000E+00 -0.21468584688E+03  0.21468584688E+03  0.00000000000E+00 0. -1.
          6    1    1    2  501    0  0.87979452565E+02  0.62328041010E+02 -0.13835324202E+02  0.20431736335E+03  0.17300000000E+03 0.  1.
         -6    1    1    2    0  503 -0.87979452565E+02 -0.62328041010E+02 -0.72420088323E+01  0.20397699738E+03  0.17300000000E+03 0.  1.
<mgrwt>
<rscale>  2 0.20384840E+03</rscale>
<asrwt>0</asrwt>
<pdfrwt beam="1">  1       21 0.29785925E-01 0.20384840E+03</pdfrwt>
<pdfrwt beam="2">  1       21 0.33028592E-01 0.20384840E+03</pdfrwt>
<totfact> 0.94932469E+04</totfact>
</mgrwt>
</event>
<event>
 4    1  0.4035350E+000  0.2211921E+03  0.7546771E-02  0.1132997E+00
         21   -1    0    0  503  502  0.00000000000E+00  0.00000000000E+00  0.31513480938E+02  0.31513480938E+02  0.00000000000E+00 0.  1.
         21   -1    0    0  501  503 -0.00000000000E+00 -0.00000000000E+00 -0.16935966105E+04  0.16935966105E+04  0.00000000000E+00 0.  1.
          6    1    1    2  501    0 -0.12239727273E+03  0.63370655267E+02 -0.10799725250E+04  0.11023913039E+04  0.17300000000E+03 0.  1.
         -6    1    1    2    0  502  0.12239727273E+03 -0.63370655267E+02 -0.58211060461E+03  0.62271878751E+03  0.17300000000E+03 0.  1.
<mgrwt>
<rscale>  2 0.22119207E+03</rscale>
<asrwt>0</asrwt>
<pdfrwt beam="1">  1       21 0.48482266E-02 0.22119207E+03</pdfrwt>
<pdfrwt beam="2">  1       21 0.26055339E+00 0.22119207E+03</pdfrwt>
<totfact> 0.15940347E+04</totfact>
</mgrwt>
</event>
<event>
 4    1  0.4035350E+000  0.1944437E+03  0.7546771E-02  0.1154513E+00
         21   -1    0    0  503  502  0.00000000000E+00  0.00000000000E+00  0.26446237001E+02  0.26446237001E+02  0.00000000000E+00 0. -1.
         21   -1    0    0  501  503 -0.00000000000E+00 -0.00000000000E+00 -0.15008340250E+04  0.15008340250E+04  0.00000000000E+00 0. -1.
          6    1    1    2  501    0 -0.84875072680E+02 -0.25991934295E+02 -0.90352436644E+03  0.92421027875E+03  0.17300000000E+03 0. -1.
         -6    1    1    2    0  502  0.84875072680E+02  0.25991934295E+02 -0.57086342152E+03  0.60306998320E+03  0.17300000000E+03 0. -1.
<mgrwt>
<rscale>  2 0.19444372E+03</rscale>
<asrwt>0</asrwt>
<pdfrwt beam="1">  1       21 0.40686510E-02 0.19444372E+03</pdfrwt>
<pdfrwt beam="2">  1       21 0.23089759E+00 0.19444372E+03</pdfrwt>
<totfact> 0.32847117E+04</totfact>
</mgrwt>
</event>
<event>
 4    1  0.4035350E+000  0.1859646E+03  0.7546771E-02  0.1162152E+00
         21   -1    0    0  501  502  0.00000000000E+00  0.00000000000E+00  0.58104528827E+03  0.58104528827E+03  0.00000000000E+00 0. -1.
         21   -1    0    0  502  503 -0.00000000000E+00 -0.00000000000E+00 -0.67415136848E+02  0.67415136848E+02  0.00000000000E+00 0. -1.
          6    1    1    2  501    0 -0.67743184695E+02 -0.80421074487E+01  0.14584599738E+03  0.23633423264E+03  0.17300000000E+03 0. -1.
         -6    1    1    2    0  503  0.67743184695E+02  0.80421074487E+01  0.36778415404E+03  0.41212619248E+03  0.17300000000E+03 0. -1.
<mgrwt>
<rscale>  2 0.18596455E+03</rscale>
<asrwt>0</asrwt>
<pdfrwt beam="1">  1       21 0.89391580E-01 0.18596455E+03</pdfrwt>
<pdfrwt beam="2">  1       21 0.10371560E-01 0.18596455E+03</pdfrwt>
<totfact> 0.81417437E+04</totfact>
</mgrwt>
</event>
<event>
 4    1  0.4035350E+000  0.2255293E+03  0.7546771E-02  0.1129827E+00
         21   -1    0    0  503  502  0.00000000000E+00  0.00000000000E+00  0.14590397741E+04  0.14590397741E+04  0.00000000000E+00 0.  1.
         21   -1    0    0  501  503 -0.00000000000E+00 -0.00000000000E+00 -0.36261142526E+02  0.36261142526E+02  0.00000000000E+00 0.  1.
          6    1    1    2  501    0  0.14360090080E+03  0.17698574603E+02  0.56447046673E+03  0.60785719217E+03  0.17300000000E+03 0.  1.
         -6    1    1    2    0  502 -0.14360090080E+03 -0.17698574603E+02  0.85830816484E+03  0.88744372446E+03  0.17300000000E+03 0.  1.
<mgrwt>
<rscale>  2 0.22552928E+03</rscale>
<asrwt>0</asrwt>
<pdfrwt beam="1">  1       21 0.22446761E+00 0.22552928E+03</pdfrwt>
<pdfrwt beam="2">  1       21 0.55786384E-02 0.22552928E+03</pdfrwt>
<totfact> 0.20566730E+04</totfact>
</mgrwt>
</event>
<event>
 4    1  0.4035350E+000  0.1880188E+03  0.7546771E-02  0.1160260E+00
         21   -1    0    0  501  502  0.00000000000E+00  0.00000000000E+00  0.79304949072E+02  0.79304949072E+02  0.00000000000E+00 0. -1.
         21   -1    0    0  502  503 -0.00000000000E+00 -0.00000000000E+00 -0.44605375988E+03  0.44605375988E+03  0.00000000000E+00 0.  1.
          6    1    1    2  501    0  0.11400912688E+02 -0.72746697172E+02 -0.19010263174E+03  0.26737627672E+03  0.17300000000E+03 0.  1.
         -6    1    1    2    0  503 -0.11400912688E+02  0.72746697172E+02 -0.17664617907E+03  0.25798243223E+03  0.17300000000E+03 0.  1.
<mgrwt>
<rscale>  2 0.18801878E+03</rscale>
<asrwt>0</asrwt>
<pdfrwt beam="1">  1       21 0.12200761E-01 0.18801878E+03</pdfrwt>
<pdfrwt beam="2">  1       21 0.68623656E-01 0.18801878E+03</pdfrwt>
<totfact> 0.11045774E+05</totfact>
</mgrwt>
</event>
<event>
 4    1  0.4035350E+000  0.1976277E+03  0.7546771E-02  0.1151756E+00
         21   -1    0    0  501  502  0.00000000000E+00  0.00000000000E+00  0.28239795227E+03  0.28239795227E+03  0.00000000000E+00 0.  1.
         21   -1    0    0  502  503 -0.00000000000E+00 -0.00000000000E+00 -0.24983602552E+03  0.24983602552E+03  0.00000000000E+00 0.  1.
          6    1    1    2  501    0 -0.69429047279E+02 -0.65630210684E+02  0.19408646870E+03  0.27699508027E+03  0.17300000000E+03 0.  1.
         -6    1    1    2    0  503  0.69429047279E+02  0.65630210684E+02 -0.16152454195E+03  0.25523889753E+03  0.17300000000E+03 0.  1.
<mgrwt>
<rscale>  2 0.19762772E+03</rscale>
<asrwt>0</asrwt>
<pdfrwt beam="1">  1       21 0.43445839E-01 0.19762772E+03</pdfrwt>
<pdfrwt beam="2">  1       21 0.38436311E-01 0.19762772E+03</pdfrwt>
<totfact> 0.33151337E+04</totfact>
</mgrwt>
</event>
<event>
 4    1  0.4035350E+000  0.2114054E+03  0.7546771E-02  0.1140458E+00
         21   -1    0    0  503  502  0.00000000000E+00  0.00000000000E+00  0.15488156633E+03  0.15488156633E+03  0.00000000000E+00 0.  1.
         21   -1    0    0  501  503 -0.00000000000E+00 -0.00000000000E+00 -0.31076819042E+03  0.31076819042E+03  0.00000000000E+00 0.  1.
          6    1    1    2  501    0 -0.11696219406E+03 -0.32910135462E+02 -0.14018659569E+03  0.25366220346E+03  0.17300000000E+03 0.  1.
         -6    1    1    2    0  502  0.11696219406E+03  0.32910135462E+02 -0.15700028398E+02  0.21198755328E+03  0.17300000000E+03 0.  1.
<mgrwt>
<rscale>  2 0.21140537E+03</rscale>
<asrwt>0</asrwt>
<pdfrwt beam="1">  1       21 0.23827933E-01 0.21140537E+03</pdfrwt>
<pdfrwt beam="2">  1       21 0.47810491E-01 0.21140537E+03</pdfrwt>
<totfact> 0.68834062E+04</totfact>
</mgrwt>
</event>
<event>
 4    1  0.4035350E+000  0.2188354E+03  0.7546771E-02  0.1134754E+00
         21   -1    0    0  501  502  0.00000000000E+00  0.00000000000E+00  0.56815386678E+03  0.56815386678E+03  0.00000000000E+00 0. -1.
         21   -1    0    0  502  503 -0.00000000000E+00 -0.00000000000E+00 -0.13092074387E+03  0.13092074387E+03  0.00000000000E+00 0. -1.
          6    1    1    2  501    0 -0.37387603468E+02 -0.12869375246E+03  0.42722497597E+03  0.48001051541E+03  0.17300000000E+03 0. -1.
         -6    1    1    2    0  503  0.37387603468E+02  0.12869375246E+03  0.10008146946E+02  0.21906409523E+03  0.17300000000E+03 0. -1.
<mgrwt>
<rscale>  2 0.21883536E+03</rscale>
<asrwt>0</asrwt>
<pdfrwt beam="1">  1       21 0.87408286E-01 0.21883536E+03</pdfrwt>
<pdfrwt beam="2">  1       21 0.20141653E-01 0.21883536E+03</pdfrwt>
<totfact> 0.25223811E+04</totfact>
</mgrwt>
</event>
<event>
 4    1  0.4035350E+000  0.2177011E+03  0.7546771E-02  0.1135609E+00
         21   -1    0    0  503  502  0.00000000000E+00  0.00000000000E+00  0.90322933480E+02  0.90322933480E+02  0.00000000000E+00 0. -1.
         21   -1    0    0  501  503 -0.00000000000E+00 -0.00000000000E+00 -0.77194626750E+03  0.77194626750E+03  0.00000000000E+00 0. -1.
          6    1    1    2  501    0  0.44818223751E+02  0.12432255547E+03 -0.58480126045E+03  0.62400824130E+03  0.17300000000E+03 0. -1.
         -6    1    1    2    0  502 -0.44818223751E+02 -0.12432255547E+03 -0.96822073565E+02  0.23826095968E+03  0.17300000000E+03 0. -1.
<mgrwt>
<rscale>  2 0.21770110E+03</rscale>
<asrwt>0</asrwt>
<pdfrwt beam="1">  1       21 0.13895835E-01 0.21770110E+03</pdfrwt>
<pdfrwt beam="2">  1       21 0.11876097E+00 0.21770110E+03</pdfrwt>
<totfact> 0.24057234E+04</totfact>
</mgrwt>
</event>
<event>
 4    1  0.4035350E+000  0.2123467E+03  0.7546771E-02  0.1139721E+00
         21   -1    0    0  503  502  0.00000000000E+00  0.00000000000E+00  0.83182916960E+02  0.83182916960E+02  0.00000000000E+00 0.  1.
         21   -1    0    0  501  503 -0.00000000000E+00 -0.00000000000E+00 -0.54687212683E+03  0.54687212683E+03  0.00000000000E+00 0.  1.
          6    1    1    2  501    0 -0.84344242380E+02  0.89711615930E+02 -0.20233015949E+03  0.29330635638E+03  0.17300000000E+03 0.  1.
         -6    1    1    2    0  502  0.84344242380E+02 -0.89711615930E+02 -0.26135905038E+03  0.33674868741E+03  0.17300000000E+03 0.  1.
<mgrwt>
<rscale>  2 0.21234671E+03</rscale>
<asrwt>0</asrwt>
<pdfrwt beam="1">  1       21 0.12797372E-01 0.21234671E+03</pdfrwt>
<pdfrwt beam="2">  1       21 0.84134170E-01 0.21234671E+03</pdfrwt>
<totfact> 0.63549953E+04</totfact>
</mgrwt>
</event>
<event>
 4    1  0.4035350E+000  0.2870129E+03  0.7546771E-02  0.1091919E+00
         21   -1    0    0  503  502  0.00000000000E+00  0.00000000000E+00  0.16064586887E+04  0.16064586887E+04  0.00000000000E+00 0.  1.
         21   -1    0    0  501  503 -0.00000000000E+00 -0.00000000000E+00 -0.53712448777E+02  0.53712448777E+02  0.00000000000E+00 0. -1.
          6    1    1    2  501    0 -0.20543329967E+03 -0.10121532593E+03  0.59966202398E+03  0.66480893933E+03  0.17300000000E+03 0.  1.
         -6    1    1    2    0  502  0.20543329967E+03  0.10121532593E+03  0.95308421596E+03  0.99536219816E+03  0.17300000000E+03 0. -1.
<mgrwt>
<rscale>  2 0.28701286E+03</rscale>
<asrwt>0</asrwt>
<pdfrwt beam="1">  1       21 0.24714745E+00 0.28701286E+03</pdfrwt>
<pdfrwt beam="2">  1       21 0.82634549E-02 0.28701286E+03</pdfrwt>
<totfact> 0.72601383E+03</totfact>
</mgrwt>
</event>
<event>
 4    1  0.4035350E+000  0.1761816E+03  0.7546771E-02  0.1171550E+00
         21   -1    0    0  503  502  0.00000000000E+00  0.00000000000E+00  0.19037738218E+03  0.19037738218E+03  0.00000000000E+00 0.  1.
         21   -1    0    0  501  503 -0.00000000000E+00 -0.00000000000E+00 -0.43965154504E+03  0.43965154504E+03  0.00000000000E+00 0. -1.
          6    1    1    2  501    0  0.21536958874E+02 -0.25438567255E+02 -0.37450350999E+03  0.41387539224E+03  0.17300000000E+03 0. -1.
         -6    1    1    2    0  502 -0.21536958874E+02  0.25438567255E+02  0.12522934714E+03  0.21615353498E+03  0.17300000000E+03 0.  1.
<mgrwt>
<rscale>  2 0.17618161E+03</rscale>
<asrwt>0</asrwt>
<pdfrwt beam="1">  1       21 0.29288828E-01 0.17618161E+03</pdfrwt>
<pdfrwt beam="2">  1       21 0.67638699E-01 0.17618161E+03</pdfrwt>
<totfact> 0.22527223E+04</totfact>
</mgrwt>
</event>
<event>
 4    1  0.4035350E+000  0.2241832E+03  0.7546771E-02  0.1130802E+00
         21   -1    0    0  503  502  0.00000000000E+00  0.00000000000E+00  0.10064360353E+03  0.10064360353E+03  0.00000000000E+00 0. -1.
         21   -1    0    0  501  503 -0.00000000000E+00 -0.00000000000E+00 -0.99754946288E+03  0.99754946288E+03  0.00000000000E+00 0.  1.
          6    1    1    2  501    0  0.14255604162E+03 -0.26213294110E+01 -0.83649221064E+03  0.86601230639E+03  0.17300000000E+03 0.  1.
         -6    1    1    2    0  502 -0.14255604162E+03  0.26213294110E+01 -0.60413648721E+02  0.23218076002E+03  0.17300000000E+03 0.  1.
<mgrwt>
<rscale>  2 0.22418318E+03</rscale>
<asrwt>0</asrwt>
<pdfrwt beam="1">  1       21 0.15483631E-01 0.22418318E+03</pdfrwt>
<pdfrwt beam="2">  1       21 0.15346915E+00 0.22418318E+03</pdfrwt>
<totfact> 0.10181701E+04</totfact>
</mgrwt>
</event>
<event>
 4    1  0.4035350E+000  0.1880670E+03  0.7546771E-02  0.1160216E+00
         21   -1    0    0  503  502  0.00000000000E+00  0.00000000000E+00  0.86164832021E+02  0.86164832021E+02  0.00000000000E+00 0.  1.
         21   -1    0    0  501  503 -0.00000000000E+00 -0.00000000000E+00 -0.64955533971E+03  0.64955533971E+03  0.00000000000E+00 0.  1.
          6    1    1    2  501    0  0.50197143103E+02  0.54041093169E+02 -0.50486705396E+03  0.53875777034E+03  0.17300000000E+03 0.  1.
         -6    1    1    2    0  502 -0.50197143103E+02 -0.54041093169E+02 -0.58523453733E+02  0.19696240140E+03  0.17300000000E+03 0.  1.
<mgrwt>
<rscale>  2 0.18806699E+03</rscale>
<asrwt>0</asrwt>
<pdfrwt beam="1">  1       21 0.13256128E-01 0.18806699E+03</pdfrwt>
<pdfrwt beam="2">  1       21 0.99931592E-01 0.18806699E+03</pdfrwt>
<totfact> 0.40451596E+04</totfact>
</mgrwt>
</event>
<event>
 4    1  0.4035350E+000  0.2343303E+03  0.7546771E-02  0.1123628E+00
         21   -1    0    0  501  502  0.00000000000E+00  0.00000000000E+00  0.54845655884E+02  0.54845655884E+02  0.00000000000E+00 0. -1.
         21   -1    0    0  502  503 -0.00000000000E+00 -0.00000000000E+00 -0.10068297730E+04  0.10068297730E+04  0.00000000000E+00 0.  1.
          6    1    1    2  501    0  0.13163337940E+03  0.87489151649E+02 -0.51573607399E+03  0.56647541540E+03  0.17300000000E+03 0.  1.
         -6    1    1    2    0  503 -0.13163337940E+03 -0.87489151649E+02 -0.43624804312E+03  0.49520001348E+03  0.17300000000E+03 0. -1.
<mgrwt>
<rscale>  2 0.23433032E+03</rscale>
<asrwt>0</asrwt>
<pdfrwt beam="1">  1       21 0.84377934E-02 0.23433032E+03</pdfrwt>
<pdfrwt beam="2">  1       21 0.15489688E+00 0.23433032E+03</pdfrwt>
<totfact> 0.29283412E+04</totfact>
</mgrwt>
</event>
<event>
 4    1  0.4035350E+000  0.1966090E+03  0.7546771E-02  0.1152632E+00
         21   -1    0    0  503  502  0.00000000000E+00  0.00000000000E+00  0.15669702574E+04  0.15669702574E+04  0.00000000000E+00 0. -1.
         21   -1    0    0  501  503 -0.00000000000E+00 -0.00000000000E+00 -0.54826298224E+02  0.54826298224E+02  0.00000000000E+00 0.  1.
          6    1    1    2  501    0 -0.41498026285E+02 -0.83690024435E+02  0.15466238767E+03  0.25015107542E+03  0.17300000000E+03 0.  1.
         -6    1    1    2    0  502  0.41498026285E+02  0.83690024435E+02  0.13574815715E+04  0.13716454802E+04  0.17300000000E+03 0. -1.
<mgrwt>
<rscale>  2 0.19660902E+03</rscale>
<asrwt>0</asrwt>
<pdfrwt beam="1">  1       21 0.24107231E+00 0.19660902E+03</pdfrwt>
<pdfrwt beam="2">  1       21 0.84348163E-02 0.19660902E+03</pdfrwt>
<totfact> 0.81843891E+03</totfact>
</mgrwt>
</event>
<event>
 4    1  0.4035350E+000  0.2091396E+03  0.7546771E-02  0.1142249E+00
         21   -1    0    0  501  502  0.00000000000E+00  0.00000000000E+00  0.97952940069E+03  0.97952940069E+03  0.00000000000E+00 0.  1.
         21   -1    0    0  502  503 -0.00000000000E+00 -0.00000000000E+00 -0.55230165067E+02  0.55230165067E+02  0.00000000000E+00 0.  1.
          6    1    1    2  501    0  0.80469787672E+01 -0.11724169965E+03  0.23573908565E+03  0.31513851956E+03  0.17300000000E+03 0.  1.
         -6    1    1    2    0  503 -0.80469787672E+01  0.11724169965E+03  0.68856014997E+03  0.71962104620E+03  0.17300000000E+03 0.  1.
<mgrwt>
<rscale>  2 0.20913959E+03</rscale>
<asrwt>0</asrwt>
<pdfrwt beam="1">  1       21 0.15069682E+00 0.20913959E+03</pdfrwt>
<pdfrwt beam="2">  1       21 0.84969492E-02 0.20913959E+03</pdfrwt>
<totfact> 0.31576327E+04</totfact>
</mgrwt>
</event>
<event>
 4    1  0.4035350E+000  0.1748302E+03  0.7546771E-02  0.1172902E+00
         21   -1    0    0  501  502  0.00000000000E+00  0.00000000000E+00  0.22396290168E+03  0.22396290168E+03  0.00000000000E+00 0.  1.
         21   -1    0    0  502  503 -0.00000000000E+00 -0.00000000000E+00 -0.16953340626E+03  0.16953340626E+03  0.00000000000E+00 0.  1.
          6    1    1    2  501    0 -0.24583494114E+02  0.56782127885E+01  0.11409409511E+03  0.20876554510E+03  0.17300000000E+03 0.  1.
         -6    1    1    2    0  503  0.24583494114E+02 -0.56782127885E+01 -0.59664599691E+02  0.18473076284E+03  0.17300000000E+03 0.  1.
<mgrwt>
<rscale>  2 0.17483018E+03</rscale>
<asrwt>0</asrwt>
<pdfrwt beam="1">  1       21 0.34455831E-01 0.17483018E+03</pdfrwt>
<pdfrwt beam="2">  1       21 0.26082062E-01 0.17483018E+03</pdfrwt>
<totfact> 0.11411504E+05</totfact>
</mgrwt>
</event>
<event>
 4    1  0.4035350E+000  0.2467631E+03  0.7546771E-02  0.1115368E+00
         21   -1    0    0  503  502  0.00000000000E+00  0.00000000000E+00  0.62560853152E+03  0.62560853152E+03  0.00000000000E+00 0.  1.
         21   -1    0    0  501  503 -0.00000000000E+00 -0.00000000000E+00 -0.97383989733E+02  0.97383989733E+02  0.00000000000E+00 0. -1.
          6    1    1    2  501    0 -0.36953886465E+02  0.17203904341E+03  0.25579738017E+03  0.35542133010E+03  0.17300000000E+03 0.  1.
         -6    1    1    2    0  502  0.36953886465E+02 -0.17203904341E+03  0.27242716162E+03  0.36757119116E+03  0.17300000000E+03 0. -1.
<mgrwt>
<rscale>  2 0.24676309E+03</rscale>
<asrwt>0</asrwt>
<pdfrwt beam="1">  1       21 0.96247464E-01 0.24676309E+03</pdfrwt>
<pdfrwt beam="2">  1       21 0.14982153E-01 0.24676309E+03</pdfrwt>
<totfact> 0.34363660E+04</totfact>
</mgrwt>
</event>
<event>
 4    1  0.4035350E+000  0.1792109E+03  0.7546771E-02  0.1168569E+00
         21   -1    0    0  503  502  0.00000000000E+00  0.00000000000E+00  0.32441902962E+02  0.32441902962E+02  0.00000000000E+00 0.  1.
         21   -1    0    0  501  503 -0.00000000000E+00 -0.00000000000E+00 -0.13684986767E+04  0.13684986767E+04  0.00000000000E+00 0.  1.
          6    1    1    2  501    0  0.29077539182E+02  0.36633974604E+02 -0.10364254863E+04  0.10518052767E+04  0.17300000000E+03 0.  1.
         -6    1    1    2    0  502 -0.29077539182E+02 -0.36633974604E+02 -0.29963128741E+03  0.34913530296E+03  0.17300000000E+03 0.  1.
<mgrwt>
<rscale>  2 0.17921091E+03</rscale>
<asrwt>0</asrwt>
<pdfrwt beam="1">  1       21 0.49910610E-02 0.17921091E+03</pdfrwt>
<pdfrwt beam="2">  1       21 0.21053830E+00 0.17921091E+03</pdfrwt>
<totfact> 0.31377934E+04</totfact>
</mgrwt>
</event>
<event>
 4    1  0.4035350E+000  0.2193202E+03  0.7546771E-02  0.1134391E+00
         21   -1    0    0  501  502  0.00000000000E+00  0.00000000000E+00  0.88873682429E+03  0.88873682429E+03  0.00000000000E+00 0. -1.
         21   -1    0    0  502  503 -0.00000000000E+00 -0.00000000000E+00 -0.54975896768E+02  0.54975896768E+02  0.00000000000E+00 0. -1.
          6    1    1    2  501    0 -0.13380351532E+03 -0.16400869304E+02  0.35811858847E+03  0.41994082040E+03  0.17300000000E+03 0. -1.
         -6    1    1    2    0  503  0.13380351532E+03  0.16400869304E+02  0.47564233905E+03  0.52377190067E+03  0.17300000000E+03 0. -1.
<mgrwt>
<rscale>  2 0.21932024E+03</rscale>
<asrwt>0</asrwt>
<pdfrwt beam="1">  1       21 0.13672873E+00 0.21932024E+03</pdfrwt>
<pdfrwt beam="2">  1       21 0.84578310E-02 0.21932024E+03</pdfrwt>
<totfact> 0.40805343E+04</totfact>
</mgrwt>
</event>
<event>
 4    1  0.4035350E+000  0.2151158E+03  0.7546771E-02  0.1137578E+00
         21   -1    0    0  503  502  0.00000000000E+00  0.00000000000E+00  0.27492880025E+03  0.27492880025E+03  0.00000000000E+00 0.  1.
         21   -1    0    0  501  503 -0.00000000000E+00 -0.00000000000E+00 -0.17750938414E+03  0.17750938414E+03  0.00000000000E+00 0. -1.
          6    1    1    2  501    0 -0.65781148548E+01  0.12768135471E+03 -0.27735788725E+01  0.21513366235E+03  0.17300000000E+03 0.  1.
         -6    1    1    2    0  502  0.65781148548E+01 -0.12768135471E+03  0.10019299498E+03  0.23730452204E+03  0.17300000000E+03 0. -1.
<mgrwt>
<rscale>  2 0.21511578E+03</rscale>
<asrwt>0</asrwt>
<pdfrwt beam="1">  1       21 0.42296738E-01 0.21511578E+03</pdfrwt>
<pdfrwt beam="2">  1       21 0.27309136E-01 0.21511578E+03</pdfrwt>
<totfact> 0.68091110E+04</totfact>
</mgrwt>
</event>
<event>
 4    1  0.4035350E+000  0.1898080E+03  0.7546771E-02  0.1158635E+00
         21   -1    0    0  501  502  0.00000000000E+00  0.00000000000E+00  0.52720950652E+03  0.52720950652E+03  0.00000000000E+00 0. -1.
         21   -1    0    0  502  503 -0.00000000000E+00 -0.00000000000E+00 -0.12782461135E+03  0.12782461135E+03  0.00000000000E+00 0. -1.
          6    1    1    2  501    0  0.62898758886E+02 -0.46279747241E+02  0.42312467543E+03  0.46374730170E+03  0.17300000000E+03 0. -1.
         -6    1    1    2    0  503 -0.62898758886E+02  0.46279747241E+02 -0.23739780261E+02  0.19128681617E+03  0.17300000000E+03 0. -1.
<mgrwt>
<rscale>  2 0.18980798E+03</rscale>
<asrwt>0</asrwt>
<pdfrwt beam="1">  1       21 0.81109154E-01 0.18980798E+03</pdfrwt>
<pdfrwt beam="2">  1       21 0.19665325E-01 0.18980798E+03</pdfrwt>
<totfact> 0.31807540E+04</totfact>
</mgrwt>
</event>
<event>
 4    1  0.4035350E+000  0.4457687E+03  0.7546771E-02  0.1028991E+00
         21   -1    0    0  501  502  0.00000000000E+00  0.00000000000E+00  0.22980100825E+03  0.22980100825E+03  0.00000000000E+00 0. -1.
         21   -1    0    0  502  503 -0.00000000000E+00 -0.00000000000E+00 -0.92398870549E+03  0.92398870549E+03  0.00000000000E+00 0. -1.
          6    1    1    2  501    0  0.84626087015E+02 -0.40201884024E+03 -0.49322295142E+03  0.66481471277E+03  0.17300000000E+03 0. -1.
         -6    1    1    2    0  503 -0.84626087015E+02  0.40201884024E+03 -0.20096474583E+03  0.48897500097E+03  0.17300000000E+03 0. -1.
<mgrwt>
<rscale>  2 0.44576869E+03</rscale>
<asrwt>0</asrwt>
<pdfrwt beam="1">  1       21 0.35354001E-01 0.44576869E+03</pdfrwt>
<pdfrwt beam="2">  1       21 0.14215211E+00 0.44576869E+03</pdfrwt>
<totfact> 0.22846400E+03</totfact>
</mgrwt>
</event>
<event>
 4    1  0.4035350E+000  0.2582287E+03  0.7546771E-02  0.1108212E+00
         21   -1    0    0  501  502  0.00000000000E+00  0.00000000000E+00  0.55708514184E+03  0.55708514184E+03  0.00000000000E+00 0. -1.
         21   -1    0    0  502  503 -0.00000000000E+00 -0.00000000000E+00 -0.11971490111E+03  0.11971490111E+03  0.00000000000E+00 0.  1.
          6    1    1    2  501    0  0.16868291755E+03  0.91099698924E+02  0.22268355520E+03  0.34098394035E+03  0.17300000000E+03 0. -1.
         -6    1    1    2    0  503 -0.16868291755E+03 -0.91099698924E+02  0.21468668553E+03  0.33581610260E+03  0.17300000000E+03 0.  1.
<mgrwt>
<rscale>  2 0.25822874E+03</rscale>
<asrwt>0</asrwt>
<pdfrwt beam="1">  1       21 0.85705405E-01 0.25822874E+03</pdfrwt>
<pdfrwt beam="2">  1       21 0.18417677E-01 0.25822874E+03</pdfrwt>
<totfact> 0.30616200E+04</totfact>
</mgrwt>
</event>
<event>
 4    1  0.4035350E+000  0.1790029E+03  0.7546771E-02  0.1168772E+00
         21   -1    0    0  501  502  0.00000000000E+00  0.00000000000E+00  0.48874990169E+03  0.48874990169E+03  0.00000000000E+00 0.  1.
         21   -1    0    0  502  503 -0.00000000000E+00 -0.00000000000E+00 -0.69676587524E+02  0.69676587524E+02  0.00000000000E+00 0.  1.
          6    1    1    2  501    0 -0.45465507940E+02  0.67774165511E+01  0.27741077233E+03  0.33014963636E+03  0.17300000000E+03 0.  1.
         -6    1    1    2    0  503  0.45465507940E+02 -0.67774165511E+01  0.14166254184E+03  0.22827685285E+03  0.17300000000E+03 0.  1.
<mgrwt>
<rscale>  2 0.17900292E+03</rscale>
<asrwt>0</asrwt>
<pdfrwt beam="1">  1       21 0.75192290E-01 0.17900292E+03</pdfrwt>
<pdfrwt beam="2">  1       21 0.10719475E-01 0.17900292E+03</pdfrwt>
<totfact> 0.11401109E+05</totfact>
</mgrwt>
</event>
<event>
 4    1  0.4035350E+000  0.1778898E+03  0.7546771E-02  0.1169861E+00
         21   -1    0    0  503  502  0.00000000000E+00  0.00000000000E+00  0.40732059067E+03  0.40732059067E+03  0.00000000000E+00 0. -1.
         21   -1    0    0  501  503 -0.00000000000E+00 -0.00000000000E+00 -0.78488328212E+02  0.78488328212E+02  0.00000000000E+00 0. -1.
          6    1    1    2  501    0  0.18294853007E+02 -0.37162805794E+02  0.18891226699E+03  0.25948529901E+03  0.17300000000E+03 0.  1.
         -6    1    1    2    0  502 -0.18294853007E+02  0.37162805794E+02  0.13991999546E+03  0.22632361987E+03  0.17300000000E+03 0.  1.
<mgrwt>
<rscale>  2 0.17788979E+03</rscale>
<asrwt>0</asrwt>
<pdfrwt beam="1">  1       21 0.62664705E-01 0.17788979E+03</pdfrwt>
<pdfrwt beam="2">  1       21 0.12075128E-01 0.17788979E+03</pdfrwt>
<totfact> 0.13762296E+05</totfact>
</mgrwt>
</event>
<event>
 4    1  0.4035350E+000  0.2711163E+03  0.7546771E-02  0.1100642E+00
         21   -1    0    0  501  502  0.00000000000E+00  0.00000000000E+00  0.92471183439E+03  0.92471183439E+03  0.00000000000E+00 0.  1.
         21   -1    0    0  502  503 -0.00000000000E+00 -0.00000000000E+00 -0.93634249147E+02  0.93634249147E+02  0.00000000000E+00 0. -1.
          6    1    1    2  501    0  0.11251831810E+03 -0.17582565914E+03  0.61344513957E+03  0.67068545055E+03  0.17300000000E+03 0.  1.
         -6    1    1    2    0  503 -0.11251831810E+03  0.17582565914E+03  0.21763244568E+03  0.34766063299E+03  0.17300000000E+03 0. -1.
<mgrwt>
<rscale>  2 0.27111627E+03</rscale>
<asrwt>0</asrwt>
<pdfrwt beam="1">  1       21 0.14226335E+00 0.27111627E+03</pdfrwt>
<pdfrwt beam="2">  1       21 0.14405270E-01 0.27111627E+03</pdfrwt>
<totfact> 0.13813087E+04</totfact>
</mgrwt>
</event>
<event>
 4    1  0.4035350E+000  0.2104786E+03  0.7546771E-02  0.1141188E+00
         21   -1    0    0  501  502  0.00000000000E+00  0.00000000000E+00  0.75305073958E+03  0.75305073958E+03  0.00000000000E+00 0.  1.
         21   -1    0    0  502  503 -0.00000000000E+00 -0.00000000000E+00 -0.10137161374E+03  0.10137161374E+03  0.00000000000E+00 0. -1.
          6    1    1    2  501    0  0.11312035108E+03 -0.39699021202E+02  0.60259520427E+03  0.63829633112E+03  0.17300000000E+03 0.  1.
         -6    1    1    2    0  503 -0.11312035108E+03  0.39699021202E+02  0.49083921565E+02  0.21612602219E+03  0.17300000000E+03 0. -1.
<mgrwt>
<rscale>  2 0.21047856E+03</rscale>
<asrwt>0</asrwt>
<pdfrwt beam="1">  1       21 0.11585396E+00 0.21047856E+03</pdfrwt>
<pdfrwt beam="2">  1       21 0.15595633E-01 0.21047856E+03</pdfrwt>
<totfact> 0.20806174E+04</totfact>
</mgrwt>
</event>
<event>
 4    1  0.4035350E+000  0.2267072E+03  0.7546771E-02  0.1128979E+00
         21   -1    0    0  503  502  0.00000000000E+00  0.00000000000E+00  0.51720449474E+03  0.51720449474E+03  0.00000000000E+00 0. -1.
         21   -1    0    0  501  503 -0.00000000000E+00 -0.00000000000E+00 -0.14356229821E+03  0.14356229821E+03  0.00000000000E+00 0. -1.
          6    1    1    2  501    0  0.48693811358E+02 -0.13818854918E+03  0.35235890642E+01  0.22673459831E+03  0.17300000000E+03 0. -1.
         -6    1    1    2    0  502 -0.48693811358E+02  0.13818854918E+03  0.37011860747E+03  0.43403219464E+03  0.17300000000E+03 0. -1.
<mgrwt>
<rscale>  2 0.22670722E+03</rscale>
<asrwt>0</asrwt>
<pdfrwt beam="1">  1       21 0.79569921E-01 0.22670722E+03</pdfrwt>
<pdfrwt beam="2">  1       21 0.22086508E-01 0.22670722E+03</pdfrwt>
<totfact> 0.26179590E+04</totfact>
</mgrwt>
</event>
<event>
 4    1  0.4035350E+000  0.1894119E+03  0.7546771E-02  0.1158993E+00
         21   -1    0    0  501  502  0.00000000000E+00  0.00000000000E+00  0.93536721705E+03  0.93536721705E+03  0.00000000000E+00 0. -1.
         21   -1    0    0  502  503 -0.00000000000E+00 -0.00000000000E+00 -0.39078980940E+02  0.39078980940E+02  0.00000000000E+00 0. -1.
          6    1    1    2  501    0 -0.71551965159E+02 -0.28778206883E+02  0.51441825837E+03  0.54818155154E+03  0.17300000000E+03 0. -1.
         -6    1    1    2    0  503  0.71551965159E+02  0.28778206883E+02  0.38186997774E+03  0.42626464645E+03  0.17300000000E+03 0. -1.
<mgrwt>
<rscale>  2 0.18941190E+03</rscale>
<asrwt>0</asrwt>
<pdfrwt beam="1">  1       21 0.14390263E+00 0.18941190E+03</pdfrwt>
<pdfrwt beam="2">  1       21 0.60121516E-02 0.18941190E+03</pdfrwt>
<totfact> 0.65582535E+04</totfact>
</mgrwt>
</event>
<event>
 4    1  0.4035350E+000  0.1999151E+03  0.7546771E-02  0.1149811E+00
         21   -1    0    0  503  502  0.00000000000E+00  0.00000000000E+00  0.31522320607E+03  0.31522320607E+03  0.00000000000E+00 0.  1.
         21   -1    0    0  501  503 -0.00000000000E+00 -0.00000000000E+00 -0.13583108232E+03  0.13583108232E+03  0.00000000000E+00 0. -1.
          6    1    1    2  501    0 -0.21215458286E+02  0.97912910277E+02  0.14789224671E+03  0.24867277757E+03  0.17300000000E+03 0.  1.
         -6    1    1    2    0  502  0.21215458286E+02 -0.97912910277E+02  0.31499877041E+02  0.20238151082E+03  0.17300000000E+03 0.  1.
<mgrwt>
<rscale>  2 0.19991507E+03</rscale>
<asrwt>0</asrwt>
<pdfrwt beam="1">  1       21 0.48495878E-01 0.19991507E+03</pdfrwt>
<pdfrwt beam="2">  1       21 0.20897090E-01 0.19991507E+03</pdfrwt>
<totfact> 0.86072302E+04</totfact>
</mgrwt>
</event>
<event>
 4    1  0.4035350E+000  0.1917427E+03  0.7546771E-02  0.1156899E+00
         21   -1    0    0  501  502  0.00000000000E+00  0.00000000000E+00  0.13791756717E+03  0.13791756717E+03  0.00000000000E+00 0. -1.
         21   -1    0    0  502  503 -0.00000000000E+00 -0.00000000000E+00 -0.39224776104E+03  0.39224776104E+03  0.00000000000E+00 0. -1.
          6    1    1    2  501    0 -0.45574730932E+02 -0.68987016509E+02  0.22880431717E+02  0.19310302613E+03  0.17300000000E+03 0. -1.
         -6    1    1    2    0  503  0.45574730932E+02  0.68987016509E+02 -0.27721062559E+03  0.33706230208E+03  0.17300000000E+03 0. -1.
<mgrwt>
<rscale>  2 0.19174270E+03</rscale>
<asrwt>0</asrwt>
<pdfrwt beam="1">  1       21 0.21218087E-01 0.19174270E+03</pdfrwt>
<pdfrwt beam="2">  1       21 0.60345809E-01 0.19174270E+03</pdfrwt>
<totfact> 0.52910716E+04</totfact>
</mgrwt>
</event>
<event>
 4    1  0.4035350E+000  0.1781148E+03  0.7546771E-02  0.1169640E+00
         21   -1    0    0  501  502  0.00000000000E+00  0.00000000000E+00  0.47463141911E+03  0.47463141911E+03  0.00000000000E+00 0. -1.
         21   -1    0    0  502  503 -0.00000000000E+00 -0.00000000000E+00 -0.11612683177E+03  0.11612683177E+03  0.00000000000E+00 0. -1.
          6    1    1    2  501    0 -0.42186748956E+02 -0.40197360923E+01  0.37168291075E+03  0.41215660398E+03  0.17300000000E+03 0. -1.
         -6    1    1    2    0  503  0.42186748956E+02  0.40197360923E+01 -0.13178323410E+02  0.17860164690E+03  0.17300000000E+03 0. -1.
<mgrwt>
<rscale>  2 0.17811479E+03</rscale>
<asrwt>0</asrwt>
<pdfrwt beam="1">  1       21 0.73020218E-01 0.17811479E+03</pdfrwt>
<pdfrwt beam="2">  1       21 0.17865667E-01 0.17811479E+03</pdfrwt>
<totfact> 0.48379965E+04</totfact>
</mgrwt>
</event>
<event>
 4    1  0.4035350E+000  0.1882073E+03  0.7546771E-02  0.1160088E+00
         21   -1    0    0  503  502  0.00000000000E+00  0.00000000000E+00  0.26253746129E+03  0.26253746129E+03  0.00000000000E+00 0. -1.
         21   -1    0    0  501  503 -0.00000000000E+00 -0.00000000000E+00 -0.13568993446E+03  0.13568993446E+03  0.00000000000E+00 0.  1.
          6    1    1    2  501    0  0.48695208976E+02  0.55872585299E+02  0.78407083102E+02  0.20388634051E+03  0.17300000000E+03 0. -1.
         -6    1    1    2    0  502 -0.48695208976E+02 -0.55872585299E+02  0.48440443732E+02  0.19434105525E+03  0.17300000000E+03 0.  1.
<mgrwt>
<rscale>  2 0.18820725E+03</rscale>
<asrwt>0</asrwt>
<pdfrwt beam="1">  1       21 0.40390379E-01 0.18820725E+03</pdfrwt>
<pdfrwt beam="2">  1       21 0.20875375E-01 0.18820725E+03</pdfrwt>
<totfact> 0.12602750E+05</totfact>
</mgrwt>
</event>
<event>
 4    1  0.4035350E+000  0.1930277E+03  0.7546771E-02  0.1155759E+00
         21   -1    0    0  501  502  0.00000000000E+00  0.00000000000E+00  0.51795856016E+03  0.51795856016E+03  0.00000000000E+00 0. -1.
         21   -1    0    0  502  503 -0.00000000000E+00 -0.00000000000E+00 -0.11667379947E+03  0.11667379947E+03  0.00000000000E+00 0. -1.
          6    1    1    2  501    0  0.38835922148E+02  0.76304970856E+02  0.39713427139E+03  0.44156008304E+03  0.17300000000E+03 0. -1.
         -6    1    1    2    0  503 -0.38835922148E+02 -0.76304970856E+02  0.41504893130E+01  0.19307227659E+03  0.17300000000E+03 0. -1.
<mgrwt>
<rscale>  2 0.19302766E+03</rscale>
<asrwt>0</asrwt>
<pdfrwt beam="1">  1       21 0.79685931E-01 0.19302766E+03</pdfrwt>
<pdfrwt beam="2">  1       21 0.17949816E-01 0.19302766E+03</pdfrwt>
<totfact> 0.39155492E+04</totfact>
</mgrwt>
</event>
<event>
 4    1  0.4035350E+000  0.1744057E+03  0.7546771E-02  0.1173330E+00
         21   -1    0    0  501  502  0.00000000000E+00  0.00000000000E+00  0.23084496860E+03  0.23084496860E+03  0.00000000000E+00 0.  1.
         21   -1    0    0  502  503 -0.00000000000E+00 -0.00000000000E+00 -0.16001800343E+03  0.16001800343E+03  0.00000000000E+00 0.  1.
          6    1    1    2  501    0 -0.17832536272E+02  0.13052432710E+02 -0.46704793336E+02  0.18055110930E+03  0.17300000000E+03 0.  1.
         -6    1    1    2    0  503  0.17832536272E+02 -0.13052432710E+02  0.11753175851E+03  0.21031186274E+03  0.17300000000E+03 0.  1.
<mgrwt>
<rscale>  2 0.17440575E+03</rscale>
<asrwt>0</asrwt>
<pdfrwt beam="1">  1       21 0.35514611E-01 0.17440575E+03</pdfrwt>
<pdfrwt beam="2">  1       21 0.24618154E-01 0.17440575E+03</pdfrwt>
<totfact> 0.12001392E+05</totfact>
</mgrwt>
</event>
<event>
 4    1  0.4035350E+000  0.1862168E+03  0.7546771E-02  0.1161918E+00
         21   -1    0    0  501  502  0.00000000000E+00  0.00000000000E+00  0.16344681481E+03  0.16344681481E+03  0.00000000000E+00 0. -1.
         21   -1    0    0  502  503 -0.00000000000E+00 -0.00000000000E+00 -0.21480972289E+03  0.21480972289E+03  0.00000000000E+00 0.  1.
          6    1    1    2  501    0 -0.67373170776E+02 -0.14440888338E+02 -0.46714385391E+01  0.18627534924E+03  0.17300000000E+03 0.  1.
         -6    1    1    2    0  503  0.67373170776E+02  0.14440888338E+02 -0.46691469538E+02  0.19198118846E+03  0.17300000000E+03 0.  1.
<mgrwt>
<rscale>  2 0.18621676E+03</rscale>
<asrwt>0</asrwt>
<pdfrwt beam="1">  1       21 0.25145664E-01 0.18621676E+03</pdfrwt>
<pdfrwt beam="2">  1       21 0.33047650E-01 0.18621676E+03</pdfrwt>
<totfact> 0.13233948E+05</totfact>
</mgrwt>
</event>
<event>
 4    1  0.4035350E+000  0.1765488E+03  0.7546771E-02  0.1171186E+00
         21   -1    0    0  501  502  0.00000000000E+00  0.00000000000E+00  0.14372411758E+03  0.14372411758E+03  0.00000000000E+00 0. -1.
         21   -1    0    0  502  503 -0.00000000000E+00 -0.00000000000E+00 -0.22020884963E+03  0.22020884963E+03  0.00000000000E+00 0. -1.
          6    1    1    2  501    0 -0.28571849564E+02 -0.20594322025E+02 -0.15836584787E+02  0.17725764893E+03  0.17300000000E+03 0.  1.
         -6    1    1    2    0  503  0.28571849564E+02  0.20594322025E+02 -0.60648147260E+02  0.18667531828E+03  0.17300000000E+03 0.  1.
<mgrwt>
<rscale>  2 0.17654879E+03</rscale>
<asrwt>0</asrwt>
<pdfrwt beam="1">  1       21 0.22111403E-01 0.17654879E+03</pdfrwt>
<pdfrwt beam="2">  1       21 0.33878285E-01 0.17654879E+03</pdfrwt>
<totfact> 0.16130465E+05</totfact>
</mgrwt>
</event>
<event>
 4    1  0.4035350E+000  0.2494926E+03  0.7546771E-02  0.1113626E+00
         21   -1    0    0  503  502  0.00000000000E+00  0.00000000000E+00  0.41579484528E+03  0.41579484528E+03  0.00000000000E+00 0. -1.
         21   -1    0    0  501  503 -0.00000000000E+00 -0.00000000000E+00 -0.18976823980E+03  0.18976823980E+03  0.00000000000E+00 0. -1.
          6    1    1    2  501    0 -0.15359005399E+03  0.93421921489E+02 -0.26107078731E+02  0.25085481789E+03  0.17300000000E+03 0. -1.
         -6    1    1    2    0  502  0.15359005399E+03 -0.93421921489E+02  0.25213368421E+03  0.35470826719E+03  0.17300000000E+03 0. -1.
<mgrwt>
<rscale>  2 0.24949261E+03</rscale>
<asrwt>0</asrwt>
<pdfrwt beam="1">  1       21 0.63968438E-01 0.24949261E+03</pdfrwt>
<pdfrwt beam="2">  1       21 0.29195114E-01 0.24949261E+03</pdfrwt>
<totfact> 0.24608015E+04</totfact>
</mgrwt>
</event>
<event>
 4    1  0.4035350E+000  0.2152115E+03  0.7546771E-02  0.1137504E+00
         21   -1    0    0  503  502  0.00000000000E+00  0.00000000000E+00  0.54193727034E+03  0.54193727034E+03  0.00000000000E+00 0. -1.
         21   -1    0    0  501  503 -0.00000000000E+00 -0.00000000000E+00 -0.98878062106E+02  0.98878062106E+02  0.00000000000E+00 0.  1.
          6    1    1    2  501    0  0.84441386976E+02 -0.96211496830E+02  0.10351469589E+03  0.23881225308E+03  0.17300000000E+03 0.  1.
         -6    1    1    2    0  502 -0.84441386976E+02  0.96211496830E+02  0.33954451234E+03  0.40200307937E+03  0.17300000000E+03 0. -1.
<mgrwt>
<rscale>  2 0.21521152E+03</rscale>
<asrwt>0</asrwt>
<pdfrwt beam="1">  1       21 0.83374963E-01 0.21521152E+03</pdfrwt>
<pdfrwt beam="2">  1       21 0.15212010E-01 0.21521152E+03</pdfrwt>
<totfact> 0.47348380E+04</totfact>
</mgrwt>
</event>
<event>
 4    1  0.4035350E+000  0.2322429E+03  0.7546771E-02  0.1125071E+00
         21   -1    0    0  503  502  0.00000000000E+00  0.00000000000E+00  0.25230347317E+03  0.25230347317E+03  0.00000000000E+00 0.  1.
         21   -1    0    0  501  503 -0.00000000000E+00 -0.00000000000E+00 -0.30111313128E+03  0.30111313128E+03  0.00000000000E+00 0.  1.
          6    1    1    2  501    0  0.14039597787E+03 -0.65549365517E+02 -0.17342793957E+03  0.28985168646E+03  0.17300000000E+03 0.  1.
         -6    1    1    2    0  502 -0.14039597787E+03  0.65549365517E+02  0.12461828146E+03  0.26356491799E+03  0.17300000000E+03 0.  1.
<mgrwt>
<rscale>  2 0.23224287E+03</rscale>
<asrwt>0</asrwt>
<pdfrwt beam="1">  1       21 0.38815919E-01 0.23224287E+03</pdfrwt>
<pdfrwt beam="2">  1       21 0.46325097E-01 0.23224287E+03</pdfrwt>
<totfact> 0.27976422E+04</totfact>
</mgrwt>
</event>
<event>
 4    1  0.4035350E+000  0.2021314E+03  0.7546771E-02  0.1147953E+00
         21   -1    0    0  501  502  0.00000000000E+00  0.00000000000E+00  0.77469876386E+02  0.77469876386E+02  0.00000000000E+00 0. -1.
         21   -1    0    0  502  503 -0.00000000000E+00 -0.00000000000E+00 -0.69151526987E+03  0.69151526987E+03  0.00000000000E+00 0.  1.
          6    1    1    2  501    0 -0.25775053759E+02 -0.10131010285E+03 -0.49433680410E+03  0.53406550743E+03  0.17300000000E+03 0.  1.
         -6    1    1    2    0  503  0.25775053759E+02  0.10131010285E+03 -0.11970858938E+03  0.23491963883E+03  0.17300000000E+03 0. -1.
<mgrwt>
<rscale>  2 0.20213137E+03</rscale>
<asrwt>0</asrwt>
<pdfrwt beam="1">  1       21 0.11918443E-01 0.20213137E+03</pdfrwt>
<pdfrwt beam="2">  1       21 0.10638696E+00 0.20213137E+03</pdfrwt>
<totfact> 0.41837555E+04</totfact>
</mgrwt>
</event>
<event>
 4    1  0.4035350E+000  0.2008386E+03  0.7546771E-02  0.1149033E+00
         21   -1    0    0  501  502  0.00000000000E+00  0.00000000000E+00  0.31048369356E+03  0.31048369356E+03  0.00000000000E+00 0.  1.
         21   -1    0    0  502  503 -0.00000000000E+00 -0.00000000000E+00 -0.12998831563E+03  0.12998831563E+03  0.00000000000E+00 0. -1.
          6    1    1    2  501    0  0.84390305774E+02  0.57318488254E+02  0.84976525491E+02  0.21807600209E+03  0.17300000000E+03 0. -1.
         -6    1    1    2    0  503 -0.84390305774E+02 -0.57318488254E+02  0.95518852441E+02  0.22239600710E+03  0.17300000000E+03 0.  1.
<mgrwt>
<rscale>  2 0.20083857E+03</rscale>
<asrwt>0</asrwt>
<pdfrwt beam="1">  1       21 0.47766722E-01 0.20083857E+03</pdfrwt>
<pdfrwt beam="2">  1       21 0.19998203E-01 0.20083857E+03</pdfrwt>
<totfact> 0.96410533E+04</totfact>
</mgrwt>
</event>
<event>
 4    1  0.4035350E+000  0.1892360E+03  0.7546771E-02  0.1159152E+00
         21   -1    0    0  501  502  0.00000000000E+00  0.00000000000E+00  0.45938582504E+02  0.45938582504E+02  0.00000000000E+00 0. -1.
         21   -1    0    0  502  503 -0.00000000000E+00 -0.00000000000E+00 -0.11604465834E+04  0.11604465834E+04  0.00000000000E+00 0.  1.
          6    1    1    2  501    0  0.34516035485E+02 -0.68482910041E+02 -0.21166389203E+03  0.28392229370E+03  0.17300000000E+03 0. -1.
         -6    1    1    2    0  503 -0.34516035485E+02  0.68482910041E+02 -0.90284410890E+03  0.92246287223E+03  0.17300000000E+03 0.  1.
<mgrwt>
<rscale>  2 0.18923601E+03</rscale>
<asrwt>0</asrwt>
<pdfrwt beam="1">  1       21 0.70674741E-02 0.18923601E+03</pdfrwt>
<pdfrwt beam="2">  1       21 0.17853025E+00 0.18923601E+03</pdfrwt>
<totfact> 0.27768778E+04</totfact>
</mgrwt>
</event>
<event>
 4    1  0.4035350E+000  0.1947886E+03  0.7546771E-02  0.1154212E+00
         21   -1    0    0  503  502  0.00000000000E+00  0.00000000000E+00  0.54649337275E+03  0.54649337275E+03  0.00000000000E+00 0. -1.
         21   -1    0    0  501  503 -0.00000000000E+00 -0.00000000000E+00 -0.90336176480E+02  0.90336176480E+02  0.00000000000E+00 0.  1.
          6    1    1    2  501    0 -0.24899897284E+02  0.85985947724E+02  0.74896449804E+02  0.20869131818E+03  0.17300000000E+03 0.  1.
         -6    1    1    2    0  502  0.24899897284E+02 -0.85985947724E+02  0.38126074646E+03  0.42813823105E+03  0.17300000000E+03 0. -1.
<mgrwt>
<rscale>  2 0.19478857E+03</rscale>
<asrwt>0</asrwt>
<pdfrwt beam="1">  1       21 0.84075901E-01 0.19478857E+03</pdfrwt>
<pdfrwt beam="2">  1       21 0.13897874E-01 0.19478857E+03</pdfrwt>
<totfact> 0.55300454E+04</totfact>
</mgrwt>
</event>
<event>
 4    1  0.4035350E+000  0.2475606E+03  0.7546771E-02  0.1114856E+00
         21   -1    0    0  501  502  0.00000000000E+00  0.00000000000E+00  0.47935504605E+02  0.47935504605E+02  0.00000000000E+00 0. -1.
         21   -1    0    0  502  503 -0.00000000000E+00 -0.00000000000E+00 -0.13046630008E+04  0.13046630008E+04  0.00000000000E+00 0.  1.
          6    1    1    2  501    0  0.17384352068E+03 -0.33699999191E+02 -0.72410725546E+03  0.76525654328E+03  0.17300000000E+03 0. -1.
         -6    1    1    2    0  503 -0.17384352068E+03  0.33699999191E+02 -0.53262024074E+03  0.58734196213E+03  0.17300000000E+03 0. -1.
<mgrwt>
<rscale>  2 0.24756062E+03</rscale>
<asrwt>0</asrwt>
<pdfrwt beam="1">  1       21 0.73746924E-02 0.24756062E+03</pdfrwt>
<pdfrwt beam="2">  1       21 0.20071740E+00 0.24756062E+03</pdfrwt>
<totfact> 0.17667044E+04</totfact>
</mgrwt>
</event>
<event>
 4    1  0.4035350E+000  0.2199708E+03  0.7546771E-02  0.1133905E+00
         21   -1    0    0  503  502  0.00000000000E+00  0.00000000000E+00  0.94398998448E+03  0.94398998448E+03  0.00000000000E+00 0. -1.
         21   -1    0    0  501  503 -0.00000000000E+00 -0.00000000000E+00 -0.51399429659E+02  0.51399429659E+02  0.00000000000E+00 0.  1.
          6    1    1    2  501    0 -0.13393361789E+03  0.22801800918E+02  0.47239257148E+03  0.52109680263E+03  0.17300000000E+03 0. -1.
         -6    1    1    2    0  502  0.13393361789E+03 -0.22801800918E+02  0.42019798334E+03  0.47429261150E+03  0.17300000000E+03 0.  1.
<mgrwt>
<rscale>  2 0.21997076E+03</rscale>
<asrwt>0</asrwt>
<pdfrwt beam="1">  1       21 0.14522922E+00 0.21997076E+03</pdfrwt>
<pdfrwt beam="2">  1       21 0.79076052E-02 0.21997076E+03</pdfrwt>
<totfact> 0.39218869E+04</totfact>
</mgrwt>
</event>
<event>
 4    1  0.4035350E+000  0.1812661E+03  0.7546771E-02  0.1166583E+00
         21   -1    0    0  503  502  0.00000000000E+00  0.00000000000E+00  0.48797339503E+02  0.48797339503E+02  0.00000000000E+00 0.  1.
         21   -1    0    0  501  503 -0.00000000000E+00 -0.00000000000E+00 -0.69194252549E+03  0.69194252549E+03  0.00000000000E+00 0.  1.
          6    1    1    2  501    0  0.47629354911E+01  0.53904567978E+02 -0.26085118592E+03  0.31764875129E+03  0.17300000000E+03 0.  1.
         -6    1    1    2    0  502 -0.47629354911E+01 -0.53904567978E+02 -0.38229400007E+03  0.42309111370E+03  0.17300000000E+03 0.  1.
<mgrwt>
<rscale>  2 0.18126607E+03</rscale>
<asrwt>0</asrwt>
<pdfrwt beam="1">  1       21 0.75072834E-02 0.18126607E+03</pdfrwt>
<pdfrwt beam="2">  1       21 0.10645269E+00 0.18126607E+03</pdfrwt>
<totfact> 0.95189884E+04</totfact>
</mgrwt>
</event>
<event>
 4    1  0.4035350E+000  0.3028685E+03  0.7546771E-02  0.1083815E+00
         21   -1    0    0  501  502  0.00000000000E+00  0.00000000000E+00  0.13914759325E+03  0.13914759325E+03  0.00000000000E+00 0. -1.
         21   -1    0    0  502  503 -0.00000000000E+00 -0.00000000000E+00 -0.16727697443E+04  0.16727697443E+04  0.00000000000E+00 0.  1.
          6    1    1    2  501    0  0.21358683284E+03 -0.12720446809E+03 -0.61611298432E+02  0.30907161623E+03  0.17300000000E+03 0. -1.
         -6    1    1    2    0  503 -0.21358683284E+03  0.12720446809E+03 -0.14720108526E+04  0.15028457213E+04  0.17300000000E+03 0.  1.
<mgrwt>
<rscale>  2 0.30286847E+03</rscale>
<asrwt>0</asrwt>
<pdfrwt beam="1">  1       21 0.21407321E-01 0.30286847E+03</pdfrwt>
<pdfrwt beam="2">  1       21 0.25734921E+00 0.30286847E+03</pdfrwt>
<totfact> 0.10985301E+03</totfact>
</mgrwt>
</event>
<event>
 4    1  0.4035350E+000  0.2088156E+03  0.7546771E-02  0.1142507E+00
         21   -1    0    0  501  502  0.00000000000E+00  0.00000000000E+00  0.62532284604E+03  0.62532284604E+03  0.00000000000E+00 0.  1.
         21   -1    0    0  502  503 -0.00000000000E+00 -0.00000000000E+00 -0.14402582168E+03  0.14402582168E+03  0.00000000000E+00 0. -1.
          6    1    1    2  501    0  0.86840186642E+02  0.78318068342E+02  0.51693166481E+03  0.55751438002E+03  0.17300000000E+03 0.  1.
         -6    1    1    2    0  503 -0.86840186642E+02 -0.78318068342E+02 -0.35634640451E+02  0.21183428770E+03  0.17300000000E+03 0. -1.
<mgrwt>
<rscale>  2 0.20881556E+03</rscale>
<asrwt>0</asrwt>
<pdfrwt beam="1">  1       21 0.96203514E-01 0.20881556E+03</pdfrwt>
<pdfrwt beam="2">  1       21 0.22157819E-01 0.20881556E+03</pdfrwt>
<totfact> 0.16954674E+04</totfact>
</mgrwt>
</event>
<event>
 4    1  0.4035350E+000  0.2319995E+03  0.7546771E-02  0.1125240E+00
         21   -1    0    0  503  502  0.00000000000E+00  0.00000000000E+00  0.32560406653E+03  0.32560406653E+03  0.00000000000E+00 0.  1.
         21   -1    0    0  501  503 -0.00000000000E+00 -0.00000000000E+00 -0.24114506482E+03  0.24114506482E+03  0.00000000000E+00 0. -1.
          6    1    1    2  501    0 -0.15284046288E+03  0.23120703496E+02  0.20114740885E+03  0.30705708607E+03  0.17300000000E+03 0.  1.
         -6    1    1    2    0  502  0.15284046288E+03 -0.23120703496E+02 -0.11668840713E+03  0.25969204528E+03  0.17300000000E+03 0. -1.
<mgrwt>
<rscale>  2 0.23199951E+03</rscale>
<asrwt>0</asrwt>
<pdfrwt beam="1">  1       21 0.50092933E-01 0.23199951E+03</pdfrwt>
<pdfrwt beam="2">  1       21 0.37099241E-01 0.23199951E+03</pdfrwt>
<totfact> 0.26041113E+04</totfact>
</mgrwt>
</event>
<event>
 4    1  0.4035350E+000  0.1773732E+03  0.7546771E-02  0.1170370E+00
         21   -1    0    0  501  502  0.00000000000E+00  0.00000000000E+00  0.27639695910E+03  0.27639695910E+03  0.00000000000E+00 0.  1.
         21   -1    0    0  502  503 -0.00000000000E+00 -0.00000000000E+00 -0.13244290971E+03  0.13244290971E+03  0.00000000000E+00 0.  1.
          6    1    1    2  501    0 -0.34340227439E+02 -0.18787915414E+02  0.14861772183E+03  0.23140541098E+03  0.17300000000E+03 0.  1.
         -6    1    1    2    0  503  0.34340227439E+02  0.18787915414E+02 -0.46636724468E+01  0.17743445783E+03  0.17300000000E+03 0.  1.
<mgrwt>
<rscale>  2 0.17737316E+03</rscale>
<asrwt>0</asrwt>
<pdfrwt beam="1">  1       21 0.42522609E-01 0.17737316E+03</pdfrwt>
<pdfrwt beam="2">  1       21 0.20375832E-01 0.17737316E+03</pdfrwt>
<totfact> 0.11925947E+05</totfact>
</mgrwt>
</event>
<event>
 4    1  0.4035350E+000  0.3450860E+03  0.7546771E-02  0.1064650E+00
         21   -1    0    0  503  502  0.00000000000E+00  0.00000000000E+00  0.83022537058E+03  0.83022537058E+03  0.00000000000E+00 0. -1.
         21   -1    0    0  501  503 -0.00000000000E+00 -0.00000000000E+00 -0.14667490386E+03  0.14667490386E+03  0.00000000000E+00 0. -1.
          6    1    1    2  501    0 -0.29804401627E+03 -0.18030501044E+02  0.26919288861E+03  0.43766327911E+03  0.17300000000E+03 0. -1.
         -6    1    1    2    0  502  0.29804401627E+03  0.18030501044E+02  0.41435757811E+03  0.53923699534E+03  0.17300000000E+03 0. -1.
<mgrwt>
<rscale>  2 0.34508598E+03</rscale>
<asrwt>0</asrwt>
<pdfrwt beam="1">  1       21 0.12772698E+00 0.34508598E+03</pdfrwt>
<pdfrwt beam="2">  1       21 0.22565370E-01 0.34508598E+03</pdfrwt>
<totfact> 0.76193415E+03</totfact>
</mgrwt>
</event>
<event>
 4    1  0.4035350E+000  0.2557793E+03  0.7546771E-02  0.1109706E+00
         21   -1    0    0  503  502  0.00000000000E+00  0.00000000000E+00  0.66456956322E+02  0.66456956322E+02  0.00000000000E+00 0. -1.
         21   -1    0    0  501  503 -0.00000000000E+00 -0.00000000000E+00 -0.14390927463E+04  0.14390927463E+04  0.00000000000E+00 0. -1.
          6    1    1    2  501    0  0.66565081063E+02  0.17624740692E+03 -0.11094338285E+04  0.11385369903E+04  0.17300000000E+03 0. -1.
         -6    1    1    2    0  502 -0.66565081063E+02 -0.17624740692E+03 -0.26320196139E+03  0.36701271223E+03  0.17300000000E+03 0. -1.
<mgrwt>
<rscale>  2 0.25577932E+03</rscale>
<asrwt>0</asrwt>
<pdfrwt beam="1">  1       21 0.10224148E-01 0.25577932E+03</pdfrwt>
<pdfrwt beam="2">  1       21 0.22139887E+00 0.25577932E+03</pdfrwt>
<totfact> 0.73092906E+03</totfact>
</mgrwt>
</event>
<event>
 4    1  0.4035350E+000  0.1983133E+03  0.7546771E-02  0.1151170E+00
         21   -1    0    0  501  502  0.00000000000E+00  0.00000000000E+00  0.11501308599E+04  0.11501308599E+04  0.00000000000E+00 0. -1.
         21   -1    0    0  502  503 -0.00000000000E+00 -0.00000000000E+00 -0.45060272489E+02  0.45060272489E+02  0.00000000000E+00 0. -1.
          6    1    1    2  501    0 -0.25643088297E+02 -0.93496593502E+02  0.84598941949E+03  0.86892248150E+03  0.17300000000E+03 0. -1.
         -6    1    1    2    0  503  0.25643088297E+02  0.93496593502E+02  0.25908116788E+03  0.32626865085E+03  0.17300000000E+03 0. -1.
<mgrwt>
<rscale>  2 0.19831334E+03</rscale>
<asrwt>0</asrwt>
<pdfrwt beam="1">  1       21 0.17694319E+00 0.19831334E+03</pdfrwt>
<pdfrwt beam="2">  1       21 0.69323505E-02 0.19831334E+03</pdfrwt>
<totfact> 0.29258662E+04</totfact>
</mgrwt>
</event>
<event>
 4    1  0.4035350E+000  0.2352926E+03  0.7546771E-02  0.1122969E+00
         21   -1    0    0  501  502  0.00000000000E+00  0.00000000000E+00  0.18915203541E+03  0.18915203541E+03  0.00000000000E+00 0.  1.
         21   -1    0    0  502  503 -0.00000000000E+00 -0.00000000000E+00 -0.40985083244E+03  0.40985083244E+03  0.00000000000E+00 0. -1.
          6    1    1    2  501    0 -0.10077004484E+03  0.12360836402E+03  0.49783276937E+02  0.24050156809E+03  0.17300000000E+03 0. -1.
         -6    1    1    2    0  503  0.10077004484E+03 -0.12360836402E+03 -0.27048207396E+03  0.35850129976E+03  0.17300000000E+03 0. -1.
<mgrwt>
<rscale>  2 0.23529265E+03</rscale>
<asrwt>0</asrwt>
<pdfrwt beam="1">  1       21 0.29100313E-01 0.23529265E+03</pdfrwt>
<pdfrwt beam="2">  1       21 0.63053974E-01 0.23529265E+03</pdfrwt>
<totfact> 0.25727401E+04</totfact>
</mgrwt>
</event>
<event>
 4    1  0.4035350E+000  0.3100827E+03  0.7546771E-02  0.1080306E+00
         21   -1    0    0  501  502  0.00000000000E+00  0.00000000000E+00  0.38066566962E+03  0.38066566962E+03  0.00000000000E+00 0.  1.
         21   -1    0    0  502  503 -0.00000000000E+00 -0.00000000000E+00 -0.14604876529E+04  0.14604876529E+04  0.00000000000E+00 0.  1.
          6    1    1    2  501    0  0.17598352824E+03 -0.18775538136E+03  0.29728392535E+03  0.42956840866E+03  0.17300000000E+03 0.  1.
         -6    1    1    2    0  503 -0.17598352824E+03  0.18775538136E+03 -0.13771059087E+04  0.14115849139E+04  0.17300000000E+03 0.  1.
<mgrwt>
<rscale>  2 0.31008271E+03</rscale>
<asrwt>0</asrwt>
<pdfrwt beam="1">  1       21 0.58563950E-01 0.31008271E+03</pdfrwt>
<pdfrwt beam="2">  1       21 0.22469040E+00 0.31008271E+03</pdfrwt>
<totfact> 0.22686311E+02</totfact>
</mgrwt>
</event>
<event>
 4    1  0.4035350E+000  0.2230706E+03  0.7546771E-02  0.1131614E+00
         21   -1    0    0  501  502  0.00000000000E+00  0.00000000000E+00  0.12458773981E+04  0.12458773981E+04  0.00000000000E+00 0.  1.
         21   -1    0    0  502  503 -0.00000000000E+00 -0.00000000000E+00 -0.62408058749E+02  0.62408058749E+02  0.00000000000E+00 0.  1.
          6    1    1    2  501    0  0.86357450228E+02 -0.11123797447E+03  0.98422934606E+03  0.10091917072E+04  0.17300000000E+03 0.  1.
         -6    1    1    2    0  503 -0.86357450228E+02  0.11123797447E+03  0.19923999331E+03  0.29909374970E+03  0.17300000000E+03 0.  1.
<mgrwt>
<rscale>  2 0.22307061E+03</rscale>
<asrwt>0</asrwt>
<pdfrwt beam="1">  1       21 0.19167343E+00 0.22307061E+03</pdfrwt>
<pdfrwt beam="2">  1       21 0.96012407E-02 0.22307061E+03</pdfrwt>
<totfact> 0.12954750E+04</totfact>
</mgrwt>
</event>
<event>
 4    1  0.4035350E+000  0.2085018E+03  0.7546771E-02  0.1142758E+00
         21   -1    0    0  503  502  0.00000000000E+00  0.00000000000E+00  0.19928294012E+03  0.19928294012E+03  0.00000000000E+00 0. -1.
         21   -1    0    0  501  503 -0.00000000000E+00 -0.00000000000E+00 -0.22685435236E+03  0.22685435236E+03  0.00000000000E+00 0. -1.
          6    1    1    2  501    0  0.53891564856E+02 -0.10314884994E+03  0.27957686048E+02  0.21036781649E+03  0.17300000000E+03 0. -1.
         -6    1    1    2    0  502 -0.53891564856E+02  0.10314884994E+03 -0.55529098291E+02  0.21576947598E+03  0.17300000000E+03 0. -1.
<mgrwt>
<rscale>  2 0.20850176E+03</rscale>
<asrwt>0</asrwt>
<pdfrwt beam="1">  1       21 0.30658914E-01 0.20850176E+03</pdfrwt>
<pdfrwt beam="2">  1       21 0.34900670E-01 0.20850176E+03</pdfrwt>
<totfact> 0.80286849E+04</totfact>
</mgrwt>
</event>
<event>
 4    1  0.4035350E+000  0.2285982E+03  0.7546771E-02  0.1127630E+00
         21   -1    0    0  503  502  0.00000000000E+00  0.00000000000E+00  0.14281211892E+03  0.14281211892E+03  0.00000000000E+00 0.  1.
         21   -1    0    0  501  503 -0.00000000000E+00 -0.00000000000E+00 -0.92880697903E+03  0.92880697903E+03  0.00000000000E+00 0.  1.
          6    1    1    2  501    0 -0.14685979210E+03  0.27574199747E+02 -0.81011659094E+03  0.84175176028E+03  0.17300000000E+03 0.  1.
         -6    1    1    2    0  502  0.14685979210E+03 -0.27574199747E+02  0.24121730823E+02  0.22986733767E+03  0.17300000000E+03 0.  1.
<mgrwt>
<rscale>  2 0.22859820E+03</rscale>
<asrwt>0</asrwt>
<pdfrwt beam="1">  1       21 0.21971095E-01 0.22859820E+03</pdfrwt>
<pdfrwt beam="2">  1       21 0.14289339E+00 0.22859820E+03</pdfrwt>
<totfact> 0.63898789E+03</totfact>
</mgrwt>
</event>
<event>
 4    1  0.4035350E+000  0.2258366E+03  0.7546771E-02  0.1129605E+00
         21   -1    0    0  503  502  0.00000000000E+00  0.00000000000E+00  0.17383200716E+04  0.17383200716E+04  0.00000000000E+00 0. -1.
         21   -1    0    0  501  503 -0.00000000000E+00 -0.00000000000E+00 -0.36638621537E+02  0.36638621537E+02  0.00000000000E+00 0.  1.
          6    1    1    2  501    0  0.11302853023E+02 -0.14472523848E+03  0.45473430374E+03  0.50772574894E+03  0.17300000000E+03 0.  1.
         -6    1    1    2    0  502 -0.11302853023E+02  0.14472523848E+03  0.12469471464E+04  0.12672329442E+04  0.17300000000E+03 0.  1.
<mgrwt>
<rscale>  2 0.22583655E+03</rscale>
<asrwt>0</asrwt>
<pdfrwt beam="1">  1       21 0.26743379E+00 0.22583655E+03</pdfrwt>
<pdfrwt beam="2">  1       21 0.56367124E-02 0.22583655E+03</pdfrwt>
<totfact> 0.11191248E+04</totfact>
</mgrwt>
</event>
<event>
 4    1  0.4035350E+000  0.1791869E+03  0.7546771E-02  0.1168592E+00
         21   -1    0    0  503  502  0.00000000000E+00  0.00000000000E+00  0.37633746964E+02  0.37633746964E+02  0.00000000000E+00 0. -1.
         21   -1    0    0  501  503 -0.00000000000E+00 -0.00000000000E+00 -0.10195683379E+04  0.10195683379E+04  0.00000000000E+00 0. -1.
          6    1    1    2  501    0 -0.40730345311E+02  0.22803538527E+02 -0.70451508607E+03  0.72694529980E+03  0.17300000000E+03 0. -1.
         -6    1    1    2    0  502  0.40730345311E+02 -0.22803538527E+02 -0.27741950483E+03  0.33025678503E+03  0.17300000000E+03 0. -1.
<mgrwt>
<rscale>  2 0.17918695E+03</rscale>
<asrwt>0</asrwt>
<pdfrwt beam="1">  1       21 0.57898070E-02 0.17918695E+03</pdfrwt>
<pdfrwt beam="2">  1       21 0.15685667E+00 0.17918695E+03</pdfrwt>
<totfact> 0.56061128E+04</totfact>
</mgrwt>
</event>
<event>
 4    1  0.4035350E+000  0.2091150E+03  0.7546771E-02  0.1142269E+00
         21   -1    0    0  503  502  0.00000000000E+00  0.00000000000E+00  0.68066136463E+03  0.68066136463E+03  0.00000000000E+00 0.  1.
         21   -1    0    0  501  503 -0.00000000000E+00 -0.00000000000E+00 -0.72365923059E+02  0.72365923059E+02  0.00000000000E+00 0.  1.
          6    1    1    2  501    0  0.11695931187E+03  0.10981216607E+02  0.43027737721E+03  0.47840118006E+03  0.17300000000E+03 0.  1.
         -6    1    1    2    0  502 -0.11695931187E+03 -0.10981216607E+02  0.17801806437E+03  0.27462610763E+03  0.17300000000E+03 0.  1.
<mgrwt>
<rscale>  2 0.20911496E+03</rscale>
<asrwt>0</asrwt>
<pdfrwt beam="1">  1       21 0.10471713E+00 0.20911496E+03</pdfrwt>
<pdfrwt beam="2">  1       21 0.11133219E-01 0.20911496E+03</pdfrwt>
<totfact> 0.48912031E+04</totfact>
</mgrwt>
</event>
<event>
 4    1  0.4035350E+000  0.1764165E+03  0.7546771E-02  0.1171317E+00
         21   -1    0    0  501  502  0.00000000000E+00  0.00000000000E+00  0.61864654587E+02  0.61864654587E+02  0.00000000000E+00 0. -1.
         21   -1    0    0  502  503 -0.00000000000E+00 -0.00000000000E+00 -0.79362731364E+03  0.79362731364E+03  0.00000000000E+00 0.  1.
          6    1    1    2  501    0  0.28877702775E+02  0.18969808613E+02 -0.10706765513E+03  0.20636438193E+03  0.17300000000E+03 0. -1.
         -6    1    1    2    0  503 -0.28877702775E+02 -0.18969808613E+02 -0.62469500392E+03  0.64912758629E+03  0.17300000000E+03 0.  1.
<mgrwt>
<rscale>  2 0.17641648E+03</rscale>
<asrwt>0</asrwt>
<pdfrwt beam="1">  1       21 0.95176397E-02 0.17641648E+03</pdfrwt>
<pdfrwt beam="2">  1       21 0.12209650E+00 0.17641648E+03</pdfrwt>
<totfact> 0.45180772E+04</totfact>
</mgrwt>
</event>
<event>
 4    1  0.4035350E+000  0.1750261E+03  0.7546771E-02  0.1172705E+00
         21   -1    0    0  501  502  0.00000000000E+00  0.00000000000E+00  0.31345453325E+03  0.31345453325E+03  0.00000000000E+00 0.  1.
         21   -1    0    0  502  503 -0.00000000000E+00 -0.00000000000E+00 -0.11894355864E+03  0.11894355864E+03  0.00000000000E+00 0.  1.
          6    1    1    2  501    0  0.26246023723E+02 -0.40355424616E+01  0.18855797975E+03  0.25727077388E+03  0.17300000000E+03 0.  1.
         -6    1    1    2    0  503 -0.26246023723E+02  0.40355424616E+01  0.59529948586E+01  0.17512731801E+03  0.17300000000E+03 0.  1.
<mgrwt>
<rscale>  2 0.17502611E+03</rscale>
<asrwt>0</asrwt>
<pdfrwt beam="1">  1       21 0.48223774E-01 0.17502611E+03</pdfrwt>
<pdfrwt beam="2">  1       21 0.18299009E-01 0.17502611E+03</pdfrwt>
<totfact> 0.11259941E+05</totfact>
</mgrwt>
</event>
<event>
 4    1  0.4035350E+000  0.2523700E+03  0.7546771E-02  0.1111816E+00
         21   -1    0    0  501  502  0.00000000000E+00  0.00000000000E+00  0.25077727687E+03  0.25077727687E+03  0.00000000000E+00 0.  1.
         21   -1    0    0  502  503 -0.00000000000E+00 -0.00000000000E+00 -0.25577002532E+03  0.25577002532E+03  0.00000000000E+00 0. -1.
          6    1    1    2  501    0  0.28733293899E+02 -0.18148287910E+03  0.18733714247E+02  0.25306439820E+03  0.17300000000E+03 0.  1.
         -6    1    1    2    0  503 -0.28733293899E+02  0.18148287910E+03 -0.23726462702E+02  0.25348290399E+03  0.17300000000E+03 0. -1.
<mgrwt>
<rscale>  2 0.25237004E+03</rscale>
<asrwt>0</asrwt>
<pdfrwt beam="1">  1       21 0.38581119E-01 0.25237004E+03</pdfrwt>
<pdfrwt beam="2">  1       21 0.39349235E-01 0.25237004E+03</pdfrwt>
<totfact> 0.39223971E+04</totfact>
</mgrwt>
</event>
<event>
 4    1  0.4035350E+000  0.1866960E+03  0.7546771E-02  0.1161476E+00
         21   -1    0    0  501  502  0.00000000000E+00  0.00000000000E+00  0.17884695198E+03  0.17884695198E+03  0.00000000000E+00 0. -1.
         21   -1    0    0  502  503 -0.00000000000E+00 -0.00000000000E+00 -0.20669176540E+03  0.20669176540E+03  0.00000000000E+00 0. -1.
          6    1    1    2  501    0 -0.64381579123E+02 -0.27953820135E+02  0.32141206239E+02  0.18944250032E+03  0.17300000000E+03 0. -1.
         -6    1    1    2    0  503  0.64381579123E+02  0.27953820135E+02 -0.59986019659E+02  0.19609621706E+03  0.17300000000E+03 0. -1.
<mgrwt>
<rscale>  2 0.18669602E+03</rscale>
<asrwt>0</asrwt>
<pdfrwt beam="1">  1       21 0.27514916E-01 0.18669602E+03</pdfrwt>
<pdfrwt beam="2">  1       21 0.31798733E-01 0.18669602E+03</pdfrwt>
<totfact> 0.12008572E+05</totfact>
</mgrwt>
</event>
<event>
 4    1  0.4035350E+000  0.2202572E+03  0.7546771E-02  0.1133691E+00
         21   -1    0    0  503  502  0.00000000000E+00  0.00000000000E+00  0.26827417154E+03  0.26827417154E+03  0.00000000000E+00 0. -1.
         21   -1    0    0  501  503 -0.00000000000E+00 -0.00000000000E+00 -0.26770380717E+03  0.26770380717E+03  0.00000000000E+00 0. -1.
          6    1    1    2  501    0  0.13598423106E+03 -0.96192488432E+01 -0.15237392312E+03  0.26782653620E+03  0.17300000000E+03 0. -1.
         -6    1    1    2    0  502 -0.13598423106E+03  0.96192488432E+01  0.15294428749E+03  0.26815144251E+03  0.17300000000E+03 0. -1.
<mgrwt>
<rscale>  2 0.22025722E+03</rscale>
<asrwt>0</asrwt>
<pdfrwt beam="1">  1       21 0.41272949E-01 0.22025722E+03</pdfrwt>
<pdfrwt beam="2">  1       21 0.41185201E-01 0.22025722E+03</pdfrwt>
<totfact> 0.31634349E+04</totfact>
</mgrwt>
</event>
<event>
 4    1  0.4035350E+000  0.2112691E+03  0.7546771E-02  0.1140565E+00
         21   -1    0    0  503  502  0.00000000000E+00  0.00000000000E+00  0.69028516883E+03  0.69028516883E+03  0.00000000000E+00 0. -1.
         21   -1    0    0  501  503 -0.00000000000E+00 -0.00000000000E+00 -0.75355772589E+02  0.75355772589E+02  0.00000000000E+00 0. -1.
          6    1    1    2  501    0  0.12489844488E+02  0.12062180243E+03  0.16324647744E+03  0.26699068866E+03  0.17300000000E+03 0. -1.
         -6    1    1    2    0  502 -0.12489844488E+02 -0.12062180243E+03  0.45168291881E+03  0.49865025276E+03  0.17300000000E+03 0. -1.
<mgrwt>
<rscale>  2 0.21126906E+03</rscale>
<asrwt>0</asrwt>
<pdfrwt beam="1">  1       21 0.10619771E+00 0.21126906E+03</pdfrwt>
<pdfrwt beam="2">  1       21 0.11593196E-01 0.21126906E+03</pdfrwt>
<totfact> 0.43939537E+04</totfact>
</mgrwt>
</event>
<event>
 4    1  0.4035350E+000  0.3028802E+03  0.7546771E-02  0.1083810E+00
         21   -1    0    0  501  502  0.00000000000E+00  0.00000000000E+00  0.67764012986E+03  0.67764012986E+03  0.00000000000E+00 0. -1.
         21   -1    0    0  502  503 -0.00000000000E+00 -0.00000000000E+00 -0.13680780396E+03  0.13680780396E+03  0.00000000000E+00 0.  1.
          6    1    1    2  501    0 -0.25821759963E+02 -0.24726641501E+03  0.31207119839E+03  0.43488489988E+03  0.17300000000E+03 0.  1.
         -6    1    1    2    0  503  0.25821759963E+02  0.24726641501E+03  0.22876112752E+03  0.37956303395E+03  0.17300000000E+03 0. -1.
<mgrwt>
<rscale>  2 0.30288025E+03</rscale>
<asrwt>0</asrwt>
<pdfrwt beam="1">  1       21 0.10425233E+00 0.30288025E+03</pdfrwt>
<pdfrwt beam="2">  1       21 0.21047355E-01 0.30288025E+03</pdfrwt>
<totfact> 0.14693396E+04</totfact>
</mgrwt>
</event>
<event>
 4    1  0.4035350E+000  0.2153505E+03  0.7546771E-02  0.1137398E+00
         21   -1    0    0  501  502  0.00000000000E+00  0.00000000000E+00  0.14004936215E+04  0.14004936215E+04  0.00000000000E+00 0. -1.
         21   -1    0    0  502  503 -0.00000000000E+00 -0.00000000000E+00 -0.82822299948E+02  0.82822299948E+02  0.00000000000E+00 0.  1.
          6    1    1    2  501    0  0.12253887150E+03 -0.37829177296E+02  0.12334081946E+04  0.12520669296E+04  0.17300000000E+03 0. -1.
         -6    1    1    2    0  503 -0.12253887150E+03  0.37829177296E+02  0.84263127004E+02  0.23124899190E+03  0.17300000000E+03 0.  1.
<mgrwt>
<rscale>  2 0.21535046E+03</rscale>
<asrwt>0</asrwt>
<pdfrwt beam="1">  1       21 0.21546054E+00 0.21535046E+03</pdfrwt>
<pdfrwt beam="2">  1       21 0.12741893E-01 0.21535046E+03</pdfrwt>
<totfact> 0.55382408E+03</totfact>
</mgrwt>
</event>
<event>
 4    1  0.4035350E+000  0.5058868E+03  0.7546771E-02  0.1012254E+00
         21   -1    0    0  503  502  0.00000000000E+00  0.00000000000E+00  0.16530903069E+03  0.16530903069E+03  0.00000000000E+00 0.  1.
         21   -1    0    0  501  503 -0.00000000000E+00 -0.00000000000E+00 -0.23815010998E+04  0.23815010998E+04  0.00000000000E+00 0. -1.
          6    1    1    2  501    0 -0.32503015234E+03  0.34691187086E+03 -0.18613785948E+04  0.19288990951E+04  0.17300000000E+03 0. -1.
         -6    1    1    2    0  502  0.32503015234E+03 -0.34691187086E+03 -0.35481347434E+03  0.61791103538E+03  0.17300000000E+03 0.  1.
<mgrwt>
<rscale>  2 0.50588679E+03</rscale>
<asrwt>0</asrwt>
<pdfrwt beam="1">  1       21 0.25432161E-01 0.50588679E+03</pdfrwt>
<pdfrwt beam="2">  1       21 0.36638475E+00 0.50588679E+03</pdfrwt>
<totfact> 0.15123125E+02</totfact>
</mgrwt>
</event>
<event>
 4    1  0.4035350E+000  0.1904330E+03  0.7546771E-02  0.1158071E+00
         21   -1    0    0  503  502  0.00000000000E+00  0.00000000000E+00  0.41469456975E+03  0.41469456975E+03  0.00000000000E+00 0. -1.
         21   -1    0    0  501  503 -0.00000000000E+00 -0.00000000000E+00 -0.15264373944E+03  0.15264373944E+03  0.00000000000E+00 0. -1.
          6    1    1    2  501    0  0.16691198022E+02  0.77827664719E+02 -0.54361023183E+02  0.19804005233E+03  0.17300000000E+03 0. -1.
         -6    1    1    2    0  502 -0.16691198022E+02 -0.77827664719E+02  0.31641185349E+03  0.36929825686E+03  0.17300000000E+03 0. -1.
<mgrwt>
<rscale>  2 0.19043304E+03</rscale>
<asrwt>0</asrwt>
<pdfrwt beam="1">  1       21 0.63799164E-01 0.19043304E+03</pdfrwt>
<pdfrwt beam="2">  1       21 0.23483652E-01 0.19043304E+03</pdfrwt>
<totfact> 0.38769234E+04</totfact>
</mgrwt>
</event>
<event>
 4    1  0.4035350E+000  0.1957118E+03  0.7546771E-02  0.1153408E+00
         21   -1    0    0  501  502  0.00000000000E+00  0.00000000000E+00  0.55102708412E+03  0.55102708412E+03  0.00000000000E+00 0. -1.
         21   -1    0    0  502  503 -0.00000000000E+00 -0.00000000000E+00 -0.11019150736E+03  0.11019150736E+03  0.00000000000E+00 0.  1.
          6    1    1    2  501    0 -0.68168063575E+02 -0.61051147012E+02  0.42129355846E+03  0.46453351853E+03  0.17300000000E+03 0. -1.
         -6    1    1    2    0  503  0.68168063575E+02  0.61051147012E+02  0.19542018301E+02  0.19668507295E+03  0.17300000000E+03 0.  1.
<mgrwt>
<rscale>  2 0.19571185E+03</rscale>
<asrwt>0</asrwt>
<pdfrwt beam="1">  1       21 0.84773396E-01 0.19571185E+03</pdfrwt>
<pdfrwt beam="2">  1       21 0.16952540E-01 0.19571185E+03</pdfrwt>
<totfact> 0.37743977E+04</totfact>
</mgrwt>
</event>
<event>
 4    1  0.4035350E+000  0.1759971E+03  0.7546771E-02  0.1171734E+00
         21   -1    0    0  503  502  0.00000000000E+00  0.00000000000E+00  0.41621452535E+04  0.41621452535E+04  0.00000000000E+00 0.  1.
         21   -1    0    0  501  503 -0.00000000000E+00 -0.00000000000E+00 -0.18905859116E+02  0.18905859116E+02  0.00000000000E+00 0.  1.
          6    1    1    2  501    0  0.16851650349E+02 -0.27604360345E+02  0.44374356643E+03  0.47737127226E+03  0.17300000000E+03 0.  1.
         -6    1    1    2    0  502 -0.16851650349E+02  0.27604360345E+02  0.36994958279E+04  0.37036798403E+04  0.17300000000E+03 0.  1.
<mgrwt>
<rscale>  2 0.17599710E+03</rscale>
<asrwt>0</asrwt>
<pdfrwt beam="1">  1       21 0.64032931E+00 0.17599710E+03</pdfrwt>
<pdfrwt beam="2">  1       21 0.29085970E-02 0.17599710E+03</pdfrwt>
<totfact> 0.11122190E+02</totfact>
</mgrwt>
</event>
<event>
 4    1  0.4035350E+000  0.1818860E+03  0.7546771E-02  0.1165990E+00
         21   -1    0    0  501  502  0.00000000000E+00  0.00000000000E+00  0.44025943957E+03  0.44025943957E+03  0.00000000000E+00 0. -1.
         21   -1    0    0  502  503 -0.00000000000E+00 -0.00000000000E+00 -0.92672036585E+02  0.92672036585E+02  0.00000000000E+00 0. -1.
          6    1    1    2  501    0  0.11029430428E+02  0.55062396708E+02  0.28968296679E+03  0.34205078149E+03  0.17300000000E+03 0. -1.
         -6    1    1    2    0  503 -0.11029430428E+02 -0.55062396708E+02  0.57904436196E+02  0.19088069467E+03  0.17300000000E+03 0. -1.
<mgrwt>
<rscale>  2 0.18188600E+03</rscale>
<asrwt>0</asrwt>
<pdfrwt beam="1">  1       21 0.67732220E-01 0.18188600E+03</pdfrwt>
<pdfrwt beam="2">  1       21 0.14257237E-01 0.18188600E+03</pdfrwt>
<totfact> 0.86073873E+04</totfact>
</mgrwt>
</event>
<event>
 4    1  0.4035350E+000  0.2040653E+03  0.7546771E-02  0.1146354E+00
         21   -1    0    0  503  502  0.00000000000E+00  0.00000000000E+00  0.36745979133E+03  0.36745979133E+03  0.00000000000E+00 0. -1.
         21   -1    0    0  501  503 -0.00000000000E+00 -0.00000000000E+00 -0.11403016609E+03  0.11403016609E+03  0.00000000000E+00 0.  1.
          6    1    1    2  501    0 -0.10318181861E+03 -0.32667524927E+02  0.10779297505E+03  0.23078557222E+03  0.17300000000E+03 0.  1.
         -6    1    1    2    0  502  0.10318181861E+03  0.32667524927E+02  0.14563665020E+03  0.25070438520E+03  0.17300000000E+03 0. -1.
<mgrwt>
<rscale>  2 0.20406532E+03</rscale>
<asrwt>0</asrwt>
<pdfrwt beam="1">  1       21 0.56532275E-01 0.20406532E+03</pdfrwt>
<pdfrwt beam="2">  1       21 0.17543103E-01 0.20406532E+03</pdfrwt>
<totfact> 0.86215494E+04</totfact>
</mgrwt>
</event>
<event>
 4    1  0.4035350E+000  0.2468473E+03  0.7546771E-02  0.1115314E+00
         21   -1    0    0  503  502  0.00000000000E+00  0.00000000000E+00  0.50603509001E+02  0.50603509001E+02  0.00000000000E+00 0. -1.
         21   -1    0    0  501  503 -0.00000000000E+00 -0.00000000000E+00 -0.12848287003E+04  0.12848287003E+04  0.00000000000E+00 0. -1.
          6    1    1    2  501    0  0.63430964280E+02 -0.16425921675E+03 -0.78444598454E+03  0.82236797127E+03  0.17300000000E+03 0. -1.
         -6    1    1    2    0  502 -0.63430964280E+02  0.16425921675E+03 -0.44977920681E+03  0.51306423807E+03  0.17300000000E+03 0. -1.
<mgrwt>
<rscale>  2 0.24684728E+03</rscale>
<asrwt>0</asrwt>
<pdfrwt beam="1">  1       21 0.77851552E-02 0.24684728E+03</pdfrwt>
<pdfrwt beam="2">  1       21 0.19766596E+00 0.24684728E+03</pdfrwt>
<totfact> 0.16833631E+04</totfact>
</mgrwt>
</event>
<event>
 4    1  0.4035350E+000  0.2822900E+03  0.7546771E-02  0.1094445E+00
         21   -1    0    0  503  502  0.00000000000E+00  0.00000000000E+00  0.24371032817E+04  0.24371032817E+04  0.00000000000E+00 0. -1.
         21   -1    0    0  501  503 -0.00000000000E+00 -0.00000000000E+00 -0.85589954188E+02  0.85589954188E+02  0.00000000000E+00 0.  1.
          6    1    1    2  501    0  0.13343585600E+02  0.22266696111E+03  0.18419628588E+03  0.33706957528E+03  0.17300000000E+03 0.  1.
         -6    1    1    2    0  502 -0.13343585600E+02 -0.22266696111E+03  0.21673170416E+04  0.21856236606E+04  0.17300000000E+03 0. -1.
<mgrwt>
<rscale>  2 0.28228997E+03</rscale>
<asrwt>0</asrwt>
<pdfrwt beam="1">  1       21 0.37493891E+00 0.28228997E+03</pdfrwt>
<pdfrwt beam="2">  1       21 0.13167687E-01 0.28228997E+03</pdfrwt>
<totfact> 0.54919457E+02</totfact>
</mgrwt>
</event>
<event>
 4    1  0.4035350E+000  0.3226644E+03  0.7546771E-02  0.1074430E+00
         21   -1    0    0  501  502  0.00000000000E+00  0.00000000000E+00  0.79920806372E+02  0.79920806372E+02  0.00000000000E+00 0.  1.
         21   -1    0    0  502  503 -0.00000000000E+00 -0.00000000000E+00 -0.13026939203E+04  0.13026939203E+04  0.00000000000E+00 0. -1.
          6    1    1    2  501    0 -0.24297129394E+03 -0.12307832894E+03 -0.61171731288E+03  0.69159988115E+03  0.17300000000E+03 0.  1.
         -6    1    1    2    0  503  0.24297129394E+03  0.12307832894E+03 -0.61105580107E+03  0.69101484554E+03  0.17300000000E+03 0.  1.
<mgrwt>
<rscale>  2 0.32266442E+03</rscale>
<asrwt>0</asrwt>
<pdfrwt beam="1">  1       21 0.12295510E-01 0.32266442E+03</pdfrwt>
<pdfrwt beam="2">  1       21 0.20041443E+00 0.32266442E+03</pdfrwt>
<totfact> 0.68552582E+03</totfact>
</mgrwt>
</event>
<event>
 4    1  0.4035350E+000  0.2416742E+03  0.7546771E-02  0.1118683E+00
         21   -1    0    0  501  502  0.00000000000E+00  0.00000000000E+00  0.31758413413E+03  0.31758413413E+03  0.00000000000E+00 0. -1.
         21   -1    0    0  502  503 -0.00000000000E+00 -0.00000000000E+00 -0.18701099081E+03  0.18701099081E+03  0.00000000000E+00 0. -1.
          6    1    1    2  501    0 -0.11507279758E+02 -0.16835971303E+03  0.32790023989E+02  0.24388849118E+03  0.17300000000E+03 0. -1.
         -6    1    1    2    0  503  0.11507279758E+02  0.16835971303E+03  0.97783119326E+02  0.26070663375E+03  0.17300000000E+03 0. -1.
<mgrwt>
<rscale>  2 0.24167418E+03</rscale>
<asrwt>0</asrwt>
<pdfrwt beam="1">  1       21 0.48859097E-01 0.24167418E+03</pdfrwt>
<pdfrwt beam="2">  1       21 0.28770922E-01 0.24167418E+03</pdfrwt>
<totfact> 0.45174084E+04</totfact>
</mgrwt>
</event>
<event>
 4    1  0.4035350E+000  0.1929469E+03  0.7546771E-02  0.1155830E+00
         21   -1    0    0  503  502  0.00000000000E+00  0.00000000000E+00  0.86453286944E+02  0.86453286944E+02  0.00000000000E+00 0.  1.
         21   -1    0    0  501  503 -0.00000000000E+00 -0.00000000000E+00 -0.43084792960E+03  0.43084792960E+03  0.00000000000E+00 0.  1.
          6    1    1    2  501    0  0.42743661968E+02 -0.73976131400E+02 -0.17815031807E+03  0.26261383148E+03  0.17300000000E+03 0.  1.
         -6    1    1    2    0  502 -0.42743661968E+02  0.73976131400E+02 -0.16624432459E+03  0.25468738507E+03  0.17300000000E+03 0.  1.
<mgrwt>
<rscale>  2 0.19294685E+03</rscale>
<asrwt>0</asrwt>
<pdfrwt beam="1">  1       21 0.13300506E-01 0.19294685E+03</pdfrwt>
<pdfrwt beam="2">  1       21 0.66284297E-01 0.19294685E+03</pdfrwt>
<totfact> 0.10187128E+05</totfact>
</mgrwt>
</event>
<event>
 4    1  0.4035350E+000  0.2114228E+03  0.7546771E-02  0.1140444E+00
         21   -1    0    0  501  502  0.00000000000E+00  0.00000000000E+00  0.65597288089E+03  0.65597288089E+03  0.00000000000E+00 0. -1.
         21   -1    0    0  502  503 -0.00000000000E+00 -0.00000000000E+00 -0.83923388634E+02  0.83923388634E+02  0.00000000000E+00 0.  1.
          6    1    1    2  501    0  0.91645019329E+02  0.79823488323E+02  0.44644742337E+03  0.49397864396E+03  0.17300000000E+03 0. -1.
         -6    1    1    2    0  503 -0.91645019329E+02 -0.79823488323E+02  0.12560206889E+03  0.24591762557E+03  0.17300000000E+03 0.  1.
<mgrwt>
<rscale>  2 0.21142280E+03</rscale>
<asrwt>0</asrwt>
<pdfrwt beam="1">  1       21 0.10091890E+00 0.21142280E+03</pdfrwt>
<pdfrwt beam="2">  1       21 0.12911291E-01 0.21142280E+03</pdfrwt>
<totfact> 0.40928762E+04</totfact>
</mgrwt>
</event>
<event>
 4    1  0.4035350E+000  0.1775383E+03  0.7546771E-02  0.1170207E+00
         21   -1    0    0  503  502  0.00000000000E+00  0.00000000000E+00  0.56226342467E+03  0.56226342467E+03  0.00000000000E+00 0.  1.
         21   -1    0    0  501  503 -0.00000000000E+00 -0.00000000000E+00 -0.85505900901E+02  0.85505900901E+02  0.00000000000E+00 0.  1.
          6    1    1    2  501    0  0.16219987969E+02  0.36438609791E+02  0.48309017936E+02  0.18399353659E+03  0.17300000000E+03 0.  1.
         -6    1    1    2    0  502 -0.16219987969E+02 -0.36438609791E+02  0.42844850583E+03  0.46377578898E+03  0.17300000000E+03 0.  1.
<mgrwt>
<rscale>  2 0.17753833E+03</rscale>
<asrwt>0</asrwt>
<pdfrwt beam="1">  1       21 0.86502063E-01 0.17753833E+03</pdfrwt>
<pdfrwt beam="2">  1       21 0.13154754E-01 0.17753833E+03</pdfrwt>
<totfact> 0.57687742E+04</totfact>
</mgrwt>
</event>
<event>
 4    1  0.4035350E+000  0.2294217E+03  0.7546771E-02  0.1127047E+00
         21   -1    0    0  501  502  0.00000000000E+00  0.00000000000E+00  0.40255769761E+02  0.40255769761E+02  0.00000000000E+00 0.  1.
         21   -1    0    0  502  503 -0.00000000000E+00 -0.00000000000E+00 -0.13296730301E+04  0.13296730301E+04  0.00000000000E+00 0.  1.
          6    1    1    2  501    0  0.15054912617E+03 -0.63480830681E+01 -0.73316475280E+03  0.76822190303E+03  0.17300000000E+03 0.  1.
         -6    1    1    2    0  503 -0.15054912617E+03  0.63480830681E+01 -0.55625250755E+03  0.60170689684E+03  0.17300000000E+03 0.  1.
<mgrwt>
<rscale>  2 0.22942175E+03</rscale>
<asrwt>0</asrwt>
<pdfrwt beam="1">  1       21 0.61931952E-02 0.22942175E+03</pdfrwt>
<pdfrwt beam="2">  1       21 0.20456509E+00 0.22942175E+03</pdfrwt>
<totfact> 0.22840956E+04</totfact>
</mgrwt>
</event>
<event>
 4    1  0.4035350E+000  0.1914129E+03  0.7546771E-02  0.1157193E+00
         21   -1    0    0  503  502  0.00000000000E+00  0.00000000000E+00  0.36623162154E+02  0.36623162154E+02  0.00000000000E+00 0.  1.
         21   -1    0    0  501  503 -0.00000000000E+00 -0.00000000000E+00 -0.10205290111E+04  0.10205290111E+04  0.00000000000E+00 0.  1.
          6    1    1    2  501    0  0.63394941555E+02 -0.51874494720E+02 -0.56613355586E+03  0.59761700519E+03  0.17300000000E+03 0. -1.
         -6    1    1    2    0  502 -0.63394941555E+02  0.51874494720E+02 -0.41777229305E+03  0.45953516803E+03  0.17300000000E+03 0. -1.
<mgrwt>
<rscale>  2 0.19141286E+03</rscale>
<asrwt>0</asrwt>
<pdfrwt beam="1">  1       21 0.56343325E-02 0.19141286E+03</pdfrwt>
<pdfrwt beam="2">  1       21 0.15700447E+00 0.19141286E+03</pdfrwt>
<totfact> 0.58180313E+04</totfact>
</mgrwt>
</event>
<event>
 4    1  0.4035350E+000  0.1822086E+03  0.7546771E-02  0.1165683E+00
         21   -1    0    0  503  502  0.00000000000E+00  0.00000000000E+00  0.14087511189E+03  0.14087511189E+03  0.00000000000E+00 0.  1.
         21   -1    0    0  501  503 -0.00000000000E+00 -0.00000000000E+00 -0.28810281719E+03  0.28810281719E+03  0.00000000000E+00 0.  1.
          6    1    1    2  501    0 -0.56429750954E+02  0.93081955268E+01 -0.16511680335E+03  0.24589330622E+03  0.17300000000E+03 0.  1.
         -6    1    1    2    0  502  0.56429750954E+02 -0.93081955268E+01  0.17889098050E+02  0.18308462285E+03  0.17300000000E+03 0.  1.
<mgrwt>
<rscale>  2 0.18220856E+03</rscale>
<asrwt>0</asrwt>
<pdfrwt beam="1">  1       21 0.21673094E-01 0.18220856E+03</pdfrwt>
<pdfrwt beam="2">  1       21 0.44323511E-01 0.18220856E+03</pdfrwt>
<totfact> 0.97441704E+04</totfact>
</mgrwt>
</event>
<event>
 4    1  0.4035350E+000  0.2039516E+03  0.7546771E-02  0.1146447E+00
         21   -1    0    0  501  502  0.00000000000E+00  0.00000000000E+00  0.39875695168E+03  0.39875695168E+03  0.00000000000E+00 0. -1.
         21   -1    0    0  502  503 -0.00000000000E+00 -0.00000000000E+00 -0.16053796375E+03  0.16053796375E+03  0.00000000000E+00 0. -1.
          6    1    1    2  501    0  0.10518090930E+03  0.24581354719E+02  0.28460244303E+03  0.35013542703E+03  0.17300000000E+03 0. -1.
         -6    1    1    2    0  503 -0.10518090930E+03 -0.24581354719E+02 -0.46383455099E+02  0.20915948840E+03  0.17300000000E+03 0. -1.
<mgrwt>
<rscale>  2 0.20395163E+03</rscale>
<asrwt>0</asrwt>
<pdfrwt beam="1">  1       21 0.61347223E-01 0.20395163E+03</pdfrwt>
<pdfrwt beam="2">  1       21 0.24698148E-01 0.20395163E+03</pdfrwt>
<totfact> 0.38068773E+04</totfact>
</mgrwt>
</event>
<event>
 4    1  0.4035350E+000  0.1864582E+03  0.7546771E-02  0.1161695E+00
         21   -1    0    0  503  502  0.00000000000E+00  0.00000000000E+00  0.13050595189E+03  0.13050595189E+03  0.00000000000E+00 0. -1.
         21   -1    0    0  501  503 -0.00000000000E+00 -0.00000000000E+00 -0.26668846124E+03  0.26668846124E+03  0.00000000000E+00 0. -1.
          6    1    1    2  501    0 -0.58216059789E+02  0.38059824028E+02 -0.61548826631E+02  0.19635406256E+03  0.17300000000E+03 0.  1.
         -6    1    1    2    0  502  0.58216059789E+02 -0.38059824028E+02 -0.74633682714E+02  0.20084035057E+03  0.17300000000E+03 0.  1.
<mgrwt>
<rscale>  2 0.18645820E+03</rscale>
<asrwt>0</asrwt>
<pdfrwt beam="1">  1       21 0.20077839E-01 0.18645820E+03</pdfrwt>
<pdfrwt beam="2">  1       21 0.41028994E-01 0.18645820E+03</pdfrwt>
<totfact> 0.13139472E+05</totfact>
</mgrwt>
</event>
<event>
 4    1  0.4035350E+000  0.2147256E+03  0.7546771E-02  0.1137878E+00
         21   -1    0    0  503  502  0.00000000000E+00  0.00000000000E+00  0.19722547380E+03  0.19722547380E+03  0.00000000000E+00 0.  1.
         21   -1    0    0  501  503 -0.00000000000E+00 -0.00000000000E+00 -0.30434454435E+03  0.30434454435E+03  0.00000000000E+00 0.  1.
          6    1    1    2  501    0 -0.76274071324E+02 -0.10178586022E+03 -0.17431766792E+03  0.27657502534E+03  0.17300000000E+03 0.  1.
         -6    1    1    2    0  502  0.76274071324E+02  0.10178586022E+03  0.67198597369E+02  0.22499499280E+03  0.17300000000E+03 0.  1.
<mgrwt>
<rscale>  2 0.21472563E+03</rscale>
<asrwt>0</asrwt>
<pdfrwt beam="1">  1       21 0.30342381E-01 0.21472563E+03</pdfrwt>
<pdfrwt beam="2">  1       21 0.46822237E-01 0.21472563E+03</pdfrwt>
<totfact> 0.45022633E+04</totfact>
</mgrwt>
</event>
<event>
 4    1  0.4035350E+000  0.2066307E+03  0.7546771E-02  0.1144262E+00
         21   -1    0    0  501  502  0.00000000000E+00  0.00000000000E+00  0.25438547273E+03  0.25438547273E+03  0.00000000000E+00 0. -1.
         21   -1    0    0  502  503 -0.00000000000E+00 -0.00000000000E+00 -0.24369024075E+03  0.24369024075E+03  0.00000000000E+00 0. -1.
          6    1    1    2  501    0  0.10643512293E+03 -0.37931718490E+02  0.14428611804E+03  0.25202129775E+03  0.17300000000E+03 0. -1.
         -6    1    1    2    0  503 -0.10643512293E+03  0.37931718490E+02 -0.13359088606E+03  0.24605441573E+03  0.17300000000E+03 0. -1.
<mgrwt>
<rscale>  2 0.20663071E+03</rscale>
<asrwt>0</asrwt>
<pdfrwt beam="1">  1       21 0.39136227E-01 0.20663071E+03</pdfrwt>
<pdfrwt beam="2">  1       21 0.37490806E-01 0.20663071E+03</pdfrwt>
<totfact> 0.42888575E+04</totfact>
</mgrwt>
</event>
<event>
 4    1  0.4035350E+000  0.2068248E+03  0.7546771E-02  0.1144105E+00
         21   -1    0    0  501  502  0.00000000000E+00  0.00000000000E+00  0.36006518496E+03  0.36006518496E+03  0.00000000000E+00 0. -1.
         21   -1    0    0  502  503 -0.00000000000E+00 -0.00000000000E+00 -0.12453515377E+03  0.12453515377E+03  0.00000000000E+00 0. -1.
          6    1    1    2  501    0  0.62454940092E+02  0.94588036970E+02  0.16975252878E+03  0.26756763127E+03  0.17300000000E+03 0.  1.
         -6    1    1    2    0  503 -0.62454940092E+02 -0.94588036970E+02  0.65777502420E+02  0.21703270745E+03  0.17300000000E+03 0.  1.
<mgrwt>
<rscale>  2 0.20682484E+03</rscale>
<asrwt>0</asrwt>
<pdfrwt beam="1">  1       21 0.55394643E-01 0.20682484E+03</pdfrwt>
<pdfrwt beam="2">  1       21 0.19159255E-01 0.20682484E+03</pdfrwt>
<totfact> 0.76355216E+04</totfact>
</mgrwt>
</event>
<event>
 4    1  0.4035350E+000  0.1867861E+03  0.7546771E-02  0.1161392E+00
         21   -1    0    0  503  502  0.00000000000E+00  0.00000000000E+00  0.75423728807E+03  0.75423728807E+03  0.00000000000E+00 0.  1.
         21   -1    0    0  501  503 -0.00000000000E+00 -0.00000000000E+00 -0.47028263767E+02  0.47028263767E+02  0.00000000000E+00 0.  1.
          6    1    1    2  501    0 -0.70077548751E+02  0.70142568177E+01  0.30231207742E+03  0.35536130176E+03  0.17300000000E+03 0. -1.
         -6    1    1    2    0  502  0.70077548751E+02 -0.70142568177E+01  0.40489694689E+03  0.44590425007E+03  0.17300000000E+03 0. -1.
<mgrwt>
<rscale>  2 0.18678614E+03</rscale>
<asrwt>0</asrwt>
<pdfrwt beam="1">  1       21 0.11603650E+00 0.18678614E+03</pdfrwt>
<pdfrwt beam="2">  1       21 0.72351181E-02 0.18678614E+03</pdfrwt>
<totfact> 0.82161189E+04</totfact>
</mgrwt>
</event>
<event>
 4    1  0.4035350E+000  0.1791835E+03  0.7546771E-02  0.1168596E+00
         21   -1    0    0  503  502  0.00000000000E+00  0.00000000000E+00  0.32815412464E+02  0.32815412464E+02  0.00000000000E+00 0. -1.
         21   -1    0    0  501  503 -0.00000000000E+00 -0.00000000000E+00 -0.11939832692E+04  0.11939832692E+04  0.00000000000E+00 0. -1.
          6    1    1    2  501    0  0.26253686136E+02 -0.38580687894E+02 -0.84122799610E+03  0.86009956804E+03  0.17300000000E+03 0. -1.
         -6    1    1    2    0  502 -0.26253686136E+02  0.38580687894E+02 -0.31993986067E+03  0.36669911366E+03  0.17300000000E+03 0. -1.
<mgrwt>
<rscale>  2 0.17918350E+03</rscale>
<asrwt>0</asrwt>
<pdfrwt beam="1">  1       21 0.50485251E-02 0.17918350E+03</pdfrwt>
<pdfrwt beam="2">  1       21 0.18368973E+00 0.17918350E+03</pdfrwt>
<totfact> 0.45852947E+04</totfact>
</mgrwt>
</event>
<event>
 4    1  0.4035350E+000  0.1907118E+03  0.7546771E-02  0.1157821E+00
         21   -1    0    0  503  502  0.00000000000E+00  0.00000000000E+00  0.94706077685E+02  0.94706077685E+02  0.00000000000E+00 0. -1.
         21   -1    0    0  501  503 -0.00000000000E+00 -0.00000000000E+00 -0.89407026027E+03  0.89407026027E+03  0.00000000000E+00 0. -1.
          6    1    1    2  501    0 -0.38106365215E+02 -0.70639098403E+02 -0.77308695318E+03  0.79626277979E+03  0.17300000000E+03 0. -1.
         -6    1    1    2    0  502  0.38106365215E+02  0.70639098403E+02 -0.26277229402E+02  0.19251355817E+03  0.17300000000E+03 0. -1.
<mgrwt>
<rscale>  2 0.19071176E+03</rscale>
<asrwt>0</asrwt>
<pdfrwt beam="1">  1       21 0.14570166E-01 0.19071176E+03</pdfrwt>
<pdfrwt beam="2">  1       21 0.13754927E+00 0.19071176E+03</pdfrwt>
<totfact> 0.15509737E+04</totfact>
</mgrwt>
</event>
<event>
 4    1  0.4035350E+000  0.2392208E+03  0.7546771E-02  0.1120313E+00
         21   -1    0    0  503  502  0.00000000000E+00  0.00000000000E+00  0.79102379117E+03  0.79102379117E+03  0.00000000000E+00 0.  1.
         21   -1    0    0  501  503 -0.00000000000E+00 -0.00000000000E+00 -0.96226945913E+02  0.96226945913E+02  0.00000000000E+00 0.  1.
          6    1    1    2  501    0 -0.16481306720E+03  0.11586895352E+02  0.12639295121E+03  0.27055827724E+03  0.17300000000E+03 0.  1.
         -6    1    1    2    0  502  0.16481306720E+03 -0.11586895352E+02  0.56840389404E+03  0.61669245984E+03  0.17300000000E+03 0.  1.
<mgrwt>
<rscale>  2 0.23922083E+03</rscale>
<asrwt>0</asrwt>
<pdfrwt beam="1">  1       21 0.12169596E+00 0.23922083E+03</pdfrwt>
<pdfrwt beam="2">  1       21 0.14804146E-01 0.23922083E+03</pdfrwt>
<totfact> 0.19930505E+04</totfact>
</mgrwt>
</event>
<event>
 4    1  0.4035350E+000  0.2154861E+03  0.7546771E-02  0.1137294E+00
         21   -1    0    0  503  502  0.00000000000E+00  0.00000000000E+00  0.28122444331E+03  0.28122444331E+03  0.00000000000E+00 0.  1.
         21   -1    0    0  501  503 -0.00000000000E+00 -0.00000000000E+00 -0.16511478052E+03  0.16511478052E+03  0.00000000000E+00 0.  1.
          6    1    1    2  501    0 -0.10127203293E+03 -0.79052000566E+02  0.57783208896E+02  0.22309895266E+03  0.17300000000E+03 0.  1.
         -6    1    1    2    0  502  0.10127203293E+03  0.79052000566E+02  0.58326453894E+02  0.22324027117E+03  0.17300000000E+03 0.  1.
<mgrwt>
<rscale>  2 0.21548606E+03</rscale>
<asrwt>0</asrwt>
<pdfrwt beam="1">  1       21 0.43265299E-01 0.21548606E+03</pdfrwt>
<pdfrwt beam="2">  1       21 0.25402274E-01 0.21548606E+03</pdfrwt>
<totfact> 0.74717896E+04</totfact>
</mgrwt>
</event>
<event>
 4    1  0.4035350E+000  0.1912279E+03  0.7546771E-02  0.1157358E+00
         21   -1    0    0  501  502  0.00000000000E+00  0.00000000000E+00  0.70215645866E+03  0.70215645866E+03  0.00000000000E+00 0. -1.
         21   -1    0    0  502  503 -0.00000000000E+00 -0.00000000000E+00 -0.26957713616E+03  0.26957713616E+03  0.00000000000E+00 0. -1.
          6    1    1    2  501    0  0.32433359543E+02  0.74747493018E+02  0.65270775387E+03  0.68014375134E+03  0.17300000000E+03 0. -1.
         -6    1    1    2    0  503 -0.32433359543E+02 -0.74747493018E+02 -0.22012843137E+03  0.29158984348E+03  0.17300000000E+03 0. -1.
<mgrwt>
<rscale>  2 0.19122790E+03</rscale>
<asrwt>0</asrwt>
<pdfrwt beam="1">  1       21 0.10802407E+00 0.19122790E+03</pdfrwt>
<pdfrwt beam="2">  1       21 0.41473406E-01 0.19122790E+03</pdfrwt>
<totfact> 0.38244462E+03</totfact>
</mgrwt>
</event>
<event>
 4    1  0.4035350E+000  0.1843990E+03  0.7546771E-02  0.1163612E+00
         21   -1    0    0  501  502  0.00000000000E+00  0.00000000000E+00  0.25044329065E+03  0.25044329065E+03  0.00000000000E+00 0.  1.
         21   -1    0    0  502  503 -0.00000000000E+00 -0.00000000000E+00 -0.15602226664E+03  0.15602226664E+03  0.00000000000E+00 0. -1.
          6    1    1    2  501    0  0.57045977646E+02 -0.28631171823E+02  0.12042960629E+03  0.22024140763E+03  0.17300000000E+03 0.  1.
         -6    1    1    2    0  503 -0.57045977646E+02  0.28631171823E+02 -0.26008582279E+02  0.18622414966E+03  0.17300000000E+03 0. -1.
<mgrwt>
<rscale>  2 0.18439899E+03</rscale>
<asrwt>0</asrwt>
<pdfrwt beam="1">  1       21 0.38529737E-01 0.18439899E+03</pdfrwt>
<pdfrwt beam="2">  1       21 0.24003426E-01 0.18439899E+03</pdfrwt>
<totfact> 0.10663622E+05</totfact>
</mgrwt>
</event>
<event>
 4    1  0.4035350E+000  0.2443196E+03  0.7546771E-02  0.1116948E+00
         21   -1    0    0  501  502  0.00000000000E+00  0.00000000000E+00  0.78983780537E+02  0.78983780537E+02  0.00000000000E+00 0.  1.
         21   -1    0    0  502  503 -0.00000000000E+00 -0.00000000000E+00 -0.16436660334E+04  0.16436660334E+04  0.00000000000E+00 0.  1.
          6    1    1    2  501    0 -0.16191680457E+03 -0.59548343676E+02 -0.14927953603E+03  0.28631527503E+03  0.17300000000E+03 0.  1.
         -6    1    1    2    0  503  0.16191680457E+03  0.59548343676E+02 -0.14154027168E+04  0.14363345389E+04  0.17300000000E+03 0.  1.
<mgrwt>
<rscale>  2 0.24431958E+03</rscale>
<asrwt>0</asrwt>
<pdfrwt beam="1">  1       21 0.12151352E-01 0.24431958E+03</pdfrwt>
<pdfrwt beam="2">  1       21 0.25287168E+00 0.24431958E+03</pdfrwt>
<totfact> 0.34892759E+03</totfact>
</mgrwt>
</event>
<event>
 4    1  0.4035350E+000  0.2386492E+03  0.7546771E-02  0.1120696E+00
         21   -1    0    0  503  502  0.00000000000E+00  0.00000000000E+00  0.79608655108E+02  0.79608655108E+02  0.00000000000E+00 0. -1.
         21   -1    0    0  501  503 -0.00000000000E+00 -0.00000000000E+00 -0.10933360726E+04  0.10933360726E+04  0.00000000000E+00 0. -1.
          6    1    1    2  501    0  0.12259369757E+03  0.10952274754E+03 -0.85166562684E+03  0.88447034255E+03  0.17300000000E+03 0. -1.
         -6    1    1    2    0  502 -0.12259369757E+03 -0.10952274754E+03 -0.16206179069E+03  0.28847438520E+03  0.17300000000E+03 0. -1.
<mgrwt>
<rscale>  2 0.23864921E+03</rscale>
<asrwt>0</asrwt>
<pdfrwt beam="1">  1       21 0.12247485E-01 0.23864921E+03</pdfrwt>
<pdfrwt beam="2">  1       21 0.16820556E+00 0.23864921E+03</pdfrwt>
<totfact> 0.12031683E+04</totfact>
</mgrwt>
</event>
<event>
 4    1  0.4035350E+000  0.1812335E+03  0.7546771E-02  0.1166615E+00
         21   -1    0    0  501  502  0.00000000000E+00  0.00000000000E+00  0.90699548123E+03  0.90699548123E+03  0.00000000000E+00 0.  1.
         21   -1    0    0  502  503 -0.00000000000E+00 -0.00000000000E+00 -0.36607652702E+02  0.36607652702E+02  0.00000000000E+00 0.  1.
          6    1    1    2  501    0 -0.17698635573E+02 -0.51022816728E+02  0.48414381626E+03  0.51695338702E+03  0.17300000000E+03 0.  1.
         -6    1    1    2    0  503  0.17698635573E+02  0.51022816728E+02  0.38624401227E+03  0.42664974692E+03  0.17300000000E+03 0.  1.
<mgrwt>
<rscale>  2 0.18123347E+03</rscale>
<asrwt>0</asrwt>
<pdfrwt beam="1">  1       21 0.13953775E+00 0.18123347E+03</pdfrwt>
<pdfrwt beam="2">  1       21 0.56319473E-02 0.18123347E+03</pdfrwt>
<totfact> 0.79732906E+04</totfact>
</mgrwt>
</event>
<event>
 4    1  0.4035350E+000  0.1810283E+03  0.7546771E-02  0.1166812E+00
         21   -1    0    0  503  502  0.00000000000E+00  0.00000000000E+00  0.77207962289E+02  0.77207962289E+02  0.00000000000E+00 0.  1.
         21   -1    0    0  501  503 -0.00000000000E+00 -0.00000000000E+00 -0.72781648526E+03  0.72781648526E+03  0.00000000000E+00 0.  1.
          6    1    1    2  501    0 -0.47429113887E+02 -0.24345693539E+02 -0.58516999618E+03  0.61253176087E+03  0.17300000000E+03 0.  1.
         -6    1    1    2    0  502  0.47429113887E+02  0.24345693539E+02 -0.65438526787E+02  0.19249268668E+03  0.17300000000E+03 0.  1.
<mgrwt>
<rscale>  2 0.18102827E+03</rscale>
<asrwt>0</asrwt>
<pdfrwt beam="1">  1       21 0.11878148E-01 0.18102827E+03</pdfrwt>
<pdfrwt beam="2">  1       21 0.11197176E+00 0.18102827E+03</pdfrwt>
<totfact> 0.37624844E+04</totfact>
</mgrwt>
</event>
<event>
 4    1  0.4035350E+000  0.1828102E+03  0.7546771E-02  0.1165111E+00
         21   -1    0    0  501  502  0.00000000000E+00  0.00000000000E+00  0.11324477763E+03  0.11324477763E+03  0.00000000000E+00 0. -1.
         21   -1    0    0  502  503 -0.00000000000E+00 -0.00000000000E+00 -0.43429134119E+03  0.43429134119E+03  0.00000000000E+00 0. -1.
          6    1    1    2  501    0  0.55300023922E+02 -0.20795755316E+02 -0.55402259970E+01  0.18289409556E+03  0.17300000000E+03 0. -1.
         -6    1    1    2    0  503 -0.55300023922E+02  0.20795755316E+02 -0.31550633756E+03  0.36464202326E+03  0.17300000000E+03 0. -1.
<mgrwt>
<rscale>  2 0.18281016E+03</rscale>
<asrwt>0</asrwt>
<pdfrwt beam="1">  1       21 0.17422273E-01 0.18281016E+03</pdfrwt>
<pdfrwt beam="2">  1       21 0.66814054E-01 0.18281016E+03</pdfrwt>
<totfact> 0.61472086E+04</totfact>
</mgrwt>
</event>
<event>
 4    1  0.4035350E+000  0.1965608E+03  0.7546771E-02  0.1152674E+00
         21   -1    0    0  503  502  0.00000000000E+00  0.00000000000E+00  0.99581896833E+03  0.99581896833E+03  0.00000000000E+00 0.  1.
         21   -1    0    0  501  503 -0.00000000000E+00 -0.00000000000E+00 -0.41068215710E+02  0.41068215710E+02  0.00000000000E+00 0.  1.
          6    1    1    2  501    0 -0.69214297064E+02  0.62582049649E+02  0.35549079405E+03  0.40621402796E+03  0.17300000000E+03 0.  1.
         -6    1    1    2    0  502  0.69214297064E+02 -0.62582049649E+02  0.59925995857E+03  0.63067315608E+03  0.17300000000E+03 0.  1.
<mgrwt>
<rscale>  2 0.19656076E+03</rscale>
<asrwt>0</asrwt>
<pdfrwt beam="1">  1       21 0.15320290E+00 0.19656076E+03</pdfrwt>
<pdfrwt beam="2">  1       21 0.63181878E-02 0.19656076E+03</pdfrwt>
<totfact> 0.50900858E+04</totfact>
</mgrwt>
</event>
<event>
 4    1  0.4035350E+000  0.1923001E+03  0.7546771E-02  0.1156403E+00
         21   -1    0    0  501  502  0.00000000000E+00  0.00000000000E+00  0.54800865627E+02  0.54800865627E+02  0.00000000000E+00 0.  1.
         21   -1    0    0  502  503 -0.00000000000E+00 -0.00000000000E+00 -0.73823545061E+03  0.73823545061E+03  0.00000000000E+00 0.  1.
          6    1    1    2  501    0 -0.41208175342E+02 -0.73158707737E+02 -0.22547845637E+03  0.29634413191E+03  0.17300000000E+03 0.  1.
         -6    1    1    2    0  503  0.41208175342E+02  0.73158707737E+02 -0.45795612861E+03  0.49669218432E+03  0.17300000000E+03 0.  1.
<mgrwt>
<rscale>  2 0.19230005E+03</rscale>
<asrwt>0</asrwt>
<pdfrwt beam="1">  1       21 0.84309028E-02 0.19230005E+03</pdfrwt>
<pdfrwt beam="2">  1       21 0.11357468E+00 0.19230005E+03</pdfrwt>
<totfact> 0.66197100E+04</totfact>
</mgrwt>
</event>
<event>
 4    1  0.4035350E+000  0.2512845E+03  0.7546771E-02  0.1112496E+00
         21   -1    0    0  501  502  0.00000000000E+00  0.00000000000E+00  0.67094352359E+02  0.67094352359E+02  0.00000000000E+00 0.  1.
         21   -1    0    0  502  503 -0.00000000000E+00 -0.00000000000E+00 -0.12240076216E+04  0.12240076216E+04  0.00000000000E+00 0.  1.
          6    1    1    2  501    0  0.76017943985E+02 -0.16563865964E+03 -0.26811159063E+03  0.36746117945E+03  0.17300000000E+03 0.  1.
         -6    1    1    2    0  503 -0.76017943985E+02  0.16563865964E+03 -0.88880167858E+03  0.92364079448E+03  0.17300000000E+03 0.  1.
<mgrwt>
<rscale>  2 0.25128449E+03</rscale>
<asrwt>0</asrwt>
<pdfrwt beam="1">  1       21 0.10322208E-01 0.25128449E+03</pdfrwt>
<pdfrwt beam="2">  1       21 0.18830887E+00 0.25128449E+03</pdfrwt>
<totfact> 0.11771213E+04</totfact>
</mgrwt>
</event>
<event>
 4    1  0.4035350E+000  0.1848037E+03  0.7546771E-02  0.1163233E+00
         21   -1    0    0  503  502  0.00000000000E+00  0.00000000000E+00  0.16473292248E+03  0.16473292248E+03  0.00000000000E+00 0. -1.
         21   -1    0    0  501  503 -0.00000000000E+00 -0.00000000000E+00 -0.24978062596E+03  0.24978062596E+03  0.00000000000E+00 0.  1.
          6    1    1    2  501    0 -0.62016327531E+02 -0.19425956166E+02 -0.12797614048E+03  0.22478942410E+03  0.17300000000E+03 0.  1.
         -6    1    1    2    0  502  0.62016327531E+02  0.19425956166E+02  0.42928437006E+02  0.18972412434E+03  0.17300000000E+03 0. -1.
<mgrwt>
<rscale>  2 0.18480366E+03</rscale>
<asrwt>0</asrwt>
<pdfrwt beam="1">  1       21 0.25343527E-01 0.18480366E+03</pdfrwt>
<pdfrwt beam="2">  1       21 0.38427788E-01 0.18480366E+03</pdfrwt>
<totfact> 0.96652883E+04</totfact>
</mgrwt>
</event>
<event>
 4    1  0.4035350E+000  0.1954903E+03  0.7546771E-02  0.1153601E+00
         21   -1    0    0  503  502  0.00000000000E+00  0.00000000000E+00  0.97936267553E+02  0.97936267553E+02  0.00000000000E+00 0. -1.
         21   -1    0    0  501  503 -0.00000000000E+00 -0.00000000000E+00 -0.48265837151E+03  0.48265837151E+03  0.00000000000E+00 0. -1.
          6    1    1    2  501    0 -0.82594780989E+02 -0.38282453666E+02 -0.31940534267E+03  0.37448126392E+03  0.17300000000E+03 0. -1.
         -6    1    1    2    0  502  0.82594780989E+02  0.38282453666E+02 -0.65316761287E+02  0.20611337514E+03  0.17300000000E+03 0. -1.
<mgrwt>
<rscale>  2 0.19549027E+03</rscale>
<asrwt>0</asrwt>
<pdfrwt beam="1">  1       21 0.15067118E-01 0.19549027E+03</pdfrwt>
<pdfrwt beam="2">  1       21 0.74255134E-01 0.19549027E+03</pdfrwt>
<totfact> 0.63175898E+04</totfact>
</mgrwt>
</event>
<event>
 4    1  0.4035350E+000  0.3036919E+03  0.7546771E-02  0.1083409E+00
         21   -1    0    0  503  502  0.00000000000E+00  0.00000000000E+00  0.68396016819E+02  0.68396016819E+02  0.00000000000E+00 0. -1.
         21   -1    0    0  501  503 -0.00000000000E+00 -0.00000000000E+00 -0.14409293876E+04  0.14409293876E+04  0.00000000000E+00 0.  1.
          6    1    1    2  501    0 -0.64962143072E+02 -0.24099727304E+03 -0.87744940165E+03  0.92851829175E+03  0.17300000000E+03 0.  1.
         -6    1    1    2    0  502  0.64962143072E+02  0.24099727304E+03 -0.49508396913E+03  0.58080711267E+03  0.17300000000E+03 0. -1.
<mgrwt>
<rscale>  2 0.30369189E+03</rscale>
<asrwt>0</asrwt>
<pdfrwt beam="1">  1       21 0.10522463E-01 0.30369189E+03</pdfrwt>
<pdfrwt beam="2">  1       21 0.22168147E+00 0.30369189E+03</pdfrwt>
<totfact> 0.67034855E+03</totfact>
</mgrwt>
</event>
<event>
 4    1  0.4035350E+000  0.1981437E+03  0.7546771E-02  0.1151315E+00
         21   -1    0    0  503  502  0.00000000000E+00  0.00000000000E+00  0.36473491414E+03  0.36473491414E+03  0.00000000000E+00 0.  1.
         21   -1    0    0  501  503 -0.00000000000E+00 -0.00000000000E+00 -0.16966501692E+04  0.16966501692E+04  0.00000000000E+00 0.  1.
          6    1    1    2  501    0 -0.78397033250E+02  0.56443251913E+02 -0.16634187872E+04  0.16751784971E+04  0.17300000000E+03 0.  1.
         -6    1    1    2    0  502  0.78397033250E+02 -0.56443251913E+02  0.33150353209E+03  0.38620658630E+03  0.17300000000E+03 0.  1.
<mgrwt>
<rscale>  2 0.19814372E+03</rscale>
<asrwt>0</asrwt>
<pdfrwt beam="1">  1       21 0.56113063E-01 0.19814372E+03</pdfrwt>
<pdfrwt beam="2">  1       21 0.26102310E+00 0.19814372E+03</pdfrwt>
<totfact> 0.16997350E+02</totfact>
</mgrwt>
</event>
<event>
 4    1  0.4035350E+000  0.4003288E+03  0.7546771E-02  0.1043666E+00
         21   -1    0    0  503  502  0.00000000000E+00  0.00000000000E+00  0.52231429819E+03  0.52231429819E+03  0.00000000000E+00 0.  1.
         21   -1    0    0  501  503 -0.00000000000E+00 -0.00000000000E+00 -0.47812059778E+03  0.47812059778E+03  0.00000000000E+00 0.  1.
          6    1    1    2  501    0  0.25703666530E+03  0.25350798913E+03 -0.27730421987E+03  0.48699155868E+03  0.17300000000E+03 0.  1.
         -6    1    1    2    0  502 -0.25703666530E+03 -0.25350798913E+03  0.32149792028E+03  0.51344333729E+03  0.17300000000E+03 0.  1.
<mgrwt>
<rscale>  2 0.40032880E+03</rscale>
<asrwt>0</asrwt>
<pdfrwt beam="1">  1       21 0.80356045E-01 0.40032880E+03</pdfrwt>
<pdfrwt beam="2">  1       21 0.73557016E-01 0.40032880E+03</pdfrwt>
<totfact> 0.19899793E+03</totfact>
</mgrwt>
</event>
<event>
 4    1  0.4035350E+000  0.2176632E+03  0.7546771E-02  0.1135637E+00
         21   -1    0    0  501  502  0.00000000000E+00  0.00000000000E+00  0.39998786502E+02  0.39998786502E+02  0.00000000000E+00 0.  1.
         21   -1    0    0  502  503 -0.00000000000E+00 -0.00000000000E+00 -0.11853850939E+04  0.11853850939E+04  0.00000000000E+00 0. -1.
          6    1    1    2  501    0 -0.11101871066E+02  0.13162447702E+03 -0.58974164539E+03  0.62862744356E+03  0.17300000000E+03 0.  1.
         -6    1    1    2    0  503  0.11101871066E+02 -0.13162447702E+03 -0.55564466198E+03  0.59675643681E+03  0.17300000000E+03 0. -1.
<mgrwt>
<rscale>  2 0.21766317E+03</rscale>
<asrwt>0</asrwt>
<pdfrwt beam="1">  1       21 0.61536600E-02 0.21766317E+03</pdfrwt>
<pdfrwt beam="2">  1       21 0.18236692E+00 0.21766317E+03</pdfrwt>
<totfact> 0.32576476E+04</totfact>
</mgrwt>
</event>
<event>
 4    1  0.4035350E+000  0.2871935E+03  0.7546771E-02  0.1091824E+00
         21   -1    0    0  501  502  0.00000000000E+00  0.00000000000E+00  0.33890315540E+03  0.33890315540E+03  0.00000000000E+00 0.  1.
         21   -1    0    0  502  503 -0.00000000000E+00 -0.00000000000E+00 -0.35332731102E+03  0.35332731102E+03  0.00000000000E+00 0. -1.
          6    1    1    2  501    0 -0.21613015954E+03 -0.76412440760E+02 -0.20029190622E+03  0.35013847927E+03  0.17300000000E+03 0. -1.
         -6    1    1    2    0  503  0.21613015954E+03  0.76412440760E+02  0.18586775060E+03  0.34209198716E+03  0.17300000000E+03 0.  1.
<mgrwt>
<rscale>  2 0.28719350E+03</rscale>
<asrwt>0</asrwt>
<pdfrwt beam="1">  1       21 0.52138947E-01 0.28719350E+03</pdfrwt>
<pdfrwt beam="2">  1       21 0.54358048E-01 0.28719350E+03</pdfrwt>
<totfact> 0.10575774E+04</totfact>
</mgrwt>
</event>
<event>
 4    1  0.4035350E+000  0.2316059E+03  0.7546771E-02  0.1125515E+00
         21   -1    0    0  501  502  0.00000000000E+00  0.00000000000E+00  0.24726291154E+03  0.24726291154E+03  0.00000000000E+00 0.  1.
         21   -1    0    0  502  503 -0.00000000000E+00 -0.00000000000E+00 -0.24117757532E+03  0.24117757532E+03  0.00000000000E+00 0.  1.
          6    1    1    2  501    0  0.13001214355E+03 -0.82517565882E+02 -0.74377572731E+02  0.24325568744E+03  0.17300000000E+03 0.  1.
         -6    1    1    2    0  503 -0.13001214355E+03  0.82517565882E+02  0.80462908956E+02  0.24518479942E+03  0.17300000000E+03 0.  1.
<mgrwt>
<rscale>  2 0.23160593E+03</rscale>
<asrwt>0</asrwt>
<pdfrwt beam="1">  1       21 0.38040448E-01 0.23160593E+03</pdfrwt>
<pdfrwt beam="2">  1       21 0.37104242E-01 0.23160593E+03</pdfrwt>
<totfact> 0.45836582E+04</totfact>
</mgrwt>
</event>
<event>
 4    1  0.4035350E+000  0.2082211E+03  0.7546771E-02  0.1142982E+00
         21   -1    0    0  503  502  0.00000000000E+00  0.00000000000E+00  0.64759929338E+02  0.64759929338E+02  0.00000000000E+00 0. -1.
         21   -1    0    0  501  503 -0.00000000000E+00 -0.00000000000E+00 -0.67312240755E+03  0.67312240755E+03  0.00000000000E+00 0. -1.
          6    1    1    2  501    0  0.79246890232E+02 -0.84539652068E+02 -0.33128953209E+03  0.39129116583E+03  0.17300000000E+03 0. -1.
         -6    1    1    2    0  502 -0.79246890232E+02  0.84539652068E+02 -0.27707294612E+03  0.34659117106E+03  0.17300000000E+03 0. -1.
<mgrwt>
<rscale>  2 0.20822109E+03</rscale>
<asrwt>0</asrwt>
<pdfrwt beam="1">  1       21 0.99630656E-02 0.20822109E+03</pdfrwt>
<pdfrwt beam="2">  1       21 0.10355730E+00 0.20822109E+03</pdfrwt>
<totfact> 0.61219011E+04</totfact>
</mgrwt>
</event>
<event>
 4    1  0.4035350E+000  0.1780041E+03  0.7546771E-02  0.1169749E+00
         21   -1    0    0  501  502  0.00000000000E+00  0.00000000000E+00  0.89846502981E+03  0.89846502981E+03  0.00000000000E+00 0.  1.
         21   -1    0    0  502  503 -0.00000000000E+00 -0.00000000000E+00 -0.71167397229E+02  0.71167397229E+02  0.00000000000E+00 0.  1.
          6    1    1    2  501    0  0.11918312453E+02  0.40179825808E+02  0.75799156694E+03  0.77861202156E+03  0.17300000000E+03 0.  1.
         -6    1    1    2    0  503 -0.11918312453E+02 -0.40179825808E+02  0.69306065644E+02  0.19102040548E+03  0.17300000000E+03 0.  1.
<mgrwt>
<rscale>  2 0.17800411E+03</rscale>
<asrwt>0</asrwt>
<pdfrwt beam="1">  1       21 0.13822538E+00 0.17800411E+03</pdfrwt>
<pdfrwt beam="2">  1       21 0.10948831E-01 0.17800411E+03</pdfrwt>
<totfact> 0.25791870E+04</totfact>
</mgrwt>
</event>
<event>
 4    1  0.4035350E+000  0.2072064E+03  0.7546771E-02  0.1143798E+00
         21   -1    0    0  501  502  0.00000000000E+00  0.00000000000E+00  0.28543406325E+02  0.28543406325E+02  0.00000000000E+00 0.  1.
         21   -1    0    0  502  503 -0.00000000000E+00 -0.00000000000E+00 -0.15591376832E+04  0.15591376832E+04  0.00000000000E+00 0. -1.
          6    1    1    2  501    0 -0.11263677084E+03  0.17845151608E+02 -0.61625966845E+03  0.65016188026E+03  0.17300000000E+03 0. -1.
         -6    1    1    2    0  503  0.11263677084E+03 -0.17845151608E+02 -0.91433460840E+03  0.93751920924E+03  0.17300000000E+03 0.  1.
<mgrwt>
<rscale>  2 0.20720640E+03</rscale>
<asrwt>0</asrwt>
<pdfrwt beam="1">  1       21 0.43912945E-02 0.20720640E+03</pdfrwt>
<pdfrwt beam="2">  1       21 0.23986727E+00 0.20720640E+03</pdfrwt>
<totfact> 0.25268404E+04</totfact>
</mgrwt>
</event>
<event>
 4    1  0.4035350E+000  0.2360279E+03  0.7546771E-02  0.1122468E+00
         21   -1    0    0  501  502  0.00000000000E+00  0.00000000000E+00  0.10062095175E+03  0.10062095175E+03  0.00000000000E+00 0.  1.
         21   -1    0    0  502  503 -0.00000000000E+00 -0.00000000000E+00 -0.55785518650E+03  0.55785518650E+03  0.00000000000E+00 0. -1.
          6    1    1    2  501    0  0.25658330107E+02 -0.15849864410E+03 -0.20004471472E+03  0.30939789587E+03  0.17300000000E+03 0.  1.
         -6    1    1    2    0  503 -0.25658330107E+02  0.15849864410E+03 -0.25718952003E+03  0.34907824237E+03  0.17300000000E+03 0. -1.
<mgrwt>
<rscale>  2 0.23602790E+03</rscale>
<asrwt>0</asrwt>
<pdfrwt beam="1">  1       21 0.15480147E-01 0.23602790E+03</pdfrwt>
<pdfrwt beam="2">  1       21 0.85823874E-01 0.23602790E+03</pdfrwt>
<totfact> 0.42498233E+04</totfact>
</mgrwt>
</event>
<event>
 4    1  0.4035350E+000  0.2213811E+03  0.7546771E-02  0.1132858E+00
         21   -1    0    0  503  502  0.00000000000E+00  0.00000000000E+00  0.54436625315E+02  0.54436625315E+02  0.00000000000E+00 0.  1.
         21   -1    0    0  501  503 -0.00000000000E+00 -0.00000000000E+00 -0.13325217268E+04  0.13325217268E+04  0.00000000000E+00 0.  1.
          6    1    1    2  501    0  0.12454333066E+03 -0.59745528917E+02 -0.10339970157E+04  0.10574305641E+04  0.17300000000E+03 0.  1.
         -6    1    1    2    0  502 -0.12454333066E+03  0.59745528917E+02 -0.24408808574E+03  0.32952778796E+03  0.17300000000E+03 0.  1.
<mgrwt>
<rscale>  2 0.22138105E+03</rscale>
<asrwt>0</asrwt>
<pdfrwt beam="1">  1       21 0.83748664E-02 0.22138105E+03</pdfrwt>
<pdfrwt beam="2">  1       21 0.20500332E+00 0.22138105E+03</pdfrwt>
<totfact> 0.13515073E+04</totfact>
</mgrwt>
</event>
<event>
 4    1  0.4035350E+000  0.2096667E+03  0.7546771E-02  0.1141830E+00
         21   -1    0    0  503  502  0.00000000000E+00  0.00000000000E+00  0.11929051862E+04  0.11929051862E+04  0.00000000000E+00 0. -1.
         21   -1    0    0  501  503 -0.00000000000E+00 -0.00000000000E+00 -0.21621183517E+03  0.21621183517E+03  0.00000000000E+00 0.  1.
          6    1    1    2  501    0  0.90703921906E+02 -0.76183588976E+02 -0.15336618797E+03  0.25977168493E+03  0.17300000000E+03 0. -1.
         -6    1    1    2    0  502 -0.90703921906E+02  0.76183588976E+02  0.11300595390E+04  0.11493453364E+04  0.17300000000E+03 0. -1.
<mgrwt>
<rscale>  2 0.20966674E+03</rscale>
<asrwt>0</asrwt>
<pdfrwt beam="1">  1       21 0.18352387E+00 0.20966674E+03</pdfrwt>
<pdfrwt beam="2">  1       21 0.33263360E-01 0.20966674E+03</pdfrwt>
<totfact> 0.14731942E+03</totfact>
</mgrwt>
</event>
<event>
 4    1  0.4035350E+000  0.2399103E+03  0.7546771E-02  0.1119853E+00
         21   -1    0    0  501  502  0.00000000000E+00  0.00000000000E+00  0.11050856416E+04  0.11050856416E+04  0.00000000000E+00 0. -1.
         21   -1    0    0  502  503 -0.00000000000E+00 -0.00000000000E+00 -0.62737614766E+02  0.62737614766E+02  0.00000000000E+00 0.  1.
          6    1    1    2  501    0  0.96597080252E+02  0.13526623514E+03  0.76179732996E+03  0.79868148985E+03  0.17300000000E+03 0. -1.
         -6    1    1    2    0  503 -0.96597080252E+02 -0.13526623514E+03  0.28055069692E+03  0.36914176657E+03  0.17300000000E+03 0.  1.
<mgrwt>
<rscale>  2 0.23991030E+03</rscale>
<asrwt>0</asrwt>
<pdfrwt beam="1">  1       21 0.17001316E+00 0.23991030E+03</pdfrwt>
<pdfrwt beam="2">  1       21 0.96519415E-02 0.23991030E+03</pdfrwt>
<totfact> 0.17857318E+04</totfact>
</mgrwt>
</event>
<event>
 4    1  0.4035350E+000  0.1956930E+03  0.7546771E-02  0.1153425E+00
         21   -1    0    0  501  502  0.00000000000E+00  0.00000000000E+00  0.68585712392E+03  0.68585712392E+03  0.00000000000E+00 0. -1.
         21   -1    0    0  502  503 -0.00000000000E+00 -0.00000000000E+00 -0.80639450364E+02  0.80639450364E+02  0.00000000000E+00 0.  1.
          6    1    1    2  501    0  0.88531265421E+02 -0.22999322500E+02  0.51515804302E+03  0.55107491603E+03  0.17300000000E+03 0. -1.
         -6    1    1    2    0  503 -0.88531265421E+02  0.22999322500E+02  0.90059630541E+02  0.21542165826E+03  0.17300000000E+03 0.  1.
<mgrwt>
<rscale>  2 0.19569301E+03</rscale>
<asrwt>0</asrwt>
<pdfrwt beam="1">  1       21 0.10551648E+00 0.19569301E+03</pdfrwt>
<pdfrwt beam="2">  1       21 0.12406070E-01 0.19569301E+03</pdfrwt>
<totfact> 0.39854456E+04</totfact>
</mgrwt>
</event>
<event>
 4    1  0.4035350E+000  0.2044142E+03  0.7546771E-02  0.1146067E+00
         21   -1    0    0  503  502  0.00000000000E+00  0.00000000000E+00  0.35780078219E+03  0.35780078219E+03  0.00000000000E+00 0.  1.
         21   -1    0    0  501  503 -0.00000000000E+00 -0.00000000000E+00 -0.23370992565E+03  0.23370992565E+03  0.00000000000E+00 0.  1.
          6    1    1    2  501    0 -0.57444662109E+02  0.92500107699E+02 -0.14714929665E+03  0.25186916174E+03  0.17300000000E+03 0.  1.
         -6    1    1    2    0  502  0.57444662109E+02 -0.92500107699E+02  0.27124015320E+03  0.33964154610E+03  0.17300000000E+03 0.  1.
<mgrwt>
<rscale>  2 0.20441419E+03</rscale>
<asrwt>0</asrwt>
<pdfrwt beam="1">  1       21 0.55046274E-01 0.20441419E+03</pdfrwt>
<pdfrwt beam="2">  1       21 0.35955373E-01 0.20441419E+03</pdfrwt>
<totfact> 0.23066256E+04</totfact>
</mgrwt>
</event>
<event>
 4    1  0.4035350E+000  0.1936777E+03  0.7546771E-02  0.1155186E+00
         21   -1    0    0  501  502  0.00000000000E+00  0.00000000000E+00  0.11930073903E+04  0.11930073903E+04  0.00000000000E+00 0.  1.
         21   -1    0    0  502  503 -0.00000000000E+00 -0.00000000000E+00 -0.41798984658E+02  0.41798984658E+02  0.00000000000E+00 0.  1.
          6    1    1    2  501    0  0.60124458915E+02  0.62984776208E+02  0.88292643693E+03  0.90391931367E+03  0.17300000000E+03 0.  1.
         -6    1    1    2    0  503 -0.60124458915E+02 -0.62984776208E+02  0.26828196872E+03  0.33088706130E+03  0.17300000000E+03 0.  1.
<mgrwt>
<rscale>  2 0.19367765E+03</rscale>
<asrwt>0</asrwt>
<pdfrwt beam="1">  1       21 0.18353957E+00 0.19367765E+03</pdfrwt>
<pdfrwt beam="2">  1       21 0.64306139E-02 0.19367765E+03</pdfrwt>
<totfact> 0.30127909E+04</totfact>
</mgrwt>
</event>
<event>
 4    1  0.4035350E+000  0.2228817E+03  0.7546771E-02  0.1131753E+00
         21   -1    0    0  503  502  0.00000000000E+00  0.00000000000E+00  0.33059049086E+03  0.33059049086E+03  0.00000000000E+00 0.  1.
         21   -1    0    0  501  503 -0.00000000000E+00 -0.00000000000E+00 -0.15076871551E+03  0.15076871551E+03  0.00000000000E+00 0.  1.
          6    1    1    2  501    0  0.39343232913E+02 -0.13490499925E+03  0.10381959407E+03  0.24587549067E+03  0.17300000000E+03 0. -1.
         -6    1    1    2    0  502 -0.39343232913E+02  0.13490499925E+03  0.76002181282E+02  0.23548371570E+03  0.17300000000E+03 0. -1.
<mgrwt>
<rscale>  2 0.22288169E+03</rscale>
<asrwt>0</asrwt>
<pdfrwt beam="1">  1       21 0.50860075E-01 0.22288169E+03</pdfrwt>
<pdfrwt beam="2">  1       21 0.23195187E-01 0.22288169E+03</pdfrwt>
<totfact> 0.63369856E+04</totfact>
</mgrwt>
</event>
<event>
 4    1  0.4035350E+000  0.1836271E+03  0.7546771E-02  0.1164338E+00
         21   -1    0    0  501  502  0.00000000000E+00  0.00000000000E+00  0.59009572069E+03  0.59009572069E+03  0.00000000000E+00 0. -1.
         21   -1    0    0  502  503 -0.00000000000E+00 -0.00000000000E+00 -0.57145633950E+02  0.57145633950E+02  0.00000000000E+00 0. -1.
          6    1    1    2  501    0  0.14632950483E+02  0.59797981794E+02  0.26370412417E+03  0.32133905298E+03  0.17300000000E+03 0. -1.
         -6    1    1    2    0  503 -0.14632950483E+02 -0.59797981794E+02  0.26924596257E+03  0.32590230166E+03  0.17300000000E+03 0. -1.
<mgrwt>
<rscale>  2 0.18362713E+03</rscale>
<asrwt>0</asrwt>
<pdfrwt beam="1">  1       21 0.90783953E-01 0.18362713E+03</pdfrwt>
<pdfrwt beam="2">  1       21 0.87916364E-02 0.18362713E+03</pdfrwt>
<totfact> 0.10517152E+05</totfact>
</mgrwt>
</event>
<event>
 4    1  0.4035350E+000  0.1779326E+03  0.7546771E-02  0.1169819E+00
         21   -1    0    0  503  502  0.00000000000E+00  0.00000000000E+00  0.15418300907E+03  0.15418300907E+03  0.00000000000E+00 0.  1.
         21   -1    0    0  501  503 -0.00000000000E+00 -0.00000000000E+00 -0.59928151645E+03  0.59928151645E+03  0.00000000000E+00 0.  1.
          6    1    1    2  501    0 -0.39562911150E+02 -0.12876232043E+02 -0.52799420765E+03  0.55716954745E+03  0.17300000000E+03 0.  1.
         -6    1    1    2    0  502  0.39562911150E+02  0.12876232043E+02  0.82895700272E+02  0.19629497807E+03  0.17300000000E+03 0.  1.
<mgrwt>
<rscale>  2 0.17793263E+03</rscale>
<asrwt>0</asrwt>
<pdfrwt beam="1">  1       21 0.23720463E-01 0.17793263E+03</pdfrwt>
<pdfrwt beam="2">  1       21 0.92197156E-01 0.17793263E+03</pdfrwt>
<totfact> 0.16787123E+04</totfact>
</mgrwt>
</event>
<event>
 4    1  0.4035350E+000  0.1831709E+03  0.7546771E-02  0.1164769E+00
         21   -1    0    0  501  502  0.00000000000E+00  0.00000000000E+00  0.23932630487E+03  0.23932630487E+03  0.00000000000E+00 0.  1.
         21   -1    0    0  502  503 -0.00000000000E+00 -0.00000000000E+00 -0.43981846559E+03  0.43981846559E+03  0.00000000000E+00 0.  1.
          6    1    1    2  501    0 -0.21267134353E+02 -0.56305257361E+02  0.18002991529E+03  0.25683135208E+03  0.17300000000E+03 0.  1.
         -6    1    1    2    0  503  0.21267134353E+02  0.56305257361E+02 -0.38052207601E+03  0.42231341838E+03  0.17300000000E+03 0.  1.
<mgrwt>
<rscale>  2 0.18317088E+03</rscale>
<asrwt>0</asrwt>
<pdfrwt beam="1">  1       21 0.36819432E-01 0.18317088E+03</pdfrwt>
<pdfrwt beam="2">  1       21 0.67664379E-01 0.18317088E+03</pdfrwt>
<totfact> 0.14289421E+04</totfact>
</mgrwt>
</event>
<event>
 4    1  0.4035350E+000  0.1975336E+03  0.7546771E-02  0.1151837E+00
         21   -1    0    0  501  502  0.00000000000E+00  0.00000000000E+00  0.89698863254E+02  0.89698863254E+02  0.00000000000E+00 0. -1.
         21   -1    0    0  502  503 -0.00000000000E+00 -0.00000000000E+00 -0.63882082813E+03  0.63882082813E+03  0.00000000000E+00 0. -1.
          6    1    1    2  501    0  0.95178108059E+02  0.56266374414E+01 -0.68811002554E+02  0.20917572846E+03  0.17300000000E+03 0. -1.
         -6    1    1    2    0  503 -0.95178108059E+02 -0.56266374414E+01 -0.48031096232E+03  0.51934396292E+03  0.17300000000E+03 0. -1.
<mgrwt>
<rscale>  2 0.19753362E+03</rscale>
<asrwt>0</asrwt>
<pdfrwt beam="1">  1       21 0.13799825E-01 0.19753362E+03</pdfrwt>
<pdfrwt beam="2">  1       21 0.98280127E-01 0.19753362E+03</pdfrwt>
<totfact> 0.38933062E+04</totfact>
</mgrwt>
</event>
<event>
 4    1  0.4035350E+000  0.2096270E+03  0.7546771E-02  0.1141862E+00
         21   -1    0    0  501  502  0.00000000000E+00  0.00000000000E+00  0.28888263079E+03  0.28888263079E+03  0.00000000000E+00 0.  1.
         21   -1    0    0  502  503 -0.00000000000E+00 -0.00000000000E+00 -0.15439196270E+03  0.15439196270E+03  0.00000000000E+00 0. -1.
          6    1    1    2  501    0 -0.11405118510E+03 -0.31730465953E+02  0.94158875608E+02  0.22980293546E+03  0.17300000000E+03 0. -1.
         -6    1    1    2    0  503  0.11405118510E+03  0.31730465953E+02  0.40331792483E+02  0.21347165802E+03  0.17300000000E+03 0.  1.
<mgrwt>
<rscale>  2 0.20962704E+03</rscale>
<asrwt>0</asrwt>
<pdfrwt beam="1">  1       21 0.44443482E-01 0.20962704E+03</pdfrwt>
<pdfrwt beam="2">  1       21 0.23752610E-01 0.20962704E+03</pdfrwt>
<totfact> 0.80583434E+04</totfact>
</mgrwt>
</event>
<event>
 4    1  0.4035350E+000  0.3256793E+03  0.7546771E-02  0.1073065E+00
         21   -1    0    0  503  502  0.00000000000E+00  0.00000000000E+00  0.28474099836E+04  0.28474099836E+04  0.00000000000E+00 0. -1.
         21   -1    0    0  501  503 -0.00000000000E+00 -0.00000000000E+00 -0.41957197249E+02  0.41957197249E+02  0.00000000000E+00 0. -1.
          6    1    1    2  501    0  0.27281773616E+03 -0.41333998632E+02  0.91884982961E+03  0.97486000328E+03  0.17300000000E+03 0. -1.
         -6    1    1    2    0  502 -0.27281773616E+03  0.41333998632E+02  0.18866029568E+04  0.19145071776E+04  0.17300000000E+03 0. -1.
<mgrwt>
<rscale>  2 0.32567932E+03</rscale>
<asrwt>0</asrwt>
<pdfrwt beam="1">  1       21 0.43806292E+00 0.32567932E+03</pdfrwt>
<pdfrwt beam="2">  1       21 0.64549557E-02 0.32567932E+03</pdfrwt>
<totfact> 0.73874685E+02</totfact>
</mgrwt>
</event>
<event>
 4    1  0.4035350E+000  0.1999314E+03  0.7546771E-02  0.1149797E+00
         21   -1    0    0  503  502  0.00000000000E+00  0.00000000000E+00  0.74404962702E+03  0.74404962702E+03  0.00000000000E+00 0. -1.
         21   -1    0    0  501  503 -0.00000000000E+00 -0.00000000000E+00 -0.60369186138E+02  0.60369186138E+02  0.00000000000E+00 0.  1.
          6    1    1    2  501    0  0.18327685316E+02 -0.98527559601E+02  0.20838654098E+03  0.28878631289E+03  0.17300000000E+03 0.  1.
         -6    1    1    2    0  502 -0.18327685316E+02  0.98527559601E+02  0.47529389991E+03  0.51563250027E+03  0.17300000000E+03 0. -1.
<mgrwt>
<rscale>  2 0.19993145E+03</rscale>
<asrwt>0</asrwt>
<pdfrwt beam="1">  1       21 0.11446917E+00 0.19993145E+03</pdfrwt>
<pdfrwt beam="2">  1       21 0.92875677E-02 0.19993145E+03</pdfrwt>
<totfact> 0.54598712E+04</totfact>
</mgrwt>
</event>
<event>
 4    1  0.4035350E+000  0.2321393E+03  0.7546771E-02  0.1125143E+00
         21   -1    0    0  503  502  0.00000000000E+00  0.00000000000E+00  0.41125819567E+02  0.41125819567E+02  0.00000000000E+00 0.  1.
         21   -1    0    0  501  503 -0.00000000000E+00 -0.00000000000E+00 -0.13686985094E+04  0.13686985094E+04  0.00000000000E+00 0. -1.
          6    1    1    2  501    0 -0.15053995050E+03  0.36019382933E+02 -0.51822525270E+03  0.56784336325E+03  0.17300000000E+03 0.  1.
         -6    1    1    2    0  502  0.15053995050E+03 -0.36019382933E+02 -0.80934743708E+03  0.84198096567E+03  0.17300000000E+03 0.  1.
<mgrwt>
<rscale>  2 0.23213934E+03</rscale>
<asrwt>0</asrwt>
<pdfrwt beam="1">  1       21 0.63270505E-02 0.23213934E+03</pdfrwt>
<pdfrwt beam="2">  1       21 0.21056896E+00 0.23213934E+03</pdfrwt>
<totfact> 0.20126502E+04</totfact>
</mgrwt>
</event>
<event>
 4    1  0.4035350E+000  0.2144851E+03  0.7546771E-02  0.1138063E+00
         21   -1    0    0  501  502  0.00000000000E+00  0.00000000000E+00  0.34938954044E+03  0.34938954044E+03  0.00000000000E+00 0. -1.
         21   -1    0    0  502  503 -0.00000000000E+00 -0.00000000000E+00 -0.30381206087E+03  0.30381206087E+03  0.00000000000E+00 0.  1.
          6    1    1    2  501    0  0.11883303339E+03  0.44199348365E+02  0.26863246958E+03  0.34375467405E+03  0.17300000000E+03 0. -1.
         -6    1    1    2    0  503 -0.11883303339E+03 -0.44199348365E+02 -0.22305499001E+03  0.30944692725E+03  0.17300000000E+03 0.  1.
<mgrwt>
<rscale>  2 0.21448513E+03</rscale>
<asrwt>0</asrwt>
<pdfrwt beam="1">  1       21 0.53752237E-01 0.21448513E+03</pdfrwt>
<pdfrwt beam="2">  1       21 0.46740317E-01 0.21448513E+03</pdfrwt>
<totfact> 0.14152169E+04</totfact>
</mgrwt>
</event>
<event>
 4    1  0.4035350E+000  0.2355907E+03  0.7546771E-02  0.1122766E+00
         21   -1    0    0  501  502  0.00000000000E+00  0.00000000000E+00  0.53777007867E+03  0.53777007867E+03  0.00000000000E+00 0. -1.
         21   -1    0    0  502  503 -0.00000000000E+00 -0.00000000000E+00 -0.10330865265E+03  0.10330865265E+03  0.00000000000E+00 0. -1.
          6    1    1    2  501    0 -0.13378244906E+03  0.87614146929E+02  0.22716093936E+03  0.32726911677E+03  0.17300000000E+03 0. -1.
         -6    1    1    2    0  503  0.13378244906E+03 -0.87614146929E+02  0.20730048666E+03  0.31380961456E+03  0.17300000000E+03 0. -1.
<mgrwt>
<rscale>  2 0.23559071E+03</rscale>
<asrwt>0</asrwt>
<pdfrwt beam="1">  1       21 0.82733857E-01 0.23559071E+03</pdfrwt>
<pdfrwt beam="2">  1       21 0.15893639E-01 0.23559071E+03</pdfrwt>
<totfact> 0.44056263E+04</totfact>
</mgrwt>
</event>
<event>
 4    1  0.4035350E+000  0.1805092E+03  0.7546771E-02  0.1167311E+00
         21   -1    0    0  501  502  0.00000000000E+00  0.00000000000E+00  0.12591797798E+04  0.12591797798E+04  0.00000000000E+00 0.  1.
         21   -1    0    0  502  503 -0.00000000000E+00 -0.00000000000E+00 -0.58416020385E+02  0.58416020385E+02  0.00000000000E+00 0.  1.
          6    1    1    2  501    0  0.38815987131E+02 -0.33880317687E+02  0.10920700085E+04  0.11068877361E+04  0.17300000000E+03 0.  1.
         -6    1    1    2    0  503 -0.38815987131E+02  0.33880317687E+02  0.10869375084E+03  0.21070806405E+03  0.17300000000E+03 0.  1.
<mgrwt>
<rscale>  2 0.18050916E+03</rscale>
<asrwt>0</asrwt>
<pdfrwt beam="1">  1       21 0.19371995E+00 0.18050916E+03</pdfrwt>
<pdfrwt beam="2">  1       21 0.89870810E-02 0.18050916E+03</pdfrwt>
<totfact> 0.14580026E+04</totfact>
</mgrwt>
</event>
<event>
 4    1  0.4035350E+000  0.1823900E+03  0.7546771E-02  0.1165510E+00
         21   -1    0    0  501  502  0.00000000000E+00  0.00000000000E+00  0.13300666107E+03  0.13300666107E+03  0.00000000000E+00 0. -1.
         21   -1    0    0  502  503 -0.00000000000E+00 -0.00000000000E+00 -0.34439228095E+03  0.34439228095E+03  0.00000000000E+00 0. -1.
          6    1    1    2  501    0  0.80136536627E+01  0.57209176016E+02  0.19201611321E+02  0.18339795621E+03  0.17300000000E+03 0. -1.
         -6    1    1    2    0  503 -0.80136536627E+01 -0.57209176016E+02 -0.23058723120E+03  0.29400098581E+03  0.17300000000E+03 0. -1.
<mgrwt>
<rscale>  2 0.18238999E+03</rscale>
<asrwt>0</asrwt>
<pdfrwt beam="1">  1       21 0.20462563E-01 0.18238999E+03</pdfrwt>
<pdfrwt beam="2">  1       21 0.52983427E-01 0.18238999E+03</pdfrwt>
<totfact> 0.74962471E+04</totfact>
</mgrwt>
</event>
<event>
 4    1  0.4035350E+000  0.2493459E+03  0.7546771E-02  0.1113719E+00
         21   -1    0    0  503  502  0.00000000000E+00  0.00000000000E+00  0.44261007370E+03  0.44261007370E+03  0.00000000000E+00 0. -1.
         21   -1    0    0  501  503 -0.00000000000E+00 -0.00000000000E+00 -0.15720703856E+03  0.15720703856E+03  0.00000000000E+00 0.  1.
          6    1    1    2  501    0  0.15236806398E+03  0.95017744815E+02  0.44844202935E+02  0.25334640571E+03  0.17300000000E+03 0.  1.
         -6    1    1    2    0  502 -0.15236806398E+03 -0.95017744815E+02  0.24055883220E+03  0.34647070655E+03  0.17300000000E+03 0. -1.
<mgrwt>
<rscale>  2 0.24934594E+03</rscale>
<asrwt>0</asrwt>
<pdfrwt beam="1">  1       21 0.68093857E-01 0.24934594E+03</pdfrwt>
<pdfrwt beam="2">  1       21 0.24185698E-01 0.24934594E+03</pdfrwt>
<totfact> 0.30873745E+04</totfact>
</mgrwt>
</event>
<event>
 4    1  0.4035350E+000  0.1791905E+03  0.7546771E-02  0.1168589E+00
         21   -1    0    0  503  502  0.00000000000E+00  0.00000000000E+00  0.12552340125E+03  0.12552340125E+03  0.00000000000E+00 0. -1.
         21   -1    0    0  501  503 -0.00000000000E+00 -0.00000000000E+00 -0.28658365546E+03  0.28658365546E+03  0.00000000000E+00 0.  1.
          6    1    1    2  501    0 -0.23182929352E+02  0.40531482395E+02 -0.14805970385E+03  0.23244553165E+03  0.17300000000E+03 0.  1.
         -6    1    1    2    0  502  0.23182929352E+02 -0.40531482395E+02 -0.13000550358E+02  0.17966152506E+03  0.17300000000E+03 0. -1.
<mgrwt>
<rscale>  2 0.17919054E+03</rscale>
<asrwt>0</asrwt>
<pdfrwt beam="1">  1       21 0.19311293E-01 0.17919054E+03</pdfrwt>
<pdfrwt beam="2">  1       21 0.44089792E-01 0.17919054E+03</pdfrwt>
<totfact> 0.12234289E+05</totfact>
</mgrwt>
</event>
<event>
 4    1  0.4035350E+000  0.2545153E+03  0.7546771E-02  0.1110484E+00
         21   -1    0    0  503  502  0.00000000000E+00  0.00000000000E+00  0.79571465223E+03  0.79571465223E+03  0.00000000000E+00 0. -1.
         21   -1    0    0  501  503 -0.00000000000E+00 -0.00000000000E+00 -0.11341849228E+03  0.11341849228E+03  0.00000000000E+00 0.  1.
          6    1    1    2  501    0  0.54204610865E+02  0.17863617315E+03  0.99658935552E+02  0.27333116477E+03  0.17300000000E+03 0. -1.
         -6    1    1    2    0  502 -0.54204610865E+02 -0.17863617315E+03  0.58263722440E+03  0.63580197975E+03  0.17300000000E+03 0. -1.
<mgrwt>
<rscale>  2 0.25451527E+03</rscale>
<asrwt>0</asrwt>
<pdfrwt beam="1">  1       21 0.12241764E+00 0.25451527E+03</pdfrwt>
<pdfrwt beam="2">  1       21 0.17448999E-01 0.25451527E+03</pdfrwt>
<totfact> 0.14389791E+04</totfact>
</mgrwt>
</event>
<event>
 4    1  0.4035350E+000  0.1878123E+03  0.7546771E-02  0.1160449E+00
         21   -1    0    0  503  502  0.00000000000E+00  0.00000000000E+00  0.57276436901E+02  0.57276436901E+02  0.00000000000E+00 0. -1.
         21   -1    0    0  501  503 -0.00000000000E+00 -0.00000000000E+00 -0.91852647185E+03  0.91852647185E+03  0.00000000000E+00 0. -1.
          6    1    1    2  501    0 -0.19838317636E+02  0.70362569906E+02 -0.71070279820E+03  0.73509993705E+03  0.17300000000E+03 0. -1.
         -6    1    1    2    0  502  0.19838317636E+02 -0.70362569906E+02 -0.15054723675E+03  0.24070297170E+03  0.17300000000E+03 0. -1.
<mgrwt>
<rscale>  2 0.18781227E+03</rscale>
<asrwt>0</asrwt>
<pdfrwt beam="1">  1       21 0.88117590E-02 0.18781227E+03</pdfrwt>
<pdfrwt beam="2">  1       21 0.14131177E+00 0.18781227E+03</pdfrwt>
<totfact> 0.35508816E+04</totfact>
</mgrwt>
</event>
<event>
 4    1  0.4035350E+000  0.2565168E+03  0.7546771E-02  0.1109254E+00
         21   -1    0    0  501  502  0.00000000000E+00  0.00000000000E+00  0.20586275350E+03  0.20586275350E+03  0.00000000000E+00 0.  1.
         21   -1    0    0  502  503 -0.00000000000E+00 -0.00000000000E+00 -0.32229168945E+03  0.32229168945E+03  0.00000000000E+00 0. -1.
          6    1    1    2  501    0 -0.10178981399E+03 -0.15972071901E+03 -0.34236998645E+02  0.25879151144E+03  0.17300000000E+03 0. -1.
         -6    1    1    2    0  503  0.10178981399E+03  0.15972071901E+03 -0.82191937305E+02  0.26936293151E+03  0.17300000000E+03 0. -1.
<mgrwt>
<rscale>  2 0.25651681E+03</rscale>
<asrwt>0</asrwt>
<pdfrwt beam="1">  1       21 0.31671193E-01 0.25651681E+03</pdfrwt>
<pdfrwt beam="2">  1       21 0.49583336E-01 0.25651681E+03</pdfrwt>
<totfact> 0.36056189E+04</totfact>
</mgrwt>
</event>
<event>
 4    1  0.4035350E+000  0.2429505E+03  0.7546771E-02  0.1117843E+00
         21   -1    0    0  501  502  0.00000000000E+00  0.00000000000E+00  0.32644550074E+03  0.32644550074E+03  0.00000000000E+00 0. -1.
         21   -1    0    0  502  503 -0.00000000000E+00 -0.00000000000E+00 -0.22067543920E+03  0.22067543920E+03  0.00000000000E+00 0. -1.
          6    1    1    2  501    0  0.16959088275E+03 -0.18299897213E+02 -0.63385297483E+02  0.25108295380E+03  0.17300000000E+03 0. -1.
         -6    1    1    2    0  503 -0.16959088275E+03  0.18299897213E+02  0.16915535903E+03  0.29603798614E+03  0.17300000000E+03 0. -1.
<mgrwt>
<rscale>  2 0.24295052E+03</rscale>
<asrwt>0</asrwt>
<pdfrwt beam="1">  1       21 0.50222385E-01 0.24295052E+03</pdfrwt>
<pdfrwt beam="2">  1       21 0.33950067E-01 0.24295052E+03</pdfrwt>
<totfact> 0.30765254E+04</totfact>
</mgrwt>
</event>
<event>
 4    1  0.4035350E+000  0.2551893E+03  0.7546771E-02  0.1110069E+00
         21   -1    0    0  503  502  0.00000000000E+00  0.00000000000E+00  0.61433111616E+02  0.61433111616E+02  0.00000000000E+00 0. -1.
         21   -1    0    0  501  503 -0.00000000000E+00 -0.00000000000E+00 -0.10639342969E+04  0.10639342969E+04  0.00000000000E+00 0.  1.
          6    1    1    2  501    0 -0.10056389144E+02  0.18732714421E+03 -0.53529065479E+03  0.59300731447E+03  0.17300000000E+03 0.  1.
         -6    1    1    2    0  502  0.10056389144E+02 -0.18732714421E+03 -0.46721053050E+03  0.53236009404E+03  0.17300000000E+03 0.  1.
<mgrwt>
<rscale>  2 0.25518932E+03</rscale>
<asrwt>0</asrwt>
<pdfrwt beam="1">  1       21 0.94512475E-02 0.25518932E+03</pdfrwt>
<pdfrwt beam="2">  1       21 0.16368221E+00 0.25518932E+03</pdfrwt>
<totfact> 0.20406122E+04</totfact>
</mgrwt>
</event>
<event>
 4    1  0.4035350E+000  0.2351251E+03  0.7546771E-02  0.1123084E+00
         21   -1    0    0  503  502  0.00000000000E+00  0.00000000000E+00  0.12836147610E+04  0.12836147610E+04  0.00000000000E+00 0. -1.
         21   -1    0    0  501  503 -0.00000000000E+00 -0.00000000000E+00 -0.43073840811E+02  0.43073840811E+02  0.00000000000E+00 0. -1.
          6    1    1    2  501    0  0.48476978142E+02 -0.15167332905E+03  0.62740824442E+03  0.67001859774E+03  0.17300000000E+03 0. -1.
         -6    1    1    2    0  502 -0.48476978142E+02  0.15167332905E+03  0.61313267582E+03  0.65667000412E+03  0.17300000000E+03 0. -1.
<mgrwt>
<rscale>  2 0.23512511E+03</rscale>
<asrwt>0</asrwt>
<pdfrwt beam="1">  1       21 0.19747916E+00 0.23512511E+03</pdfrwt>
<pdfrwt beam="2">  1       21 0.66267457E-02 0.23512511E+03</pdfrwt>
<totfact> 0.22499908E+04</totfact>
</mgrwt>
</event>
<event>
 4    1  0.4035350E+000  0.2523905E+03  0.7546771E-02  0.1111803E+00
         21   -1    0    0  501  502  0.00000000000E+00  0.00000000000E+00  0.72107967551E+02  0.72107967551E+02  0.00000000000E+00 0.  1.
         21   -1    0    0  502  503 -0.00000000000E+00 -0.00000000000E+00 -0.90463249387E+03  0.90463249387E+03  0.00000000000E+00 0. -1.
          6    1    1    2  501    0 -0.81268376012E+02  0.16482541071E+03 -0.34146218907E+03  0.42461440333E+03  0.17300000000E+03 0. -1.
         -6    1    1    2    0  503  0.81268376012E+02 -0.16482541071E+03 -0.49106233725E+03  0.55212605809E+03  0.17300000000E+03 0.  1.
<mgrwt>
<rscale>  2 0.25239050E+03</rscale>
<asrwt>0</asrwt>
<pdfrwt beam="1">  1       21 0.11093533E-01 0.25239050E+03</pdfrwt>
<pdfrwt beam="2">  1       21 0.13917424E+00 0.25239050E+03</pdfrwt>
<totfact> 0.23696447E+04</totfact>
</mgrwt>
</event>
<event>
 4    1  0.4035350E+000  0.1776595E+03  0.7546771E-02  0.1170088E+00
         21   -1    0    0  503  502  0.00000000000E+00  0.00000000000E+00  0.38924073289E+03  0.38924073289E+03  0.00000000000E+00 0. -1.
         21   -1    0    0  501  503 -0.00000000000E+00 -0.00000000000E+00 -0.88727394300E+02  0.88727394300E+02  0.00000000000E+00 0. -1.
          6    1    1    2  501    0  0.35910933097E+02  0.18555501583E+02  0.80133966905E+02  0.19489575267E+03  0.17300000000E+03 0. -1.
         -6    1    1    2    0  502 -0.35910933097E+02 -0.18555501583E+02  0.22037937168E+03  0.28307237452E+03  0.17300000000E+03 0. -1.
<mgrwt>
<rscale>  2 0.17765951E+03</rscale>
<asrwt>0</asrwt>
<pdfrwt beam="1">  1       21 0.59883189E-01 0.17765951E+03</pdfrwt>
<pdfrwt beam="2">  1       21 0.13650369E-01 0.17765951E+03</pdfrwt>
<totfact> 0.12176818E+05</totfact>
</mgrwt>
</event>
<event>
 4    1  0.4035350E+000  0.2564723E+03  0.7546771E-02  0.1109281E+00
         21   -1    0    0  501  502  0.00000000000E+00  0.00000000000E+00  0.18788995831E+04  0.18788995831E+04  0.00000000000E+00 0.  1.
         21   -1    0    0  502  503 -0.00000000000E+00 -0.00000000000E+00 -0.35527573179E+02  0.35527573179E+02  0.00000000000E+00 0.  1.
          6    1    1    2  501    0 -0.60251454463E+02  0.17949592093E+03  0.80601779394E+03  0.84583846421E+03  0.17300000000E+03 0.  1.
         -6    1    1    2    0  503  0.60251454463E+02 -0.17949592093E+03  0.10373542160E+04  0.10685886920E+04  0.17300000000E+03 0.  1.
<mgrwt>
<rscale>  2 0.25647227E+03</rscale>
<asrwt>0</asrwt>
<pdfrwt beam="1">  1       21 0.28906140E+00 0.25647227E+03</pdfrwt>
<pdfrwt beam="2">  1       21 0.54657820E-02 0.25647227E+03</pdfrwt>
<totfact> 0.85967846E+03</totfact>
</mgrwt>
</event>
<event>
 4    1  0.4035350E+000  0.2052522E+03  0.7546771E-02  0.1145382E+00
         21   -1    0    0  503  502  0.00000000000E+00  0.00000000000E+00  0.12572159004E+04  0.12572159004E+04  0.00000000000E+00 0.  1.
         21   -1    0    0  501  503 -0.00000000000E+00 -0.00000000000E+00 -0.37959438395E+02  0.37959438395E+02  0.00000000000E+00 0.  1.
          6    1    1    2  501    0  0.67917502912E+02 -0.87101639220E+02  0.83135758402E+03  0.85631998415E+03  0.17300000000E+03 0.  1.
         -6    1    1    2    0  502 -0.67917502912E+02  0.87101639220E+02  0.38789887801E+03  0.43885535467E+03  0.17300000000E+03 0.  1.
<mgrwt>
<rscale>  2 0.20525224E+03</rscale>
<asrwt>0</asrwt>
<pdfrwt beam="1">  1       21 0.19341780E+00 0.20525224E+03</pdfrwt>
<pdfrwt beam="2">  1       21 0.58399146E-02 0.20525224E+03</pdfrwt>
<totfact> 0.30322273E+04</totfact>
</mgrwt>
</event>
<event>
 4    1  0.4035350E+000  0.1863342E+03  0.7546771E-02  0.1161810E+00
         21   -1    0    0  501  502  0.00000000000E+00  0.00000000000E+00  0.77419258606E+03  0.77419258606E+03  0.00000000000E+00 0. -1.
         21   -1    0    0  502  503 -0.00000000000E+00 -0.00000000000E+00 -0.49813413204E+02  0.49813413204E+02  0.00000000000E+00 0. -1.
          6    1    1    2  501    0 -0.49301329493E+02 -0.48588085564E+02  0.49227748306E+03  0.52636255896E+03  0.17300000000E+03 0. -1.
         -6    1    1    2    0  503  0.49301329493E+02  0.48588085564E+02  0.23210168979E+03  0.29764344030E+03  0.17300000000E+03 0. -1.
<mgrwt>
<rscale>  2 0.18633417E+03</rscale>
<asrwt>0</asrwt>
<pdfrwt beam="1">  1       21 0.11910654E+00 0.18633417E+03</pdfrwt>
<pdfrwt beam="2">  1       21 0.76636026E-02 0.18633417E+03</pdfrwt>
<totfact> 0.69772530E+04</totfact>
</mgrwt>
</event>
<event>
 4    1  0.4035350E+000  0.2026791E+03  0.7546771E-02  0.1147498E+00
         21   -1    0    0  503  502  0.00000000000E+00  0.00000000000E+00  0.24060103494E+03  0.24060103494E+03  0.00000000000E+00 0.  1.
         21   -1    0    0  501  503 -0.00000000000E+00 -0.00000000000E+00 -0.27688018673E+03  0.27688018673E+03  0.00000000000E+00 0.  1.
          6    1    1    2  501    0 -0.41141295505E+02  0.97248265854E+02 -0.17834248429E+03  0.26997198578E+03  0.17300000000E+03 0.  1.
         -6    1    1    2    0  502  0.41141295505E+02 -0.97248265854E+02  0.14206333250E+03  0.24750923588E+03  0.17300000000E+03 0.  1.
<mgrwt>
<rscale>  2 0.20267913E+03</rscale>
<asrwt>0</asrwt>
<pdfrwt beam="1">  1       21 0.37015544E-01 0.20267913E+03</pdfrwt>
<pdfrwt beam="2">  1       21 0.42596952E-01 0.20267913E+03</pdfrwt>
<totfact> 0.37122671E+04</totfact>
</mgrwt>
</event>
<event>
 4    1  0.4035350E+000  0.2635815E+03  0.7546771E-02  0.1105010E+00
         21   -1    0    0  503  502  0.00000000000E+00  0.00000000000E+00  0.88872116325E+03  0.88872116325E+03  0.00000000000E+00 0.  1.
         21   -1    0    0  501  503 -0.00000000000E+00 -0.00000000000E+00 -0.10760559572E+03  0.10760559572E+03  0.00000000000E+00 0. -1.
          6    1    1    2  501    0 -0.17585895278E+03 -0.92843122733E+02  0.13002729853E+03  0.29390868493E+03  0.17300000000E+03 0. -1.
         -6    1    1    2    0  502  0.17585895278E+03  0.92843122733E+02  0.65108826900E+03  0.70241807404E+03  0.17300000000E+03 0.  1.
<mgrwt>
<rscale>  2 0.26358152E+03</rscale>
<asrwt>0</asrwt>
<pdfrwt beam="1">  1       21 0.13672633E+00 0.26358152E+03</pdfrwt>
<pdfrwt beam="2">  1       21 0.16554708E-01 0.26358152E+03</pdfrwt>
<totfact> 0.11912473E+04</totfact>
</mgrwt>
</event>
<event>
 4    1  0.4035350E+000  0.3459255E+03  0.7546771E-02  0.1064300E+00
         21   -1    0    0  501  502  0.00000000000E+00  0.00000000000E+00  0.81523316399E+03  0.81523316399E+03  0.00000000000E+00 0.  1.
         21   -1    0    0  502  503 -0.00000000000E+00 -0.00000000000E+00 -0.16317290787E+03  0.16317290787E+03  0.00000000000E+00 0.  1.
          6    1    1    2  501    0 -0.15172217983E+03  0.25829411865E+03  0.48106136369E+03  0.59252384528E+03  0.17300000000E+03 0.  1.
         -6    1    1    2    0  503  0.15172217983E+03 -0.25829411865E+03  0.17099889242E+03  0.38588222658E+03  0.17300000000E+03 0.  1.
<mgrwt>
<rscale>  2 0.34592553E+03</rscale>
<asrwt>0</asrwt>
<pdfrwt beam="1">  1       21 0.12542048E+00 0.34592553E+03</pdfrwt>
<pdfrwt beam="2">  1       21 0.25103525E-01 0.34592553E+03</pdfrwt>
<totfact> 0.64995028E+03</totfact>
</mgrwt>
</event>
<event>
 4    1  0.4035350E+000  0.1846830E+03  0.7546771E-02  0.1163346E+00
         21   -1    0    0  501  502  0.00000000000E+00  0.00000000000E+00  0.80200239325E+02  0.80200239325E+02  0.00000000000E+00 0. -1.
         21   -1    0    0  502  503 -0.00000000000E+00 -0.00000000000E+00 -0.45432415899E+03  0.45432415899E+03  0.00000000000E+00 0. -1.
          6    1    1    2  501    0  0.46961105199E+02 -0.44423728653E+02 -0.11949097872E+03  0.21996796827E+03  0.17300000000E+03 0. -1.
         -6    1    1    2    0  503 -0.46961105199E+02  0.44423728653E+02 -0.25463294095E+03  0.31455643005E+03  0.17300000000E+03 0. -1.
<mgrwt>
<rscale>  2 0.18468301E+03</rscale>
<asrwt>0</asrwt>
<pdfrwt beam="1">  1       21 0.12338498E-01 0.18468301E+03</pdfrwt>
<pdfrwt beam="2">  1       21 0.69896026E-01 0.18468301E+03</pdfrwt>
<totfact> 0.10410349E+05</totfact>
</mgrwt>
</event>
<event>
 4    1  0.4035350E+000  0.1890841E+03  0.7546771E-02  0.1159290E+00
         21   -1    0    0  501  502  0.00000000000E+00  0.00000000000E+00  0.38616888399E+03  0.38616888399E+03  0.00000000000E+00 0. -1.
         21   -1    0    0  502  503 -0.00000000000E+00 -0.00000000000E+00 -0.10070075887E+03  0.10070075887E+03  0.00000000000E+00 0. -1.
          6    1    1    2  501    0  0.56390744440E+02  0.51418779565E+02  0.21184951861E+03  0.28395954903E+03  0.17300000000E+03 0. -1.
         -6    1    1    2    0  503 -0.56390744440E+02 -0.51418779565E+02  0.73618606513E+02  0.20291009382E+03  0.17300000000E+03 0. -1.
<mgrwt>
<rscale>  2 0.18908413E+03</rscale>
<asrwt>0</asrwt>
<pdfrwt beam="1">  1       21 0.59410597E-01 0.18908413E+03</pdfrwt>
<pdfrwt beam="2">  1       21 0.15492425E-01 0.18908413E+03</pdfrwt>
<totfact> 0.98022213E+04</totfact>
</mgrwt>
</event>
<event>
 4    1  0.4035350E+000  0.1791511E+03  0.7546771E-02  0.1168627E+00
         21   -1    0    0  503  502  0.00000000000E+00  0.00000000000E+00  0.14797872073E+03  0.14797872073E+03  0.00000000000E+00 0. -1.
         21   -1    0    0  501  503 -0.00000000000E+00 -0.00000000000E+00 -0.26135450264E+03  0.26135450264E+03  0.00000000000E+00 0. -1.
          6    1    1    2  501    0 -0.46444198081E+02 -0.30109598047E+01  0.27730663579E+02  0.18128463563E+03  0.17300000000E+03 0. -1.
         -6    1    1    2    0  502  0.46444198081E+02  0.30109598047E+01 -0.14110644549E+03  0.22804858774E+03  0.17300000000E+03 0. -1.
<mgrwt>
<rscale>  2 0.17915114E+03</rscale>
<asrwt>0</asrwt>
<pdfrwt beam="1">  1       21 0.22765957E-01 0.17915114E+03</pdfrwt>
<pdfrwt beam="2">  1       21 0.40208385E-01 0.17915114E+03</pdfrwt>
<totfact> 0.10839278E+05</totfact>
</mgrwt>
</event>
<event>
 4    1  0.4035350E+000  0.1747122E+03  0.7546771E-02  0.1173021E+00
         21   -1    0    0  501  502  0.00000000000E+00  0.00000000000E+00  0.28282487802E+03  0.28282487802E+03  0.00000000000E+00 0. -1.
         21   -1    0    0  502  503 -0.00000000000E+00 -0.00000000000E+00 -0.10822761612E+03  0.10822761612E+03  0.00000000000E+00 0. -1.
          6    1    1    2  501    0 -0.23919523042E+02  0.48175394465E+01  0.97608844424E+02  0.20012955499E+03  0.17300000000E+03 0. -1.
         -6    1    1    2    0  503  0.23919523042E+02 -0.48175394465E+01  0.76988417478E+02  0.19092293915E+03  0.17300000000E+03 0. -1.
<mgrwt>
<rscale>  2 0.17471220E+03</rscale>
<asrwt>0</asrwt>
<pdfrwt beam="1">  1       21 0.43511519E-01 0.17471220E+03</pdfrwt>
<pdfrwt beam="2">  1       21 0.16650403E-01 0.17471220E+03</pdfrwt>
<totfact> 0.16547289E+05</totfact>
</mgrwt>
</event>
<event>
 4    1  0.4035350E+000  0.1743936E+03  0.7546771E-02  0.1173342E+00
         21   -1    0    0  503  502  0.00000000000E+00  0.00000000000E+00  0.27967484252E+04  0.27967484252E+04  0.00000000000E+00 0. -1.
         21   -1    0    0  501  503 -0.00000000000E+00 -0.00000000000E+00 -0.11228399888E+02  0.11228399888E+02  0.00000000000E+00 0. -1.
          6    1    1    2  501    0  0.13788462797E+00 -0.22002373363E+02  0.16420303115E+04  0.16512651718E+04  0.17300000000E+03 0. -1.
         -6    1    1    2    0  502 -0.13788462797E+00  0.22002373363E+02  0.11434897138E+04  0.11567116533E+04  0.17300000000E+03 0. -1.
<mgrwt>
<rscale>  2 0.17439359E+03</rscale>
<asrwt>0</asrwt>
<pdfrwt beam="1">  1       21 0.43026843E+00 0.17439359E+03</pdfrwt>
<pdfrwt beam="2">  1       21 0.17274484E-02 0.17439359E+03</pdfrwt>
<totfact> 0.89743849E+03</totfact>
</mgrwt>
</event>
<event>
 4    1  0.4035350E+000  0.1849968E+03  0.7546771E-02  0.1163053E+00
         21   -1    0    0  501  502  0.00000000000E+00  0.00000000000E+00  0.10439887669E+03  0.10439887669E+03  0.00000000000E+00 0. -1.
         21   -1    0    0  502  503 -0.00000000000E+00 -0.00000000000E+00 -0.57321999982E+03  0.57321999982E+03  0.00000000000E+00 0. -1.
          6    1    1    2  501    0 -0.65532812995E+02  0.52741027206E+00 -0.12726786369E+02  0.18543408217E+03  0.17300000000E+03 0. -1.
         -6    1    1    2    0  503  0.65532812995E+02 -0.52741027206E+00 -0.45609433677E+03  0.49218479433E+03  0.17300000000E+03 0. -1.
<mgrwt>
<rscale>  2 0.18499683E+03</rscale>
<asrwt>0</asrwt>
<pdfrwt beam="1">  1       21 0.16061365E-01 0.18499683E+03</pdfrwt>
<pdfrwt beam="2">  1       21 0.88187695E-01 0.18499683E+03</pdfrwt>
<totfact> 0.38278317E+04</totfact>
</mgrwt>
</event>
<event>
 4    1  0.4035350E+000  0.1846359E+03  0.7546771E-02  0.1163390E+00
         21   -1    0    0  501  502  0.00000000000E+00  0.00000000000E+00  0.17618690796E+03  0.17618690796E+03  0.00000000000E+00 0.  1.
         21   -1    0    0  502  503 -0.00000000000E+00 -0.00000000000E+00 -0.19403077090E+03  0.19403077090E+03  0.00000000000E+00 0.  1.
          6    1    1    2  501    0  0.63874145019E+02  0.90291859340E+01 -0.18692845367E+02  0.18557978087E+03  0.17300000000E+03 0.  1.
         -6    1    1    2    0  503 -0.63874145019E+02 -0.90291859340E+01  0.84898242205E+00  0.18463789798E+03  0.17300000000E+03 0.  1.
<mgrwt>
<rscale>  2 0.18463595E+03</rscale>
<asrwt>0</asrwt>
<pdfrwt beam="1">  1       21 0.27105678E-01 0.18463595E+03</pdfrwt>
<pdfrwt beam="2">  1       21 0.29850888E-01 0.18463595E+03</pdfrwt>
<totfact> 0.13994204E+05</totfact>
</mgrwt>
</event>
<event>
 4    1  0.4035350E+000  0.1733060E+03  0.7546771E-02  0.1174443E+00
         21   -1    0    0  501  502  0.00000000000E+00  0.00000000000E+00  0.43069454765E+03  0.43069454765E+03  0.00000000000E+00 0. -1.
         21   -1    0    0  502  503 -0.00000000000E+00 -0.00000000000E+00 -0.16314907996E+03  0.16314907996E+03  0.00000000000E+00 0. -1.
          6    1    1    2  501    0 -0.12264673261E+01 -0.10220910710E+02  0.35844700033E+03  0.39814472656E+03  0.17300000000E+03 0. -1.
         -6    1    1    2    0  503  0.12264673261E+01  0.10220910710E+02 -0.90901532636E+02  0.19569890105E+03  0.17300000000E+03 0. -1.
<mgrwt>
<rscale>  2 0.17330600E+03</rscale>
<asrwt>0</asrwt>
<pdfrwt beam="1">  1       21 0.66260699E-01 0.17330600E+03</pdfrwt>
<pdfrwt beam="2">  1       21 0.25099859E-01 0.17330600E+03</pdfrwt>
<totfact> 0.31751594E+04</totfact>
</mgrwt>
</event>
<event>
 4    1  0.4035350E+000  0.2241941E+03  0.7546771E-02  0.1130794E+00
         21   -1    0    0  501  502  0.00000000000E+00  0.00000000000E+00  0.14761176454E+04  0.14761176454E+04  0.00000000000E+00 0. -1.
         21   -1    0    0  502  503 -0.00000000000E+00 -0.00000000000E+00 -0.51422560930E+02  0.51422560930E+02  0.00000000000E+00 0.  1.
          6    1    1    2  501    0  0.14135079222E+03  0.18813300465E+02  0.11562706229E+04  0.11778050518E+04  0.17300000000E+03 0. -1.
         -6    1    1    2    0  503 -0.14135079222E+03 -0.18813300465E+02  0.26842446164E+03  0.34973515457E+03  0.17300000000E+03 0.  1.
<mgrwt>
<rscale>  2 0.22419408E+03</rscale>
<asrwt>0</asrwt>
<pdfrwt beam="1">  1       21 0.22709499E+00 0.22419408E+03</pdfrwt>
<pdfrwt beam="2">  1       21 0.79111644E-02 0.22419408E+03</pdfrwt>
<totfact> 0.10848611E+04</totfact>
</mgrwt>
</event>
<event>
 4    1  0.4035350E+000  0.1813287E+03  0.7546771E-02  0.1166523E+00
         21   -1    0    0  503  502  0.00000000000E+00  0.00000000000E+00  0.11502841798E+03  0.11502841798E+03  0.00000000000E+00 0.  1.
         21   -1    0    0  501  503 -0.00000000000E+00 -0.00000000000E+00 -0.63854623721E+03  0.63854623721E+03  0.00000000000E+00 0.  1.
          6    1    1    2  501    0 -0.87881067392E+01 -0.53608546168E+02 -0.54178895266E+03  0.57132773105E+03  0.17300000000E+03 0.  1.
         -6    1    1    2    0  502  0.87881067392E+01  0.53608546168E+02  0.18271133433E+02  0.18224692414E+03  0.17300000000E+03 0.  1.
<mgrwt>
<rscale>  2 0.18132873E+03</rscale>
<asrwt>0</asrwt>
<pdfrwt beam="1">  1       21 0.17696680E-01 0.18132873E+03</pdfrwt>
<pdfrwt beam="2">  1       21 0.98237883E-01 0.18132873E+03</pdfrwt>
<totfact> 0.24970476E+04</totfact>
</mgrwt>
</event>
<event>
 4    1  0.4035350E+000  0.1751972E+03  0.7546771E-02  0.1172534E+00
         21   -1    0    0  501  502  0.00000000000E+00  0.00000000000E+00  0.87233690336E+02  0.87233690336E+02  0.00000000000E+00 0.  1.
         21   -1    0    0  502  503 -0.00000000000E+00 -0.00000000000E+00 -0.51618740399E+03  0.51618740399E+03  0.00000000000E+00 0.  1.
          6    1    1    2  501    0  0.11033730780E+02 -0.25363649301E+02 -0.44244695942E+02  0.18069767857E+03  0.17300000000E+03 0.  1.
         -6    1    1    2    0  503 -0.11033730780E+02  0.25363649301E+02 -0.38470901771E+03  0.42272341576E+03  0.17300000000E+03 0.  1.
<mgrwt>
<rscale>  2 0.17519720E+03</rscale>
<asrwt>0</asrwt>
<pdfrwt beam="1">  1       21 0.13420568E-01 0.17519720E+03</pdfrwt>
<pdfrwt beam="2">  1       21 0.79413447E-01 0.17519720E+03</pdfrwt>
<totfact> 0.67644583E+04</totfact>
</mgrwt>
</event>
<event>
 4    1  0.4035350E+000  0.2051010E+03  0.7546771E-02  0.1145505E+00
         21   -1    0    0  503  502  0.00000000000E+00  0.00000000000E+00  0.13510397316E+03  0.13510397316E+03  0.00000000000E+00 0.  1.
         21   -1    0    0  501  503 -0.00000000000E+00 -0.00000000000E+00 -0.31590490459E+03  0.31590490459E+03  0.00000000000E+00 0. -1.
          6    1    1    2  501    0 -0.10908729952E+03 -0.15407355482E+02 -0.63362174696E+02  0.21466529925E+03  0.17300000000E+03 0. -1.
         -6    1    1    2    0  502  0.10908729952E+03  0.15407355482E+02 -0.11743875673E+03  0.23634357851E+03  0.17300000000E+03 0.  1.
<mgrwt>
<rscale>  2 0.20510101E+03</rscale>
<asrwt>0</asrwt>
<pdfrwt beam="1">  1       21 0.20785227E-01 0.20510101E+03</pdfrwt>
<pdfrwt beam="2">  1       21 0.48600755E-01 0.20510101E+03</pdfrwt>
<totfact> 0.86365180E+04</totfact>
</mgrwt>
</event>
<event>
 4    1  0.4035350E+000  0.1916716E+03  0.7546771E-02  0.1156962E+00
         21   -1    0    0  503  502  0.00000000000E+00  0.00000000000E+00  0.17926382377E+03  0.17926382377E+03  0.00000000000E+00 0. -1.
         21   -1    0    0  501  503 -0.00000000000E+00 -0.00000000000E+00 -0.43991122501E+03  0.43991122501E+03  0.00000000000E+00 0. -1.
          6    1    1    2  501    0  0.61634169015E+02  0.54865416802E+02 -0.35658487645E+03  0.40483423628E+03  0.17300000000E+03 0. -1.
         -6    1    1    2    0  502 -0.61634169015E+02 -0.54865416802E+02  0.95937475220E+02  0.21434081250E+03  0.17300000000E+03 0. -1.
<mgrwt>
<rscale>  2 0.19167155E+03</rscale>
<asrwt>0</asrwt>
<pdfrwt beam="1">  1       21 0.27579050E-01 0.19167155E+03</pdfrwt>
<pdfrwt beam="2">  1       21 0.67678649E-01 0.19167155E+03</pdfrwt>
<totfact> 0.25049367E+04</totfact>
</mgrwt>
</event>
<event>
 4    1  0.4035350E+000  0.1787361E+03  0.7546771E-02  0.1169032E+00
         21   -1    0    0  503  502  0.00000000000E+00  0.00000000000E+00  0.14538112996E+03  0.14538112996E+03  0.00000000000E+00 0. -1.
         21   -1    0    0  501  503 -0.00000000000E+00 -0.00000000000E+00 -0.29406710198E+03  0.29406710198E+03  0.00000000000E+00 0. -1.
          6    1    1    2  501    0 -0.72514623135E+01 -0.44328406565E+02 -0.18480608328E+03  0.25709896879E+03  0.17300000000E+03 0. -1.
         -6    1    1    2    0  502  0.72514623135E+01  0.44328406565E+02  0.36120111259E+02  0.18234926315E+03  0.17300000000E+03 0. -1.
<mgrwt>
<rscale>  2 0.17873609E+03</rscale>
<asrwt>0</asrwt>
<pdfrwt beam="1">  1       21 0.22366328E-01 0.17873609E+03</pdfrwt>
<pdfrwt beam="2">  1       21 0.45241093E-01 0.17873609E+03</pdfrwt>
<totfact> 0.88180745E+04</totfact>
</mgrwt>
</event>
<event>
 4    1  0.4035350E+000  0.2481055E+03  0.7546771E-02  0.1114508E+00
         21   -1    0    0  501  502  0.00000000000E+00  0.00000000000E+00  0.53616676550E+02  0.53616676550E+02  0.00000000000E+00 0. -1.
         21   -1    0    0  502  503 -0.00000000000E+00 -0.00000000000E+00 -0.11895672197E+04  0.11895672197E+04  0.00000000000E+00 0. -1.
          6    1    1    2  501    0  0.16286852919E+03  0.71422574616E+02 -0.45189524114E+03  0.51552463659E+03  0.17300000000E+03 0. -1.
         -6    1    1    2    0  503 -0.16286852919E+03 -0.71422574616E+02 -0.68405530200E+03  0.72765925966E+03  0.17300000000E+03 0. -1.
<mgrwt>
<rscale>  2 0.24810551E+03</rscale>
<asrwt>0</asrwt>
<pdfrwt beam="1">  1       21 0.82487204E-02 0.24810551E+03</pdfrwt>
<pdfrwt beam="2">  1       21 0.18301032E+00 0.24810551E+03</pdfrwt>
<totfact> 0.19036251E+04</totfact>
</mgrwt>
</event>
<event>
 4    1  0.4035350E+000  0.1902389E+03  0.7546771E-02  0.1158246E+00
         21   -1    0    0  501  502  0.00000000000E+00  0.00000000000E+00  0.41764898536E+03  0.41764898536E+03  0.00000000000E+00 0. -1.
         21   -1    0    0  502  503 -0.00000000000E+00 -0.00000000000E+00 -0.13545176022E+03  0.13545176022E+03  0.00000000000E+00 0. -1.
          6    1    1    2  501    0 -0.78810833955E+02 -0.71198167137E+01  0.30708906177E+03  0.36124026797E+03  0.17300000000E+03 0. -1.
         -6    1    1    2    0  503  0.78810833955E+02  0.71198167137E+01 -0.24891836636E+02  0.19186047761E+03  0.17300000000E+03 0. -1.
<mgrwt>
<rscale>  2 0.19023890E+03</rscale>
<asrwt>0</asrwt>
<pdfrwt beam="1">  1       21 0.64253689E-01 0.19023890E+03</pdfrwt>
<pdfrwt beam="2">  1       21 0.20838733E-01 0.19023890E+03</pdfrwt>
<totfact> 0.47827524E+04</totfact>
</mgrwt>
</event>
<event>
 4    1  0.4035350E+000  0.1999042E+03  0.7546771E-02  0.1149820E+00
         21   -1    0    0  501  502  0.00000000000E+00  0.00000000000E+00  0.99023744995E+02  0.99023744995E+02  0.00000000000E+00 0.  1.
         21   -1    0    0  502  503 -0.00000000000E+00 -0.00000000000E+00 -0.59424548675E+03  0.59424548675E+03  0.00000000000E+00 0. -1.
          6    1    1    2  501    0  0.95201665780E+00  0.10015887941E+03 -0.51251592440E+02  0.20636965181E+03  0.17300000000E+03 0.  1.
         -6    1    1    2    0  503 -0.95201665780E+00 -0.10015887941E+03 -0.44397014932E+03  0.48689957994E+03  0.17300000000E+03 0. -1.
<mgrwt>
<rscale>  2 0.19990425E+03</rscale>
<asrwt>0</asrwt>
<pdfrwt beam="1">  1       21 0.15234422E-01 0.19990425E+03</pdfrwt>
<pdfrwt beam="2">  1       21 0.91422385E-01 0.19990425E+03</pdfrwt>
<totfact> 0.38483631E+04</totfact>
</mgrwt>
</event>
<event>
 4    1  0.4035350E+000  0.2485900E+03  0.7546771E-02  0.1114199E+00
         21   -1    0    0  501  502  0.00000000000E+00  0.00000000000E+00  0.13393714480E+04  0.13393714480E+04  0.00000000000E+00 0. -1.
         21   -1    0    0  502  503 -0.00000000000E+00 -0.00000000000E+00 -0.68933201491E+02  0.68933201491E+02  0.00000000000E+00 0. -1.
          6    1    1    2  501    0  0.14352280960E+03 -0.10615655415E+03  0.10401364407E+04  0.10694301408E+04  0.17300000000E+03 0. -1.
         -6    1    1    2    0  503 -0.14352280960E+03  0.10615655415E+03  0.23030180585E+03  0.33887450869E+03  0.17300000000E+03 0. -1.
<mgrwt>
<rscale>  2 0.24859005E+03</rscale>
<asrwt>0</asrwt>
<pdfrwt beam="1">  1       21 0.20605713E+00 0.24859005E+03</pdfrwt>
<pdfrwt beam="2">  1       21 0.10605109E-01 0.24859005E+03</pdfrwt>
<totfact> 0.85986583E+03</totfact>
</mgrwt>
</event>
<event>
 4    1  0.4035350E+000  0.1757177E+03  0.7546771E-02  0.1172013E+00
         21   -1    0    0  503  502  0.00000000000E+00  0.00000000000E+00  0.75770682983E+02  0.75770682983E+02  0.00000000000E+00 0.  1.
         21   -1    0    0  501  503 -0.00000000000E+00 -0.00000000000E+00 -0.41313965059E+03  0.41313965059E+03  0.00000000000E+00 0.  1.
          6    1    1    2  501    0  0.30337054289E+02  0.52333138679E+01 -0.14012897478E+03  0.22475064852E+03  0.17300000000E+03 0.  1.
         -6    1    1    2    0  502 -0.30337054289E+02 -0.52333138679E+01 -0.19723999282E+03  0.26415968505E+03  0.17300000000E+03 0.  1.
<mgrwt>
<rscale>  2 0.17571774E+03</rscale>
<asrwt>0</asrwt>
<pdfrwt beam="1">  1       21 0.11657028E-01 0.17571774E+03</pdfrwt>
<pdfrwt beam="2">  1       21 0.63559948E-01 0.17571774E+03</pdfrwt>
<totfact> 0.14223763E+05</totfact>
</mgrwt>
</event>
<event>
 4    1  0.4035350E+000  0.2008341E+03  0.7546771E-02  0.1149037E+00
         21   -1    0    0  503  502  0.00000000000E+00  0.00000000000E+00  0.45404263643E+02  0.45404263643E+02  0.00000000000E+00 0. -1.
         21   -1    0    0  501  503 -0.00000000000E+00 -0.00000000000E+00 -0.91210738701E+03  0.91210738701E+03  0.00000000000E+00 0.  1.
          6    1    1    2  501    0  0.97999450563E+02 -0.28310027996E+02 -0.35606631329E+03  0.40880015834E+03  0.17300000000E+03 0.  1.
         -6    1    1    2    0  502 -0.97999450563E+02  0.28310027996E+02 -0.51063681008E+03  0.54871149232E+03  0.17300000000E+03 0.  1.
<mgrwt>
<rscale>  2 0.20083414E+03</rscale>
<asrwt>0</asrwt>
<pdfrwt beam="1">  1       21 0.69852718E-02 0.20083414E+03</pdfrwt>
<pdfrwt beam="2">  1       21 0.14032420E+00 0.20083414E+03</pdfrwt>
<totfact> 0.53759307E+04</totfact>
</mgrwt>
</event>
<event>
 4    1  0.4035350E+000  0.1916749E+03  0.7546771E-02  0.1156959E+00
         21   -1    0    0  503  502  0.00000000000E+00  0.00000000000E+00  0.24024692858E+03  0.24024692858E+03  0.00000000000E+00 0. -1.
         21   -1    0    0  501  503 -0.00000000000E+00 -0.00000000000E+00 -0.21043926848E+03  0.21043926848E+03  0.00000000000E+00 0.  1.
          6    1    1    2  501    0 -0.22242412584E+02  0.79470336875E+02 -0.10290465251E+03  0.21755143500E+03  0.17300000000E+03 0.  1.
         -6    1    1    2    0  502  0.22242412584E+02 -0.79470336875E+02  0.13271231262E+03  0.23313476206E+03  0.17300000000E+03 0.  1.
<mgrwt>
<rscale>  2 0.19167488E+03</rscale>
<asrwt>0</asrwt>
<pdfrwt beam="1">  1       21 0.36961066E-01 0.19167488E+03</pdfrwt>
<pdfrwt beam="2">  1       21 0.32375272E-01 0.19167488E+03</pdfrwt>
<totfact> 0.64835585E+04</totfact>
</mgrwt>
</event>
<event>
 4    1  0.4035350E+000  0.1771361E+03  0.7546771E-02  0.1170604E+00
         21   -1    0    0  501  502  0.00000000000E+00  0.00000000000E+00  0.23775734698E+03  0.23775734698E+03  0.00000000000E+00 0.  1.
         21   -1    0    0  502  503 -0.00000000000E+00 -0.00000000000E+00 -0.19372046828E+03  0.19372046828E+03  0.00000000000E+00 0.  1.
          6    1    1    2  501    0  0.27773648506E+02  0.26015876471E+02 -0.99783852407E+02  0.20330769435E+03  0.17300000000E+03 0.  1.
         -6    1    1    2    0  503 -0.27773648506E+02 -0.26015876471E+02  0.14382073111E+03  0.22817012091E+03  0.17300000000E+03 0.  1.
<mgrwt>
<rscale>  2 0.17713611E+03</rscale>
<asrwt>0</asrwt>
<pdfrwt beam="1">  1       21 0.36578053E-01 0.17713611E+03</pdfrwt>
<pdfrwt beam="2">  1       21 0.29803149E-01 0.17713611E+03</pdfrwt>
<totfact> 0.78300234E+04</totfact>
</mgrwt>
</event>
<event>
 4    1  0.4035350E+000  0.2018379E+03  0.7546771E-02  0.1148198E+00
         21   -1    0    0  501  502  0.00000000000E+00  0.00000000000E+00  0.12043503816E+03  0.12043503816E+03  0.00000000000E+00 0.  1.
         21   -1    0    0  502  503 -0.00000000000E+00 -0.00000000000E+00 -0.44679961092E+03  0.44679961092E+03  0.00000000000E+00 0.  1.
          6    1    1    2  501    0  0.28065145745E+02 -0.10010940923E+03 -0.23395109783E+02  0.20318926493E+03  0.17300000000E+03 0.  1.
         -6    1    1    2    0  503 -0.28065145745E+02  0.10010940923E+03 -0.30296946298E+03  0.36404538415E+03  0.17300000000E+03 0.  1.
<mgrwt>
<rscale>  2 0.20183792E+03</rscale>
<asrwt>0</asrwt>
<pdfrwt beam="1">  1       21 0.18528467E-01 0.20183792E+03</pdfrwt>
<pdfrwt beam="2">  1       21 0.68738402E-01 0.20183792E+03</pdfrwt>
<totfact> 0.51090906E+04</totfact>
</mgrwt>
</event>
<event>
 4    1  0.4035350E+000  0.1812600E+03  0.7546771E-02  0.1166589E+00
         21   -1    0    0  501  502  0.00000000000E+00  0.00000000000E+00  0.14427165668E+03  0.14427165668E+03  0.00000000000E+00 0.  1.
         21   -1    0    0  502  503 -0.00000000000E+00 -0.00000000000E+00 -0.57808406940E+03  0.57808406940E+03  0.00000000000E+00 0.  1.
          6    1    1    2  501    0  0.19780595884E+02  0.50347977815E+02  0.64269839689E+02  0.19231693409E+03  0.17300000000E+03 0.  1.
         -6    1    1    2    0  503 -0.19780595884E+02 -0.50347977815E+02 -0.49808225241E+03  0.53003879199E+03  0.17300000000E+03 0.  1.
<mgrwt>
<rscale>  2 0.18126001E+03</rscale>
<asrwt>0</asrwt>
<pdfrwt beam="1">  1       21 0.22195640E-01 0.18126001E+03</pdfrwt>
<pdfrwt beam="2">  1       21 0.88936010E-01 0.18126001E+03</pdfrwt>
<totfact> 0.20641551E+04</totfact>
</mgrwt>
</event>
<event>
 4    1  0.4035350E+000  0.1762898E+03  0.7546771E-02  0.1171443E+00
         21   -1    0    0  503  502  0.00000000000E+00  0.00000000000E+00  0.54931931026E+03  0.54931931026E+03  0.00000000000E+00 0.  1.
         21   -1    0    0  501  503 -0.00000000000E+00 -0.00000000000E+00 -0.86395878375E+02  0.86395878375E+02  0.00000000000E+00 0.  1.
          6    1    1    2  501    0  0.36816243584E+01  0.33697784043E+02  0.44719894985E+02  0.18187348354E+03  0.17300000000E+03 0.  1.
         -6    1    1    2    0  502 -0.36816243584E+01 -0.33697784043E+02  0.41820353690E+03  0.45384170510E+03  0.17300000000E+03 0.  1.
<mgrwt>
<rscale>  2 0.17628980E+03</rscale>
<asrwt>0</asrwt>
<pdfrwt beam="1">  1       21 0.84510661E-01 0.17628980E+03</pdfrwt>
<pdfrwt beam="2">  1       21 0.13291674E-01 0.17628980E+03</pdfrwt>
<totfact> 0.59753613E+04</totfact>
</mgrwt>
</event>
<event>
 4    1  0.4035350E+000  0.3086435E+03  0.7546771E-02  0.1080998E+00
         21   -1    0    0  503  502  0.00000000000E+00  0.00000000000E+00  0.50351430050E+03  0.50351430050E+03  0.00000000000E+00 0.  1.
         21   -1    0    0  501  503 -0.00000000000E+00 -0.00000000000E+00 -0.29971816112E+03  0.29971816112E+03  0.00000000000E+00 0. -1.
          6    1    1    2  501    0  0.24952290680E+03 -0.55408919998E+02 -0.14198825947E+03  0.33973739161E+03  0.17300000000E+03 0. -1.
         -6    1    1    2    0  502 -0.24952290680E+03  0.55408919998E+02  0.34578439885E+03  0.46349507001E+03  0.17300000000E+03 0.  1.
<mgrwt>
<rscale>  2 0.30864353E+03</rscale>
<asrwt>0</asrwt>
<pdfrwt beam="1">  1       21 0.77463739E-01 0.30864353E+03</pdfrwt>
<pdfrwt beam="2">  1       21 0.46110486E-01 0.30864353E+03</pdfrwt>
<totfact> 0.62152439E+03</totfact>
</mgrwt>
</event>
<event>
 4    1  0.4035350E+000  0.1749093E+03  0.7546771E-02  0.1172823E+00
         21   -1    0    0  503  502  0.00000000000E+00  0.00000000000E+00  0.96935543734E+02  0.96935543734E+02  0.00000000000E+00 0.  1.
         21   -1    0    0  501  503 -0.00000000000E+00 -0.00000000000E+00 -0.39981407813E+03  0.39981407813E+03  0.00000000000E+00 0.  1.
          6    1    1    2  501    0 -0.73190954241E+01  0.24712073961E+02 -0.26542756453E+03  0.31787583703E+03  0.17300000000E+03 0.  1.
         -6    1    1    2    0  502  0.73190954241E+01 -0.24712073961E+02 -0.37450969872E+02  0.17887378484E+03  0.17300000000E+03 0.  1.
<mgrwt>
<rscale>  2 0.17490928E+03</rscale>
<asrwt>0</asrwt>
<pdfrwt beam="1">  1       21 0.14913161E-01 0.17490928E+03</pdfrwt>
<pdfrwt beam="2">  1       21 0.61509858E-01 0.17490928E+03</pdfrwt>
<totfact> 0.98055534E+04</totfact>
</mgrwt>
</event>
<event>
 4    1  0.4035350E+000  0.2695397E+03  0.7546771E-02  0.1101543E+00
         21   -1    0    0  501  502  0.00000000000E+00  0.00000000000E+00  0.88074447776E+03  0.88074447776E+03  0.00000000000E+00 0. -1.
         21   -1    0    0  502  503 -0.00000000000E+00 -0.00000000000E+00 -0.15730850785E+03  0.15730850785E+03  0.00000000000E+00 0. -1.
          6    1    1    2  501    0 -0.63280421469E+02  0.19676951374E+03  0.71966694160E+03  0.76848692904E+03  0.17300000000E+03 0. -1.
         -6    1    1    2    0  503  0.63280421469E+02 -0.19676951374E+03  0.37690283091E+01  0.26956605657E+03  0.17300000000E+03 0. -1.
<mgrwt>
<rscale>  2 0.26953971E+03</rscale>
<asrwt>0</asrwt>
<pdfrwt beam="1">  1       21 0.13549915E+00 0.26953971E+03</pdfrwt>
<pdfrwt beam="2">  1       21 0.24201309E-01 0.26953971E+03</pdfrwt>
<totfact> 0.59454590E+03</totfact>
</mgrwt>
</event>
<event>
 4    1  0.4035350E+000  0.2942781E+03  0.7546771E-02  0.1088136E+00
         21   -1    0    0  503  502  0.00000000000E+00  0.00000000000E+00  0.25364003039E+03  0.25364003039E+03  0.00000000000E+00 0. -1.
         21   -1    0    0  501  503 -0.00000000000E+00 -0.00000000000E+00 -0.34296772163E+03  0.34296772163E+03  0.00000000000E+00 0.  1.
          6    1    1    2  501    0 -0.18482574159E+03  0.15003348080E+03 -0.24671253756E+02  0.29531046523E+03  0.17300000000E+03 0.  1.
         -6    1    1    2    0  502  0.18482574159E+03 -0.15003348080E+03 -0.64656437481E+02  0.30129728678E+03  0.17300000000E+03 0. -1.
<mgrwt>
<rscale>  2 0.29427810E+03</rscale>
<asrwt>0</asrwt>
<pdfrwt beam="1">  1       21 0.39021543E-01 0.29427810E+03</pdfrwt>
<pdfrwt beam="2">  1       21 0.52764265E-01 0.29427810E+03</pdfrwt>
<totfact> 0.20497765E+04</totfact>
</mgrwt>
</event>
<event>
 4    1  0.4035350E+000  0.1776381E+03  0.7546771E-02  0.1170109E+00
         21   -1    0    0  501  502  0.00000000000E+00  0.00000000000E+00  0.60153230266E+02  0.60153230266E+02  0.00000000000E+00 0.  1.
         21   -1    0    0  502  503 -0.00000000000E+00 -0.00000000000E+00 -0.56136214064E+03  0.56136214064E+03  0.00000000000E+00 0.  1.
          6    1    1    2  501    0  0.31503087471E+02 -0.25176335635E+02 -0.33014854888E+03  0.37490446347E+03  0.17300000000E+03 0.  1.
         -6    1    1    2    0  503 -0.31503087471E+02  0.25176335635E+02 -0.17106036149E+03  0.24661090744E+03  0.17300000000E+03 0.  1.
<mgrwt>
<rscale>  2 0.17763809E+03</rscale>
<asrwt>0</asrwt>
<pdfrwt beam="1">  1       21 0.92543428E-02 0.17763809E+03</pdfrwt>
<pdfrwt beam="2">  1       21 0.86363409E-01 0.17763809E+03</pdfrwt>
<totfact> 0.10809998E+05</totfact>
</mgrwt>
</event>
<event>
 4    1  0.4035350E+000  0.2176340E+03  0.7546771E-02  0.1135659E+00
         21   -1    0    0  503  502  0.00000000000E+00  0.00000000000E+00  0.16028202677E+03  0.16028202677E+03  0.00000000000E+00 0. -1.
         21   -1    0    0  501  503 -0.00000000000E+00 -0.00000000000E+00 -0.34039290200E+03  0.34039290200E+03  0.00000000000E+00 0. -1.
          6    1    1    2  501    0  0.51733902137E+02  0.12148735571E+03 -0.18096030942E+03  0.28303923370E+03  0.17300000000E+03 0. -1.
         -6    1    1    2    0  502 -0.51733902137E+02 -0.12148735571E+03  0.84943418812E+00  0.21763569506E+03  0.17300000000E+03 0. -1.
<mgrwt>
<rscale>  2 0.21763404E+03</rscale>
<asrwt>0</asrwt>
<pdfrwt beam="1">  1       21 0.24658773E-01 0.21763404E+03</pdfrwt>
<pdfrwt beam="2">  1       21 0.52368139E-01 0.21763404E+03</pdfrwt>
<totfact> 0.53153037E+04</totfact>
</mgrwt>
</event>
<event>
 4    1  0.4035350E+000  0.4807557E+03  0.7546771E-02  0.1018928E+00
         21   -1    0    0  503  502  0.00000000000E+00  0.00000000000E+00  0.23350059434E+04  0.23350059434E+04  0.00000000000E+00 0.  1.
         21   -1    0    0  501  503 -0.00000000000E+00 -0.00000000000E+00 -0.10070631731E+03  0.10070631731E+03  0.00000000000E+00 0. -1.
          6    1    1    2  501    0 -0.35472708009E+03 -0.27452826652E+03  0.12764589533E+04  0.13639917632E+04  0.17300000000E+03 0. -1.
         -6    1    1    2    0  502  0.35472708009E+03  0.27452826652E+03  0.95784067279E+03  0.10717204976E+04  0.17300000000E+03 0.  1.
<mgrwt>
<rscale>  2 0.48075573E+03</rscale>
<asrwt>0</asrwt>
<pdfrwt beam="1">  1       21 0.35923164E+00 0.48075573E+03</pdfrwt>
<pdfrwt beam="2">  1       21 0.15493281E-01 0.48075573E+03</pdfrwt>
<totfact> 0.43731069E+02</totfact>
</mgrwt>
</event>
<event>
 4    1  0.4035350E+000  0.1890525E+03  0.7546771E-02  0.1159319E+00
         21   -1    0    0  501  502  0.00000000000E+00  0.00000000000E+00  0.89319781168E+02  0.89319781168E+02  0.00000000000E+00 0. -1.
         21   -1    0    0  502  503 -0.00000000000E+00 -0.00000000000E+00 -0.40409839693E+03  0.40409839693E+03  0.00000000000E+00 0. -1.
          6    1    1    2  501    0 -0.70497939866E+02 -0.29015629033E+02 -0.18179130150E+03  0.26227646398E+03  0.17300000000E+03 0. -1.
         -6    1    1    2    0  503  0.70497939866E+02  0.29015629033E+02 -0.13298731426E+03  0.23114171412E+03  0.17300000000E+03 0. -1.
<mgrwt>
<rscale>  2 0.18905255E+03</rscale>
<asrwt>0</asrwt>
<pdfrwt beam="1">  1       21 0.13741505E-01 0.18905255E+03</pdfrwt>
<pdfrwt beam="2">  1       21 0.62168984E-01 0.18905255E+03</pdfrwt>
<totfact> 0.11054244E+05</totfact>
</mgrwt>
</event>
<event>
 4    1  0.4035350E+000  0.1907565E+03  0.7546771E-02  0.1157781E+00
         21   -1    0    0  501  502  0.00000000000E+00  0.00000000000E+00  0.22003772793E+04  0.22003772793E+04  0.00000000000E+00 0. -1.
         21   -1    0    0  502  503 -0.00000000000E+00 -0.00000000000E+00 -0.24035878037E+02  0.24035878037E+02  0.00000000000E+00 0. -1.
          6    1    1    2  501    0  0.72230366526E+02 -0.35239605244E+02  0.46694684200E+03  0.50440797861E+03  0.17300000000E+03 0. -1.
         -6    1    1    2    0  503 -0.72230366526E+02  0.35239605244E+02  0.17093945593E+04  0.17200051787E+04  0.17300000000E+03 0. -1.
<mgrwt>
<rscale>  2 0.19075653E+03</rscale>
<asrwt>0</asrwt>
<pdfrwt beam="1">  1       21 0.33851942E+00 0.19075653E+03</pdfrwt>
<pdfrwt beam="2">  1       21 0.36978291E-02 0.19075653E+03</pdfrwt>
<totfact> 0.91482253E+03</totfact>
</mgrwt>
</event>
<event>
 4    1  0.4035350E+000  0.2097272E+03  0.7546771E-02  0.1141782E+00
         21   -1    0    0  503  502  0.00000000000E+00  0.00000000000E+00  0.41084733288E+03  0.41084733288E+03  0.00000000000E+00 0. -1.
         21   -1    0    0  501  503 -0.00000000000E+00 -0.00000000000E+00 -0.31803934434E+03  0.31803934434E+03  0.00000000000E+00 0. -1.
          6    1    1    2  501    0 -0.56407581476E+02  0.10428173323E+03 -0.25042690706E+03  0.32664832911E+03  0.17300000000E+03 0. -1.
         -6    1    1    2    0  502  0.56407581476E+02 -0.10428173323E+03  0.34323489560E+03  0.40223834811E+03  0.17300000000E+03 0. -1.
<mgrwt>
<rscale>  2 0.20972719E+03</rscale>
<asrwt>0</asrwt>
<pdfrwt beam="1">  1       21 0.63207282E-01 0.20972719E+03</pdfrwt>
<pdfrwt beam="2">  1       21 0.48929130E-01 0.20972719E+03</pdfrwt>
<totfact> 0.91230413E+03</totfact>
</mgrwt>
</event>
<event>
 4    1  0.4035350E+000  0.2296062E+03  0.7546771E-02  0.1126917E+00
         21   -1    0    0  503  502  0.00000000000E+00  0.00000000000E+00  0.59187170461E+02  0.59187170461E+02  0.00000000000E+00 0.  1.
         21   -1    0    0  501  503 -0.00000000000E+00 -0.00000000000E+00 -0.89144007472E+03  0.89144007472E+03  0.00000000000E+00 0. -1.
          6    1    1    2  501    0 -0.96924781174E+02 -0.11573926488E+03 -0.40258487753E+03  0.46345827671E+03  0.17300000000E+03 0. -1.
         -6    1    1    2    0  502  0.96924781174E+02  0.11573926488E+03 -0.42966802673E+03  0.48716896847E+03  0.17300000000E+03 0.  1.
<mgrwt>
<rscale>  2 0.22960616E+03</rscale>
<asrwt>0</asrwt>
<pdfrwt beam="1">  1       21 0.91057196E-02 0.22960616E+03</pdfrwt>
<pdfrwt beam="2">  1       21 0.13714461E+00 0.22960616E+03</pdfrwt>
<totfact> 0.35369540E+04</totfact>
</mgrwt>
</event>
<event>
 4    1  0.4035350E+000  0.2166786E+03  0.7546771E-02  0.1136384E+00
         21   -1    0    0  501  502  0.00000000000E+00  0.00000000000E+00  0.45001186354E+03  0.45001186354E+03  0.00000000000E+00 0. -1.
         21   -1    0    0  502  503 -0.00000000000E+00 -0.00000000000E+00 -0.15330327991E+03  0.15330327991E+03  0.00000000000E+00 0. -1.
          6    1    1    2  501    0  0.86494136265E+02  0.97669817989E+02  0.31885224698E+03  0.38550795628E+03  0.17300000000E+03 0. -1.
         -6    1    1    2    0  503 -0.86494136265E+02 -0.97669817989E+02 -0.22143663349E+02  0.21780718717E+03  0.17300000000E+03 0. -1.
<mgrwt>
<rscale>  2 0.21667863E+03</rscale>
<asrwt>0</asrwt>
<pdfrwt beam="1">  1       21 0.69232593E-01 0.21667863E+03</pdfrwt>
<pdfrwt beam="2">  1       21 0.23585120E-01 0.21667863E+03</pdfrwt>
<totfact> 0.31716391E+04</totfact>
</mgrwt>
</event>
<event>
 4    1  0.4035350E+000  0.2313006E+03  0.7546771E-02  0.1125728E+00
         21   -1    0    0  501  502  0.00000000000E+00  0.00000000000E+00  0.27055846866E+03  0.27055846866E+03  0.00000000000E+00 0. -1.
         21   -1    0    0  502  503 -0.00000000000E+00 -0.00000000000E+00 -0.20238802058E+03  0.20238802058E+03  0.00000000000E+00 0. -1.
          6    1    1    2  501    0  0.10225162057E+03 -0.11452327713E+03  0.69925219590E+02  0.24163921712E+03  0.17300000000E+03 0. -1.
         -6    1    1    2    0  503 -0.10225162057E+03  0.11452327713E+03 -0.17547715079E+01  0.23130727212E+03  0.17300000000E+03 0. -1.
<mgrwt>
<rscale>  2 0.23130062E+03</rscale>
<asrwt>0</asrwt>
<pdfrwt beam="1">  1       21 0.41624380E-01 0.23130062E+03</pdfrwt>
<pdfrwt beam="2">  1       21 0.31136619E-01 0.23130062E+03</pdfrwt>
<totfact> 0.54110092E+04</totfact>
</mgrwt>
</event>
<event>
 4    1  0.4035350E+000  0.2125715E+03  0.7546771E-02  0.1139546E+00
         21   -1    0    0  501  502  0.00000000000E+00  0.00000000000E+00  0.16968741903E+03  0.16968741903E+03  0.00000000000E+00 0.  1.
         21   -1    0    0  502  503 -0.00000000000E+00 -0.00000000000E+00 -0.37825854711E+03  0.37825854711E+03  0.00000000000E+00 0.  1.
          6    1    1    2  501    0 -0.45797446807E+02  0.11471809156E+03  0.44772237622E+02  0.21723535607E+03  0.17300000000E+03 0.  1.
         -6    1    1    2    0  503  0.45797446807E+02 -0.11471809156E+03 -0.25334336570E+03  0.33071061006E+03  0.17300000000E+03 0.  1.
<mgrwt>
<rscale>  2 0.21257151E+03</rscale>
<asrwt>0</asrwt>
<pdfrwt beam="1">  1       21 0.26105757E-01 0.21257151E+03</pdfrwt>
<pdfrwt beam="2">  1       21 0.58193622E-01 0.21257151E+03</pdfrwt>
<totfact> 0.38179694E+04</totfact>
</mgrwt>
</event>
<event>
 4    1  0.4035350E+000  0.1959977E+03  0.7546771E-02  0.1153160E+00
         21   -1    0    0  501  502  0.00000000000E+00  0.00000000000E+00  0.15901889131E+03  0.15901889131E+03  0.00000000000E+00 0.  1.
         21   -1    0    0  502  503 -0.00000000000E+00 -0.00000000000E+00 -0.25782977058E+03  0.25782977058E+03  0.00000000000E+00 0.  1.
          6    1    1    2  501    0 -0.33495818934E+02  0.85814545172E+02 -0.10173685076E+03  0.22082910327E+03  0.17300000000E+03 0.  1.
         -6    1    1    2    0  503  0.33495818934E+02 -0.85814545172E+02  0.29259714957E+01  0.19601955861E+03  0.17300000000E+03 0.  1.
<mgrwt>
<rscale>  2 0.19599772E+03</rscale>
<asrwt>0</asrwt>
<pdfrwt beam="1">  1       21 0.24464445E-01 0.19599772E+03</pdfrwt>
<pdfrwt beam="2">  1       21 0.39666118E-01 0.19599772E+03</pdfrwt>
<totfact> 0.96578606E+04</totfact>
</mgrwt>
</event>
<event>
 4    1  0.4035350E+000  0.2934275E+03  0.7546771E-02  0.1088573E+00
         21   -1    0    0  503  502  0.00000000000E+00  0.00000000000E+00  0.26762763556E+03  0.26762763556E+03  0.00000000000E+00 0. -1.
         21   -1    0    0  501  503 -0.00000000000E+00 -0.00000000000E+00 -0.49851523724E+03  0.49851523724E+03  0.00000000000E+00 0.  1.
          6    1    1    2  501    0 -0.10974866405E+03 -0.21006169437E+03 -0.34357391411E+03  0.45182155677E+03  0.17300000000E+03 0.  1.
         -6    1    1    2    0  502  0.10974866405E+03  0.21006169437E+03  0.11268631243E+03  0.31432131603E+03  0.17300000000E+03 0. -1.
<mgrwt>
<rscale>  2 0.29342748E+03</rscale>
<asrwt>0</asrwt>
<pdfrwt beam="1">  1       21 0.41173483E-01 0.29342748E+03</pdfrwt>
<pdfrwt beam="2">  1       21 0.76694651E-01 0.29342748E+03</pdfrwt>
<totfact> 0.80927549E+03</totfact>
</mgrwt>
</event>
<event>
 4    1  0.4035350E+000  0.1735882E+03  0.7546771E-02  0.1174157E+00
         21   -1    0    0  503  502  0.00000000000E+00  0.00000000000E+00  0.35266589478E+03  0.35266589478E+03  0.00000000000E+00 0.  1.
         21   -1    0    0  501  503 -0.00000000000E+00 -0.00000000000E+00 -0.12674515784E+03  0.12674515784E+03  0.00000000000E+00 0.  1.
          6    1    1    2  501    0 -0.95626220206E+01  0.10602755463E+02 -0.23874973027E+02  0.17522236301E+03  0.17300000000E+03 0.  1.
         -6    1    1    2    0  502  0.95626220206E+01 -0.10602755463E+02  0.24979570997E+03  0.30418868960E+03  0.17300000000E+03 0.  1.
<mgrwt>
<rscale>  2 0.17358820E+03</rscale>
<asrwt>0</asrwt>
<pdfrwt beam="1">  1       21 0.54256291E-01 0.17358820E+03</pdfrwt>
<pdfrwt beam="2">  1       21 0.19499255E-01 0.17358820E+03</pdfrwt>
<totfact> 0.78313653E+04</totfact>
</mgrwt>
</event>
<event>
 4    1  0.4035350E+000  0.1874179E+03  0.7546771E-02  0.1160811E+00
         21   -1    0    0  501  502  0.00000000000E+00  0.00000000000E+00  0.38130181308E+03  0.38130181308E+03  0.00000000000E+00 0.  1.
         21   -1    0    0  502  503 -0.00000000000E+00 -0.00000000000E+00 -0.31509420426E+03  0.31509420426E+03  0.00000000000E+00 0.  1.
          6    1    1    2  501    0 -0.71001865296E+02  0.12458547131E+02  0.32601333047E+03  0.37604543864E+03  0.17300000000E+03 0.  1.
         -6    1    1    2    0  503  0.71001865296E+02 -0.12458547131E+02 -0.25980572165E+03  0.32035057871E+03  0.17300000000E+03 0.  1.
<mgrwt>
<rscale>  2 0.18741793E+03</rscale>
<asrwt>0</asrwt>
<pdfrwt beam="1">  1       21 0.58661817E-01 0.18741793E+03</pdfrwt>
<pdfrwt beam="2">  1       21 0.48476031E-01 0.18741793E+03</pdfrwt>
<totfact> 0.11090872E+04</totfact>
</mgrwt>
</event>
<event>
 4    1  0.4035350E+000  0.2049956E+03  0.7546771E-02  0.1145591E+00
         21   -1    0    0  503  502  0.00000000000E+00  0.00000000000E+00  0.68038051569E+02  0.68038051569E+02  0.00000000000E+00 0.  1.
         21   -1    0    0  501  503 -0.00000000000E+00 -0.00000000000E+00 -0.63076555746E+03  0.63076555746E+03  0.00000000000E+00 0.  1.
          6    1    1    2  501    0  0.53676615189E+02 -0.95984467643E+02 -0.33176108086E+03  0.38998539950E+03  0.17300000000E+03 0.  1.
         -6    1    1    2    0  502 -0.53676615189E+02  0.95984467643E+02 -0.23096642503E+03  0.30881820953E+03  0.17300000000E+03 0.  1.
<mgrwt>
<rscale>  2 0.20499560E+03</rscale>
<asrwt>0</asrwt>
<pdfrwt beam="1">  1       21 0.10467392E-01 0.20499560E+03</pdfrwt>
<pdfrwt beam="2">  1       21 0.97040858E-01 0.20499560E+03</pdfrwt>
<totfact> 0.65570571E+04</totfact>
</mgrwt>
</event>
<event>
 4    1  0.4035350E+000  0.2135590E+03  0.7546771E-02  0.1138778E+00
         21   -1    0    0  503  502  0.00000000000E+00  0.00000000000E+00  0.23586918352E+02  0.23586918352E+02  0.00000000000E+00 0.  1.
         21   -1    0    0  501  503 -0.00000000000E+00 -0.00000000000E+00 -0.23631627962E+04  0.23631627962E+04  0.00000000000E+00 0.  1.
          6    1    1    2  501    0  0.81553513578E+02  0.95013020142E+02 -0.16785890108E+04  0.16921195338E+04  0.17300000000E+03 0.  1.
         -6    1    1    2    0  502 -0.81553513578E+02 -0.95013020142E+02 -0.66098686714E+03  0.69463018082E+03  0.17300000000E+03 0.  1.
<mgrwt>
<rscale>  2 0.21355901E+03</rscale>
<asrwt>0</asrwt>
<pdfrwt beam="1">  1       21 0.36287573E-02 0.21355901E+03</pdfrwt>
<pdfrwt beam="2">  1       21 0.36356344E+00 0.21355901E+03</pdfrwt>
<totfact> 0.65325346E+03</totfact>
</mgrwt>
</event>
<event>
 4    1  0.4035350E+000  0.2045151E+03  0.7546771E-02  0.1145985E+00
         21   -1    0    0  503  502  0.00000000000E+00  0.00000000000E+00  0.19067736515E+04  0.19067736515E+04  0.00000000000E+00 0. -1.
         21   -1    0    0  501  503 -0.00000000000E+00 -0.00000000000E+00 -0.80258154392E+02  0.80258154392E+02  0.00000000000E+00 0.  1.
          6    1    1    2  501    0  0.54137041028E+02  0.94692119057E+02  0.66326549933E+02  0.21500146011E+03  0.17300000000E+03 0.  1.
         -6    1    1    2    0  502 -0.54137041028E+02 -0.94692119057E+02  0.17601889472E+04  0.17720303458E+04  0.17300000000E+03 0. -1.
<mgrwt>
<rscale>  2 0.20451508E+03</rscale>
<asrwt>0</asrwt>
<pdfrwt beam="1">  1       21 0.29334976E+00 0.20451508E+03</pdfrwt>
<pdfrwt beam="2">  1       21 0.12347410E-01 0.20451508E+03</pdfrwt>
<totfact> 0.20488704E+03</totfact>
</mgrwt>
</event>
<event>
 4    1  0.4035350E+000  0.2683510E+03  0.7546771E-02  0.1102227E+00
         21   -1    0    0  503  502  0.00000000000E+00  0.00000000000E+00  0.42984786693E+03  0.42984786693E+03  0.00000000000E+00 0. -1.
         21   -1    0    0  501  503 -0.00000000000E+00 -0.00000000000E+00 -0.17202437535E+03  0.17202437535E+03  0.00000000000E+00 0.  1.
          6    1    1    2  501    0  0.42407044794E+01  0.20509815972E+03  0.80267261705E+02  0.28009832559E+03  0.17300000000E+03 0. -1.
         -6    1    1    2    0  502 -0.42407044794E+01 -0.20509815972E+03  0.17755622987E+03  0.32177391669E+03  0.17300000000E+03 0.  1.
<mgrwt>
<rscale>  2 0.26835096E+03</rscale>
<asrwt>0</asrwt>
<pdfrwt beam="1">  1       21 0.66130441E-01 0.26835096E+03</pdfrwt>
<pdfrwt beam="2">  1       21 0.26465289E-01 0.26835096E+03</pdfrwt>
<totfact> 0.27462371E+04</totfact>
</mgrwt>
</event>
<event>
 4    1  0.4035350E+000  0.1739520E+03  0.7546771E-02  0.1173788E+00
         21   -1    0    0  501  502  0.00000000000E+00  0.00000000000E+00  0.41925057669E+03  0.41925057669E+03  0.00000000000E+00 0.  1.
         21   -1    0    0  502  503 -0.00000000000E+00 -0.00000000000E+00 -0.84602122488E+02  0.84602122488E+02  0.00000000000E+00 0.  1.
          6    1    1    2  501    0  0.22813760935E+01 -0.18030326955E+02  0.70769628270E+02  0.18779679883E+03  0.17300000000E+03 0.  1.
         -6    1    1    2    0  503 -0.22813760935E+01  0.18030326955E+02  0.26387882593E+03  0.31605590034E+03  0.17300000000E+03 0.  1.
<mgrwt>
<rscale>  2 0.17395200E+03</rscale>
<asrwt>0</asrwt>
<pdfrwt beam="1">  1       21 0.64500087E-01 0.17395200E+03</pdfrwt>
<pdfrwt beam="2">  1       21 0.13015711E-01 0.17395200E+03</pdfrwt>
<totfact> 0.11320449E+05</totfact>
</mgrwt>
</event>
<event>
 4    1  0.4035350E+000  0.2060908E+03  0.7546771E-02  0.1144700E+00
         21   -1    0    0  501  502  0.00000000000E+00  0.00000000000E+00  0.17002376099E+02  0.17002376099E+02  0.00000000000E+00 0. -1.
         21   -1    0    0  502  503 -0.00000000000E+00 -0.00000000000E+00 -0.25052803453E+04  0.25052803453E+04  0.00000000000E+00 0. -1.
          6    1    1    2  501    0  0.10979845172E+03  0.22106780188E+02 -0.13117176926E+04  0.13278089903E+04  0.17300000000E+03 0. -1.
         -6    1    1    2    0  503 -0.10979845172E+03 -0.22106780188E+02 -0.11765602766E+04  0.11944737311E+04  0.17300000000E+03 0. -1.
<mgrwt>
<rscale>  2 0.20609078E+03</rscale>
<asrwt>0</asrwt>
<pdfrwt beam="1">  1       21 0.26157506E-02 0.20609078E+03</pdfrwt>
<pdfrwt beam="2">  1       21 0.38542768E+00 0.20609078E+03</pdfrwt>
<totfact> 0.83607184E+03</totfact>
</mgrwt>
</event>
<event>
 4    1  0.4035350E+000  0.1820047E+03  0.7546771E-02  0.1165877E+00
         21   -1    0    0  503  502  0.00000000000E+00  0.00000000000E+00  0.37200476781E+03  0.37200476781E+03  0.00000000000E+00 0. -1.
         21   -1    0    0  501  503 -0.00000000000E+00 -0.00000000000E+00 -0.11300454932E+03  0.11300454932E+03  0.00000000000E+00 0.  1.
          6    1    1    2  501    0  0.22235359077E+02  0.51983819171E+02  0.17840089335E+02  0.18287700084E+03  0.17300000000E+03 0.  1.
         -6    1    1    2    0  502 -0.22235359077E+02 -0.51983819171E+02  0.24116012916E+03  0.30213231629E+03  0.17300000000E+03 0. -1.
<mgrwt>
<rscale>  2 0.18200475E+03</rscale>
<asrwt>0</asrwt>
<pdfrwt beam="1">  1       21 0.57231502E-01 0.18200475E+03</pdfrwt>
<pdfrwt beam="2">  1       21 0.17385315E-01 0.18200475E+03</pdfrwt>
<totfact> 0.86182832E+04</totfact>
</mgrwt>
</event>
<event>
 4    1  0.4035350E+000  0.2035603E+03  0.7546771E-02  0.1146770E+00
         21   -1    0    0  503  502  0.00000000000E+00  0.00000000000E+00  0.39719273019E+02  0.39719273019E+02  0.00000000000E+00 0. -1.
         21   -1    0    0  501  503 -0.00000000000E+00 -0.00000000000E+00 -0.10693829521E+04  0.10693829521E+04  0.00000000000E+00 0. -1.
          6    1    1    2  501    0 -0.10379294708E+03  0.27107235696E+02 -0.60153663654E+03  0.63504574890E+03  0.17300000000E+03 0. -1.
         -6    1    1    2    0  502  0.10379294708E+03 -0.27107235696E+02 -0.42812704249E+03  0.47405647618E+03  0.17300000000E+03 0. -1.
<mgrwt>
<rscale>  2 0.20356026E+03</rscale>
<asrwt>0</asrwt>
<pdfrwt beam="1">  1       21 0.61106573E-02 0.20356026E+03</pdfrwt>
<pdfrwt beam="2">  1       21 0.16452046E+00 0.20356026E+03</pdfrwt>
<totfact> 0.44309815E+04</totfact>
</mgrwt>
</event>
<event>
 4    1  0.4035350E+000  0.1791792E+03  0.7546771E-02  0.1168600E+00
         21   -1    0    0  503  502  0.00000000000E+00  0.00000000000E+00  0.19298358520E+04  0.19298358520E+04  0.00000000000E+00 0.  1.
         21   -1    0    0  501  503 -0.00000000000E+00 -0.00000000000E+00 -0.21902580992E+02  0.21902580992E+02  0.00000000000E+00 0.  1.
          6    1    1    2  501    0 -0.40939367216E+02 -0.22364287567E+02  0.47544798389E+03  0.50809052199E+03  0.17300000000E+03 0.  1.
         -6    1    1    2    0  502  0.40939367216E+02  0.22364287567E+02  0.14324852871E+04  0.14436479110E+04  0.17300000000E+03 0.  1.
<mgrwt>
<rscale>  2 0.17917922E+03</rscale>
<asrwt>0</asrwt>
<pdfrwt beam="1">  1       21 0.29689769E+00 0.17917922E+03</pdfrwt>
<pdfrwt beam="2">  1       21 0.33696294E-02 0.17917922E+03</pdfrwt>
<totfact> 0.18818515E+04</totfact>
</mgrwt>
</event>
<event>
 4    1  0.4035350E+000  0.1855479E+03  0.7546771E-02  0.1162539E+00
         21   -1    0    0  501  502  0.00000000000E+00  0.00000000000E+00  0.56554225355E+02  0.56554225355E+02  0.00000000000E+00 0.  1.
         21   -1    0    0  502  503 -0.00000000000E+00 -0.00000000000E+00 -0.89207599642E+03  0.89207599642E+03  0.00000000000E+00 0.  1.
          6    1    1    2  501    0 -0.41796044963E+02  0.52460594163E+02 -0.15045988065E+03  0.23888532604E+03  0.17300000000E+03 0.  1.
         -6    1    1    2    0  503  0.41796044963E+02 -0.52460594163E+02 -0.68506189042E+03  0.70974489573E+03  0.17300000000E+03 0.  1.
<mgrwt>
<rscale>  2 0.18554790E+03</rscale>
<asrwt>0</asrwt>
<pdfrwt beam="1">  1       21 0.87006505E-02 0.18554790E+03</pdfrwt>
<pdfrwt beam="2">  1       21 0.13724245E+00 0.18554790E+03</pdfrwt>
<totfact> 0.39197153E+04</totfact>
</mgrwt>
</event>
<event>
 4    1  0.4035350E+000  0.1732011E+03  0.7546771E-02  0.1174550E+00
         21   -1    0    0  501  502  0.00000000000E+00  0.00000000000E+00  0.86869468412E+03  0.86869468412E+03  0.00000000000E+00 0. -1.
         21   -1    0    0  502  503 -0.00000000000E+00 -0.00000000000E+00 -0.36304604958E+02  0.36304604958E+02  0.00000000000E+00 0. -1.
          6    1    1    2  501    0  0.83118562894E+01 -0.72636860903E+00  0.51615440801E+03  0.54443914947E+03  0.17300000000E+03 0. -1.
         -6    1    1    2    0  503 -0.83118562894E+01  0.72636860903E+00  0.31623567115E+03  0.36056013961E+03  0.17300000000E+03 0. -1.
<mgrwt>
<rscale>  2 0.17320108E+03</rscale>
<asrwt>0</asrwt>
<pdfrwt beam="1">  1       21 0.13364532E+00 0.17320108E+03</pdfrwt>
<pdfrwt beam="2">  1       21 0.55853245E-02 0.17320108E+03</pdfrwt>
<totfact> 0.90636347E+04</totfact>
</mgrwt>
</event>
<event>
 4    1  0.4035350E+000  0.1832711E+03  0.7546771E-02  0.1164674E+00
         21   -1    0    0  501  502  0.00000000000E+00  0.00000000000E+00  0.20940325190E+03  0.20940325190E+03  0.00000000000E+00 0.  1.
         21   -1    0    0  502  503 -0.00000000000E+00 -0.00000000000E+00 -0.16264094434E+03  0.16264094434E+03  0.00000000000E+00 0.  1.
          6    1    1    2  501    0  0.58937091251E+02  0.13627987787E+02  0.15460463984E+01  0.18327763921E+03  0.17300000000E+03 0.  1.
         -6    1    1    2    0  503 -0.58937091251E+02 -0.13627987787E+02  0.45216261162E+02  0.18876655702E+03  0.17300000000E+03 0.  1.
<mgrwt>
<rscale>  2 0.18327112E+03</rscale>
<asrwt>0</asrwt>
<pdfrwt beam="1">  1       21 0.32215885E-01 0.18327112E+03</pdfrwt>
<pdfrwt beam="2">  1       21 0.25021684E-01 0.18327112E+03</pdfrwt>
<totfact> 0.14059602E+05</totfact>
</mgrwt>
</event>
<event>
 4    1  0.4035350E+000  0.1903425E+03  0.7546771E-02  0.1158153E+00
         21   -1    0    0  503  502  0.00000000000E+00  0.00000000000E+00  0.26388643774E+03  0.26388643774E+03  0.00000000000E+00 0. -1.
         21   -1    0    0  501  503 -0.00000000000E+00 -0.00000000000E+00 -0.16198427679E+03  0.16198427679E+03  0.00000000000E+00 0.  1.
          6    1    1    2  501    0 -0.73775827820E+02  0.29298495685E+02 -0.32180492100E+02  0.19304367043E+03  0.17300000000E+03 0.  1.
         -6    1    1    2    0  502  0.73775827820E+02 -0.29298495685E+02  0.13408265304E+03  0.23282704411E+03  0.17300000000E+03 0.  1.
<mgrwt>
<rscale>  2 0.19034252E+03</rscale>
<asrwt>0</asrwt>
<pdfrwt beam="1">  1       21 0.40597913E-01 0.19034252E+03</pdfrwt>
<pdfrwt beam="2">  1       21 0.24920658E-01 0.19034252E+03</pdfrwt>
<totfact> 0.89161421E+04</totfact>
</mgrwt>
</event>
<event>
 4    1  0.4035350E+000  0.2517508E+03  0.7546771E-02  0.1112203E+00
         21   -1    0    0  503  502  0.00000000000E+00  0.00000000000E+00  0.14690390874E+03  0.14690390874E+03  0.00000000000E+00 0. -1.
         21   -1    0    0  501  503 -0.00000000000E+00 -0.00000000000E+00 -0.70636605378E+03  0.70636605378E+03  0.00000000000E+00 0.  1.
          6    1    1    2  501    0 -0.27219193429E+02 -0.18085511455E+03 -0.54590100403E+03  0.60115419249E+03  0.17300000000E+03 0.  1.
         -6    1    1    2    0  502  0.27219193429E+02  0.18085511455E+03 -0.13561141006E+02  0.25211577003E+03  0.17300000000E+03 0. -1.
<mgrwt>
<rscale>  2 0.25175078E+03</rscale>
<asrwt>0</asrwt>
<pdfrwt beam="1">  1       21 0.22600601E-01 0.25175078E+03</pdfrwt>
<pdfrwt beam="2">  1       21 0.10867170E+00 0.25175078E+03</pdfrwt>
<totfact> 0.11893284E+04</totfact>
</mgrwt>
</event>
<event>
 4    1  0.4035350E+000  0.2194808E+03  0.7546771E-02  0.1134271E+00
         21   -1    0    0  501  502  0.00000000000E+00  0.00000000000E+00  0.43870544992E+03  0.43870544992E+03  0.00000000000E+00 0. -1.
         21   -1    0    0  502  503 -0.00000000000E+00 -0.00000000000E+00 -0.15656387210E+03  0.15656387210E+03  0.00000000000E+00 0.  1.
          6    1    1    2  501    0  0.18834609411E+02  0.13374638507E+03  0.30372750735E+03  0.37472955148E+03  0.17300000000E+03 0. -1.
         -6    1    1    2    0  503 -0.18834609411E+02 -0.13374638507E+03 -0.21585929536E+02  0.22053977053E+03  0.17300000000E+03 0.  1.
<mgrwt>
<rscale>  2 0.21948084E+03</rscale>
<asrwt>0</asrwt>
<pdfrwt beam="1">  1       21 0.67493146E-01 0.21948084E+03</pdfrwt>
<pdfrwt beam="2">  1       21 0.24086750E-01 0.21948084E+03</pdfrwt>
<totfact> 0.32180464E+04</totfact>
</mgrwt>
</event>
<event>
 4    1  0.4035350E+000  0.2269712E+03  0.7546771E-02  0.1128790E+00
         21   -1    0    0  503  502  0.00000000000E+00  0.00000000000E+00  0.24335150252E+03  0.24335150252E+03  0.00000000000E+00 0.  1.
         21   -1    0    0  501  503 -0.00000000000E+00 -0.00000000000E+00 -0.21574606766E+03  0.21574606766E+03  0.00000000000E+00 0.  1.
          6    1    1    2  501    0  0.14130766481E+03  0.40237692039E+02 -0.17658057750E+02  0.22765705567E+03  0.17300000000E+03 0.  1.
         -6    1    1    2    0  502 -0.14130766481E+03 -0.40237692039E+02  0.45263492606E+02  0.23144051451E+03  0.17300000000E+03 0.  1.
<mgrwt>
<rscale>  2 0.22697121E+03</rscale>
<asrwt>0</asrwt>
<pdfrwt beam="1">  1       21 0.37438693E-01 0.22697121E+03</pdfrwt>
<pdfrwt beam="2">  1       21 0.33191703E-01 0.22697121E+03</pdfrwt>
<totfact> 0.59224612E+04</totfact>
</mgrwt>
</event>
<event>
 4    1  0.4035350E+000  0.1940945E+03  0.7546771E-02  0.1154819E+00
         21   -1    0    0  501  502  0.00000000000E+00  0.00000000000E+00  0.73951996823E+02  0.73951996823E+02  0.00000000000E+00 0. -1.
         21   -1    0    0  502  503 -0.00000000000E+00 -0.00000000000E+00 -0.51006620889E+03  0.51006620889E+03  0.00000000000E+00 0. -1.
          6    1    1    2  501    0  0.11377396020E+02  0.87259627886E+02 -0.22844409314E+03  0.29976556088E+03  0.17300000000E+03 0. -1.
         -6    1    1    2    0  503 -0.11377396020E+02 -0.87259627886E+02 -0.20767011892E+03  0.28425264483E+03  0.17300000000E+03 0. -1.
<mgrwt>
<rscale>  2 0.19409453E+03</rscale>
<asrwt>0</asrwt>
<pdfrwt beam="1">  1       21 0.11377231E-01 0.19409453E+03</pdfrwt>
<pdfrwt beam="2">  1       21 0.78471722E-01 0.19409453E+03</pdfrwt>
<totfact> 0.92662417E+04</totfact>
</mgrwt>
</event>
<event>
 4    1  0.4035350E+000  0.1789011E+03  0.7546771E-02  0.1168871E+00
         21   -1    0    0  501  502  0.00000000000E+00  0.00000000000E+00  0.37351068782E+03  0.37351068782E+03  0.00000000000E+00 0.  1.
         21   -1    0    0  502  503 -0.00000000000E+00 -0.00000000000E+00 -0.28723396538E+03  0.28723396538E+03  0.00000000000E+00 0.  1.
          6    1    1    2  501    0  0.31647799572E+02 -0.32787337130E+02  0.31987853972E+03  0.36650767095E+03  0.17300000000E+03 0.  1.
         -6    1    1    2    0  503 -0.31647799572E+02  0.32787337130E+02 -0.23360181727E+03  0.29423698225E+03  0.17300000000E+03 0.  1.
<mgrwt>
<rscale>  2 0.17890107E+03</rscale>
<asrwt>0</asrwt>
<pdfrwt beam="1">  1       21 0.57463183E-01 0.17890107E+03</pdfrwt>
<pdfrwt beam="2">  1       21 0.44189841E-01 0.17890107E+03</pdfrwt>
<totfact> 0.14104071E+04</totfact>
</mgrwt>
</event>
<event>
 4    1  0.4035350E+000  0.4051757E+03  0.7546771E-02  0.1042002E+00
         21   -1    0    0  501  502  0.00000000000E+00  0.00000000000E+00  0.73691420000E+03  0.73691420000E+03  0.00000000000E+00 0.  1.
         21   -1    0    0  502  503 -0.00000000000E+00 -0.00000000000E+00 -0.28212739700E+03  0.28212739700E+03  0.00000000000E+00 0. -1.
          6    1    1    2  501    0  0.36486167015E+03 -0.33380941206E+02  0.46108986381E+03  0.61381690111E+03  0.17300000000E+03 0.  1.
         -6    1    1    2    0  503 -0.36486167015E+03  0.33380941206E+02 -0.63030608049E+01  0.40522469589E+03  0.17300000000E+03 0. -1.
<mgrwt>
<rscale>  2 0.40517567E+03</rscale>
<asrwt>0</asrwt>
<pdfrwt beam="1">  1       21 0.11337141E+00 0.40517567E+03</pdfrwt>
<pdfrwt beam="2">  1       21 0.43404215E-01 0.40517567E+03</pdfrwt>
<totfact> 0.27297448E+03</totfact>
</mgrwt>
</event>
<event>
 4    1  0.4035350E+000  0.2008718E+03  0.7546771E-02  0.1149006E+00
         21   -1    0    0  501  502  0.00000000000E+00  0.00000000000E+00  0.32440480964E+02  0.32440480964E+02  0.00000000000E+00 0. -1.
         21   -1    0    0  502  503 -0.00000000000E+00 -0.00000000000E+00 -0.14424665881E+04  0.14424665881E+04  0.00000000000E+00 0. -1.
          6    1    1    2  501    0  0.46362655074E+02  0.90944841532E+02 -0.43133212049E+03  0.47581178858E+03  0.17300000000E+03 0. -1.
         -6    1    1    2    0  503 -0.46362655074E+02 -0.90944841532E+02 -0.97869398663E+03  0.99909528047E+03  0.17300000000E+03 0. -1.
<mgrwt>
<rscale>  2 0.20087175E+03</rscale>
<asrwt>0</asrwt>
<pdfrwt beam="1">  1       21 0.49908425E-02 0.20087175E+03</pdfrwt>
<pdfrwt beam="2">  1       21 0.22191797E+00 0.20087175E+03</pdfrwt>
<totfact> 0.26252100E+04</totfact>
</mgrwt>
</event>
<event>
 4    1  0.4035350E+000  0.1790827E+03  0.7546771E-02  0.1168694E+00
         21   -1    0    0  503  502  0.00000000000E+00  0.00000000000E+00  0.62430965944E+03  0.62430965944E+03  0.00000000000E+00 0. -1.
         21   -1    0    0  501  503 -0.00000000000E+00 -0.00000000000E+00 -0.51424130920E+02  0.51424130920E+02  0.00000000000E+00 0. -1.
          6    1    1    2  501    0  0.30799200783E+02 -0.34540050140E+02  0.27545151227E+03  0.32854853742E+03  0.17300000000E+03 0.  1.
         -6    1    1    2    0  502 -0.30799200783E+02  0.34540050140E+02  0.29743401626E+03  0.34718525294E+03  0.17300000000E+03 0.  1.
<mgrwt>
<rscale>  2 0.17908268E+03</rscale>
<asrwt>0</asrwt>
<pdfrwt beam="1">  1       21 0.96047635E-01 0.17908268E+03</pdfrwt>
<pdfrwt beam="2">  1       21 0.79114052E-02 0.17908268E+03</pdfrwt>
<totfact> 0.11105603E+05</totfact>
</mgrwt>
</event>
<event>
 4    1  0.4035350E+000  0.1846092E+03  0.7546771E-02  0.1163415E+00
         21   -1    0    0  503  502  0.00000000000E+00  0.00000000000E+00  0.12486337464E+04  0.12486337464E+04  0.00000000000E+00 0.  1.
         21   -1    0    0  501  503 -0.00000000000E+00 -0.00000000000E+00 -0.32151752776E+02  0.32151752776E+02  0.00000000000E+00 0.  1.
          6    1    1    2  501    0  0.16093321476E+02  0.62390490677E+02  0.85715477476E+03  0.87680948684E+03  0.17300000000E+03 0.  1.
         -6    1    1    2    0  502 -0.16093321476E+02 -0.62390490677E+02  0.35932721884E+03  0.40397601231E+03  0.17300000000E+03 0.  1.
<mgrwt>
<rscale>  2 0.18460923E+03</rscale>
<asrwt>0</asrwt>
<pdfrwt beam="1">  1       21 0.19209746E+00 0.18460923E+03</pdfrwt>
<pdfrwt beam="2">  1       21 0.49464245E-02 0.18460923E+03</pdfrwt>
<totfact> 0.41613315E+04</totfact>
</mgrwt>
</event>
<event>
 4    1  0.4035350E+000  0.1742975E+03  0.7546771E-02  0.1173439E+00
         21   -1    0    0  503  502  0.00000000000E+00  0.00000000000E+00  0.29917122052E+02  0.29917122052E+02  0.00000000000E+00 0.  1.
         21   -1    0    0  501  503 -0.00000000000E+00 -0.00000000000E+00 -0.18770211742E+04  0.18770211742E+04  0.00000000000E+00 0.  1.
          6    1    1    2  501    0  0.13756212844E+02  0.16167065537E+02 -0.15695265637E+04  0.15791748610E+04  0.17300000000E+03 0.  1.
         -6    1    1    2    0  502 -0.13756212844E+02 -0.16167065537E+02 -0.27757748838E+03  0.32776343520E+03  0.17300000000E+03 0.  1.
<mgrwt>
<rscale>  2 0.17429747E+03</rscale>
<asrwt>0</asrwt>
<pdfrwt beam="1">  1       21 0.46026323E-02 0.17429747E+03</pdfrwt>
<pdfrwt beam="2">  1       21 0.28877260E+00 0.17429747E+03</pdfrwt>
<totfact> 0.12500584E+04</totfact>
</mgrwt>
</event>
<event>
 4    1  0.4035350E+000  0.1888586E+03  0.7546771E-02  0.1159495E+00
         21   -1    0    0  503  502  0.00000000000E+00  0.00000000000E+00  0.14789271918E+04  0.14789271918E+04  0.00000000000E+00 0.  1.
         21   -1    0    0  501  503 -0.00000000000E+00 -0.00000000000E+00 -0.49111358298E+02  0.49111358298E+02  0.00000000000E+00 0.  1.
          6    1    1    2  501    0  0.62605255838E+02 -0.42651520434E+02  0.16986252196E+03  0.25400954041E+03  0.17300000000E+03 0.  1.
         -6    1    1    2    0  502 -0.62605255838E+02  0.42651520434E+02  0.12599533115E+04  0.12740290097E+04  0.17300000000E+03 0.  1.
<mgrwt>
<rscale>  2 0.18885860E+03</rscale>
<asrwt>0</asrwt>
<pdfrwt beam="1">  1       21 0.22752723E+00 0.18885860E+03</pdfrwt>
<pdfrwt beam="2">  1       21 0.75555947E-02 0.18885860E+03</pdfrwt>
<totfact> 0.12036805E+04</totfact>
</mgrwt>
</event>
<event>
 4    1  0.4035350E+000  0.1760791E+03  0.7546771E-02  0.1171653E+00
         21   -1    0    0  501  502  0.00000000000E+00  0.00000000000E+00  0.94843358613E+02  0.94843358613E+02  0.00000000000E+00 0. -1.
         21   -1    0    0  502  503 -0.00000000000E+00 -0.00000000000E+00 -0.56630741945E+03  0.56630741945E+03  0.00000000000E+00 0. -1.
          6    1    1    2  501    0 -0.32654754804E+02  0.29187603143E+01 -0.20791943933E+02  0.17730244529E+03  0.17300000000E+03 0. -1.
         -6    1    1    2    0  503  0.32654754804E+02 -0.29187603143E+01 -0.45067211690E+03  0.48384833277E+03  0.17300000000E+03 0. -1.
<mgrwt>
<rscale>  2 0.17607911E+03</rscale>
<asrwt>0</asrwt>
<pdfrwt beam="1">  1       21 0.14591286E-01 0.17607911E+03</pdfrwt>
<pdfrwt beam="2">  1       21 0.87124216E-01 0.17607911E+03</pdfrwt>
<totfact> 0.47096685E+04</totfact>
</mgrwt>
</event>
<event>
 4    1  0.4035350E+000  0.1877258E+03  0.7546771E-02  0.1160529E+00
         21   -1    0    0  503  502  0.00000000000E+00  0.00000000000E+00  0.67476727310E+03  0.67476727310E+03  0.00000000000E+00 0. -1.
         21   -1    0    0  501  503 -0.00000000000E+00 -0.00000000000E+00 -0.14843552972E+03  0.14843552972E+03  0.00000000000E+00 0. -1.
          6    1    1    2  501    0  0.27769210897E+02  0.67385719084E+02 -0.68205553311E+02  0.19973222502E+03  0.17300000000E+03 0. -1.
         -6    1    1    2    0  502 -0.27769210897E+02 -0.67385719084E+02  0.59453729670E+03  0.62347057780E+03  0.17300000000E+03 0. -1.
<mgrwt>
<rscale>  2 0.18772577E+03</rscale>
<asrwt>0</asrwt>
<pdfrwt beam="1">  1       21 0.10381035E+00 0.18772577E+03</pdfrwt>
<pdfrwt beam="2">  1       21 0.22836236E-01 0.18772577E+03</pdfrwt>
<totfact> 0.13552531E+04</totfact>
</mgrwt>
</event>
<event>
 4    1  0.4035350E+000  0.2599489E+03  0.7546771E-02  0.1107174E+00
         21   -1    0    0  501  502  0.00000000000E+00  0.00000000000E+00  0.12205583359E+04  0.12205583359E+04  0.00000000000E+00 0. -1.
         21   -1    0    0  502  503 -0.00000000000E+00 -0.00000000000E+00 -0.96858944046E+02  0.96858944046E+02  0.00000000000E+00 0.  1.
          6    1    1    2  501    0 -0.19263151542E+03 -0.23184762692E+02  0.99299907531E+03  0.10264602270E+04  0.17300000000E+03 0. -1.
         -6    1    1    2    0  503  0.19263151542E+03  0.23184762692E+02  0.13070031659E+03  0.29095705303E+03  0.17300000000E+03 0.  1.
<mgrwt>
<rscale>  2 0.25994891E+03</rscale>
<asrwt>0</asrwt>
<pdfrwt beam="1">  1       21 0.18777819E+00 0.25994891E+03</pdfrwt>
<pdfrwt beam="2">  1       21 0.14901377E-01 0.25994891E+03</pdfrwt>
<totfact> 0.60813546E+03</totfact>
</mgrwt>
</event>
<event>
 4    1  0.4035350E+000  0.1869777E+03  0.7546771E-02  0.1161216E+00
         21   -1    0    0  503  502  0.00000000000E+00  0.00000000000E+00  0.56072667464E+02  0.56072667464E+02  0.00000000000E+00 0. -1.
         21   -1    0    0  501  503 -0.00000000000E+00 -0.00000000000E+00 -0.63047027665E+03  0.63047027665E+03  0.00000000000E+00 0.  1.
          6    1    1    2  501    0  0.70500926320E+02 -0.78270750640E+01 -0.32332308941E+03  0.37349493150E+03  0.17300000000E+03 0.  1.
         -6    1    1    2    0  502 -0.70500926320E+02  0.78270750640E+01 -0.25107451978E+03  0.31304801261E+03  0.17300000000E+03 0.  1.
<mgrwt>
<rscale>  2 0.18697766E+03</rscale>
<asrwt>0</asrwt>
<pdfrwt beam="1">  1       21 0.86265641E-02 0.18697766E+03</pdfrwt>
<pdfrwt beam="2">  1       21 0.96995428E-01 0.18697766E+03</pdfrwt>
<totfact> 0.93039458E+04</totfact>
</mgrwt>
</event>
<event>
 4    1  0.4035350E+000  0.1872750E+03  0.7546771E-02  0.1160942E+00
         21   -1    0    0  501  502  0.00000000000E+00  0.00000000000E+00  0.63304139649E+02  0.63304139649E+02  0.00000000000E+00 0.  1.
         21   -1    0    0  502  503 -0.00000000000E+00 -0.00000000000E+00 -0.66581791999E+03  0.66581791999E+03  0.00000000000E+00 0.  1.
          6    1    1    2  501    0  0.17117660269E+02  0.69641405042E+02 -0.15187297517E+03  0.24111686000E+03  0.17300000000E+03 0.  1.
         -6    1    1    2    0  503 -0.17117660269E+02 -0.69641405042E+02 -0.45064080517E+03  0.48800519964E+03  0.17300000000E+03 0.  1.
<mgrwt>
<rscale>  2 0.18727504E+03</rscale>
<asrwt>0</asrwt>
<pdfrwt beam="1">  1       21 0.97390993E-02 0.18727504E+03</pdfrwt>
<pdfrwt beam="2">  1       21 0.10243352E+00 0.18727504E+03</pdfrwt>
<totfact> 0.66075813E+04</totfact>
</mgrwt>
</event>
<event>
 4    1  0.4035350E+000  0.2086237E+03  0.7546771E-02  0.1142661E+00
         21   -1    0    0  503  502  0.00000000000E+00  0.00000000000E+00  0.34470199444E+03  0.34470199444E+03  0.00000000000E+00 0.  1.
         21   -1    0    0  501  503 -0.00000000000E+00 -0.00000000000E+00 -0.13194459448E+03  0.13194459448E+03  0.00000000000E+00 0. -1.
          6    1    1    2  501    0  0.11636818674E+03  0.73003034092E+01  0.56933562320E+02  0.21625281462E+03  0.17300000000E+03 0.  1.
         -6    1    1    2    0  502 -0.11636818674E+03 -0.73003034092E+01  0.15582383765E+03  0.26039377430E+03  0.17300000000E+03 0.  1.
<mgrwt>
<rscale>  2 0.20862370E+03</rscale>
<asrwt>0</asrwt>
<pdfrwt beam="1">  1       21 0.53031076E-01 0.20862370E+03</pdfrwt>
<pdfrwt beam="2">  1       21 0.20299169E-01 0.20862370E+03</pdfrwt>
<totfact> 0.75101139E+04</totfact>
</mgrwt>
</event>
<event>
 4    1  0.4035350E+000  0.2264951E+03  0.7546771E-02  0.1129131E+00
         21   -1    0    0  501  502  0.00000000000E+00  0.00000000000E+00  0.12158917857E+04  0.12158917857E+04  0.00000000000E+00 0.  1.
         21   -1    0    0  502  503 -0.00000000000E+00 -0.00000000000E+00 -0.68726669471E+02  0.68726669471E+02  0.00000000000E+00 0. -1.
          6    1    1    2  501    0  0.14276322150E+02  0.14548962187E+03  0.97269398304E+03  0.99871598970E+03  0.17300000000E+03 0.  1.
         -6    1    1    2    0  503 -0.14276322150E+02 -0.14548962187E+03  0.17447113320E+03  0.28590246548E+03  0.17300000000E+03 0. -1.
<mgrwt>
<rscale>  2 0.22649513E+03</rscale>
<asrwt>0</asrwt>
<pdfrwt beam="1">  1       21 0.18706026E+00 0.22649513E+03</pdfrwt>
<pdfrwt beam="2">  1       21 0.10573335E-01 0.22649513E+03</pdfrwt>
<totfact> 0.11687926E+04</totfact>
</mgrwt>
</event>
<event>
 4    1  0.4035350E+000  0.1830446E+03  0.7546771E-02  0.1164889E+00
         21   -1    0    0  503  502  0.00000000000E+00  0.00000000000E+00  0.11743883198E+03  0.11743883198E+03  0.00000000000E+00 0. -1.
         21   -1    0    0  501  503 -0.00000000000E+00 -0.00000000000E+00 -0.74323732743E+03  0.74323732743E+03  0.00000000000E+00 0. -1.
          6    1    1    2  501    0  0.57395068103E+02  0.16796880425E+02 -0.65069090674E+03  0.67594673248E+03  0.17300000000E+03 0. -1.
         -6    1    1    2    0  502 -0.57395068103E+02 -0.16796880425E+02  0.24892411283E+02  0.18472942693E+03  0.17300000000E+03 0. -1.
<mgrwt>
<rscale>  2 0.18304461E+03</rscale>
<asrwt>0</asrwt>
<pdfrwt beam="1">  1       21 0.18067513E-01 0.18304461E+03</pdfrwt>
<pdfrwt beam="2">  1       21 0.11434420E+00 0.18304461E+03</pdfrwt>
<totfact> 0.16679770E+04</totfact>
</mgrwt>
</event>
<event>
 4    1  0.4035350E+000  0.2213806E+03  0.7546771E-02  0.1132858E+00
         21   -1    0    0  501  502  0.00000000000E+00  0.00000000000E+00  0.73305586817E+02  0.73305586817E+02  0.00000000000E+00 0. -1.
         21   -1    0    0  502  503 -0.00000000000E+00 -0.00000000000E+00 -0.10434900257E+04  0.10434900257E+04  0.00000000000E+00 0.  1.
          6    1    1    2  501    0  0.13352304810E+03 -0.35382878129E+02 -0.15037864520E+03  0.26762490424E+03  0.17300000000E+03 0. -1.
         -6    1    1    2    0  503 -0.13352304810E+03  0.35382878129E+02 -0.81980579373E+03  0.84917070832E+03  0.17300000000E+03 0.  1.
<mgrwt>
<rscale>  2 0.22138056E+03</rscale>
<asrwt>0</asrwt>
<pdfrwt beam="1">  1       21 0.11277783E-01 0.22138056E+03</pdfrwt>
<pdfrwt beam="2">  1       21 0.16053693E+00 0.22138056E+03</pdfrwt>
<totfact> 0.16030976E+04</totfact>
</mgrwt>
</event>
<event>
 4    1  0.4035350E+000  0.1971414E+03  0.7546771E-02  0.1152173E+00
         21   -1    0    0  501  502  0.00000000000E+00  0.00000000000E+00  0.13872425731E+03  0.13872425731E+03  0.00000000000E+00 0.  1.
         21   -1    0    0  502  503 -0.00000000000E+00 -0.00000000000E+00 -0.38563816731E+03  0.38563816731E+03  0.00000000000E+00 0.  1.
          6    1    1    2  501    0 -0.11726898031E+02 -0.93798740693E+02  0.13661770559E+02  0.19761418944E+03  0.17300000000E+03 0.  1.
         -6    1    1    2    0  503  0.11726898031E+02  0.93798740693E+02 -0.26057568056E+03  0.32674823518E+03  0.17300000000E+03 0.  1.
<mgrwt>
<rscale>  2 0.19714138E+03</rscale>
<asrwt>0</asrwt>
<pdfrwt beam="1">  1       21 0.21342193E-01 0.19714138E+03</pdfrwt>
<pdfrwt beam="2">  1       21 0.59328949E-01 0.19714138E+03</pdfrwt>
<totfact> 0.54136432E+04</totfact>
</mgrwt>
</event>
<event>
 4    1  0.4035350E+000  0.1897470E+03  0.7546771E-02  0.1158690E+00
         21   -1    0    0  501  502  0.00000000000E+00  0.00000000000E+00  0.55814159926E+02  0.55814159926E+02  0.00000000000E+00 0. -1.
         21   -1    0    0  502  503 -0.00000000000E+00 -0.00000000000E+00 -0.75801746994E+03  0.75801746994E+03  0.00000000000E+00 0. -1.
          6    1    1    2  501    0 -0.58055048616E+02  0.52005273496E+02 -0.50817654463E+03  0.54244570019E+03  0.17300000000E+03 0. -1.
         -6    1    1    2    0  503  0.58055048616E+02 -0.52005273496E+02 -0.19402676538E+03  0.27138592967E+03  0.17300000000E+03 0. -1.
<mgrwt>
<rscale>  2 0.18974703E+03</rscale>
<asrwt>0</asrwt>
<pdfrwt beam="1">  1       21 0.85867943E-02 0.18974703E+03</pdfrwt>
<pdfrwt beam="2">  1       21 0.11661807E+00 0.18974703E+03</pdfrwt>
<totfact> 0.60181414E+04</totfact>
</mgrwt>
</event>
<event>
 4    1  0.4035350E+000  0.2244313E+03  0.7546771E-02  0.1130622E+00
         21   -1    0    0  501  502  0.00000000000E+00  0.00000000000E+00  0.11001630716E+03  0.11001630716E+03  0.00000000000E+00 0.  1.
         21   -1    0    0  502  503 -0.00000000000E+00 -0.00000000000E+00 -0.47849933664E+03  0.47849933664E+03  0.00000000000E+00 0. -1.
          6    1    1    2  501    0 -0.47224842175E+02  0.13494532154E+03 -0.12309276001E+03  0.25597119582E+03  0.17300000000E+03 0.  1.
         -6    1    1    2    0  503  0.47224842175E+02 -0.13494532154E+03 -0.24539026947E+03  0.33254444797E+03  0.17300000000E+03 0. -1.
<mgrwt>
<rscale>  2 0.22443134E+03</rscale>
<asrwt>0</asrwt>
<pdfrwt beam="1">  1       21 0.16925585E-01 0.22443134E+03</pdfrwt>
<pdfrwt beam="2">  1       21 0.73615284E-01 0.22443134E+03</pdfrwt>
<totfact> 0.51342685E+04</totfact>
</mgrwt>
</event>
<event>
 4    1  0.4035350E+000  0.2597836E+03  0.7546771E-02  0.1107273E+00
         21   -1    0    0  503  502  0.00000000000E+00  0.00000000000E+00  0.38411790036E+03  0.38411790036E+03  0.00000000000E+00 0. -1.
         21   -1    0    0  501  503 -0.00000000000E+00 -0.00000000000E+00 -0.23660119598E+03  0.23660119598E+03  0.00000000000E+00 0. -1.
          6    1    1    2  501    0 -0.15138129467E+03 -0.12100500859E+03 -0.83708149568E+02  0.27293692089E+03  0.17300000000E+03 0. -1.
         -6    1    1    2    0  502  0.15138129467E+03  0.12100500859E+03  0.23122485395E+03  0.34778217546E+03  0.17300000000E+03 0. -1.
<mgrwt>
<rscale>  2 0.25978358E+03</rscale>
<asrwt>0</asrwt>
<pdfrwt beam="1">  1       21 0.59095062E-01 0.25978358E+03</pdfrwt>
<pdfrwt beam="2">  1       21 0.36400184E-01 0.25978358E+03</pdfrwt>
<totfact> 0.18789536E+04</totfact>
</mgrwt>
</event>
<event>
 4    1  0.4035350E+000  0.1831623E+03  0.7546771E-02  0.1164777E+00
         21   -1    0    0  503  502  0.00000000000E+00  0.00000000000E+00  0.84296827868E+03  0.84296827868E+03  0.00000000000E+00 0. -1.
         21   -1    0    0  501  503 -0.00000000000E+00 -0.00000000000E+00 -0.22076485485E+03  0.22076485485E+03  0.00000000000E+00 0. -1.
          6    1    1    2  501    0 -0.46048749964E+02 -0.38716111154E+02 -0.17044373500E+03  0.25019890375E+03  0.17300000000E+03 0. -1.
         -6    1    1    2    0  502  0.46048749964E+02  0.38716111154E+02  0.79264715883E+03  0.81353422979E+03  0.17300000000E+03 0. -1.
<mgrwt>
<rscale>  2 0.18316229E+03</rscale>
<asrwt>0</asrwt>
<pdfrwt beam="1">  1       21 0.12968743E+00 0.18316229E+03</pdfrwt>
<pdfrwt beam="2">  1       21 0.33963824E-01 0.18316229E+03</pdfrwt>
<totfact> 0.36623469E+03</totfact>
</mgrwt>
</event>
<event>
 4    1  0.4035350E+000  0.1748363E+03  0.7546771E-02  0.1172896E+00
         21   -1    0    0  501  502  0.00000000000E+00  0.00000000000E+00  0.93294379200E+03  0.93294379200E+03  0.00000000000E+00 0. -1.
         21   -1    0    0  502  503 -0.00000000000E+00 -0.00000000000E+00 -0.36980774339E+02  0.36980774339E+02  0.00000000000E+00 0. -1.
          6    1    1    2  501    0 -0.19682201793E+02  0.15853356669E+02  0.61172682079E+03  0.63622120466E+03  0.17300000000E+03 0. -1.
         -6    1    1    2    0  503  0.19682201793E+02 -0.15853356669E+02  0.28423619687E+03  0.33370336168E+03  0.17300000000E+03 0. -1.
<mgrwt>
<rscale>  2 0.17483626E+03</rscale>
<asrwt>0</asrwt>
<pdfrwt beam="1">  1       21 0.14352980E+00 0.17483626E+03</pdfrwt>
<pdfrwt beam="2">  1       21 0.56893506E-02 0.17483626E+03</pdfrwt>
<totfact> 0.73097344E+04</totfact>
</mgrwt>
</event>
<event>
 4    1  0.4035350E+000  0.1865912E+03  0.7546771E-02  0.1161572E+00
         21   -1    0    0  503  502  0.00000000000E+00  0.00000000000E+00  0.61054965528E+03  0.61054965528E+03  0.00000000000E+00 0. -1.
         21   -1    0    0  501  503 -0.00000000000E+00 -0.00000000000E+00 -0.57202742998E+02  0.57202742998E+02  0.00000000000E+00 0. -1.
          6    1    1    2  501    0  0.62534661097E+02  0.31252360290E+02  0.25803657620E+03  0.31843236098E+03  0.17300000000E+03 0. -1.
         -6    1    1    2    0  502 -0.62534661097E+02 -0.31252360290E+02  0.29531033608E+03  0.34932003730E+03  0.17300000000E+03 0. -1.
<mgrwt>
<rscale>  2 0.18659125E+03</rscale>
<asrwt>0</asrwt>
<pdfrwt beam="1">  1       21 0.93930712E-01 0.18659125E+03</pdfrwt>
<pdfrwt beam="2">  1       21 0.88004224E-02 0.18659125E+03</pdfrwt>
<totfact> 0.96878832E+04</totfact>
</mgrwt>
</event>
<event>
 4    1  0.4035350E+000  0.2122271E+03  0.7546771E-02  0.1139814E+00
         21   -1    0    0  503  502  0.00000000000E+00  0.00000000000E+00  0.12595777306E+04  0.12595777306E+04  0.00000000000E+00 0.  1.
         21   -1    0    0  501  503 -0.00000000000E+00 -0.00000000000E+00 -0.48707049812E+02  0.48707049812E+02  0.00000000000E+00 0.  1.
          6    1    1    2  501    0 -0.12289747486E+03 -0.27469956362E+01  0.26815532601E+03  0.34197604328E+03  0.17300000000E+03 0.  1.
         -6    1    1    2    0  502  0.12289747486E+03  0.27469956362E+01  0.94271535474E+03  0.96630873709E+03  0.17300000000E+03 0.  1.
<mgrwt>
<rscale>  2 0.21222708E+03</rscale>
<asrwt>0</asrwt>
<pdfrwt beam="1">  1       21 0.19378117E+00 0.21222708E+03</pdfrwt>
<pdfrwt beam="2">  1       21 0.74933932E-02 0.21222708E+03</pdfrwt>
<totfact> 0.19522691E+04</totfact>
</mgrwt>
</event>
<event>
 4    1  0.4035350E+000  0.2112073E+03  0.7546771E-02  0.1140613E+00
         21   -1    0    0  503  502  0.00000000000E+00  0.00000000000E+00  0.21586662032E+03  0.21586662032E+03  0.00000000000E+00 0. -1.
         21   -1    0    0  501  503 -0.00000000000E+00 -0.00000000000E+00 -0.86805309693E+03  0.86805309693E+03  0.00000000000E+00 0.  1.
          6    1    1    2  501    0  0.94812794212E+01 -0.12078755704E+03 -0.79916557890E+03  0.82660398686E+03  0.17300000000E+03 0.  1.
         -6    1    1    2    0  502 -0.94812794212E+01  0.12078755704E+03  0.14697910230E+03  0.25731573039E+03  0.17300000000E+03 0. -1.
<mgrwt>
<rscale>  2 0.21120731E+03</rscale>
<asrwt>0</asrwt>
<pdfrwt beam="1">  1       21 0.33210250E-01 0.21120731E+03</pdfrwt>
<pdfrwt beam="2">  1       21 0.13354663E+00 0.21120731E+03</pdfrwt>
<totfact> 0.34702087E+03</totfact>
</mgrwt>
</event>
<event>
 4    1  0.4035350E+000  0.1741718E+03  0.7546771E-02  0.1173566E+00
         21   -1    0    0  503  502  0.00000000000E+00  0.00000000000E+00  0.52628204377E+03  0.52628204377E+03  0.00000000000E+00 0.  1.
         21   -1    0    0  501  503 -0.00000000000E+00 -0.00000000000E+00 -0.91844976252E+02  0.91844976252E+02  0.00000000000E+00 0.  1.
          6    1    1    2  501    0  0.19505929136E+02  0.51324823321E+01  0.28613405205E+02  0.17650651717E+03  0.17300000000E+03 0.  1.
         -6    1    1    2    0  502 -0.19505929136E+02 -0.51324823321E+01  0.40582366232E+03  0.44162050285E+03  0.17300000000E+03 0.  1.
<mgrwt>
<rscale>  2 0.17417182E+03</rscale>
<asrwt>0</asrwt>
<pdfrwt beam="1">  1       21 0.80966466E-01 0.17417182E+03</pdfrwt>
<pdfrwt beam="2">  1       21 0.14129997E-01 0.17417182E+03</pdfrwt>
<totfact> 0.59035475E+04</totfact>
</mgrwt>
</event>
<event>
 4    1  0.4035350E+000  0.4106136E+03  0.7546771E-02  0.1040165E+00
         21   -1    0    0  503  502  0.00000000000E+00  0.00000000000E+00  0.35169461597E+03  0.35169461597E+03  0.00000000000E+00 0.  1.
         21   -1    0    0  501  503 -0.00000000000E+00 -0.00000000000E+00 -0.87652945285E+03  0.87652945285E+03  0.00000000000E+00 0.  1.
          6    1    1    2  501    0  0.40662590621E+02 -0.37016353698E+03 -0.67577766061E+03  0.79074581059E+03  0.17300000000E+03 0.  1.
         -6    1    1    2    0  502 -0.40662590621E+02  0.37016353698E+03  0.15094282373E+03  0.43747825823E+03  0.17300000000E+03 0.  1.
<mgrwt>
<rscale>  2 0.41061355E+03</rscale>
<asrwt>0</asrwt>
<pdfrwt beam="1">  1       21 0.54106864E-01 0.41061355E+03</pdfrwt>
<pdfrwt beam="2">  1       21 0.13485069E+00 0.41061355E+03</pdfrwt>
<totfact> 0.10977173E+03</totfact>
</mgrwt>
</event>
<event>
 4    1  0.4035350E+000  0.2316693E+03  0.7546771E-02  0.1125470E+00
         21   -1    0    0  501  502  0.00000000000E+00  0.00000000000E+00  0.55752755351E+02  0.55752755351E+02  0.00000000000E+00 0. -1.
         21   -1    0    0  502  503 -0.00000000000E+00 -0.00000000000E+00 -0.17734439470E+04  0.17734439470E+04  0.00000000000E+00 0.  1.
          6    1    1    2  501    0 -0.78105587575E+02 -0.13282007265E+03 -0.24043679880E+03  0.33388696999E+03  0.17300000000E+03 0. -1.
         -6    1    1    2    0  503  0.78105587575E+02  0.13282007265E+03 -0.14772543929E+04  0.14953097324E+04  0.17300000000E+03 0.  1.
<mgrwt>
<rscale>  2 0.23166928E+03</rscale>
<asrwt>0</asrwt>
<pdfrwt beam="1">  1       21 0.85773485E-02 0.23166928E+03</pdfrwt>
<pdfrwt beam="2">  1       21 0.27283748E+00 0.23166928E+03</pdfrwt>
<totfact> 0.49995566E+03</totfact>
</mgrwt>
</event>
<event>
 4    1  0.4035350E+000  0.1734119E+03  0.7546771E-02  0.1174336E+00
         21   -1    0    0  501  502  0.00000000000E+00  0.00000000000E+00  0.28881986038E+02  0.28881986038E+02  0.00000000000E+00 0.  1.
         21   -1    0    0  502  503 -0.00000000000E+00 -0.00000000000E+00 -0.10468448777E+04  0.10468448777E+04  0.00000000000E+00 0.  1.
          6    1    1    2  501    0 -0.11944381748E+02 -0.12863563064E+00 -0.46945604418E+03  0.50046045021E+03  0.17300000000E+03 0.  1.
         -6    1    1    2    0  503  0.11944381748E+02  0.12863563064E+00 -0.54850684746E+03  0.57526641351E+03  0.17300000000E+03 0.  1.
<mgrwt>
<rscale>  2 0.17341189E+03</rscale>
<asrwt>0</asrwt>
<pdfrwt beam="1">  1       21 0.44433821E-02 0.17341189E+03</pdfrwt>
<pdfrwt beam="2">  1       21 0.16105307E+00 0.17341189E+03</pdfrwt>
<totfact> 0.82029175E+04</totfact>
</mgrwt>
</event>
<event>
 4    1  0.4035350E+000  0.2088811E+03  0.7546771E-02  0.1142455E+00
         21   -1    0    0  501  502  0.00000000000E+00  0.00000000000E+00  0.17105390464E+04  0.17105390464E+04  0.00000000000E+00 0.  1.
         21   -1    0    0  502  503 -0.00000000000E+00 -0.00000000000E+00 -0.29532277334E+02  0.29532277334E+02  0.00000000000E+00 0.  1.
          6    1    1    2  501    0  0.49159983136E+02 -0.10623379867E+03  0.51930938374E+03  0.55974419154E+03  0.17300000000E+03 0.  1.
         -6    1    1    2    0  503 -0.49159983136E+02  0.10623379867E+03  0.11616973853E+04  0.11803271322E+04  0.17300000000E+03 0.  1.
<mgrwt>
<rscale>  2 0.20888112E+03</rscale>
<asrwt>0</asrwt>
<pdfrwt beam="1">  1       21 0.26315978E+00 0.20888112E+03</pdfrwt>
<pdfrwt beam="2">  1       21 0.45434286E-02 0.20888112E+03</pdfrwt>
<totfact> 0.17361642E+04</totfact>
</mgrwt>
</event>
<event>
 4    1  0.4035350E+000  0.2017831E+03  0.7546771E-02  0.1148243E+00
         21   -1    0    0  501  502  0.00000000000E+00  0.00000000000E+00  0.37345870029E+02  0.37345870029E+02  0.00000000000E+00 0. -1.
         21   -1    0    0  502  503 -0.00000000000E+00 -0.00000000000E+00 -0.15478469617E+04  0.15478469617E+04  0.00000000000E+00 0.  1.
          6    1    1    2  501    0  0.72761057202E+02  0.74116432301E+02 -0.11862022639E+04  0.12032423811E+04  0.17300000000E+03 0.  1.
         -6    1    1    2    0  503 -0.72761057202E+02 -0.74116432301E+02 -0.32429882778E+03  0.38195045056E+03  0.17300000000E+03 0. -1.
<mgrwt>
<rscale>  2 0.20178309E+03</rscale>
<asrwt>0</asrwt>
<pdfrwt beam="1">  1       21 0.57455188E-02 0.20178309E+03</pdfrwt>
<pdfrwt beam="2">  1       21 0.23813029E+00 0.20178309E+03</pdfrwt>
<totfact> 0.16468090E+04</totfact>
</mgrwt>
</event>
<event>
 4    1  0.4035350E+000  0.2505853E+03  0.7546771E-02  0.1112936E+00
         21   -1    0    0  501  502  0.00000000000E+00  0.00000000000E+00  0.14509921520E+04  0.14509921520E+04  0.00000000000E+00 0.  1.
         21   -1    0    0  502  503 -0.00000000000E+00 -0.00000000000E+00 -0.51383127391E+02  0.51383127391E+02  0.00000000000E+00 0. -1.
          6    1    1    2  501    0  0.14948501671E+03  0.10255829076E+03  0.40142109969E+03  0.47321440437E+03  0.17300000000E+03 0.  1.
         -6    1    1    2    0  503 -0.14948501671E+03 -0.10255829076E+03  0.99818792494E+03  0.10291608750E+04  0.17300000000E+03 0.  1.
<mgrwt>
<rscale>  2 0.25058526E+03</rscale>
<asrwt>0</asrwt>
<pdfrwt beam="1">  1       21 0.22322953E+00 0.25058526E+03</pdfrwt>
<pdfrwt beam="2">  1       21 0.79050976E-02 0.25058526E+03</pdfrwt>
<totfact> 0.11253305E+04</totfact>
</mgrwt>
</event>
<event>
 4    1  0.4035350E+000  0.1780263E+03  0.7546771E-02  0.1169727E+00
         21   -1    0    0  503  502  0.00000000000E+00  0.00000000000E+00  0.10955712588E+03  0.10955712588E+03  0.00000000000E+00 0.  1.
         21   -1    0    0  501  503 -0.00000000000E+00 -0.00000000000E+00 -0.28930042654E+03  0.28930042654E+03  0.00000000000E+00 0.  1.
          6    1    1    2  501    0 -0.40579784344E+02 -0.10845845178E+02 -0.91276139252E+02  0.20006170261E+03  0.17300000000E+03 0.  1.
         -6    1    1    2    0  502  0.40579784344E+02  0.10845845178E+02 -0.88467161401E+02  0.19879584981E+03  0.17300000000E+03 0.  1.
<mgrwt>
<rscale>  2 0.17802627E+03</rscale>
<asrwt>0</asrwt>
<pdfrwt beam="1">  1       21 0.16854943E-01 0.17802627E+03</pdfrwt>
<pdfrwt beam="2">  1       21 0.44507758E-01 0.17802627E+03</pdfrwt>
<totfact> 0.15433087E+05</totfact>
</mgrwt>
</event>
<event>
 4    1  0.4035350E+000  0.1792722E+03  0.7546771E-02  0.1168509E+00
         21   -1    0    0  501  502  0.00000000000E+00  0.00000000000E+00  0.78723189456E+03  0.78723189456E+03  0.00000000000E+00 0.  1.
         21   -1    0    0  502  503 -0.00000000000E+00 -0.00000000000E+00 -0.48332164925E+02  0.48332164925E+02  0.00000000000E+00 0.  1.
          6    1    1    2  501    0  0.45317801544E+02 -0.12482337695E+02  0.53410605705E+03  0.56338955623E+03  0.17300000000E+03 0.  1.
         -6    1    1    2    0  503 -0.45317801544E+02  0.12482337695E+02  0.20479367258E+03  0.27217450325E+03  0.17300000000E+03 0.  1.
<mgrwt>
<rscale>  2 0.17927217E+03</rscale>
<asrwt>0</asrwt>
<pdfrwt beam="1">  1       21 0.12111259E+00 0.17927217E+03</pdfrwt>
<pdfrwt beam="2">  1       21 0.74357183E-02 0.17927217E+03</pdfrwt>
<totfact> 0.70779843E+04</totfact>
</mgrwt>
</event>
<event>
 4    1  0.4035350E+000  0.3198047E+03  0.7546771E-02  0.1075739E+00
         21   -1    0    0  501  502  0.00000000000E+00  0.00000000000E+00  0.37144981049E+03  0.37144981049E+03  0.00000000000E+00 0.  1.
         21   -1    0    0  502  503 -0.00000000000E+00 -0.00000000000E+00 -0.29835775856E+03  0.29835775856E+03  0.00000000000E+00 0.  1.
          6    1    1    2  501    0  0.16444284407E+03 -0.21284872127E+03  0.12956723519E+03  0.34505462690E+03  0.17300000000E+03 0.  1.
         -6    1    1    2    0  503 -0.16444284407E+03  0.21284872127E+03 -0.56475183263E+02  0.32475294215E+03  0.17300000000E+03 0.  1.
<mgrwt>
<rscale>  2 0.31980467E+03</rscale>
<asrwt>0</asrwt>
<pdfrwt beam="1">  1       21 0.57146124E-01 0.31980467E+03</pdfrwt>
<pdfrwt beam="2">  1       21 0.45901194E-01 0.31980467E+03</pdfrwt>
<totfact> 0.12242603E+04</totfact>
</mgrwt>
</event>
<event>
 4    1  0.4035350E+000  0.3182661E+03  0.7546771E-02  0.1076450E+00
         21   -1    0    0  503  502  0.00000000000E+00  0.00000000000E+00  0.13237051182E+03  0.13237051182E+03  0.00000000000E+00 0.  1.
         21   -1    0    0  501  503 -0.00000000000E+00 -0.00000000000E+00 -0.84335448794E+03  0.84335448794E+03  0.00000000000E+00 0. -1.
          6    1    1    2  501    0 -0.16610004351E+02 -0.26662415929E+03 -0.50398210295E+03  0.59606316331E+03  0.17300000000E+03 0. -1.
         -6    1    1    2    0  502  0.16610004351E+02  0.26662415929E+03 -0.20700187317E+03  0.37966183645E+03  0.17300000000E+03 0.  1.
<mgrwt>
<rscale>  2 0.31826614E+03</rscale>
<asrwt>0</asrwt>
<pdfrwt beam="1">  1       21 0.20364695E-01 0.31826614E+03</pdfrwt>
<pdfrwt beam="2">  1       21 0.12974684E+00 0.31826614E+03</pdfrwt>
<totfact> 0.90049053E+03</totfact>
</mgrwt>
</event>
<event>
 4    1  0.4035350E+000  0.1769145E+03  0.7546771E-02  0.1170823E+00
         21   -1    0    0  503  502  0.00000000000E+00  0.00000000000E+00  0.80056564866E+03  0.80056564866E+03  0.00000000000E+00 0.  1.
         21   -1    0    0  501  503 -0.00000000000E+00 -0.00000000000E+00 -0.63259336757E+02  0.63259336757E+02  0.00000000000E+00 0. -1.
          6    1    1    2  501    0  0.34565570623E+01 -0.36848464310E+02  0.10171314750E+03  0.20406940359E+03  0.17300000000E+03 0. -1.
         -6    1    1    2    0  502 -0.34565570623E+01  0.36848464310E+02  0.63559316440E+03  0.65975558182E+03  0.17300000000E+03 0.  1.
<mgrwt>
<rscale>  2 0.17691455E+03</rscale>
<asrwt>0</asrwt>
<pdfrwt beam="1">  1       21 0.12316394E+00 0.17691455E+03</pdfrwt>
<pdfrwt beam="2">  1       21 0.97322063E-02 0.17691455E+03</pdfrwt>
<totfact> 0.42502304E+04</totfact>
</mgrwt>
</event>
<event>
 4    1  0.4035350E+000  0.2373675E+03  0.7546771E-02  0.1121559E+00
         21   -1    0    0  503  502  0.00000000000E+00  0.00000000000E+00  0.46562998417E+03  0.46562998417E+03  0.00000000000E+00 0. -1.
         21   -1    0    0  501  503 -0.00000000000E+00 -0.00000000000E+00 -0.25054613628E+03  0.25054613628E+03  0.00000000000E+00 0. -1.
          6    1    1    2  501    0  0.10420058545E+03 -0.12472604617E+03 -0.14994227583E+03  0.28075974548E+03  0.17300000000E+03 0. -1.
         -6    1    1    2    0  502 -0.10420058545E+03  0.12472604617E+03  0.36502612372E+03  0.43541637498E+03  0.17300000000E+03 0. -1.
<mgrwt>
<rscale>  2 0.23736754E+03</rscale>
<asrwt>0</asrwt>
<pdfrwt beam="1">  1       21 0.71635382E-01 0.23736754E+03</pdfrwt>
<pdfrwt beam="2">  1       21 0.38545560E-01 0.23736754E+03</pdfrwt>
<totfact> 0.11109333E+04</totfact>
</mgrwt>
</event>
<event>
 4    1  0.4035350E+000  0.1813045E+03  0.7546771E-02  0.1166546E+00
         21   -1    0    0  501  502  0.00000000000E+00  0.00000000000E+00  0.21245260394E+03  0.21245260394E+03  0.00000000000E+00 0. -1.
         21   -1    0    0  502  503 -0.00000000000E+00 -0.00000000000E+00 -0.15659883899E+03  0.15659883899E+03  0.00000000000E+00 0. -1.
          6    1    1    2  501    0 -0.16645086032E+02 -0.51626287623E+02  0.48121937624E+02  0.18758212426E+03  0.17300000000E+03 0. -1.
         -6    1    1    2    0  503  0.16645086032E+02  0.51626287623E+02  0.77318273335E+01  0.18146931866E+03  0.17300000000E+03 0. -1.
<mgrwt>
<rscale>  2 0.18130453E+03</rscale>
<asrwt>0</asrwt>
<pdfrwt beam="1">  1       21 0.32685016E-01 0.18130453E+03</pdfrwt>
<pdfrwt beam="2">  1       21 0.24092129E-01 0.18130453E+03</pdfrwt>
<totfact> 0.14696323E+05</totfact>
</mgrwt>
</event>
<event>
 4    1  0.4035350E+000  0.2163422E+03  0.7546771E-02  0.1136640E+00
         21   -1    0    0  501  502  0.00000000000E+00  0.00000000000E+00  0.26637685144E+03  0.26637685144E+03  0.00000000000E+00 0. -1.
         21   -1    0    0  502  503 -0.00000000000E+00 -0.00000000000E+00 -0.18114911999E+03  0.18114911999E+03  0.00000000000E+00 0. -1.
          6    1    1    2  501    0  0.53368572885E+02 -0.11843452442E+03  0.81402506201E+02  0.23114997115E+03  0.17300000000E+03 0. -1.
         -6    1    1    2    0  503 -0.53368572885E+02  0.11843452442E+03  0.38252252467E+01  0.21637600027E+03  0.17300000000E+03 0. -1.
<mgrwt>
<rscale>  2 0.21634219E+03</rscale>
<asrwt>0</asrwt>
<pdfrwt beam="1">  1       21 0.40981054E-01 0.21634219E+03</pdfrwt>
<pdfrwt beam="2">  1       21 0.27869095E-01 0.21634219E+03</pdfrwt>
<totfact> 0.69784763E+04</totfact>
</mgrwt>
</event>
<event>
 4    1  0.4035350E+000  0.2152235E+03  0.7546771E-02  0.1137495E+00
         21   -1    0    0  503  502  0.00000000000E+00  0.00000000000E+00  0.15265856217E+03  0.15265856217E+03  0.00000000000E+00 0.  1.
         21   -1    0    0  501  503 -0.00000000000E+00 -0.00000000000E+00 -0.39390933087E+03  0.39390933087E+03  0.00000000000E+00 0.  1.
          6    1    1    2  501    0 -0.67296805907E+02 -0.10891872908E+03 -0.25160124843E+03  0.33109566267E+03  0.17300000000E+03 0.  1.
         -6    1    1    2    0  502  0.67296805907E+02  0.10891872908E+03  0.10350479726E+02  0.21547223037E+03  0.17300000000E+03 0.  1.
<mgrwt>
<rscale>  2 0.21522349E+03</rscale>
<asrwt>0</asrwt>
<pdfrwt beam="1">  1       21 0.23485932E-01 0.21522349E+03</pdfrwt>
<pdfrwt beam="2">  1       21 0.60601436E-01 0.21522349E+03</pdfrwt>
<totfact> 0.42780340E+04</totfact>
</mgrwt>
</event>
<event>
 4    1  0.4035350E+000  0.1744171E+03  0.7546771E-02  0.1173318E+00
         21   -1    0    0  501  502  0.00000000000E+00  0.00000000000E+00  0.33902764704E+02  0.33902764704E+02  0.00000000000E+00 0. -1.
         21   -1    0    0  502  503 -0.00000000000E+00 -0.00000000000E+00 -0.13788049602E+04  0.13788049602E+04  0.00000000000E+00 0. -1.
          6    1    1    2  501    0  0.21661232583E+02  0.48078962870E+01 -0.25503776959E+03  0.30897506174E+03  0.17300000000E+03 0. -1.
         -6    1    1    2    0  503 -0.21661232583E+02 -0.48078962870E+01 -0.10898644259E+04  0.11037326631E+04  0.17300000000E+03 0. -1.
<mgrwt>
<rscale>  2 0.17441710E+03</rscale>
<asrwt>0</asrwt>
<pdfrwt beam="1">  1       21 0.52158100E-02 0.17441710E+03</pdfrwt>
<pdfrwt beam="2">  1       21 0.21212384E+00 0.17441710E+03</pdfrwt>
<totfact> 0.28574042E+04</totfact>
</mgrwt>
</event>
<event>
 4    1  0.4035350E+000  0.2201026E+03  0.7546771E-02  0.1133807E+00
         21   -1    0    0  503  502  0.00000000000E+00  0.00000000000E+00  0.57732779090E+03  0.57732779090E+03  0.00000000000E+00 0.  1.
         21   -1    0    0  501  503 -0.00000000000E+00 -0.00000000000E+00 -0.84134128018E+02  0.84134128018E+02  0.00000000000E+00 0. -1.
          6    1    1    2  501    0 -0.10371973610E+03  0.88081626781E+02  0.26356231000E+03  0.34338061664E+03  0.17300000000E+03 0.  1.
         -6    1    1    2    0  502  0.10371973610E+03 -0.88081626781E+02  0.22963135289E+03  0.31808130228E+03  0.17300000000E+03 0.  1.
<mgrwt>
<rscale>  2 0.22010260E+03</rscale>
<asrwt>0</asrwt>
<pdfrwt beam="1">  1       21 0.88819658E-01 0.22010260E+03</pdfrwt>
<pdfrwt beam="2">  1       21 0.12943712E-01 0.22010260E+03</pdfrwt>
<totfact> 0.54761998E+04</totfact>
</mgrwt>
</event>
<event>
 4    1  0.4035350E+000  0.1745611E+03  0.7546771E-02  0.1173173E+00
         21   -1    0    0  503  502  0.00000000000E+00  0.00000000000E+00  0.59933772284E+02  0.59933772284E+02  0.00000000000E+00 0. -1.
         21   -1    0    0  501  503 -0.00000000000E+00 -0.00000000000E+00 -0.16745535723E+04  0.16745535723E+04  0.00000000000E+00 0. -1.
          6    1    1    2  501    0  0.80985576886E+01 -0.21840291373E+02 -0.15310215948E+04  0.15409408518E+04  0.17300000000E+03 0. -1.
         -6    1    1    2    0  502 -0.80985576886E+01  0.21840291373E+02 -0.83598205239E+02  0.19354649282E+03  0.17300000000E+03 0. -1.
<mgrwt>
<rscale>  2 0.17456112E+03</rscale>
<asrwt>0</asrwt>
<pdfrwt beam="1">  1       21 0.92205807E-02 0.17456112E+03</pdfrwt>
<pdfrwt beam="2">  1       21 0.25762362E+00 0.17456112E+03</pdfrwt>
<totfact> 0.57275509E+03</totfact>
</mgrwt>
</event>
<event>
 4    1  0.4035350E+000  0.1945927E+03  0.7546771E-02  0.1154383E+00
         21   -1    0    0  503  502  0.00000000000E+00  0.00000000000E+00  0.24379875235E+03  0.24379875235E+03  0.00000000000E+00 0. -1.
         21   -1    0    0  501  503 -0.00000000000E+00 -0.00000000000E+00 -0.15634351288E+03  0.15634351288E+03  0.00000000000E+00 0. -1.
          6    1    1    2  501    0 -0.88628692917E+02  0.90694538569E+01  0.59932467149E+02  0.20361286998E+03  0.17300000000E+03 0. -1.
         -6    1    1    2    0  502  0.88628692917E+02 -0.90694538569E+01  0.27522772328E+02  0.19652939525E+03  0.17300000000E+03 0. -1.
<mgrwt>
<rscale>  2 0.19459265E+03</rscale>
<asrwt>0</asrwt>
<pdfrwt beam="1">  1       21 0.37507501E-01 0.19459265E+03</pdfrwt>
<pdfrwt beam="2">  1       21 0.24052848E-01 0.19459265E+03</pdfrwt>
<totfact> 0.11168989E+05</totfact>
</mgrwt>
</event>
<event>
 4    1  0.4035350E+000  0.1910122E+03  0.7546771E-02  0.1157552E+00
         21   -1    0    0  501  502  0.00000000000E+00  0.00000000000E+00  0.41880387094E+03  0.41880387094E+03  0.00000000000E+00 0.  1.
         21   -1    0    0  502  503 -0.00000000000E+00 -0.00000000000E+00 -0.90555375775E+02  0.90555375775E+02  0.00000000000E+00 0.  1.
          6    1    1    2  501    0 -0.54191422307E+02 -0.60166147087E+02  0.21373802917E+03  0.28665243871E+03  0.17300000000E+03 0.  1.
         -6    1    1    2    0  503  0.54191422307E+02  0.60166147087E+02  0.11451046599E+03  0.22270680800E+03  0.17300000000E+03 0.  1.
<mgrwt>
<rscale>  2 0.19101224E+03</rscale>
<asrwt>0</asrwt>
<pdfrwt beam="1">  1       21 0.64431364E-01 0.19101224E+03</pdfrwt>
<pdfrwt beam="2">  1       21 0.13931596E-01 0.19101224E+03</pdfrwt>
<totfact> 0.99725382E+04</totfact>
</mgrwt>
</event>
<event>
 4    1  0.4035350E+000  0.1768976E+03  0.7546771E-02  0.1170840E+00
         21   -1    0    0  501  502  0.00000000000E+00  0.00000000000E+00  0.97884751592E+02  0.97884751592E+02  0.00000000000E+00 0.  1.
         21   -1    0    0  502  503 -0.00000000000E+00 -0.00000000000E+00 -0.85711544416E+03  0.85711544416E+03  0.00000000000E+00 0.  1.
          6    1    1    2  501    0 -0.86872967680E+01  0.35892802265E+02 -0.15098644701E+01  0.17690404764E+03  0.17300000000E+03 0.  1.
         -6    1    1    2    0  503  0.86872967680E+01 -0.35892802265E+02 -0.75772082810E+03  0.77809614811E+03  0.17300000000E+03 0.  1.
<mgrwt>
<rscale>  2 0.17689760E+03</rscale>
<asrwt>0</asrwt>
<pdfrwt beam="1">  1       21 0.15059193E-01 0.17689760E+03</pdfrwt>
<pdfrwt beam="2">  1       21 0.13186391E+00 0.17689760E+03</pdfrwt>
<totfact> 0.16416048E+04</totfact>
</mgrwt>
</event>
<event>
 4    1  0.4035350E+000  0.3186518E+03  0.7546771E-02  0.1076271E+00
         21   -1    0    0  503  502  0.00000000000E+00  0.00000000000E+00  0.10767598577E+04  0.10767598577E+04  0.00000000000E+00 0. -1.
         21   -1    0    0  501  503 -0.00000000000E+00 -0.00000000000E+00 -0.94798751570E+02  0.94798751570E+02  0.00000000000E+00 0.  1.
          6    1    1    2  501    0  0.26123396972E+03  0.58024253977E+02  0.53344777015E+03  0.62137390070E+03  0.17300000000E+03 0.  1.
         -6    1    1    2    0  502 -0.26123396972E+03 -0.58024253977E+02  0.44851333593E+03  0.55018470853E+03  0.17300000000E+03 0. -1.
<mgrwt>
<rscale>  2 0.31865185E+03</rscale>
<asrwt>0</asrwt>
<pdfrwt beam="1">  1       21 0.16565535E+00 0.31865185E+03</pdfrwt>
<pdfrwt beam="2">  1       21 0.14584424E-01 0.31865185E+03</pdfrwt>
<totfact> 0.87397815E+03</totfact>
</mgrwt>
</event>
<event>
 4    1  0.4035350E+000  0.4159224E+03  0.7546771E-02  0.1038402E+00
         21   -1    0    0  503  502  0.00000000000E+00  0.00000000000E+00  0.70323530912E+03  0.70323530912E+03  0.00000000000E+00 0. -1.
         21   -1    0    0  501  503 -0.00000000000E+00 -0.00000000000E+00 -0.29733158818E+03  0.29733158818E+03  0.00000000000E+00 0.  1.
          6    1    1    2  501    0  0.30897381039E+03  0.21816874178E+03  0.41083288649E+03  0.58461532311E+03  0.17300000000E+03 0. -1.
         -6    1    1    2    0  502 -0.30897381039E+03 -0.21816874178E+03 -0.49291655425E+01  0.41595157419E+03  0.17300000000E+03 0.  1.
<mgrwt>
<rscale>  2 0.41592237E+03</rscale>
<asrwt>0</asrwt>
<pdfrwt beam="1">  1       21 0.10819005E+00 0.41592237E+03</pdfrwt>
<pdfrwt beam="2">  1       21 0.45743322E-01 0.41592237E+03</pdfrwt>
<totfact> 0.27352438E+03</totfact>
</mgrwt>
</event>
<event>
 4    1  0.4035350E+000  0.1947811E+03  0.7546771E-02  0.1154218E+00
         21   -1    0    0  503  502  0.00000000000E+00  0.00000000000E+00  0.16378237213E+03  0.16378237213E+03  0.00000000000E+00 0. -1.
         21   -1    0    0  501  503 -0.00000000000E+00 -0.00000000000E+00 -0.25332405458E+03  0.25332405458E+03  0.00000000000E+00 0. -1.
          6    1    1    2  501    0 -0.89055803593E+00 -0.89497907192E+02 -0.10577794914E+03  0.22164982068E+03  0.17300000000E+03 0. -1.
         -6    1    1    2    0  502  0.89055803593E+00  0.89497907192E+02  0.16236266690E+02  0.19545660603E+03  0.17300000000E+03 0. -1.
<mgrwt>
<rscale>  2 0.19478108E+03</rscale>
<asrwt>0</asrwt>
<pdfrwt beam="1">  1       21 0.25197288E-01 0.19478108E+03</pdfrwt>
<pdfrwt beam="2">  1       21 0.38972931E-01 0.19478108E+03</pdfrwt>
<totfact> 0.94639925E+04</totfact>
</mgrwt>
</event>
<event>
 4    1  0.4035350E+000  0.2014689E+03  0.7546771E-02  0.1148506E+00
         21   -1    0    0  503  502  0.00000000000E+00  0.00000000000E+00  0.44252770702E+03  0.44252770702E+03  0.00000000000E+00 0.  1.
         21   -1    0    0  501  503 -0.00000000000E+00 -0.00000000000E+00 -0.92033569602E+02  0.92033569602E+02  0.00000000000E+00 0.  1.
          6    1    1    2  501    0 -0.81237535704E+02  0.63727439491E+02  0.15970671924E+03  0.25709134548E+03  0.17300000000E+03 0.  1.
         -6    1    1    2    0  502  0.81237535704E+02 -0.63727439491E+02  0.19078741817E+03  0.27746993114E+03  0.17300000000E+03 0.  1.
<mgrwt>
<rscale>  2 0.20146892E+03</rscale>
<asrwt>0</asrwt>
<pdfrwt beam="1">  1       21 0.68081185E-01 0.20146892E+03</pdfrwt>
<pdfrwt beam="2">  1       21 0.14159011E-01 0.20146892E+03</pdfrwt>
<totfact> 0.85482398E+04</totfact>
</mgrwt>
</event>
<event>
 4    1  0.4035350E+000  0.1983319E+03  0.7546771E-02  0.1151154E+00
         21   -1    0    0  503  502  0.00000000000E+00  0.00000000000E+00  0.28345814160E+03  0.28345814160E+03  0.00000000000E+00 0. -1.
         21   -1    0    0  501  503 -0.00000000000E+00 -0.00000000000E+00 -0.13883357474E+03  0.13883357474E+03  0.00000000000E+00 0. -1.
          6    1    1    2  501    0 -0.65668430978E+02  0.71373525491E+02  0.76826011968E+02  0.21269169961E+03  0.17300000000E+03 0. -1.
         -6    1    1    2    0  502  0.65668430978E+02 -0.71373525491E+02  0.67798554887E+02  0.20960001673E+03  0.17300000000E+03 0. -1.
<mgrwt>
<rscale>  2 0.19833185E+03</rscale>
<asrwt>0</asrwt>
<pdfrwt beam="1">  1       21 0.43608945E-01 0.19833185E+03</pdfrwt>
<pdfrwt beam="2">  1       21 0.21359012E-01 0.19833185E+03</pdfrwt>
<totfact> 0.10289975E+05</totfact>
</mgrwt>
</event>
<event>
 4    1  0.4035350E+000  0.1787489E+03  0.7546771E-02  0.1169019E+00
         21   -1    0    0  501  502  0.00000000000E+00  0.00000000000E+00  0.10957871229E+03  0.10957871229E+03  0.00000000000E+00 0.  1.
         21   -1    0    0  502  503 -0.00000000000E+00 -0.00000000000E+00 -0.35635047780E+03  0.35635047780E+03  0.00000000000E+00 0.  1.
          6    1    1    2  501    0 -0.37285957908E+02  0.25137997435E+02 -0.22270518566E+03  0.28556743738E+03  0.17300000000E+03 0. -1.
         -6    1    1    2    0  503  0.37285957908E+02 -0.25137997435E+02 -0.24066579851E+02  0.18036175270E+03  0.17300000000E+03 0. -1.
<mgrwt>
<rscale>  2 0.17874888E+03</rscale>
<asrwt>0</asrwt>
<pdfrwt beam="1">  1       21 0.16858264E-01 0.17874888E+03</pdfrwt>
<pdfrwt beam="2">  1       21 0.54823150E-01 0.17874888E+03</pdfrwt>
<totfact> 0.10002350E+05</totfact>
</mgrwt>
</event>
<event>
 4    1  0.4035350E+000  0.2006843E+03  0.7546771E-02  0.1149163E+00
         21   -1    0    0  501  502  0.00000000000E+00  0.00000000000E+00  0.46476298210E+03  0.46476298210E+03  0.00000000000E+00 0. -1.
         21   -1    0    0  502  503 -0.00000000000E+00 -0.00000000000E+00 -0.16639740116E+03  0.16639740116E+03  0.00000000000E+00 0. -1.
          6    1    1    2  501    0  0.96173229079E+02 -0.33104293767E+02  0.36764697751E+03  0.41885377440E+03  0.17300000000E+03 0. -1.
         -6    1    1    2    0  503 -0.96173229079E+02  0.33104293767E+02 -0.69281396558E+02  0.21230660886E+03  0.17300000000E+03 0. -1.
<mgrwt>
<rscale>  2 0.20068429E+03</rscale>
<asrwt>0</asrwt>
<pdfrwt beam="1">  1       21 0.71501997E-01 0.20068429E+03</pdfrwt>
<pdfrwt beam="2">  1       21 0.25599600E-01 0.20068429E+03</pdfrwt>
<totfact> 0.25475150E+04</totfact>
</mgrwt>
</event>
<event>
 4    1  0.4035350E+000  0.1894843E+03  0.7546771E-02  0.1158927E+00
         21   -1    0    0  503  502  0.00000000000E+00  0.00000000000E+00  0.73450986879E+03  0.73450986879E+03  0.00000000000E+00 0.  1.
         21   -1    0    0  501  503 -0.00000000000E+00 -0.00000000000E+00 -0.79037646722E+02  0.79037646722E+02  0.00000000000E+00 0.  1.
          6    1    1    2  501    0 -0.36520782369E+02  0.68128663798E+02  0.76477742801E+02  0.20433582045E+03  0.17300000000E+03 0.  1.
         -6    1    1    2    0  502  0.36520782369E+02 -0.68128663798E+02  0.57899447926E+03  0.60921169506E+03  0.17300000000E+03 0.  1.
<mgrwt>
<rscale>  2 0.18948425E+03</rscale>
<asrwt>0</asrwt>
<pdfrwt beam="1">  1       21 0.11300151E+00 0.18948425E+03</pdfrwt>
<pdfrwt beam="2">  1       21 0.12159639E-01 0.18948425E+03</pdfrwt>
<totfact> 0.35125671E+04</totfact>
</mgrwt>
</event>
<event>
 4    1  0.4035350E+000  0.1838890E+03  0.7546771E-02  0.1164091E+00
         21   -1    0    0  501  502  0.00000000000E+00  0.00000000000E+00  0.11773259031E+03  0.11773259031E+03  0.00000000000E+00 0.  1.
         21   -1    0    0  502  503 -0.00000000000E+00 -0.00000000000E+00 -0.36348705557E+03  0.36348705557E+03  0.00000000000E+00 0.  1.
          6    1    1    2  501    0 -0.28494132182E+02 -0.55445756818E+02 -0.12663035902E+02  0.18432444221E+03  0.17300000000E+03 0.  1.
         -6    1    1    2    0  503  0.28494132182E+02  0.55445756818E+02 -0.23309142936E+03  0.29689520366E+03  0.17300000000E+03 0.  1.
<mgrwt>
<rscale>  2 0.18388895E+03</rscale>
<asrwt>0</asrwt>
<pdfrwt beam="1">  1       21 0.18112706E-01 0.18388895E+03</pdfrwt>
<pdfrwt beam="2">  1       21 0.55921085E-01 0.18388895E+03</pdfrwt>
<totfact> 0.83870418E+04</totfact>
</mgrwt>
</event>
<event>
 4    1  0.4035350E+000  0.2268563E+03  0.7546771E-02  0.1128872E+00
         21   -1    0    0  501  502  0.00000000000E+00  0.00000000000E+00  0.18558769538E+03  0.18558769538E+03  0.00000000000E+00 0.  1.
         21   -1    0    0  502  503 -0.00000000000E+00 -0.00000000000E+00 -0.12192637969E+04  0.12192637969E+04  0.00000000000E+00 0.  1.
          6    1    1    2  501    0 -0.13441839552E+03  0.58876593770E+02  0.10056436890E+03  0.24814703431E+03  0.17300000000E+03 0.  1.
         -6    1    1    2    0  503  0.13441839552E+03 -0.58876593770E+02 -0.11342404704E+04  0.11567044579E+04  0.17300000000E+03 0.  1.
<mgrwt>
<rscale>  2 0.22685625E+03</rscale>
<asrwt>0</asrwt>
<pdfrwt beam="1">  1       21 0.28551952E-01 0.22685625E+03</pdfrwt>
<pdfrwt beam="2">  1       21 0.18757905E+00 0.22685625E+03</pdfrwt>
<totfact> 0.18366803E+03</totfact>
</mgrwt>
</event>
<event>
 4    1  0.4035350E+000  0.2041726E+03  0.7546771E-02  0.1146266E+00
         21   -1    0    0  501  502  0.00000000000E+00  0.00000000000E+00  0.20448069553E+03  0.20448069553E+03  0.00000000000E+00 0.  1.
         21   -1    0    0  502  503 -0.00000000000E+00 -0.00000000000E+00 -0.20484564161E+03  0.20484564161E+03  0.00000000000E+00 0.  1.
          6    1    1    2  501    0 -0.19614922764E+02 -0.10664287192E+03 -0.14343408996E+02  0.20467579414E+03  0.17300000000E+03 0.  1.
         -6    1    1    2    0  503  0.19614922764E+02  0.10664287192E+03  0.13978462916E+02  0.20465054300E+03  0.17300000000E+03 0.  1.
<mgrwt>
<rscale>  2 0.20417259E+03</rscale>
<asrwt>0</asrwt>
<pdfrwt beam="1">  1       21 0.31458569E-01 0.20417259E+03</pdfrwt>
<pdfrwt beam="2">  1       21 0.31514714E-01 0.20417259E+03</pdfrwt>
<totfact> 0.93550697E+04</totfact>
</mgrwt>
</event>
<event>
 4    1  0.4035350E+000  0.2239113E+03  0.7546771E-02  0.1131000E+00
         21   -1    0    0  503  502  0.00000000000E+00  0.00000000000E+00  0.16694244123E+03  0.16694244123E+03  0.00000000000E+00 0. -1.
         21   -1    0    0  501  503 -0.00000000000E+00 -0.00000000000E+00 -0.31679466347E+03  0.31679466347E+03  0.00000000000E+00 0. -1.
          6    1    1    2  501    0 -0.94717854068E+02 -0.10599914479E+03 -0.13008150182E+03  0.25895460546E+03  0.17300000000E+03 0. -1.
         -6    1    1    2    0  502  0.94717854068E+02  0.10599914479E+03 -0.19770720429E+02  0.22478249923E+03  0.17300000000E+03 0. -1.
<mgrwt>
<rscale>  2 0.22391135E+03</rscale>
<asrwt>0</asrwt>
<pdfrwt beam="1">  1       21 0.25683453E-01 0.22391135E+03</pdfrwt>
<pdfrwt beam="2">  1       21 0.48737640E-01 0.22391135E+03</pdfrwt>
<totfact> 0.56994278E+04</totfact>
</mgrwt>
</event>
<event>
 4    1  0.4035350E+000  0.2051599E+03  0.7546771E-02  0.1145457E+00
         21   -1    0    0  503  502  0.00000000000E+00  0.00000000000E+00  0.52996705632E+02  0.52996705632E+02  0.00000000000E+00 0. -1.
         21   -1    0    0  501  503 -0.00000000000E+00 -0.00000000000E+00 -0.87996011594E+03  0.87996011594E+03  0.00000000000E+00 0. -1.
          6    1    1    2  501    0  0.96221205067E+02 -0.53879910816E+02 -0.55909966802E+03  0.59555268774E+03  0.17300000000E+03 0. -1.
         -6    1    1    2    0  502 -0.96221205067E+02  0.53879910816E+02 -0.26786374229E+03  0.33740413383E+03  0.17300000000E+03 0. -1.
<mgrwt>
<rscale>  2 0.20515985E+03</rscale>
<asrwt>0</asrwt>
<pdfrwt beam="1">  1       21 0.81533392E-02 0.20515985E+03</pdfrwt>
<pdfrwt beam="2">  1       21 0.13537848E+00 0.20515985E+03</pdfrwt>
<totfact> 0.44968254E+04</totfact>
</mgrwt>
</event>
<event>
 4    1  0.4035350E+000  0.1774220E+03  0.7546771E-02  0.1170322E+00
         21   -1    0    0  503  502  0.00000000000E+00  0.00000000000E+00  0.23513640719E+03  0.23513640719E+03  0.00000000000E+00 0.  1.
         21   -1    0    0  501  503 -0.00000000000E+00 -0.00000000000E+00 -0.50717531876E+03  0.50717531876E+03  0.00000000000E+00 0.  1.
          6    1    1    2  501    0  0.25053410123E+02  0.30362734928E+02 -0.45444451311E+03  0.48785078100E+03  0.17300000000E+03 0.  1.
         -6    1    1    2    0  502 -0.25053410123E+02 -0.30362734928E+02  0.18240560153E+03  0.25446094494E+03  0.17300000000E+03 0.  1.
<mgrwt>
<rscale>  2 0.17742201E+03</rscale>
<asrwt>0</asrwt>
<pdfrwt beam="1">  1       21 0.36174832E-01 0.17742201E+03</pdfrwt>
<pdfrwt beam="2">  1       21 0.78026972E-01 0.17742201E+03</pdfrwt>
<totfact> 0.10835895E+04</totfact>
</mgrwt>
</event>
<event>
 4    1  0.4035350E+000  0.2071564E+03  0.7546771E-02  0.1143838E+00
         21   -1    0    0  501  502  0.00000000000E+00  0.00000000000E+00  0.39070239861E+03  0.39070239861E+03  0.00000000000E+00 0. -1.
         21   -1    0    0  502  503 -0.00000000000E+00 -0.00000000000E+00 -0.75598105024E+03  0.75598105024E+03  0.00000000000E+00 0. -1.
          6    1    1    2  501    0  0.74997091304E+02 -0.85791633266E+02  0.34741771311E+03  0.40449083479E+03  0.17300000000E+03 0. -1.
         -6    1    1    2    0  503 -0.74997091304E+02  0.85791633266E+02 -0.71269636475E+03  0.74219261406E+03  0.17300000000E+03 0. -1.
<mgrwt>
<rscale>  2 0.20715639E+03</rscale>
<asrwt>0</asrwt>
<pdfrwt beam="1">  1       21 0.60108061E-01 0.20715639E+03</pdfrwt>
<pdfrwt beam="2">  1       21 0.11630478E+00 0.20715639E+03</pdfrwt>
<totfact> 0.14520382E+03</totfact>
</mgrwt>
</event>
<event>
 4    1  0.4035350E+000  0.2042960E+03  0.7546771E-02  0.1146164E+00
         21   -1    0    0  501  502  0.00000000000E+00  0.00000000000E+00  0.12664174445E+03  0.12664174445E+03  0.00000000000E+00 0.  1.
         21   -1    0    0  502  503 -0.00000000000E+00 -0.00000000000E+00 -0.52591438365E+03  0.52591438365E+03  0.00000000000E+00 0.  1.
          6    1    1    2  501    0 -0.35369054851E+02  0.10274679844E+03 -0.27381516201E+00  0.20429623003E+03  0.17300000000E+03 0.  1.
         -6    1    1    2    0  503  0.35369054851E+02 -0.10274679844E+03 -0.39899882404E+03  0.44825989807E+03  0.17300000000E+03 0.  1.
<mgrwt>
<rscale>  2 0.20429605E+03</rscale>
<asrwt>0</asrwt>
<pdfrwt beam="1">  1       21 0.19483346E-01 0.20429605E+03</pdfrwt>
<pdfrwt beam="2">  1       21 0.80909903E-01 0.20429605E+03</pdfrwt>
<totfact> 0.32285852E+04</totfact>
</mgrwt>
</event>
<event>
 4    1  0.4035350E+000  0.2321041E+03  0.7546771E-02  0.1125168E+00
         21   -1    0    0  501  502  0.00000000000E+00  0.00000000000E+00  0.60371421422E+03  0.60371421422E+03  0.00000000000E+00 0. -1.
         21   -1    0    0  502  503 -0.00000000000E+00 -0.00000000000E+00 -0.89871818071E+02  0.89871818071E+02  0.00000000000E+00 0. -1.
          6    1    1    2  501    0  0.53916500988E+02 -0.14503904610E+03  0.28611806540E+03  0.36842348096E+03  0.17300000000E+03 0. -1.
         -6    1    1    2    0  503 -0.53916500988E+02  0.14503904610E+03  0.22772433074E+03  0.32516255133E+03  0.17300000000E+03 0. -1.
<mgrwt>
<rscale>  2 0.23210410E+03</rscale>
<asrwt>0</asrwt>
<pdfrwt beam="1">  1       21 0.92879107E-01 0.23210410E+03</pdfrwt>
<pdfrwt beam="2">  1       21 0.13826434E-01 0.23210410E+03</pdfrwt>
<totfact> 0.43549493E+04</totfact>
</mgrwt>
</event>
<event>
 4    1  0.4035350E+000  0.2331687E+03  0.7546771E-02  0.1124429E+00
         21   -1    0    0  501  502  0.00000000000E+00  0.00000000000E+00  0.20969642936E+03  0.20969642936E+03  0.00000000000E+00 0. -1.
         21   -1    0    0  502  503 -0.00000000000E+00 -0.00000000000E+00 -0.51145045012E+03  0.51145045012E+03  0.00000000000E+00 0. -1.
          6    1    1    2  501    0 -0.12915282885E+03  0.88080485180E+02  0.10231451775E+03  0.25462891747E+03  0.17300000000E+03 0. -1.
         -6    1    1    2    0  503  0.12915282885E+03 -0.88080485180E+02 -0.40406853850E+03  0.46651796201E+03  0.17300000000E+03 0. -1.
<mgrwt>
<rscale>  2 0.23316866E+03</rscale>
<asrwt>0</asrwt>
<pdfrwt beam="1">  1       21 0.32260989E-01 0.23316866E+03</pdfrwt>
<pdfrwt beam="2">  1       21 0.78684684E-01 0.23316866E+03</pdfrwt>
<totfact> 0.12868413E+04</totfact>
</mgrwt>
</event>
<event>
 4    1  0.4035350E+000  0.2781642E+03  0.7546771E-02  0.1096696E+00
         21   -1    0    0  501  502  0.00000000000E+00  0.00000000000E+00  0.14411263013E+04  0.14411263013E+04  0.00000000000E+00 0. -1.
         21   -1    0    0  502  503 -0.00000000000E+00 -0.00000000000E+00 -0.12680975056E+03  0.12680975056E+03  0.00000000000E+00 0.  1.
          6    1    1    2  501    0  0.17613831593E+03 -0.12814691049E+03  0.12524594893E+04  0.12829770494E+04  0.17300000000E+03 0. -1.
         -6    1    1    2    0  503 -0.17613831593E+03  0.12814691049E+03  0.61857061411E+02  0.28495900241E+03  0.17300000000E+03 0.  1.
<mgrwt>
<rscale>  2 0.27816423E+03</rscale>
<asrwt>0</asrwt>
<pdfrwt beam="1">  1       21 0.22171173E+00 0.27816423E+03</pdfrwt>
<pdfrwt beam="2">  1       21 0.19509193E-01 0.27816423E+03</pdfrwt>
<totfact> 0.21986517E+03</totfact>
</mgrwt>
</event>
<event>
 4    1  0.4035350E+000  0.1859249E+03  0.7546771E-02  0.1162189E+00
         21   -1    0    0  503  502  0.00000000000E+00  0.00000000000E+00  0.27948834940E+03  0.27948834940E+03  0.00000000000E+00 0.  1.
         21   -1    0    0  501  503 -0.00000000000E+00 -0.00000000000E+00 -0.20263467362E+03  0.20263467362E+03  0.00000000000E+00 0.  1.
          6    1    1    2  501    0 -0.41403815139E+02 -0.54081345319E+02 -0.11204339031E+03  0.21707553785E+03  0.17300000000E+03 0.  1.
         -6    1    1    2    0  502  0.41403815139E+02  0.54081345319E+02  0.18889706609E+03  0.26504748518E+03  0.17300000000E+03 0.  1.
<mgrwt>
<rscale>  2 0.18592490E+03</rscale>
<asrwt>0</asrwt>
<pdfrwt beam="1">  1       21 0.42998208E-01 0.18592490E+03</pdfrwt>
<pdfrwt beam="2">  1       21 0.31174565E-01 0.18592490E+03</pdfrwt>
<totfact> 0.51580526E+04</totfact>
</mgrwt>
</event>
<event>
 4    1  0.4035350E+000  0.1821490E+03  0.7546771E-02  0.1165739E+00
         21   -1    0    0  501  502  0.00000000000E+00  0.00000000000E+00  0.16999809654E+03  0.16999809654E+03  0.00000000000E+00 0. -1.
         21   -1    0    0  502  503 -0.00000000000E+00 -0.00000000000E+00 -0.35862991425E+03  0.35862991425E+03  0.00000000000E+00 0.  1.
          6    1    1    2  501    0  0.54286700957E+02 -0.17384043828E+02  0.84129230462E+02  0.20063892518E+03  0.17300000000E+03 0. -1.
         -6    1    1    2    0  503 -0.54286700957E+02  0.17384043828E+02 -0.27276104817E+03  0.32798908561E+03  0.17300000000E+03 0.  1.
<mgrwt>
<rscale>  2 0.18214898E+03</rscale>
<asrwt>0</asrwt>
<pdfrwt beam="1">  1       21 0.26153554E-01 0.18214898E+03</pdfrwt>
<pdfrwt beam="2">  1       21 0.55173832E-01 0.18214898E+03</pdfrwt>
<totfact> 0.43272021E+04</totfact>
</mgrwt>
</event>
<event>
 4    1  0.4035350E+000  0.1817589E+03  0.7546771E-02  0.1166112E+00
         21   -1    0    0  503  502  0.00000000000E+00  0.00000000000E+00  0.61620929411E+02  0.61620929411E+02  0.00000000000E+00 0.  1.
         21   -1    0    0  501  503 -0.00000000000E+00 -0.00000000000E+00 -0.99284053893E+03  0.99284053893E+03  0.00000000000E+00 0.  1.
          6    1    1    2  501    0 -0.40272652300E+02  0.38541189792E+02 -0.82319990721E+03  0.84302692547E+03  0.17300000000E+03 0.  1.
         -6    1    1    2    0  502  0.40272652300E+02 -0.38541189792E+02 -0.10801970231E+03  0.21143454288E+03  0.17300000000E+03 0.  1.
<mgrwt>
<rscale>  2 0.18175893E+03</rscale>
<asrwt>0</asrwt>
<pdfrwt beam="1">  1       21 0.94801439E-02 0.18175893E+03</pdfrwt>
<pdfrwt beam="2">  1       21 0.15274468E+00 0.18175893E+03</pdfrwt>
<totfact> 0.25583853E+04</totfact>
</mgrwt>
</event>
<event>
 4    1  0.4035350E+000  0.2079586E+03  0.7546771E-02  0.1143193E+00
         21   -1    0    0  503  502  0.00000000000E+00  0.00000000000E+00  0.11643379470E+04  0.11643379470E+04  0.00000000000E+00 0.  1.
         21   -1    0    0  501  503 -0.00000000000E+00 -0.00000000000E+00 -0.57254122650E+02  0.57254122650E+02  0.00000000000E+00 0.  1.
          6    1    1    2  501    0  0.11169157554E+03 -0.29030394172E+02  0.19153810277E+03  0.28272533782E+03  0.17300000000E+03 0.  1.
         -6    1    1    2    0  502 -0.11169157554E+03  0.29030394172E+02  0.91554572159E+03  0.93886673184E+03  0.17300000000E+03 0.  1.
<mgrwt>
<rscale>  2 0.20795858E+03</rscale>
<asrwt>0</asrwt>
<pdfrwt beam="1">  1       21 0.17912890E+00 0.20795858E+03</pdfrwt>
<pdfrwt beam="2">  1       21 0.88083274E-02 0.20795858E+03</pdfrwt>
<totfact> 0.18506360E+04</totfact>
</mgrwt>
</event>
<event>
 4    1  0.4035350E+000  0.2124456E+03  0.7546771E-02  0.1139644E+00
         21   -1    0    0  501  502  0.00000000000E+00  0.00000000000E+00  0.71768033903E+03  0.71768033903E+03  0.00000000000E+00 0. -1.
         21   -1    0    0  502  503 -0.00000000000E+00 -0.00000000000E+00 -0.68168830382E+02  0.68168830382E+02  0.00000000000E+00 0. -1.
          6    1    1    2  501    0 -0.32909581976E+02  0.11883214531E+03  0.43412321288E+03  0.48331778708E+03  0.17300000000E+03 0. -1.
         -6    1    1    2    0  503  0.32909581976E+02 -0.11883214531E+03  0.21538829577E+03  0.30253138234E+03  0.17300000000E+03 0. -1.
<mgrwt>
<rscale>  2 0.21244557E+03</rscale>
<asrwt>0</asrwt>
<pdfrwt beam="1">  1       21 0.11041235E+00 0.21244557E+03</pdfrwt>
<pdfrwt beam="2">  1       21 0.10487513E-01 0.21244557E+03</pdfrwt>
<totfact> 0.47781835E+04</totfact>
</mgrwt>
</event>
<event>
 4    1  0.4035350E+000  0.2046951E+03  0.7546771E-02  0.1145837E+00
         21   -1    0    0  503  502  0.00000000000E+00  0.00000000000E+00  0.11480629170E+03  0.11480629170E+03  0.00000000000E+00 0.  1.
         21   -1    0    0  501  503 -0.00000000000E+00 -0.00000000000E+00 -0.90209066104E+03  0.90209066104E+03  0.00000000000E+00 0.  1.
          6    1    1    2  501    0  0.65969202484E+02  0.87287801615E+02 -0.78598025279E+03  0.81219766914E+03  0.17300000000E+03 0.  1.
         -6    1    1    2    0  502 -0.65969202484E+02 -0.87287801615E+02 -0.13041165553E+01  0.20469928360E+03  0.17300000000E+03 0.  1.
<mgrwt>
<rscale>  2 0.20469513E+03</rscale>
<asrwt>0</asrwt>
<pdfrwt beam="1">  1       21 0.17662506E-01 0.20469513E+03</pdfrwt>
<pdfrwt beam="2">  1       21 0.13878318E+00 0.20469513E+03</pdfrwt>
<totfact> 0.10547476E+04</totfact>
</mgrwt>
</event>
<event>
 4    1  0.4035350E+000  0.1841667E+03  0.7546771E-02  0.1163830E+00
         21   -1    0    0  503  502  0.00000000000E+00  0.00000000000E+00  0.33813517718E+03  0.33813517718E+03  0.00000000000E+00 0.  1.
         21   -1    0    0  501  503 -0.00000000000E+00 -0.00000000000E+00 -0.10180639957E+03  0.10180639957E+03  0.00000000000E+00 0.  1.
          6    1    1    2  501    0 -0.22628252467E+00 -0.63153119309E+02  0.91470123330E+02  0.20563110452E+03  0.17300000000E+03 0.  1.
         -6    1    1    2    0  502  0.22628252467E+00  0.63153119309E+02  0.14485865428E+03  0.23431047224E+03  0.17300000000E+03 0.  1.
<mgrwt>
<rscale>  2 0.18416668E+03</rscale>
<asrwt>0</asrwt>
<pdfrwt beam="1">  1       21 0.52020796E-01 0.18416668E+03</pdfrwt>
<pdfrwt beam="2">  1       21 0.15662523E-01 0.18416668E+03</pdfrwt>
<totfact> 0.12753376E+05</totfact>
</mgrwt>
</event>
<event>
 4    1  0.4035350E+000  0.1887749E+03  0.7546771E-02  0.1159571E+00
         21   -1    0    0  501  502  0.00000000000E+00  0.00000000000E+00  0.81941296109E+02  0.81941296109E+02  0.00000000000E+00 0. -1.
         21   -1    0    0  502  503 -0.00000000000E+00 -0.00000000000E+00 -0.71445509654E+03  0.71445509654E+03  0.00000000000E+00 0.  1.
          6    1    1    2  501    0 -0.64579493553E+02 -0.39197650021E+02 -0.67171428229E+02  0.20036957734E+03  0.17300000000E+03 0. -1.
         -6    1    1    2    0  503  0.64579493553E+02  0.39197650021E+02 -0.56534237221E+03  0.59602681531E+03  0.17300000000E+03 0.  1.
<mgrwt>
<rscale>  2 0.18877491E+03</rscale>
<asrwt>0</asrwt>
<pdfrwt beam="1">  1       21 0.12606353E-01 0.18877491E+03</pdfrwt>
<pdfrwt beam="2">  1       21 0.10991617E+00 0.18877491E+03</pdfrwt>
<totfact> 0.35224890E+04</totfact>
</mgrwt>
</event>
<event>
 4    1  0.4035350E+000  0.1775024E+03  0.7546771E-02  0.1170242E+00
         21   -1    0    0  503  502  0.00000000000E+00  0.00000000000E+00  0.25581060540E+03  0.25581060540E+03  0.00000000000E+00 0.  1.
         21   -1    0    0  501  503 -0.00000000000E+00 -0.00000000000E+00 -0.52959526851E+03  0.52959526851E+03  0.00000000000E+00 0.  1.
          6    1    1    2  501    0 -0.27203664854E+02 -0.28949326234E+02 -0.48091315185E+03  0.51262516764E+03  0.17300000000E+03 0.  1.
         -6    1    1    2    0  502  0.27203664854E+02  0.28949326234E+02  0.20712848874E+03  0.27278070628E+03  0.17300000000E+03 0.  1.
<mgrwt>
<rscale>  2 0.17750240E+03</rscale>
<asrwt>0</asrwt>
<pdfrwt beam="1">  1       21 0.39355478E-01 0.17750240E+03</pdfrwt>
<pdfrwt beam="2">  1       21 0.81476194E-01 0.17750240E+03</pdfrwt>
<totfact> 0.83047097E+03</totfact>
</mgrwt>
</event>
<event>
 4    1  0.4035350E+000  0.1875659E+03  0.7546771E-02  0.1160675E+00
         21   -1    0    0  501  502  0.00000000000E+00  0.00000000000E+00  0.17624132972E+03  0.17624132972E+03  0.00000000000E+00 0. -1.
         21   -1    0    0  502  503 -0.00000000000E+00 -0.00000000000E+00 -0.90656808592E+03  0.90656808592E+03  0.00000000000E+00 0. -1.
          6    1    1    2  501    0  0.33949058410E+02 -0.64026684127E+02  0.11293378602E+03  0.21894061951E+03  0.17300000000E+03 0. -1.
         -6    1    1    2    0  503 -0.33949058410E+02  0.64026684127E+02 -0.84326054222E+03  0.86386879612E+03  0.17300000000E+03 0. -1.
<mgrwt>
<rscale>  2 0.18756587E+03</rscale>
<asrwt>0</asrwt>
<pdfrwt beam="1">  1       21 0.27114051E-01 0.18756587E+03</pdfrwt>
<pdfrwt beam="2">  1       21 0.13947201E+00 0.18756587E+03</pdfrwt>
<totfact> 0.47044200E+03</totfact>
</mgrwt>
</event>
<event>
 4    1  0.4035350E+000  0.2257506E+03  0.7546771E-02  0.1129667E+00
         21   -1    0    0  501  502  0.00000000000E+00  0.00000000000E+00  0.15488487073E+03  0.15488487073E+03  0.00000000000E+00 0.  1.
         21   -1    0    0  502  503 -0.00000000000E+00 -0.00000000000E+00 -0.40801029914E+03  0.40801029914E+03  0.00000000000E+00 0. -1.
          6    1    1    2  501    0  0.12991195977E+03 -0.64476446212E+02 -0.25038352688E+03  0.33712792815E+03  0.17300000000E+03 0.  1.
         -6    1    1    2    0  503 -0.12991195977E+03  0.64476446212E+02 -0.27419015229E+01  0.22576724172E+03  0.17300000000E+03 0.  1.
<mgrwt>
<rscale>  2 0.22575059E+03</rscale>
<asrwt>0</asrwt>
<pdfrwt beam="1">  1       21 0.23828442E-01 0.22575059E+03</pdfrwt>
<pdfrwt beam="2">  1       21 0.62770815E-01 0.22575059E+03</pdfrwt>
<totfact> 0.38374032E+04</totfact>
</mgrwt>
</event>
<event>
 4    1  0.4035350E+000  0.1999468E+03  0.7546771E-02  0.1149784E+00
         21   -1    0    0  501  502  0.00000000000E+00  0.00000000000E+00  0.37302284553E+03  0.37302284553E+03  0.00000000000E+00 0.  1.
         21   -1    0    0  502  503 -0.00000000000E+00 -0.00000000000E+00 -0.11135720208E+03  0.11135720208E+03  0.00000000000E+00 0.  1.
          6    1    1    2  501    0 -0.51164682432E+02 -0.86208495806E+02  0.17776803173E+03  0.26754476744E+03  0.17300000000E+03 0.  1.
         -6    1    1    2    0  503  0.51164682432E+02  0.86208495806E+02  0.83897611712E+02  0.21683528017E+03  0.17300000000E+03 0.  1.
<mgrwt>
<rscale>  2 0.19994682E+03</rscale>
<asrwt>0</asrwt>
<pdfrwt beam="1">  1       21 0.57388129E-01 0.19994682E+03</pdfrwt>
<pdfrwt beam="2">  1       21 0.17131877E-01 0.19994682E+03</pdfrwt>
<totfact> 0.87387454E+04</totfact>
</mgrwt>
</event>
<event>
 4    1  0.4035350E+000  0.1972919E+03  0.7546771E-02  0.1152044E+00
         21   -1    0    0  501  502  0.00000000000E+00  0.00000000000E+00  0.29776350201E+03  0.29776350201E+03  0.00000000000E+00 0.  1.
         21   -1    0    0  502  503 -0.00000000000E+00 -0.00000000000E+00 -0.24062690302E+03  0.24062690302E+03  0.00000000000E+00 0.  1.
          6    1    1    2  501    0  0.23005152445E+02 -0.92009990771E+02  0.21049852341E+03  0.28850251957E+03  0.17300000000E+03 0.  1.
         -6    1    1    2    0  503 -0.23005152445E+02  0.92009990771E+02 -0.15336192442E+03  0.24988788547E+03  0.17300000000E+03 0.  1.
<mgrwt>
<rscale>  2 0.19729185E+03</rscale>
<asrwt>0</asrwt>
<pdfrwt beam="1">  1       21 0.45809769E-01 0.19729185E+03</pdfrwt>
<pdfrwt beam="2">  1       21 0.37019524E-01 0.19729185E+03</pdfrwt>
<totfact> 0.32066831E+04</totfact>
</mgrwt>
</event>
<event>
 4    1  0.4035350E+000  0.1752949E+03  0.7546771E-02  0.1172436E+00
         21   -1    0    0  503  502  0.00000000000E+00  0.00000000000E+00  0.38965887313E+03  0.38965887313E+03  0.00000000000E+00 0. -1.
         21   -1    0    0  501  503 -0.00000000000E+00 -0.00000000000E+00 -0.80751800372E+02  0.80751800372E+02  0.00000000000E+00 0. -1.
          6    1    1    2  501    0  0.14596033287E+02 -0.24212531700E+02  0.11844794585E+03  0.21156135459E+03  0.17300000000E+03 0.  1.
         -6    1    1    2    0  502 -0.14596033287E+02  0.24212531700E+02  0.19045912691E+03  0.25884931891E+03  0.17300000000E+03 0.  1.
<mgrwt>
<rscale>  2 0.17529487E+03</rscale>
<asrwt>0</asrwt>
<pdfrwt beam="1">  1       21 0.59947518E-01 0.17529487E+03</pdfrwt>
<pdfrwt beam="2">  1       21 0.12423354E-01 0.17529487E+03</pdfrwt>
<totfact> 0.14401209E+05</totfact>
</mgrwt>
</event>
<event>
 4    1  0.4035350E+000  0.1899171E+03  0.7546771E-02  0.1158536E+00
         21   -1    0    0  501  502  0.00000000000E+00  0.00000000000E+00  0.48430787675E+02  0.48430787675E+02  0.00000000000E+00 0. -1.
         21   -1    0    0  502  503 -0.00000000000E+00 -0.00000000000E+00 -0.25533889940E+04  0.25533889940E+04  0.00000000000E+00 0. -1.
          6    1    1    2  501    0 -0.74795699729E+02 -0.23347701897E+02 -0.15760179221E+03  0.24679310523E+03  0.17300000000E+03 0. -1.
         -6    1    1    2    0  503  0.74795699729E+02  0.23347701897E+02 -0.23473564142E+04  0.23550266765E+04  0.17300000000E+03 0. -1.
<mgrwt>
<rscale>  2 0.18991712E+03</rscale>
<asrwt>0</asrwt>
<pdfrwt beam="1">  1       21 0.74508882E-02 0.18991712E+03</pdfrwt>
<pdfrwt beam="2">  1       21 0.39282919E+00 0.18991712E+03</pdfrwt>
<totfact> 0.13158000E+03</totfact>
</mgrwt>
</event>
<event>
 4    1  0.4035350E+000  0.1843347E+03  0.7546771E-02  0.1163673E+00
         21   -1    0    0  503  502  0.00000000000E+00  0.00000000000E+00  0.13314463525E+04  0.13314463525E+04  0.00000000000E+00 0.  1.
         21   -1    0    0  501  503 -0.00000000000E+00 -0.00000000000E+00 -0.27979162996E+02  0.27979162996E+02  0.00000000000E+00 0.  1.
          6    1    1    2  501    0 -0.15628014019E+02  0.61693019617E+02  0.45024438040E+03  0.48651748743E+03  0.17300000000E+03 0.  1.
         -6    1    1    2    0  502  0.15628014019E+02 -0.61693019617E+02  0.85322280910E+03  0.87290802806E+03  0.17300000000E+03 0.  1.
<mgrwt>
<rscale>  2 0.18433465E+03</rscale>
<asrwt>0</asrwt>
<pdfrwt beam="1">  1       21 0.20483785E+00 0.18433465E+03</pdfrwt>
<pdfrwt beam="2">  1       21 0.43044876E-02 0.18433465E+03</pdfrwt>
<totfact> 0.43570807E+04</totfact>
</mgrwt>
</event>
<event>
 4    1  0.4035350E+000  0.2345460E+03  0.7546771E-02  0.1123480E+00
         21   -1    0    0  503  502  0.00000000000E+00  0.00000000000E+00  0.96106283952E+02  0.96106283952E+02  0.00000000000E+00 0.  1.
         21   -1    0    0  501  503 -0.00000000000E+00 -0.00000000000E+00 -0.77013469215E+03  0.77013469215E+03  0.00000000000E+00 0.  1.
          6    1    1    2  501    0  0.87136498841E+02 -0.13224996452E+03 -0.55647660620E+03  0.60388578042E+03  0.17300000000E+03 0.  1.
         -6    1    1    2    0  502 -0.87136498841E+02  0.13224996452E+03 -0.11755180199E+03  0.26235519567E+03  0.17300000000E+03 0.  1.
<mgrwt>
<rscale>  2 0.23454599E+03</rscale>
<asrwt>0</asrwt>
<pdfrwt beam="1">  1       21 0.14785582E-01 0.23454599E+03</pdfrwt>
<pdfrwt beam="2">  1       21 0.11848226E+00 0.23454599E+03</pdfrwt>
<totfact> 0.21410496E+04</totfact>
</mgrwt>
</event>
<event>
 4    1  0.4035350E+000  0.2390698E+03  0.7546771E-02  0.1120414E+00
         21   -1    0    0  501  502  0.00000000000E+00  0.00000000000E+00  0.76833664612E+02  0.76833664612E+02  0.00000000000E+00 0.  1.
         21   -1    0    0  502  503 -0.00000000000E+00 -0.00000000000E+00 -0.77132298323E+03  0.77132298323E+03  0.00000000000E+00 0. -1.
          6    1    1    2  501    0 -0.12437569734E+02  0.16453166133E+03 -0.26724057739E+03  0.35856922194E+03  0.17300000000E+03 0. -1.
         -6    1    1    2    0  503  0.12437569734E+02 -0.16453166133E+03 -0.42724874122E+03  0.48958742590E+03  0.17300000000E+03 0. -1.
<mgrwt>
<rscale>  2 0.23906978E+03</rscale>
<asrwt>0</asrwt>
<pdfrwt beam="1">  1       21 0.11820564E-01 0.23906978E+03</pdfrwt>
<pdfrwt beam="2">  1       21 0.11866507E+00 0.23906978E+03</pdfrwt>
<totfact> 0.31917162E+04</totfact>
</mgrwt>
</event>
<event>
 4    1  0.4035350E+000  0.1857633E+03  0.7546771E-02  0.1162339E+00
         21   -1    0    0  503  502  0.00000000000E+00  0.00000000000E+00  0.13347529211E+03  0.13347529211E+03  0.00000000000E+00 0.  1.
         21   -1    0    0  501  503 -0.00000000000E+00 -0.00000000000E+00 -0.33884392594E+03  0.33884392594E+03  0.00000000000E+00 0.  1.
          6    1    1    2  501    0 -0.48074362551E+02 -0.47622053284E+02 -0.21765531255E+03  0.28615002949E+03  0.17300000000E+03 0.  1.
         -6    1    1    2    0  502  0.48074362551E+02  0.47622053284E+02  0.12286678729E+02  0.18616918856E+03  0.17300000000E+03 0.  1.
<mgrwt>
<rscale>  2 0.18576330E+03</rscale>
<asrwt>0</asrwt>
<pdfrwt beam="1">  1       21 0.20534661E-01 0.18576330E+03</pdfrwt>
<pdfrwt beam="2">  1       21 0.52129834E-01 0.18576330E+03</pdfrwt>
<totfact> 0.76944826E+04</totfact>
</mgrwt>
</event>
<event>
 4    1  0.4035350E+000  0.1818245E+03  0.7546771E-02  0.1166049E+00
         21   -1    0    0  501  502  0.00000000000E+00  0.00000000000E+00  0.20820076342E+03  0.20820076342E+03  0.00000000000E+00 0.  1.
         21   -1    0    0  502  503 -0.00000000000E+00 -0.00000000000E+00 -0.33565890079E+03  0.33565890079E+03  0.00000000000E+00 0.  1.
          6    1    1    2  501    0  0.33682624582E+02  0.44683460411E+02  0.13366491519E+03  0.22566887332E+03  0.17300000000E+03 0.  1.
         -6    1    1    2    0  503 -0.33682624582E+02 -0.44683460411E+02 -0.26112305255E+03  0.31819079089E+03  0.17300000000E+03 0.  1.
<mgrwt>
<rscale>  2 0.18182445E+03</rscale>
<asrwt>0</asrwt>
<pdfrwt beam="1">  1       21 0.32030887E-01 0.18182445E+03</pdfrwt>
<pdfrwt beam="2">  1       21 0.51639831E-01 0.18182445E+03</pdfrwt>
<totfact> 0.33580834E+04</totfact>
</mgrwt>
</event>
<event>
 4    1  0.4035350E+000  0.2046428E+03  0.7546771E-02  0.1145880E+00
         21   -1    0    0  503  502  0.00000000000E+00  0.00000000000E+00  0.31778547046E+03  0.31778547046E+03  0.00000000000E+00 0.  1.
         21   -1    0    0  501  503 -0.00000000000E+00 -0.00000000000E+00 -0.13939752742E+03  0.13939752742E+03  0.00000000000E+00 0.  1.
          6    1    1    2  501    0  0.61276566296E+02 -0.90525487216E+02  0.14262059385E+03  0.24943799871E+03  0.17300000000E+03 0.  1.
         -6    1    1    2    0  502 -0.61276566296E+02  0.90525487216E+02  0.35767349190E+02  0.20774499917E+03  0.17300000000E+03 0.  1.
<mgrwt>
<rscale>  2 0.20464281E+03</rscale>
<asrwt>0</asrwt>
<pdfrwt beam="1">  1       21 0.48890072E-01 0.20464281E+03</pdfrwt>
<pdfrwt beam="2">  1       21 0.21445774E-01 0.20464281E+03</pdfrwt>
<totfact> 0.80447677E+04</totfact>
</mgrwt>
</event>
<event>
 4    1  0.4035350E+000  0.2274774E+03  0.7546771E-02  0.1128428E+00
         21   -1    0    0  501  502  0.00000000000E+00  0.00000000000E+00  0.42418722141E+02  0.42418722141E+02  0.00000000000E+00 0. -1.
         21   -1    0    0  502  503 -0.00000000000E+00 -0.00000000000E+00 -0.12210865044E+04  0.12210865044E+04  0.00000000000E+00 0.  1.
          6    1    1    2  501    0 -0.13347649075E+03 -0.63253578834E+02 -0.60914577958E+03  0.65023424210E+03  0.17300000000E+03 0. -1.
         -6    1    1    2    0  503  0.13347649075E+03  0.63253578834E+02 -0.56952200263E+03  0.61327098439E+03  0.17300000000E+03 0.  1.
<mgrwt>
<rscale>  2 0.22747745E+03</rscale>
<asrwt>0</asrwt>
<pdfrwt beam="1">  1       21 0.65259571E-02 0.22747745E+03</pdfrwt>
<pdfrwt beam="2">  1       21 0.18785947E+00 0.22747745E+03</pdfrwt>
<totfact> 0.26871588E+04</totfact>
</mgrwt>
</event>
<event>
 4    1  0.4035350E+000  0.1867992E+03  0.7546771E-02  0.1161380E+00
         21   -1    0    0  503  502  0.00000000000E+00  0.00000000000E+00  0.46734825980E+03  0.46734825980E+03  0.00000000000E+00 0.  1.
         21   -1    0    0  501  503 -0.00000000000E+00 -0.00000000000E+00 -0.77829328991E+02  0.77829328991E+02  0.00000000000E+00 0. -1.
          6    1    1    2  501    0  0.70062662214E+02  0.74935429758E+01  0.24973498762E+03  0.31186775060E+03  0.17300000000E+03 0.  1.
         -6    1    1    2    0  502 -0.70062662214E+02 -0.74935429758E+01  0.13978394319E+03  0.23330983819E+03  0.17300000000E+03 0. -1.
<mgrwt>
<rscale>  2 0.18679917E+03</rscale>
<asrwt>0</asrwt>
<pdfrwt beam="1">  1       21 0.71899731E-01 0.18679917E+03</pdfrwt>
<pdfrwt beam="2">  1       21 0.11973743E-01 0.18679917E+03</pdfrwt>
<totfact> 0.10311802E+05</totfact>
</mgrwt>
</event>
<event>
 4    1  0.4035350E+000  0.2792938E+03  0.7546771E-02  0.1096075E+00
         21   -1    0    0  503  502  0.00000000000E+00  0.00000000000E+00  0.17364508843E+04  0.17364508843E+04  0.00000000000E+00 0. -1.
         21   -1    0    0  501  503 -0.00000000000E+00 -0.00000000000E+00 -0.63191391333E+02  0.63191391333E+02  0.00000000000E+00 0.  1.
          6    1    1    2  501    0 -0.19395120557E+03 -0.10226899034E+03  0.35280496571E+03  0.44997373296E+03  0.17300000000E+03 0.  1.
         -6    1    1    2    0  502  0.19395120557E+03  0.10226899034E+03  0.13204545273E+04  0.13496685427E+04  0.17300000000E+03 0. -1.
<mgrwt>
<rscale>  2 0.27929378E+03</rscale>
<asrwt>0</asrwt>
<pdfrwt beam="1">  1       21 0.26714625E+00 0.27929378E+03</pdfrwt>
<pdfrwt beam="2">  1       21 0.97217538E-02 0.27929378E+03</pdfrwt>
<totfact> 0.41598401E+03</totfact>
</mgrwt>
</event>
<event>
 4    1  0.4035350E+000  0.2457155E+03  0.7546771E-02  0.1116043E+00
         21   -1    0    0  503  502  0.00000000000E+00  0.00000000000E+00  0.86920970313E+03  0.86920970313E+03  0.00000000000E+00 0. -1.
         21   -1    0    0  501  503 -0.00000000000E+00 -0.00000000000E+00 -0.70107990220E+02  0.70107990220E+02  0.00000000000E+00 0.  1.
          6    1    1    2  501    0  0.81338609549E+02 -0.15437335977E+03  0.44467149573E+03  0.50804413462E+03  0.17300000000E+03 0. -1.
         -6    1    1    2    0  502 -0.81338609549E+02  0.15437335977E+03  0.35443021718E+03  0.43127355873E+03  0.17300000000E+03 0.  1.
<mgrwt>
<rscale>  2 0.24571549E+03</rscale>
<asrwt>0</asrwt>
<pdfrwt beam="1">  1       21 0.13372456E+00 0.24571549E+03</pdfrwt>
<pdfrwt beam="2">  1       21 0.10785845E-01 0.24571549E+03</pdfrwt>
<totfact> 0.27718325E+04</totfact>
</mgrwt>
</event>
<event>
 4    1  0.4035350E+000  0.1770358E+03  0.7546771E-02  0.1170703E+00
         21   -1    0    0  503  502  0.00000000000E+00  0.00000000000E+00  0.12464097631E+03  0.12464097631E+03  0.00000000000E+00 0.  1.
         21   -1    0    0  501  503 -0.00000000000E+00 -0.00000000000E+00 -0.30655644828E+03  0.30655644828E+03  0.00000000000E+00 0.  1.
          6    1    1    2  501    0 -0.10885744722E+02  0.35974429144E+02 -0.18236284525E+03  0.25416110308E+03  0.17300000000E+03 0.  1.
         -6    1    1    2    0  502  0.10885744722E+02 -0.35974429144E+02  0.44737327755E+00  0.17703632151E+03  0.17300000000E+03 0.  1.
<mgrwt>
<rscale>  2 0.17703576E+03</rscale>
<asrwt>0</asrwt>
<pdfrwt beam="1">  1       21 0.19175535E-01 0.17703576E+03</pdfrwt>
<pdfrwt beam="2">  1       21 0.47162530E-01 0.17703576E+03</pdfrwt>
<totfact> 0.10802831E+05</totfact>
</mgrwt>
</event>
<event>
 4    1  0.4035350E+000  0.2157464E+03  0.7546771E-02  0.1137095E+00
         21   -1    0    0  501  502  0.00000000000E+00  0.00000000000E+00  0.10855994903E+04  0.10855994903E+04  0.00000000000E+00 0.  1.
         21   -1    0    0  502  503 -0.00000000000E+00 -0.00000000000E+00 -0.45757417660E+02  0.45757417660E+02  0.00000000000E+00 0. -1.
          6    1    1    2  501    0 -0.12384205311E+03 -0.35786417797E+02  0.66186506667E+03  0.69614071013E+03  0.17300000000E+03 0.  1.
         -6    1    1    2    0  503  0.12384205311E+03  0.35786417797E+02  0.37797700601E+03  0.43521619788E+03  0.17300000000E+03 0. -1.
<mgrwt>
<rscale>  2 0.21574643E+03</rscale>
<asrwt>0</asrwt>
<pdfrwt beam="1">  1       21 0.16701529E+00 0.21574643E+03</pdfrwt>
<pdfrwt beam="2">  1       21 0.70396035E-02 0.21574643E+03</pdfrwt>
<totfact> 0.33073137E+04</totfact>
</mgrwt>
</event>
<event>
 4    1  0.4035350E+000  0.2046730E+03  0.7546771E-02  0.1145855E+00
         21   -1    0    0  501  502  0.00000000000E+00  0.00000000000E+00  0.28219629347E+03  0.28219629347E+03  0.00000000000E+00 0.  1.
         21   -1    0    0  502  503 -0.00000000000E+00 -0.00000000000E+00 -0.15955055585E+03  0.15955055585E+03  0.00000000000E+00 0.  1.
          6    1    1    2  501    0 -0.10242064989E+03 -0.38367334256E+02  0.30541014342E+01  0.20469579721E+03  0.17300000000E+03 0.  1.
         -6    1    1    2    0  503  0.10242064989E+03  0.38367334256E+02  0.11959163618E+03  0.23705105211E+03  0.17300000000E+03 0.  1.
<mgrwt>
<rscale>  2 0.20467301E+03</rscale>
<asrwt>0</asrwt>
<pdfrwt beam="1">  1       21 0.43414814E-01 0.20467301E+03</pdfrwt>
<pdfrwt beam="2">  1       21 0.24546239E-01 0.20467301E+03</pdfrwt>
<totfact> 0.79579705E+04</totfact>
</mgrwt>
</event>
<event>
 4    1  0.4035350E+000  0.2442206E+03  0.7546771E-02  0.1117013E+00
         21   -1    0    0  501  502  0.00000000000E+00  0.00000000000E+00  0.35605528814E+03  0.35605528814E+03  0.00000000000E+00 0. -1.
         21   -1    0    0  502  503 -0.00000000000E+00 -0.00000000000E+00 -0.43138462616E+03  0.43138462616E+03  0.00000000000E+00 0.  1.
          6    1    1    2  501    0  0.89579186286E+02  0.14727610743E+03  0.27026527477E+03  0.36426226977E+03  0.17300000000E+03 0. -1.
         -6    1    1    2    0  503 -0.89579186286E+02 -0.14727610743E+03 -0.34559461279E+03  0.42317764452E+03  0.17300000000E+03 0.  1.
<mgrwt>
<rscale>  2 0.24422056E+03</rscale>
<asrwt>0</asrwt>
<pdfrwt beam="1">  1       21 0.54777736E-01 0.24422056E+03</pdfrwt>
<pdfrwt beam="2">  1       21 0.66366866E-01 0.24422056E+03</pdfrwt>
<totfact> 0.63254035E+03</totfact>
</mgrwt>
</event>
<event>
 4    1  0.4035350E+000  0.2082683E+03  0.7546771E-02  0.1142945E+00
         21   -1    0    0  503  502  0.00000000000E+00  0.00000000000E+00  0.22320926559E+03  0.22320926559E+03  0.00000000000E+00 0.  1.
         21   -1    0    0  501  503 -0.00000000000E+00 -0.00000000000E+00 -0.28079724505E+03  0.28079724505E+03  0.00000000000E+00 0.  1.
          6    1    1    2  501    0  0.99857930301E+02  0.58949868910E+02 -0.16863735877E+03  0.26798181293E+03  0.17300000000E+03 0.  1.
         -6    1    1    2    0  502 -0.99857930301E+02 -0.58949868910E+02  0.11104937931E+03  0.23602469772E+03  0.17300000000E+03 0.  1.
<mgrwt>
<rscale>  2 0.20826832E+03</rscale>
<asrwt>0</asrwt>
<pdfrwt beam="1">  1       21 0.34339887E-01 0.20826832E+03</pdfrwt>
<pdfrwt beam="2">  1       21 0.43199576E-01 0.20826832E+03</pdfrwt>
<totfact> 0.41770634E+04</totfact>
</mgrwt>
</event>
<event>
 4    1  0.4035350E+000  0.1992412E+03  0.7546771E-02  0.1150381E+00
         21   -1    0    0  503  502  0.00000000000E+00  0.00000000000E+00  0.75485736865E+02  0.75485736865E+02  0.00000000000E+00 0. -1.
         21   -1    0    0  501  503 -0.00000000000E+00 -0.00000000000E+00 -0.13867206336E+04  0.13867206336E+04  0.00000000000E+00 0.  1.
          6    1    1    2  501    0  0.98750556951E+02 -0.40473478138E+01 -0.12316453415E+04  0.12476567239E+04  0.17300000000E+03 0.  1.
         -6    1    1    2    0  502 -0.98750556951E+02  0.40473478138E+01 -0.79589555220E+02  0.21454964652E+03  0.17300000000E+03 0. -1.
<mgrwt>
<rscale>  2 0.19924119E+03</rscale>
<asrwt>0</asrwt>
<pdfrwt beam="1">  1       21 0.11613191E-01 0.19924119E+03</pdfrwt>
<pdfrwt beam="2">  1       21 0.21334163E+00 0.19924119E+03</pdfrwt>
<totfact> 0.68400629E+03</totfact>
</mgrwt>
</event>
<event>
 4    1  0.4035350E+000  0.3672656E+03  0.7546771E-02  0.1055743E+00
         21   -1    0    0  501  502  0.00000000000E+00  0.00000000000E+00  0.20075142382E+03  0.20075142382E+03  0.00000000000E+00 0.  1.
         21   -1    0    0  502  503 -0.00000000000E+00 -0.00000000000E+00 -0.16173275468E+04  0.16173275468E+04  0.00000000000E+00 0. -1.
          6    1    1    2  501    0  0.35123118354E+02 -0.32205806417E+03 -0.13265574299E+02  0.36750510962E+03  0.17300000000E+03 0.  1.
         -6    1    1    2    0  503 -0.35123118354E+02  0.32205806417E+03 -0.14033105486E+04  0.14505738610E+04  0.17300000000E+03 0. -1.
<mgrwt>
<rscale>  2 0.36726561E+03</rscale>
<asrwt>0</asrwt>
<pdfrwt beam="1">  1       21 0.30884835E-01 0.36726561E+03</pdfrwt>
<pdfrwt beam="2">  1       21 0.24881962E+00 0.36726561E+03</pdfrwt>
<totfact> 0.58015245E+02</totfact>
</mgrwt>
</event>
<event>
 4    1  0.4035350E+000  0.2392923E+03  0.7546771E-02  0.1120265E+00
         21   -1    0    0  501  502  0.00000000000E+00  0.00000000000E+00  0.43863235451E+03  0.43863235451E+03  0.00000000000E+00 0. -1.
         21   -1    0    0  502  503 -0.00000000000E+00 -0.00000000000E+00 -0.17172726432E+03  0.17172726432E+03  0.00000000000E+00 0.  1.
          6    1    1    2  501    0 -0.12447354456E+03  0.10880326059E+03 -0.15997712116E+02  0.23982647812E+03  0.17300000000E+03 0.  1.
         -6    1    1    2    0  503  0.12447354456E+03 -0.10880326059E+03  0.28290280231E+03  0.37053314071E+03  0.17300000000E+03 0. -1.
<mgrwt>
<rscale>  2 0.23929232E+03</rscale>
<asrwt>0</asrwt>
<pdfrwt beam="1">  1       21 0.67481900E-01 0.23929232E+03</pdfrwt>
<pdfrwt beam="2">  1       21 0.26419579E-01 0.23929232E+03</pdfrwt>
<totfact> 0.26699005E+04</totfact>
</mgrwt>
</event>
<event>
 4    1  0.4035350E+000  0.2647749E+03  0.7546771E-02  0.1104308E+00
         21   -1    0    0  501  502  0.00000000000E+00  0.00000000000E+00  0.30372176043E+02  0.30372176043E+02  0.00000000000E+00 0. -1.
         21   -1    0    0  502  503 -0.00000000000E+00 -0.00000000000E+00 -0.23088679844E+04  0.23088679844E+04  0.00000000000E+00 0. -1.
          6    1    1    2  501    0  0.79260325883E+02 -0.18410478439E+03 -0.11587889133E+04  0.11886536571E+04  0.17300000000E+03 0. -1.
         -6    1    1    2    0  503 -0.79260325883E+02  0.18410478439E+03 -0.11197068951E+04  0.11505865034E+04  0.17300000000E+03 0. -1.
<mgrwt>
<rscale>  2 0.26477494E+03</rscale>
<asrwt>0</asrwt>
<pdfrwt beam="1">  1       21 0.46726407E-02 0.26477494E+03</pdfrwt>
<pdfrwt beam="2">  1       21 0.35521059E+00 0.26477494E+03</pdfrwt>
<totfact> 0.45393470E+03</totfact>
</mgrwt>
</event>
<event>
 4    1  0.4035350E+000  0.2998339E+03  0.7546771E-02  0.1085324E+00
         21   -1    0    0  503  502  0.00000000000E+00  0.00000000000E+00  0.15901383090E+04  0.15901383090E+04  0.00000000000E+00 0.  1.
         21   -1    0    0  501  503 -0.00000000000E+00 -0.00000000000E+00 -0.59700384290E+02  0.59700384290E+02  0.00000000000E+00 0.  1.
          6    1    1    2  501    0 -0.23719600898E+03 -0.60905110026E+02  0.57530637957E+03  0.64875096106E+03  0.17300000000E+03 0.  1.
         -6    1    1    2    0  502  0.23719600898E+03  0.60905110026E+02  0.95513154516E+03  0.10010877323E+04  0.17300000000E+03 0.  1.
<mgrwt>
<rscale>  2 0.29983392E+03</rscale>
<asrwt>0</asrwt>
<pdfrwt beam="1">  1       21 0.24463663E+00 0.29983392E+03</pdfrwt>
<pdfrwt beam="2">  1       21 0.91846757E-02 0.29983392E+03</pdfrwt>
<totfact> 0.61863241E+03</totfact>
</mgrwt>
</event>
<event>
 4    1  0.4035350E+000  0.1797598E+03  0.7546771E-02  0.1168036E+00
         21   -1    0    0  501  502  0.00000000000E+00  0.00000000000E+00  0.48026081064E+03  0.48026081064E+03  0.00000000000E+00 0. -1.
         21   -1    0    0  502  503 -0.00000000000E+00 -0.00000000000E+00 -0.69803946430E+02  0.69803946430E+02  0.00000000000E+00 0. -1.
          6    1    1    2  501    0 -0.23664627368E+02  0.42714805030E+02  0.15296557200E+03  0.23603397081E+03  0.17300000000E+03 0.  1.
         -6    1    1    2    0  503  0.23664627368E+02 -0.42714805030E+02  0.25749129221E+03  0.31403078627E+03  0.17300000000E+03 0.  1.
<mgrwt>
<rscale>  2 0.17975975E+03</rscale>
<asrwt>0</asrwt>
<pdfrwt beam="1">  1       21 0.73886277E-01 0.17975975E+03</pdfrwt>
<pdfrwt beam="2">  1       21 0.10739069E-01 0.17975975E+03</pdfrwt>
<totfact> 0.11812823E+05</totfact>
</mgrwt>
</event>
<event>
 4    1  0.4035350E+000  0.1975488E+03  0.7546771E-02  0.1151824E+00
         21   -1    0    0  503  502  0.00000000000E+00  0.00000000000E+00  0.61733410868E+02  0.61733410868E+02  0.00000000000E+00 0. -1.
         21   -1    0    0  501  503 -0.00000000000E+00 -0.00000000000E+00 -0.63292500567E+03  0.63292500567E+03  0.00000000000E+00 0.  1.
          6    1    1    2  501    0  0.80595349824E+02  0.50999371125E+02 -0.29765147700E+03  0.35724214201E+03  0.17300000000E+03 0. -1.
         -6    1    1    2    0  502 -0.80595349824E+02 -0.50999371125E+02 -0.27354011780E+03  0.33741627452E+03  0.17300000000E+03 0. -1.
<mgrwt>
<rscale>  2 0.19754885E+03</rscale>
<asrwt>0</asrwt>
<pdfrwt beam="1">  1       21 0.94974477E-02 0.19754885E+03</pdfrwt>
<pdfrwt beam="2">  1       21 0.97373079E-01 0.19754885E+03</pdfrwt>
<totfact> 0.77517723E+04</totfact>
</mgrwt>
</event>
<event>
 4    1  0.4035350E+000  0.2000280E+03  0.7546771E-02  0.1149715E+00
         21   -1    0    0  503  502  0.00000000000E+00  0.00000000000E+00  0.35343226610E+03  0.35343226610E+03  0.00000000000E+00 0. -1.
         21   -1    0    0  501  503 -0.00000000000E+00 -0.00000000000E+00 -0.20179664542E+03  0.20179664542E+03  0.00000000000E+00 0. -1.
          6    1    1    2  501    0  0.26147938104E+02 -0.96945760182E+02 -0.10812180740E+03  0.22737968317E+03  0.17300000000E+03 0. -1.
         -6    1    1    2    0  502 -0.26147938104E+02  0.96945760182E+02  0.25975742809E+03  0.32784922835E+03  0.17300000000E+03 0. -1.
<mgrwt>
<rscale>  2 0.20002799E+03</rscale>
<asrwt>0</asrwt>
<pdfrwt beam="1">  1       21 0.54374195E-01 0.20002799E+03</pdfrwt>
<pdfrwt beam="2">  1       21 0.31045638E-01 0.20002799E+03</pdfrwt>
<totfact> 0.31720737E+04</totfact>
</mgrwt>
</event>
<event>
 4    1  0.4035350E+000  0.1829999E+03  0.7546771E-02  0.1164931E+00
         21   -1    0    0  501  502  0.00000000000E+00  0.00000000000E+00  0.66193954870E+02  0.66193954870E+02  0.00000000000E+00 0. -1.
         21   -1    0    0  502  503 -0.00000000000E+00 -0.00000000000E+00 -0.34378480948E+04  0.34378480948E+04  0.00000000000E+00 0. -1.
          6    1    1    2  501    0 -0.38212672740E+02  0.45823238079E+02 -0.67849554521E+02  0.19517310151E+03  0.17300000000E+03 0. -1.
         -6    1    1    2    0  503  0.38212672740E+02 -0.45823238079E+02 -0.33038045855E+04  0.33088689482E+04  0.17300000000E+03 0. -1.
<mgrwt>
<rscale>  2 0.18299994E+03</rscale>
<asrwt>0</asrwt>
<pdfrwt beam="1">  1       21 0.10183684E-01 0.18299994E+03</pdfrwt>
<pdfrwt beam="2">  1       21 0.52889976E+00 0.18299994E+03</pdfrwt>
<totfact> 0.94072275E+01</totfact>
</mgrwt>
</event>
<event>
 4    1  0.4035350E+000  0.1793768E+03  0.7546771E-02  0.1168408E+00
         21   -1    0    0  503  502  0.00000000000E+00  0.00000000000E+00  0.10450387776E+04  0.10450387776E+04  0.00000000000E+00 0.  1.
         21   -1    0    0  501  503 -0.00000000000E+00 -0.00000000000E+00 -0.34089156891E+02  0.34089156891E+02  0.00000000000E+00 0.  1.
          6    1    1    2  501    0  0.43007556580E+02 -0.19934773850E+02  0.33760202236E+03  0.38229722813E+03  0.17300000000E+03 0.  1.
         -6    1    1    2    0  502 -0.43007556580E+02  0.19934773850E+02  0.67334759835E+03  0.69683070636E+03  0.17300000000E+03 0.  1.
<mgrwt>
<rscale>  2 0.17937682E+03</rscale>
<asrwt>0</asrwt>
<pdfrwt beam="1">  1       21 0.16077517E+00 0.17937682E+03</pdfrwt>
<pdfrwt beam="2">  1       21 0.52444865E-02 0.17937682E+03</pdfrwt>
<totfact> 0.62079558E+04</totfact>
</mgrwt>
</event>
<event>
 4    1  0.4035350E+000  0.2361166E+03  0.7546771E-02  0.1122407E+00
         21   -1    0    0  501  502  0.00000000000E+00  0.00000000000E+00  0.95677807890E+03  0.95677807890E+03  0.00000000000E+00 0. -1.
         21   -1    0    0  502  503 -0.00000000000E+00 -0.00000000000E+00 -0.39572686772E+03  0.39572686772E+03  0.00000000000E+00 0. -1.
          6    1    1    2  501    0  0.95152206712E+02 -0.12949173647E+03  0.90500844211E+03  0.93530280260E+03  0.17300000000E+03 0. -1.
         -6    1    1    2    0  503 -0.95152206712E+02  0.12949173647E+03 -0.34395723094E+03  0.41720214401E+03  0.17300000000E+03 0. -1.
<mgrwt>
<rscale>  2 0.23611661E+03</rscale>
<asrwt>0</asrwt>
<pdfrwt beam="1">  1       21 0.14719663E+00 0.23611661E+03</pdfrwt>
<pdfrwt beam="2">  1       21 0.60881057E-01 0.23611661E+03</pdfrwt>
<totfact> 0.75531580E+02</totfact>
</mgrwt>
</event>
<event>
 4    1  0.4035350E+000  0.2142507E+03  0.7546771E-02  0.1138243E+00
         21   -1    0    0  501  502  0.00000000000E+00  0.00000000000E+00  0.29926462535E+03  0.29926462535E+03  0.00000000000E+00 0. -1.
         21   -1    0    0  502  503 -0.00000000000E+00 -0.00000000000E+00 -0.16415843192E+03  0.16415843192E+03  0.00000000000E+00 0. -1.
          6    1    1    2  501    0  0.47347891953E+02 -0.11718595035E+03  0.81993322264E+01  0.21440755323E+03  0.17300000000E+03 0. -1.
         -6    1    1    2    0  503 -0.47347891953E+02  0.11718595035E+03  0.12690686120E+03  0.24901550404E+03  0.17300000000E+03 0. -1.
<mgrwt>
<rscale>  2 0.21425072E+03</rscale>
<asrwt>0</asrwt>
<pdfrwt beam="1">  1       21 0.46040712E-01 0.21425072E+03</pdfrwt>
<pdfrwt beam="2">  1       21 0.25255143E-01 0.21425072E+03</pdfrwt>
<totfact> 0.66519060E+04</totfact>
</mgrwt>
</event>
<event>
 4    1  0.4035350E+000  0.2609484E+03  0.7546771E-02  0.1106575E+00
         21   -1    0    0  501  502  0.00000000000E+00  0.00000000000E+00  0.35519944346E+03  0.35519944346E+03  0.00000000000E+00 0. -1.
         21   -1    0    0  502  503 -0.00000000000E+00 -0.00000000000E+00 -0.25110348736E+03  0.25110348736E+03  0.00000000000E+00 0.  1.
          6    1    1    2  501    0 -0.13142431349E+03  0.14454314139E+03  0.19948794426E+03  0.32846538601E+03  0.17300000000E+03 0. -1.
         -6    1    1    2    0  503  0.13142431349E+03 -0.14454314139E+03 -0.95391988169E+02  0.27783754481E+03  0.17300000000E+03 0.  1.
<mgrwt>
<rscale>  2 0.26094840E+03</rscale>
<asrwt>0</asrwt>
<pdfrwt beam="1">  1       21 0.54646068E-01 0.26094840E+03</pdfrwt>
<pdfrwt beam="2">  1       21 0.38631306E-01 0.26094840E+03</pdfrwt>
<totfact> 0.19698802E+04</totfact>
</mgrwt>
</event>
<event>
 4    1  0.4035350E+000  0.2975697E+03  0.7546771E-02  0.1086462E+00
         21   -1    0    0  503  502  0.00000000000E+00  0.00000000000E+00  0.11094668826E+04  0.11094668826E+04  0.00000000000E+00 0. -1.
         21   -1    0    0  501  503 -0.00000000000E+00 -0.00000000000E+00 -0.22371449129E+03  0.22371449129E+03  0.00000000000E+00 0. -1.
          6    1    1    2  501    0  0.18199852170E+03  0.15967231679E+03 -0.91746980450E+02  0.31139238763E+03  0.17300000000E+03 0. -1.
         -6    1    1    2    0  502 -0.18199852170E+03 -0.15967231679E+03  0.97749937176E+03  0.10217889863E+04  0.17300000000E+03 0. -1.
<mgrwt>
<rscale>  2 0.29756967E+03</rscale>
<asrwt>0</asrwt>
<pdfrwt beam="1">  1       21 0.17068721E+00 0.29756967E+03</pdfrwt>
<pdfrwt beam="2">  1       21 0.34417615E-01 0.29756967E+03</pdfrwt>
<totfact> 0.15750335E+03</totfact>
</mgrwt>
</event>
<event>
 4    1  0.4035350E+000  0.2188253E+03  0.7546771E-02  0.1134762E+00
         21   -1    0    0  503  502  0.00000000000E+00  0.00000000000E+00  0.15442289896E+03  0.15442289896E+03  0.00000000000E+00 0. -1.
         21   -1    0    0  501  503 -0.00000000000E+00 -0.00000000000E+00 -0.31426240691E+03  0.31426240691E+03  0.00000000000E+00 0. -1.
          6    1    1    2  501    0  0.96881581184E+02 -0.92571411748E+02 -0.10693216986E+03  0.24355491372E+03  0.17300000000E+03 0. -1.
         -6    1    1    2    0  502 -0.96881581184E+02  0.92571411748E+02 -0.52907338085E+02  0.22513039215E+03  0.17300000000E+03 0. -1.
<mgrwt>
<rscale>  2 0.21882529E+03</rscale>
<asrwt>0</asrwt>
<pdfrwt beam="1">  1       21 0.23757369E-01 0.21882529E+03</pdfrwt>
<pdfrwt beam="2">  1       21 0.48348062E-01 0.21882529E+03</pdfrwt>
<totfact> 0.67420996E+04</totfact>
</mgrwt>
</event>
<event>
 4    1  0.4035350E+000  0.2101441E+03  0.7546771E-02  0.1141452E+00
         21   -1    0    0  503  502  0.00000000000E+00  0.00000000000E+00  0.44089670331E+02  0.44089670331E+02  0.00000000000E+00 0. -1.
         21   -1    0    0  501  503 -0.00000000000E+00 -0.00000000000E+00 -0.12092441342E+04  0.12092441342E+04  0.00000000000E+00 0. -1.
          6    1    1    2  501    0  0.16673915650E+02  0.11812499000E+03 -0.84225336309E+03  0.86807330356E+03  0.17300000000E+03 0. -1.
         -6    1    1    2    0  502 -0.16673915650E+02 -0.11812499000E+03 -0.32290110082E+03  0.38526050101E+03  0.17300000000E+03 0. -1.
<mgrwt>
<rscale>  2 0.21014408E+03</rscale>
<asrwt>0</asrwt>
<pdfrwt beam="1">  1       21 0.67830265E-02 0.21014408E+03</pdfrwt>
<pdfrwt beam="2">  1       21 0.18603755E+00 0.21014408E+03</pdfrwt>
<totfact> 0.26144939E+04</totfact>
</mgrwt>
</event>
<event>
 4    1  0.4035350E+000  0.1761981E+03  0.7546771E-02  0.1171534E+00
         21   -1    0    0  503  502  0.00000000000E+00  0.00000000000E+00  0.44005883324E+03  0.44005883324E+03  0.00000000000E+00 0. -1.
         21   -1    0    0  501  503 -0.00000000000E+00 -0.00000000000E+00 -0.70564657018E+02  0.70564657018E+02  0.00000000000E+00 0. -1.
          6    1    1    2  501    0  0.19846777451E+02  0.26886395543E+02  0.18853292623E+03  0.25805122963E+03  0.17300000000E+03 0. -1.
         -6    1    1    2    0  502 -0.19846777451E+02 -0.26886395543E+02  0.18096124999E+03  0.25257226063E+03  0.17300000000E+03 0. -1.
<mgrwt>
<rscale>  2 0.17619811E+03</rscale>
<asrwt>0</asrwt>
<pdfrwt beam="1">  1       21 0.67701357E-01 0.17619811E+03</pdfrwt>
<pdfrwt beam="2">  1       21 0.10856101E-01 0.17619811E+03</pdfrwt>
<totfact> 0.14068973E+05</totfact>
</mgrwt>
</event>
<event>
 4    1  0.4035350E+000  0.2830098E+03  0.7546771E-02  0.1094056E+00
         21   -1    0    0  503  502  0.00000000000E+00  0.00000000000E+00  0.84471341557E+02  0.84471341557E+02  0.00000000000E+00 0. -1.
         21   -1    0    0  501  503 -0.00000000000E+00 -0.00000000000E+00 -0.95955871013E+03  0.95955871013E+03  0.00000000000E+00 0.  1.
          6    1    1    2  501    0 -0.20050989125E+03  0.99806493253E+02 -0.49437361827E+03  0.56964886292E+03  0.17300000000E+03 0.  1.
         -6    1    1    2    0  502  0.20050989125E+03 -0.99806493253E+02 -0.38071375030E+03  0.47438118876E+03  0.17300000000E+03 0. -1.
<mgrwt>
<rscale>  2 0.28300981E+03</rscale>
<asrwt>0</asrwt>
<pdfrwt beam="1">  1       21 0.12995590E-01 0.28300981E+03</pdfrwt>
<pdfrwt beam="2">  1       21 0.14762442E+00 0.28300981E+03</pdfrwt>
<totfact> 0.15021559E+04</totfact>
</mgrwt>
</event>
<event>
 4    1  0.4035350E+000  0.7495043E+03  0.7546771E-02  0.9636128E-01
         21   -1    0    0  503  502  0.00000000000E+00  0.00000000000E+00  0.43148381079E+03  0.43148381079E+03  0.00000000000E+00 0.  1.
         21   -1    0    0  501  503 -0.00000000000E+00 -0.00000000000E+00 -0.13049949762E+04  0.13049949762E+04  0.00000000000E+00 0. -1.
          6    1    1    2  501    0 -0.31886615008E+02  0.72856776204E+03 -0.47891206884E+03  0.88944561935E+03  0.17300000000E+03 0.  1.
         -6    1    1    2    0  502  0.31886615008E+02 -0.72856776204E+03 -0.39459909659E+03  0.84703316766E+03  0.17300000000E+03 0. -1.
<mgrwt>
<rscale>  2 0.74950433E+03</rscale>
<asrwt>0</asrwt>
<pdfrwt beam="1">  1       21 0.66382126E-01 0.74950433E+03</pdfrwt>
<pdfrwt beam="2">  1       21 0.20076845E+00 0.74950433E+03</pdfrwt>
<totfact> 0.19857663E+02</totfact>
</mgrwt>
</event>
<event>
 4    1  0.4035350E+000  0.1957944E+03  0.7546771E-02  0.1153337E+00
         21   -1    0    0  501  502  0.00000000000E+00  0.00000000000E+00  0.38502831361E+02  0.38502831361E+02  0.00000000000E+00 0. -1.
         21   -1    0    0  502  503 -0.00000000000E+00 -0.00000000000E+00 -0.10690657591E+04  0.10690657591E+04  0.00000000000E+00 0. -1.
          6    1    1    2  501    0  0.89092959912E+02 -0.21653712126E+02 -0.66040097155E+03  0.68881411279E+03  0.17300000000E+03 0. -1.
         -6    1    1    2    0  503 -0.89092959912E+02  0.21653712126E+02 -0.37016195614E+03  0.41875447762E+03  0.17300000000E+03 0. -1.
<mgrwt>
<rscale>  2 0.19579438E+03</rscale>
<asrwt>0</asrwt>
<pdfrwt beam="1">  1       21 0.59235125E-02 0.19579438E+03</pdfrwt>
<pdfrwt beam="2">  1       21 0.16447165E+00 0.19579438E+03</pdfrwt>
<totfact> 0.46991979E+04</totfact>
</mgrwt>
</event>
<event>
 4    1  0.4035350E+000  0.1921962E+03  0.7546771E-02  0.1156495E+00
         21   -1    0    0  503  502  0.00000000000E+00  0.00000000000E+00  0.12980060556E+03  0.12980060556E+03  0.00000000000E+00 0.  1.
         21   -1    0    0  501  503 -0.00000000000E+00 -0.00000000000E+00 -0.39050014269E+03  0.39050014269E+03  0.00000000000E+00 0.  1.
          6    1    1    2  501    0  0.58160885552E+02  0.60230306360E+02 -0.26583492897E+03  0.32803595516E+03  0.17300000000E+03 0.  1.
         -6    1    1    2    0  502 -0.58160885552E+02 -0.60230306360E+02  0.51353918496E+01  0.19226479309E+03  0.17300000000E+03 0.  1.
<mgrwt>
<rscale>  2 0.19219620E+03</rscale>
<asrwt>0</asrwt>
<pdfrwt beam="1">  1       21 0.19969324E-01 0.19219620E+03</pdfrwt>
<pdfrwt beam="2">  1       21 0.60076946E-01 0.19219620E+03</pdfrwt>
<totfact> 0.59835327E+04</totfact>
</mgrwt>
</event>
<event>
 4    1  0.4035350E+000  0.1954929E+03  0.7546771E-02  0.1153598E+00
         21   -1    0    0  501  502  0.00000000000E+00  0.00000000000E+00  0.22622073712E+03  0.22622073712E+03  0.00000000000E+00 0.  1.
         21   -1    0    0  502  503 -0.00000000000E+00 -0.00000000000E+00 -0.29081254025E+03  0.29081254025E+03  0.00000000000E+00 0.  1.
          6    1    1    2  501    0  0.52772301768E+02 -0.74186061280E+02  0.13505836447E+03  0.23760944707E+03  0.17300000000E+03 0.  1.
         -6    1    1    2    0  503 -0.52772301768E+02  0.74186061280E+02 -0.19965016759E+03  0.27942383030E+03  0.17300000000E+03 0.  1.
<mgrwt>
<rscale>  2 0.19549293E+03</rscale>
<asrwt>0</asrwt>
<pdfrwt beam="1">  1       21 0.34803190E-01 0.19549293E+03</pdfrwt>
<pdfrwt beam="2">  1       21 0.44740391E-01 0.19549293E+03</pdfrwt>
<totfact> 0.38105371E+04</totfact>
</mgrwt>
</event>
<event>
 4    1  0.4035350E+000  0.1911595E+03  0.7546771E-02  0.1157420E+00
         21   -1    0    0  503  502  0.00000000000E+00  0.00000000000E+00  0.22585646597E+03  0.22585646597E+03  0.00000000000E+00 0.  1.
         21   -1    0    0  501  503 -0.00000000000E+00 -0.00000000000E+00 -0.43348456578E+03  0.43348456578E+03  0.00000000000E+00 0. -1.
          6    1    1    2  501    0  0.80659737802E+02  0.10342280665E+02 -0.36480863977E+03  0.41185834910E+03  0.17300000000E+03 0. -1.
         -6    1    1    2    0  502 -0.80659737802E+02 -0.10342280665E+02  0.15718053996E+03  0.24748268266E+03  0.17300000000E+03 0.  1.
<mgrwt>
<rscale>  2 0.19115950E+03</rscale>
<asrwt>0</asrwt>
<pdfrwt beam="1">  1       21 0.34747149E-01 0.19115950E+03</pdfrwt>
<pdfrwt beam="2">  1       21 0.66689933E-01 0.19115950E+03</pdfrwt>
<totfact> 0.16468302E+04</totfact>
</mgrwt>
</event>
<event>
 4    1  0.4035350E+000  0.3907039E+03  0.7546771E-02  0.1047047E+00
         21   -1    0    0  503  502  0.00000000000E+00  0.00000000000E+00  0.58676512549E+03  0.58676512549E+03  0.00000000000E+00 0.  1.
         21   -1    0    0  501  503 -0.00000000000E+00 -0.00000000000E+00 -0.44555539188E+03  0.44555539188E+03  0.00000000000E+00 0. -1.
          6    1    1    2  501    0  0.32010894613E+03 -0.14230532185E+03 -0.26235333125E+03  0.47061535508E+03  0.17300000000E+03 0. -1.
         -6    1    1    2    0  502 -0.32010894613E+03  0.14230532185E+03  0.40356306487E+03  0.56170516229E+03  0.17300000000E+03 0.  1.
<mgrwt>
<rscale>  2 0.39070391E+03</rscale>
<asrwt>0</asrwt>
<pdfrwt beam="1">  1       21 0.90271558E-01 0.39070391E+03</pdfrwt>
<pdfrwt beam="2">  1       21 0.68546983E-01 0.39070391E+03</pdfrwt>
<totfact> 0.17854188E+03</totfact>
</mgrwt>
</event>
<event>
 4    1  0.4035350E+000  0.1995990E+03  0.7546771E-02  0.1150078E+00
         21   -1    0    0  501  502  0.00000000000E+00  0.00000000000E+00  0.30164762777E+03  0.30164762777E+03  0.00000000000E+00 0. -1.
         21   -1    0    0  502  503 -0.00000000000E+00 -0.00000000000E+00 -0.15688852702E+03  0.15688852702E+03  0.00000000000E+00 0. -1.
          6    1    1    2  501    0 -0.13664009838E+02  0.98610591897E+02  0.16356017996E+03  0.25805365036E+03  0.17300000000E+03 0. -1.
         -6    1    1    2    0  503  0.13664009838E+02 -0.98610591897E+02 -0.18801079207E+02  0.20048250442E+03  0.17300000000E+03 0. -1.
<mgrwt>
<rscale>  2 0.19959898E+03</rscale>
<asrwt>0</asrwt>
<pdfrwt beam="1">  1       21 0.46407327E-01 0.19959898E+03</pdfrwt>
<pdfrwt beam="2">  1       21 0.24136697E-01 0.19959898E+03</pdfrwt>
<totfact> 0.71811611E+04</totfact>
</mgrwt>
</event>
<event>
 4    1  0.4035350E+000  0.2018459E+03  0.7546771E-02  0.1148191E+00
         21   -1    0    0  501  502  0.00000000000E+00  0.00000000000E+00  0.10121294027E+03  0.10121294027E+03  0.00000000000E+00 0. -1.
         21   -1    0    0  502  503 -0.00000000000E+00 -0.00000000000E+00 -0.40256723649E+03  0.40256723649E+03  0.00000000000E+00 0.  1.
          6    1    1    2  501    0  0.34073101390E+02  0.98243573113E+02 -0.14843173379E+03  0.25054691276E+03  0.17300000000E+03 0.  1.
         -6    1    1    2    0  503 -0.34073101390E+02 -0.98243573113E+02 -0.15292256242E+03  0.25323326400E+03  0.17300000000E+03 0. -1.
<mgrwt>
<rscale>  2 0.20184592E+03</rscale>
<asrwt>0</asrwt>
<pdfrwt beam="1">  1       21 0.15571222E-01 0.20184592E+03</pdfrwt>
<pdfrwt beam="2">  1       21 0.61933421E-01 0.20184592E+03</pdfrwt>
<totfact> 0.88338907E+04</totfact>
</mgrwt>
</event>
<event>
 4    1  0.4035350E+000  0.1953886E+03  0.7546771E-02  0.1153689E+00
         21   -1    0    0  501  502  0.00000000000E+00  0.00000000000E+00  0.16693893687E+03  0.16693893687E+03  0.00000000000E+00 0.  1.
         21   -1    0    0  502  503 -0.00000000000E+00 -0.00000000000E+00 -0.34945431059E+03  0.34945431059E+03  0.00000000000E+00 0.  1.
          6    1    1    2  501    0  0.34270410567E+02  0.84102620464E+02  0.60527931655E+02  0.20454911958E+03  0.17300000000E+03 0.  1.
         -6    1    1    2    0  503 -0.34270410567E+02 -0.84102620464E+02 -0.24304330537E+03  0.31184412788E+03  0.17300000000E+03 0.  1.
<mgrwt>
<rscale>  2 0.19538862E+03</rscale>
<asrwt>0</asrwt>
<pdfrwt beam="1">  1       21 0.25682913E-01 0.19538862E+03</pdfrwt>
<pdfrwt beam="2">  1       21 0.53762201E-01 0.19538862E+03</pdfrwt>
<totfact> 0.47020515E+04</totfact>
</mgrwt>
</event>
<event>
 4    1  0.4035350E+000  0.2068103E+03  0.7546771E-02  0.1144117E+00
         21   -1    0    0  501  502  0.00000000000E+00  0.00000000000E+00  0.33172544551E+03  0.33172544551E+03  0.00000000000E+00 0. -1.
         21   -1    0    0  502  503 -0.00000000000E+00 -0.00000000000E+00 -0.19243314572E+03  0.19243314572E+03  0.00000000000E+00 0.  1.
          6    1    1    2  501    0 -0.22785447674E+02 -0.11100597846E+03  0.22019540762E+03  0.30208694347E+03  0.17300000000E+03 0. -1.
         -6    1    1    2    0  503  0.22785447674E+02  0.11100597846E+03 -0.80903107838E+02  0.22207164775E+03  0.17300000000E+03 0.  1.
<mgrwt>
<rscale>  2 0.20681031E+03</rscale>
<asrwt>0</asrwt>
<pdfrwt beam="1">  1       21 0.51034684E-01 0.20681031E+03</pdfrwt>
<pdfrwt beam="2">  1       21 0.29605099E-01 0.20681031E+03</pdfrwt>
<totfact> 0.39631617E+04</totfact>
</mgrwt>
</event>
<event>
 4    1  0.4035350E+000  0.1834754E+03  0.7546771E-02  0.1164481E+00
         21   -1    0    0  503  502  0.00000000000E+00  0.00000000000E+00  0.15463708220E+04  0.15463708220E+04  0.00000000000E+00 0. -1.
         21   -1    0    0  501  503 -0.00000000000E+00 -0.00000000000E+00 -0.28329163779E+02  0.28329163779E+02  0.00000000000E+00 0. -1.
          6    1    1    2  501    0  0.38678986309E+02 -0.47309197961E+02  0.38014024923E+03  0.42210168595E+03  0.17300000000E+03 0. -1.
         -6    1    1    2    0  502 -0.38678986309E+02  0.47309197961E+02  0.11379014090E+04  0.11525982998E+04  0.17300000000E+03 0. -1.
<mgrwt>
<rscale>  2 0.18347540E+03</rscale>
<asrwt>0</asrwt>
<pdfrwt beam="1">  1       21 0.23790314E+00 0.18347540E+03</pdfrwt>
<pdfrwt beam="2">  1       21 0.43583341E-02 0.18347540E+03</pdfrwt>
<totfact> 0.26802162E+04</totfact>
</mgrwt>
</event>
<event>
 4    1  0.4035350E+000  0.1739429E+03  0.7546771E-02  0.1173797E+00
         21   -1    0    0  503  502  0.00000000000E+00  0.00000000000E+00  0.14735772288E+03  0.14735772288E+03  0.00000000000E+00 0. -1.
         21   -1    0    0  501  503 -0.00000000000E+00 -0.00000000000E+00 -0.57415351695E+03  0.57415351695E+03  0.00000000000E+00 0. -1.
          6    1    1    2  501    0 -0.14927681893E+02  0.10212211842E+02 -0.50254026558E+03  0.53179210552E+03  0.17300000000E+03 0. -1.
         -6    1    1    2    0  502  0.14927681893E+02 -0.10212211842E+02  0.75744471522E+02  0.18971913431E+03  0.17300000000E+03 0. -1.
<mgrwt>
<rscale>  2 0.17394288E+03</rscale>
<asrwt>0</asrwt>
<pdfrwt beam="1">  1       21 0.22670419E-01 0.17394288E+03</pdfrwt>
<pdfrwt beam="2">  1       21 0.88331311E-01 0.17394288E+03</pdfrwt>
<totfact> 0.20241443E+04</totfact>
</mgrwt>
</event>
<event>
 4    1  0.4035350E+000  0.3136938E+03  0.7546771E-02  0.1078589E+00
         21   -1    0    0  501  502  0.00000000000E+00  0.00000000000E+00  0.36913655060E+03  0.36913655060E+03  0.00000000000E+00 0.  1.
         21   -1    0    0  502  503 -0.00000000000E+00 -0.00000000000E+00 -0.33305302778E+03  0.33305302778E+03  0.00000000000E+00 0. -1.
          6    1    1    2  501    0 -0.20206742431E+03 -0.16626349565E+03  0.17489589787E+03  0.35915507659E+03  0.17300000000E+03 0.  1.
         -6    1    1    2    0  503  0.20206742431E+03  0.16626349565E+03 -0.13881237505E+03  0.34303450179E+03  0.17300000000E+03 0. -1.
<mgrwt>
<rscale>  2 0.31369379E+03</rscale>
<asrwt>0</asrwt>
<pdfrwt beam="1">  1       21 0.56790238E-01 0.31369379E+03</pdfrwt>
<pdfrwt beam="2">  1       21 0.51238927E-01 0.31369379E+03</pdfrwt>
<totfact> 0.98730743E+03</totfact>
</mgrwt>
</event>
<event>
 4    1  0.4035350E+000  0.1927633E+03  0.7546771E-02  0.1155992E+00
         21   -1    0    0  503  502  0.00000000000E+00  0.00000000000E+00  0.11731683167E+03  0.11731683167E+03  0.00000000000E+00 0. -1.
         21   -1    0    0  501  503 -0.00000000000E+00 -0.00000000000E+00 -0.31684435393E+03  0.31684435393E+03  0.00000000000E+00 0. -1.
          6    1    1    2  501    0 -0.46053509351E+02 -0.71468656050E+02 -0.95629648119E+02  0.21518067785E+03  0.17300000000E+03 0. -1.
         -6    1    1    2    0  502  0.46053509351E+02  0.71468656050E+02 -0.10389787414E+03  0.21898050774E+03  0.17300000000E+03 0. -1.
<mgrwt>
<rscale>  2 0.19276331E+03</rscale>
<asrwt>0</asrwt>
<pdfrwt beam="1">  1       21 0.18048744E-01 0.19276331E+03</pdfrwt>
<pdfrwt beam="2">  1       21 0.48745284E-01 0.19276331E+03</pdfrwt>
<totfact> 0.11223136E+05</totfact>
</mgrwt>
</event>
<event>
 4    1  0.4035350E+000  0.1791660E+03  0.7546771E-02  0.1168613E+00
         21   -1    0    0  501  502  0.00000000000E+00  0.00000000000E+00  0.37360895694E+03  0.37360895694E+03  0.00000000000E+00 0. -1.
         21   -1    0    0  502  503 -0.00000000000E+00 -0.00000000000E+00 -0.10014002170E+03  0.10014002170E+03  0.00000000000E+00 0. -1.
          6    1    1    2  501    0 -0.19745024165E+02 -0.42208823133E+02  0.22599630886E+03  0.28840038549E+03  0.17300000000E+03 0. -1.
         -6    1    1    2    0  503  0.19745024165E+02  0.42208823133E+02  0.47472626377E+02  0.18534859316E+03  0.17300000000E+03 0. -1.
<mgrwt>
<rscale>  2 0.17916599E+03</rscale>
<asrwt>0</asrwt>
<pdfrwt beam="1">  1       21 0.57478300E-01 0.17916599E+03</pdfrwt>
<pdfrwt beam="2">  1       21 0.15406157E-01 0.17916599E+03</pdfrwt>
<totfact> 0.10666908E+05</totfact>
</mgrwt>
</event>
<event>
 4    1  0.4035350E+000  0.2049629E+03  0.7546771E-02  0.1145618E+00
         21   -1    0    0  503  502  0.00000000000E+00  0.00000000000E+00  0.35707273021E+03  0.35707273021E+03  0.00000000000E+00 0.  1.
         21   -1    0    0  501  503 -0.00000000000E+00 -0.00000000000E+00 -0.29712223716E+03  0.29712223716E+03  0.00000000000E+00 0.  1.
          6    1    1    2  501    0 -0.10667257320E+03 -0.26490595158E+02 -0.22424354143E+03  0.30380084821E+03  0.17300000000E+03 0. -1.
         -6    1    1    2    0  502  0.10667257320E+03  0.26490595158E+02  0.28419403448E+03  0.35039411915E+03  0.17300000000E+03 0. -1.
<mgrwt>
<rscale>  2 0.20496290E+03</rscale>
<asrwt>0</asrwt>
<pdfrwt beam="1">  1       21 0.54934267E-01 0.20496290E+03</pdfrwt>
<pdfrwt beam="2">  1       21 0.45711113E-01 0.20496290E+03</pdfrwt>
<totfact> 0.14235136E+04</totfact>
</mgrwt>
</event>
<event>
 4    1  0.4035350E+000  0.1912549E+03  0.7546771E-02  0.1157334E+00
         21   -1    0    0  503  502  0.00000000000E+00  0.00000000000E+00  0.61084832472E+02  0.61084832472E+02  0.00000000000E+00 0.  1.
         21   -1    0    0  501  503 -0.00000000000E+00 -0.00000000000E+00 -0.79973666841E+03  0.79973666841E+03  0.00000000000E+00 0. -1.
          6    1    1    2  501    0 -0.81430750790E+02 -0.42981214164E+01 -0.58506274349E+03  0.61552973514E+03  0.17300000000E+03 0. -1.
         -6    1    1    2    0  502  0.81430750790E+02  0.42981214164E+01 -0.15358909245E+03  0.24529176574E+03  0.17300000000E+03 0.  1.
<mgrwt>
<rscale>  2 0.19125491E+03</rscale>
<asrwt>0</asrwt>
<pdfrwt beam="1">  1       21 0.93976667E-02 0.19125491E+03</pdfrwt>
<pdfrwt beam="2">  1       21 0.12303641E+00 0.19125491E+03</pdfrwt>
<totfact> 0.44966103E+04</totfact>
</mgrwt>
</event>
<event>
 4    1  0.4035350E+000  0.1903506E+03  0.7546771E-02  0.1158146E+00
         21   -1    0    0  503  502  0.00000000000E+00  0.00000000000E+00  0.28283654488E+03  0.28283654488E+03  0.00000000000E+00 0.  1.
         21   -1    0    0  501  503 -0.00000000000E+00 -0.00000000000E+00 -0.13068043405E+03  0.13068043405E+03  0.00000000000E+00 0.  1.
          6    1    1    2  501    0  0.55747936085E+02  0.56537723925E+02  0.47063695628E+02  0.19608247767E+03  0.17300000000E+03 0. -1.
         -6    1    1    2    0  502 -0.55747936085E+02 -0.56537723925E+02  0.10509241520E+03  0.21743450126E+03  0.17300000000E+03 0. -1.
<mgrwt>
<rscale>  2 0.19035059E+03</rscale>
<asrwt>0</asrwt>
<pdfrwt beam="1">  1       21 0.43513314E-01 0.19035059E+03</pdfrwt>
<pdfrwt beam="2">  1       21 0.20104682E-01 0.19035059E+03</pdfrwt>
<totfact> 0.11613821E+05</totfact>
</mgrwt>
</event>
<event>
 4    1  0.4035350E+000  0.1784821E+03  0.7546771E-02  0.1169280E+00
         21   -1    0    0  501  502  0.00000000000E+00  0.00000000000E+00  0.32916812726E+02  0.32916812726E+02  0.00000000000E+00 0. -1.
         21   -1    0    0  502  503 -0.00000000000E+00 -0.00000000000E+00 -0.13034656329E+04  0.13034656329E+04  0.00000000000E+00 0. -1.
          6    1    1    2  501    0 -0.26006958625E+02  0.35362339182E+02 -0.29617678991E+03  0.34579842077E+03  0.17300000000E+03 0. -1.
         -6    1    1    2    0  503  0.26006958625E+02 -0.35362339182E+02 -0.97437203030E+03  0.99058402488E+03  0.17300000000E+03 0. -1.
<mgrwt>
<rscale>  2 0.17848209E+03</rscale>
<asrwt>0</asrwt>
<pdfrwt beam="1">  1       21 0.50641260E-02 0.17848209E+03</pdfrwt>
<pdfrwt beam="2">  1       21 0.20053314E+00 0.17848209E+03</pdfrwt>
<totfact> 0.35419639E+04</totfact>
</mgrwt>
</event>
<event>
 4    1  0.4035350E+000  0.2057634E+03  0.7546771E-02  0.1144966E+00
         21   -1    0    0  501  502  0.00000000000E+00  0.00000000000E+00  0.45139267346E+02  0.45139267346E+02  0.00000000000E+00 0.  1.
         21   -1    0    0  502  503 -0.00000000000E+00 -0.00000000000E+00 -0.94269811656E+03  0.94269811656E+03  0.00000000000E+00 0.  1.
          6    1    1    2  501    0  0.96009523920E+02 -0.56495599077E+02 -0.41374286690E+03  0.46208412796E+03  0.17300000000E+03 0.  1.
         -6    1    1    2    0  503 -0.96009523920E+02  0.56495599077E+02 -0.48381598231E+03  0.52575325594E+03  0.17300000000E+03 0.  1.
<mgrwt>
<rscale>  2 0.20576341E+03</rscale>
<asrwt>0</asrwt>
<pdfrwt beam="1">  1       21 0.69445027E-02 0.20576341E+03</pdfrwt>
<pdfrwt beam="2">  1       21 0.14503048E+00 0.20576341E+03</pdfrwt>
<totfact> 0.49703689E+04</totfact>
</mgrwt>
</event>
<event>
 4    1  0.4035350E+000  0.1866448E+03  0.7546771E-02  0.1161523E+00
         21   -1    0    0  503  502  0.00000000000E+00  0.00000000000E+00  0.17346679262E+03  0.17346679262E+03  0.00000000000E+00 0. -1.
         21   -1    0    0  501  503 -0.00000000000E+00 -0.00000000000E+00 -0.43404572631E+03  0.43404572631E+03  0.00000000000E+00 0. -1.
          6    1    1    2  501    0 -0.69229154947E+02  0.10704802852E+02 -0.35294943304E+03  0.39926128160E+03  0.17300000000E+03 0. -1.
         -6    1    1    2    0  502  0.69229154947E+02 -0.10704802852E+02  0.92370499350E+02  0.20825123733E+03  0.17300000000E+03 0. -1.
<mgrwt>
<rscale>  2 0.18664477E+03</rscale>
<asrwt>0</asrwt>
<pdfrwt beam="1">  1       21 0.26687199E-01 0.18664477E+03</pdfrwt>
<pdfrwt beam="2">  1       21 0.66776264E-01 0.18664477E+03</pdfrwt>
<totfact> 0.27557520E+04</totfact>
</mgrwt>
</event>
<event>
 4    1  0.4035350E+000  0.1783025E+03  0.7546771E-02  0.1169456E+00
         21   -1    0    0  501  502  0.00000000000E+00  0.00000000000E+00  0.56073347073E+02  0.56073347073E+02  0.00000000000E+00 0. -1.
         21   -1    0    0  502  503 -0.00000000000E+00 -0.00000000000E+00 -0.62383374362E+03  0.62383374362E+03  0.00000000000E+00 0. -1.
          6    1    1    2  501    0  0.42513470528E+02 -0.74422161483E+01 -0.18124146093E+03  0.25424446684E+03  0.17300000000E+03 0.  1.
         -6    1    1    2    0  503 -0.42513470528E+02  0.74422161483E+01 -0.38651893561E+03  0.42566262385E+03  0.17300000000E+03 0.  1.
<mgrwt>
<rscale>  2 0.17830250E+03</rscale>
<asrwt>0</asrwt>
<pdfrwt beam="1">  1       21 0.86266683E-02 0.17830250E+03</pdfrwt>
<pdfrwt beam="2">  1       21 0.95974427E-01 0.17830250E+03</pdfrwt>
<totfact> 0.95721551E+04</totfact>
</mgrwt>
</event>
<event>
 4    1  0.4035350E+000  0.1989732E+03  0.7546771E-02  0.1150608E+00
         21   -1    0    0  501  502  0.00000000000E+00  0.00000000000E+00  0.80077105586E+02  0.80077105586E+02  0.00000000000E+00 0.  1.
         21   -1    0    0  502  503 -0.00000000000E+00 -0.00000000000E+00 -0.55443906458E+03  0.55443906458E+03  0.00000000000E+00 0. -1.
          6    1    1    2  501    0 -0.54690070190E+02 -0.81672160483E+02 -0.13278287757E+03  0.23921044741E+03  0.17300000000E+03 0.  1.
         -6    1    1    2    0  503  0.54690070190E+02  0.81672160483E+02 -0.34157908143E+03  0.39530572276E+03  0.17300000000E+03 0. -1.
<mgrwt>
<rscale>  2 0.19897323E+03</rscale>
<asrwt>0</asrwt>
<pdfrwt beam="1">  1       21 0.12319555E-01 0.19897323E+03</pdfrwt>
<pdfrwt beam="2">  1       21 0.85298315E-01 0.19897323E+03</pdfrwt>
<totfact> 0.66350569E+04</totfact>
</mgrwt>
</event>
<event>
 4    1  0.4035350E+000  0.3249837E+03  0.7546771E-02  0.1073378E+00
         21   -1    0    0  503  502  0.00000000000E+00  0.00000000000E+00  0.10516278688E+03  0.10516278688E+03  0.00000000000E+00 0. -1.
         21   -1    0    0  501  503 -0.00000000000E+00 -0.00000000000E+00 -0.10786805903E+04  0.10786805903E+04  0.00000000000E+00 0. -1.
          6    1    1    2  501    0  0.23098675808E+03 -0.14943393650E+03 -0.64219946907E+03  0.71974616487E+03  0.17300000000E+03 0. -1.
         -6    1    1    2    0  502 -0.23098675808E+03  0.14943393650E+03 -0.33131833435E+03  0.46409721229E+03  0.17300000000E+03 0. -1.
<mgrwt>
<rscale>  2 0.32498367E+03</rscale>
<asrwt>0</asrwt>
<pdfrwt beam="1">  1       21 0.16178890E-01 0.32498367E+03</pdfrwt>
<pdfrwt beam="2">  1       21 0.16595086E+00 0.32498367E+03</pdfrwt>
<totfact> 0.71584583E+03</totfact>
</mgrwt>
</event>
<event>
 4    1  0.4035350E+000  0.2262787E+03  0.7546771E-02  0.1129287E+00
         21   -1    0    0  501  502  0.00000000000E+00  0.00000000000E+00  0.66500860037E+03  0.66500860037E+03  0.00000000000E+00 0. -1.
         21   -1    0    0  502  503 -0.00000000000E+00 -0.00000000000E+00 -0.85619306711E+02  0.85619306711E+02  0.00000000000E+00 0.  1.
          6    1    1    2  501    0 -0.13839772934E+03  0.46034009590E+02  0.40881374339E+03  0.46725874878E+03  0.17300000000E+03 0. -1.
         -6    1    1    2    0  503  0.13839772934E+03 -0.46034009590E+02  0.17057555026E+03  0.28336915830E+03  0.17300000000E+03 0.  1.
<mgrwt>
<rscale>  2 0.22627873E+03</rscale>
<asrwt>0</asrwt>
<pdfrwt beam="1">  1       21 0.10230901E+00 0.22627873E+03</pdfrwt>
<pdfrwt beam="2">  1       21 0.13172201E-01 0.22627873E+03</pdfrwt>
<totfact> 0.37919619E+04</totfact>
</mgrwt>
</event>
<event>
 4    1  0.4035350E+000  0.3016074E+03  0.7546771E-02  0.1084440E+00
         21   -1    0    0  501  502  0.00000000000E+00  0.00000000000E+00  0.25404320215E+03  0.25404320215E+03  0.00000000000E+00 0.  1.
         21   -1    0    0  502  503 -0.00000000000E+00 -0.00000000000E+00 -0.20976861569E+04  0.20976861569E+04  0.00000000000E+00 0.  1.
          6    1    1    2  501    0  0.24369215222E+03  0.40647017372E+02  0.14898976743E+03  0.33640005332E+03  0.17300000000E+03 0.  1.
         -6    1    1    2    0  503 -0.24369215222E+03 -0.40647017372E+02 -0.19926327222E+04  0.20153293057E+04  0.17300000000E+03 0.  1.
<mgrwt>
<rscale>  2 0.30160744E+03</rscale>
<asrwt>0</asrwt>
<pdfrwt beam="1">  1       21 0.39083568E-01 0.30160744E+03</pdfrwt>
<pdfrwt beam="2">  1       21 0.32272096E+00 0.30160744E+03</pdfrwt>
<totfact> 0.13841945E+02</totfact>
</mgrwt>
</event>
<event>
 4    1  0.4035350E+000  0.2042277E+03  0.7546771E-02  0.1146220E+00
         21   -1    0    0  503  502  0.00000000000E+00  0.00000000000E+00  0.44585247478E+02  0.44585247478E+02  0.00000000000E+00 0. -1.
         21   -1    0    0  501  503 -0.00000000000E+00 -0.00000000000E+00 -0.98043252217E+03  0.98043252217E+03  0.00000000000E+00 0. -1.
          6    1    1    2  501    0 -0.10739538204E+03  0.15690650372E+02 -0.35819225179E+03  0.41232348204E+03  0.17300000000E+03 0. -1.
         -6    1    1    2    0  502  0.10739538204E+03 -0.15690650372E+02 -0.57765502290E+03  0.61269428761E+03  0.17300000000E+03 0. -1.
<mgrwt>
<rscale>  2 0.20422773E+03</rscale>
<asrwt>0</asrwt>
<pdfrwt beam="1">  1       21 0.68592689E-02 0.20422773E+03</pdfrwt>
<pdfrwt beam="2">  1       21 0.15083577E+00 0.20422773E+03</pdfrwt>
<totfact> 0.45838396E+04</totfact>
</mgrwt>
</event>
<event>
 4    1  0.4035350E+000  0.1842670E+03  0.7546771E-02  0.1163736E+00
         21   -1    0    0  503  502  0.00000000000E+00  0.00000000000E+00  0.58170285421E+02  0.58170285421E+02  0.00000000000E+00 0.  1.
         21   -1    0    0  501  503 -0.00000000000E+00 -0.00000000000E+00 -0.61851453951E+03  0.61851453951E+03  0.00000000000E+00 0.  1.
          6    1    1    2  501    0  0.52102123899E+02  0.36203783241E+02 -0.36043677774E+03  0.40480738134E+03  0.17300000000E+03 0.  1.
         -6    1    1    2    0  502 -0.52102123899E+02 -0.36203783241E+02 -0.19990747635E+03  0.27187744360E+03  0.17300000000E+03 0.  1.
<mgrwt>
<rscale>  2 0.18426705E+03</rscale>
<asrwt>0</asrwt>
<pdfrwt beam="1">  1       21 0.89492743E-02 0.18426705E+03</pdfrwt>
<pdfrwt beam="2">  1       21 0.95156087E-01 0.18426705E+03</pdfrwt>
<totfact> 0.91357000E+04</totfact>
</mgrwt>
</event>
<event>
 4    1  0.4035350E+000  0.2302533E+03  0.7546771E-02  0.1126462E+00
         21   -1    0    0  503  502  0.00000000000E+00  0.00000000000E+00  0.30800424295E+03  0.30800424295E+03  0.00000000000E+00 0.  1.
         21   -1    0    0  501  503 -0.00000000000E+00 -0.00000000000E+00 -0.19242816890E+03  0.19242816890E+03  0.00000000000E+00 0. -1.
          6    1    1    2  501    0 -0.14281046554E+03  0.51891897100E+02 -0.23479205847E+02  0.23144733993E+03  0.17300000000E+03 0. -1.
         -6    1    1    2    0  502  0.14281046554E+03 -0.51891897100E+02  0.13905527989E+03  0.26898507192E+03  0.17300000000E+03 0.  1.
<mgrwt>
<rscale>  2 0.23025333E+03</rscale>
<asrwt>0</asrwt>
<pdfrwt beam="1">  1       21 0.47385268E-01 0.23025333E+03</pdfrwt>
<pdfrwt beam="2">  1       21 0.29604334E-01 0.23025333E+03</pdfrwt>
<totfact> 0.45762726E+04</totfact>
</mgrwt>
</event>
<event>
 4    1  0.4035350E+000  0.2117231E+03  0.7546771E-02  0.1140209E+00
         21   -1    0    0  503  502  0.00000000000E+00  0.00000000000E+00  0.16149567758E+03  0.16149567758E+03  0.00000000000E+00 0.  1.
         21   -1    0    0  501  503 -0.00000000000E+00 -0.00000000000E+00 -0.27787807381E+03  0.27787807381E+03  0.00000000000E+00 0. -1.
          6    1    1    2  501    0 -0.99347170464E+02  0.70906986754E+02 -0.50898882327E+02  0.21775526922E+03  0.17300000000E+03 0. -1.
         -6    1    1    2    0  502  0.99347170464E+02 -0.70906986754E+02 -0.65483513907E+02  0.22161848218E+03  0.17300000000E+03 0. -1.
<mgrwt>
<rscale>  2 0.21172308E+03</rscale>
<asrwt>0</asrwt>
<pdfrwt beam="1">  1       21 0.24845489E-01 0.21172308E+03</pdfrwt>
<pdfrwt beam="2">  1       21 0.42750472E-01 0.21172308E+03</pdfrwt>
<totfact> 0.80013597E+04</totfact>
</mgrwt>
</event>
<event>
 4    1  0.4035350E+000  0.2021609E+03  0.7546771E-02  0.1147929E+00
         21   -1    0    0  503  502  0.00000000000E+00  0.00000000000E+00  0.23440968259E+03  0.23440968259E+03  0.00000000000E+00 0.  1.
         21   -1    0    0  501  503 -0.00000000000E+00 -0.00000000000E+00 -0.27589107988E+03  0.27589107988E+03  0.00000000000E+00 0. -1.
          6    1    1    2  501    0  0.65260393929E+02  0.81738164049E+02 -0.17553353234E+03  0.26773320200E+03  0.17300000000E+03 0. -1.
         -6    1    1    2    0  502 -0.65260393929E+02 -0.81738164049E+02  0.13405213506E+03  0.24256756047E+03  0.17300000000E+03 0.  1.
<mgrwt>
<rscale>  2 0.20216094E+03</rscale>
<asrwt>0</asrwt>
<pdfrwt beam="1">  1       21 0.36063028E-01 0.20216094E+03</pdfrwt>
<pdfrwt beam="2">  1       21 0.42444782E-01 0.20216094E+03</pdfrwt>
<totfact> 0.39404555E+04</totfact>
</mgrwt>
</event>
<event>
 4    1  0.4035350E+000  0.3560070E+03  0.7546771E-02  0.1060176E+00
         21   -1    0    0  503  502  0.00000000000E+00  0.00000000000E+00  0.64009523322E+03  0.64009523322E+03  0.00000000000E+00 0. -1.
         21   -1    0    0  501  503 -0.00000000000E+00 -0.00000000000E+00 -0.21183631152E+03  0.21183631152E+03  0.00000000000E+00 0. -1.
          6    1    1    2  501    0  0.18202301046E+03 -0.25234825249E+03  0.10527864623E+03  0.37124737066E+03  0.17300000000E+03 0. -1.
         -6    1    1    2    0  502 -0.18202301046E+03  0.25234825249E+03  0.32298027546E+03  0.48068417408E+03  0.17300000000E+03 0. -1.
<mgrwt>
<rscale>  2 0.35600705E+03</rscale>
<asrwt>0</asrwt>
<pdfrwt beam="1">  1       21 0.98476189E-01 0.35600705E+03</pdfrwt>
<pdfrwt beam="2">  1       21 0.32590202E-01 0.35600705E+03</pdfrwt>
<totfact> 0.70495810E+03</totfact>
</mgrwt>
</event>
<event>
 4    1  0.4035350E+000  0.2346377E+03  0.7546771E-02  0.1123417E+00
         21   -1    0    0  501  502  0.00000000000E+00  0.00000000000E+00  0.44307488888E+03  0.44307488888E+03  0.00000000000E+00 0. -1.
         21   -1    0    0  502  503 -0.00000000000E+00 -0.00000000000E+00 -0.14712034439E+03  0.14712034439E+03  0.00000000000E+00 0.  1.
          6    1    1    2  501    0 -0.92097940016E+02 -0.12901088130E+03  0.31643438618E+02  0.23676179011E+03  0.17300000000E+03 0.  1.
         -6    1    1    2    0  503  0.92097940016E+02  0.12901088130E+03  0.26431110588E+03  0.35343344316E+03  0.17300000000E+03 0. -1.
<mgrwt>
<rscale>  2 0.23463767E+03</rscale>
<asrwt>0</asrwt>
<pdfrwt beam="1">  1       21 0.68165367E-01 0.23463767E+03</pdfrwt>
<pdfrwt beam="2">  1       21 0.22633899E-01 0.23463767E+03</pdfrwt>
<totfact> 0.35185939E+04</totfact>
</mgrwt>
</event>
<event>
 4    1  0.4035350E+000  0.5791602E+03  0.7546771E-02  0.9949611E-01
         21   -1    0    0  503  502  0.00000000000E+00  0.00000000000E+00  0.22863089242E+03  0.22863089242E+03  0.00000000000E+00 0.  1.
         21   -1    0    0  501  503 -0.00000000000E+00 -0.00000000000E+00 -0.14769711943E+04  0.14769711943E+04  0.00000000000E+00 0. -1.
          6    1    1    2  501    0 -0.33144546822E+03  0.44231372045E+03 -0.55448500249E+03  0.80179806915E+03  0.17300000000E+03 0.  1.
         -6    1    1    2    0  502  0.33144546822E+03 -0.44231372045E+03 -0.69385529943E+03  0.90380401761E+03  0.17300000000E+03 0. -1.
<mgrwt>
<rscale>  2 0.57916019E+03</rscale>
<asrwt>0</asrwt>
<pdfrwt beam="1">  1       21 0.35173984E-01 0.57916019E+03</pdfrwt>
<pdfrwt beam="2">  1       21 0.22722634E+00 0.57916019E+03</pdfrwt>
<totfact> 0.54802677E+02</totfact>
</mgrwt>
</event>
<event>
 4    1  0.4035350E+000  0.3384794E+03  0.7546771E-02  0.1067445E+00
         21   -1    0    0  501  502  0.00000000000E+00  0.00000000000E+00  0.13984796994E+03  0.13984796994E+03  0.00000000000E+00 0.  1.
         21   -1    0    0  502  503 -0.00000000000E+00 -0.00000000000E+00 -0.86267131576E+03  0.86267131576E+03  0.00000000000E+00 0. -1.
          6    1    1    2  501    0  0.12959315165E+03 -0.26047059678E+03 -0.24893361725E+03  0.42016218599E+03  0.17300000000E+03 0. -1.
         -6    1    1    2    0  503 -0.12959315165E+03  0.26047059678E+03 -0.47388972857E+03  0.58235709971E+03  0.17300000000E+03 0. -1.
<mgrwt>
<rscale>  2 0.33847942E+03</rscale>
<asrwt>0</asrwt>
<pdfrwt beam="1">  1       21 0.21515072E-01 0.33847942E+03</pdfrwt>
<pdfrwt beam="2">  1       21 0.13271866E+00 0.33847942E+03</pdfrwt>
<totfact> 0.75832241E+03</totfact>
</mgrwt>
</event>
<event>
 4    1  0.4035350E+000  0.1835160E+03  0.7546771E-02  0.1164443E+00
         21   -1    0    0  503  502  0.00000000000E+00  0.00000000000E+00  0.32503746921E+03  0.32503746921E+03  0.00000000000E+00 0. -1.
         21   -1    0    0  501  503 -0.00000000000E+00 -0.00000000000E+00 -0.24438744192E+03  0.24438744192E+03  0.00000000000E+00 0. -1.
          6    1    1    2  501    0 -0.37611393884E+02 -0.48316813544E+02 -0.17576207435E+03  0.25410713922E+03  0.17300000000E+03 0.  1.
         -6    1    1    2    0  502  0.37611393884E+02  0.48316813544E+02  0.25641210164E+03  0.31531777192E+03  0.17300000000E+03 0.  1.
<mgrwt>
<rscale>  2 0.18351602E+03</rscale>
<asrwt>0</asrwt>
<pdfrwt beam="1">  1       21 0.50005764E-01 0.18351602E+03</pdfrwt>
<pdfrwt beam="2">  1       21 0.37598068E-01 0.18351602E+03</pdfrwt>
<totfact> 0.26122587E+04</totfact>
</mgrwt>
</event>
<event>
 4    1  0.4035350E+000  0.1894070E+03  0.7546771E-02  0.1158997E+00
         21   -1    0    0  501  502  0.00000000000E+00  0.00000000000E+00  0.16025993737E+03  0.16025993737E+03  0.00000000000E+00 0.  1.
         21   -1    0    0  502  503 -0.00000000000E+00 -0.00000000000E+00 -0.44168868679E+03  0.44168868679E+03  0.00000000000E+00 0.  1.
          6    1    1    2  501    0  0.41152738952E+01 -0.77000412163E+02  0.70650952969E+02  0.20215478255E+03  0.17300000000E+03 0.  1.
         -6    1    1    2    0  503 -0.41152738952E+01  0.77000412163E+02 -0.35207970239E+03  0.39979384161E+03  0.17300000000E+03 0.  1.
<mgrwt>
<rscale>  2 0.18940697E+03</rscale>
<asrwt>0</asrwt>
<pdfrwt beam="1">  1       21 0.24655375E-01 0.18940697E+03</pdfrwt>
<pdfrwt beam="2">  1       21 0.67952105E-01 0.18940697E+03</pdfrwt>
<totfact> 0.30817530E+04</totfact>
</mgrwt>
</event>
<event>
 4    1  0.4035350E+000  0.2208655E+03  0.7546771E-02  0.1133239E+00
         21   -1    0    0  501  502  0.00000000000E+00  0.00000000000E+00  0.10113880698E+04  0.10113880698E+04  0.00000000000E+00 0.  1.
         21   -1    0    0  502  503 -0.00000000000E+00 -0.00000000000E+00 -0.48964121914E+02  0.48964121914E+02  0.00000000000E+00 0.  1.
          6    1    1    2  501    0  0.12228233327E+03 -0.62446882085E+02  0.41639613747E+03  0.47134629034E+03  0.17300000000E+03 0.  1.
         -6    1    1    2    0  503 -0.12228233327E+03  0.62446882085E+02  0.54602781037E+03  0.58900590134E+03  0.17300000000E+03 0.  1.
<mgrwt>
<rscale>  2 0.22086553E+03</rscale>
<asrwt>0</asrwt>
<pdfrwt beam="1">  1       21 0.15559815E+00 0.22086553E+03</pdfrwt>
<pdfrwt beam="2">  1       21 0.75329426E-02 0.22086553E+03</pdfrwt>
<totfact> 0.35537486E+04</totfact>
</mgrwt>
</event>
<event>
 4    1  0.4035350E+000  0.2651896E+03  0.7546771E-02  0.1104065E+00
         21   -1    0    0  501  502  0.00000000000E+00  0.00000000000E+00  0.17418136042E+03  0.17418136042E+03  0.00000000000E+00 0. -1.
         21   -1    0    0  502  503 -0.00000000000E+00 -0.00000000000E+00 -0.43406919098E+03  0.43406919098E+03  0.00000000000E+00 0. -1.
          6    1    1    2  501    0  0.20056273048E+03 -0.13081334008E+02 -0.21032240107E+03  0.33846867292E+03  0.17300000000E+03 0. -1.
         -6    1    1    2    0  503 -0.20056273048E+03  0.13081334008E+02 -0.49565429489E+02  0.26978187848E+03  0.17300000000E+03 0. -1.
<mgrwt>
<rscale>  2 0.26518961E+03</rscale>
<asrwt>0</asrwt>
<pdfrwt beam="1">  1       21 0.26797133E-01 0.26518961E+03</pdfrwt>
<pdfrwt beam="2">  1       21 0.66779875E-01 0.26518961E+03</pdfrwt>
<totfact> 0.26272041E+04</totfact>
</mgrwt>
</event>
<event>
 4    1  0.4035350E+000  0.2011165E+03  0.7546771E-02  0.1148800E+00
         21   -1    0    0  503  502  0.00000000000E+00  0.00000000000E+00  0.34678425470E+02  0.34678425470E+02  0.00000000000E+00 0.  1.
         21   -1    0    0  501  503 -0.00000000000E+00 -0.00000000000E+00 -0.12243019520E+04  0.12243019520E+04  0.00000000000E+00 0. -1.
          6    1    1    2  501    0 -0.72822063005E+02 -0.72220491925E+02 -0.73174416962E+03  0.75887902995E+03  0.17300000000E+03 0. -1.
         -6    1    1    2    0  502  0.72822063005E+02  0.72220491925E+02 -0.45787935692E+03  0.50010134753E+03  0.17300000000E+03 0.  1.
<mgrwt>
<rscale>  2 0.20111651E+03</rscale>
<asrwt>0</asrwt>
<pdfrwt beam="1">  1       21 0.53351419E-02 0.20111651E+03</pdfrwt>
<pdfrwt beam="2">  1       21 0.18835416E+00 0.20111651E+03</pdfrwt>
<totfact> 0.38314209E+04</totfact>
</mgrwt>
</event>
<event>
 4    1  0.4035350E+000  0.2656788E+03  0.7546771E-02  0.1103779E+00
         21   -1    0    0  503  502  0.00000000000E+00  0.00000000000E+00  0.40539588393E+03  0.40539588393E+03  0.00000000000E+00 0.  1.
         21   -1    0    0  501  503 -0.00000000000E+00 -0.00000000000E+00 -0.24540409389E+03  0.24540409389E+03  0.00000000000E+00 0.  1.
          6    1    1    2  501    0 -0.72979902656E+02 -0.18796314889E+03 -0.95388269970E+02  0.28228378200E+03  0.17300000000E+03 0.  1.
         -6    1    1    2    0  502  0.72979902656E+02  0.18796314889E+03  0.25538006001E+03  0.36851619582E+03  0.17300000000E+03 0.  1.
<mgrwt>
<rscale>  2 0.26567878E+03</rscale>
<asrwt>0</asrwt>
<pdfrwt beam="1">  1       21 0.62368597E-01 0.26567878E+03</pdfrwt>
<pdfrwt beam="2">  1       21 0.37754476E-01 0.26567878E+03</pdfrwt>
<totfact> 0.15487359E+04</totfact>
</mgrwt>
</event>
<event>
 4    1  0.4035350E+000  0.2489406E+03  0.7546771E-02  0.1113976E+00
         21   -1    0    0  503  502  0.00000000000E+00  0.00000000000E+00  0.76470356842E+03  0.76470356842E+03  0.00000000000E+00 0. -1.
         21   -1    0    0  501  503 -0.00000000000E+00 -0.00000000000E+00 -0.12758886430E+03  0.12758886430E+03  0.00000000000E+00 0. -1.
          6    1    1    2  501    0  0.17056932207E+03  0.54300245195E+02  0.49077443445E+02  0.25373215349E+03  0.17300000000E+03 0. -1.
         -6    1    1    2    0  502 -0.17056932207E+03 -0.54300245195E+02  0.58803726068E+03  0.63856027922E+03  0.17300000000E+03 0. -1.
<mgrwt>
<rscale>  2 0.24894058E+03</rscale>
<asrwt>0</asrwt>
<pdfrwt beam="1">  1       21 0.11764670E+00 0.24894058E+03</pdfrwt>
<pdfrwt beam="2">  1       21 0.19629057E-01 0.24894058E+03</pdfrwt>
<totfact> 0.12797383E+04</totfact>
</mgrwt>
</event>
<event>
 4    1  0.4035350E+000  0.1922371E+03  0.7546771E-02  0.1156459E+00
         21   -1    0    0  503  502  0.00000000000E+00  0.00000000000E+00  0.10726934362E+03  0.10726934362E+03  0.00000000000E+00 0. -1.
         21   -1    0    0  501  503 -0.00000000000E+00 -0.00000000000E+00 -0.46580362435E+03  0.46580362435E+03  0.00000000000E+00 0.  1.
          6    1    1    2  501    0 -0.67364914359E+02 -0.49880500000E+02 -0.32548550260E+03  0.37801575148E+03  0.17300000000E+03 0.  1.
         -6    1    1    2    0  502  0.67364914359E+02  0.49880500000E+02 -0.33048778131E+02  0.19505721648E+03  0.17300000000E+03 0. -1.
<mgrwt>
<rscale>  2 0.19223708E+03</rscale>
<asrwt>0</asrwt>
<pdfrwt beam="1">  1       21 0.16502976E-01 0.19223708E+03</pdfrwt>
<pdfrwt beam="2">  1       21 0.71662096E-01 0.19223708E+03</pdfrwt>
<totfact> 0.57974155E+04</totfact>
</mgrwt>
</event>
<event>
 4    1  0.4035350E+000  0.2526433E+03  0.7546771E-02  0.1111646E+00
         21   -1    0    0  501  502  0.00000000000E+00  0.00000000000E+00  0.27135166608E+03  0.27135166608E+03  0.00000000000E+00 0.  1.
         21   -1    0    0  502  503 -0.00000000000E+00 -0.00000000000E+00 -0.24092849531E+03  0.24092849531E+03  0.00000000000E+00 0.  1.
          6    1    1    2  501    0  0.36292639862E+02  0.18050616957E+03 -0.24198992069E+02  0.25379957482E+03  0.17300000000E+03 0.  1.
         -6    1    1    2    0  503 -0.36292639862E+02 -0.18050616957E+03  0.54622162841E+02  0.25848058657E+03  0.17300000000E+03 0.  1.
<mgrwt>
<rscale>  2 0.25264329E+03</rscale>
<asrwt>0</asrwt>
<pdfrwt beam="1">  1       21 0.41746410E-01 0.25264329E+03</pdfrwt>
<pdfrwt beam="2">  1       21 0.37065922E-01 0.25264329E+03</pdfrwt>
<totfact> 0.37694086E+04</totfact>
</mgrwt>
</event>
<event>
 4    1  0.4035350E+000  0.2717373E+03  0.7546771E-02  0.1100289E+00
         21   -1    0    0  501  502  0.00000000000E+00  0.00000000000E+00  0.14823788072E+04  0.14823788072E+04  0.00000000000E+00 0.  1.
         21   -1    0    0  502  503 -0.00000000000E+00 -0.00000000000E+00 -0.12142296297E+03  0.12142296297E+03  0.00000000000E+00 0. -1.
          6    1    1    2  501    0 -0.23437185164E+02 -0.20823752662E+03  0.12963041236E+04  0.13244793505E+04  0.17300000000E+03 0.  1.
         -6    1    1    2    0  503  0.23437185164E+02  0.20823752662E+03  0.64651720646E+02  0.27932241966E+03  0.17300000000E+03 0. -1.
<mgrwt>
<rscale>  2 0.27173732E+03</rscale>
<asrwt>0</asrwt>
<pdfrwt beam="1">  1       21 0.22805827E+00 0.27173732E+03</pdfrwt>
<pdfrwt beam="2">  1       21 0.18680457E-01 0.27173732E+03</pdfrwt>
<totfact> 0.21895663E+03</totfact>
</mgrwt>
</event>
<event>
 4    1  0.4035350E+000  0.2097842E+03  0.7546771E-02  0.1141737E+00
         21   -1    0    0  503  502  0.00000000000E+00  0.00000000000E+00  0.37204997834E+03  0.37204997834E+03  0.00000000000E+00 0.  1.
         21   -1    0    0  501  503 -0.00000000000E+00 -0.00000000000E+00 -0.20069468078E+03  0.20069468078E+03  0.00000000000E+00 0.  1.
          6    1    1    2  501    0  0.42622123835E+02 -0.11074179088E+03 -0.97824819817E+02  0.23147156426E+03  0.17300000000E+03 0.  1.
         -6    1    1    2    0  502 -0.42622123835E+02  0.11074179088E+03  0.26918011738E+03  0.34127309486E+03  0.17300000000E+03 0.  1.
<mgrwt>
<rscale>  2 0.20978415E+03</rscale>
<asrwt>0</asrwt>
<pdfrwt beam="1">  1       21 0.57238458E-01 0.20978415E+03</pdfrwt>
<pdfrwt beam="2">  1       21 0.30876105E-01 0.20978415E+03</pdfrwt>
<totfact> 0.28599544E+04</totfact>
</mgrwt>
</event>
<event>
 4    1  0.4035350E+000  0.1798888E+03  0.7546771E-02  0.1167911E+00
         21   -1    0    0  503  502  0.00000000000E+00  0.00000000000E+00  0.37127799926E+03  0.37127799926E+03  0.00000000000E+00 0.  1.
         21   -1    0    0  501  503 -0.00000000000E+00 -0.00000000000E+00 -0.10302136482E+03  0.10302136482E+03  0.00000000000E+00 0.  1.
          6    1    1    2  501    0 -0.10819843461E+02  0.48103118492E+02  0.41070745145E+02  0.18451770952E+03  0.17300000000E+03 0.  1.
         -6    1    1    2    0  502  0.10819843461E+02 -0.48103118492E+02  0.22718588929E+03  0.28978165455E+03  0.17300000000E+03 0.  1.
<mgrwt>
<rscale>  2 0.17988880E+03</rscale>
<asrwt>0</asrwt>
<pdfrwt beam="1">  1       21 0.57119692E-01 0.17988880E+03</pdfrwt>
<pdfrwt beam="2">  1       21 0.15849441E-01 0.17988880E+03</pdfrwt>
<totfact> 0.10261954E+05</totfact>
</mgrwt>
</event>
<event>
 4    1  0.4035350E+000  0.1771933E+03  0.7546771E-02  0.1170547E+00
         21   -1    0    0  501  502  0.00000000000E+00  0.00000000000E+00  0.57963259545E+03  0.57963259545E+03  0.00000000000E+00 0.  1.
         21   -1    0    0  502  503 -0.00000000000E+00 -0.00000000000E+00 -0.10941968700E+03  0.10941968700E+03  0.00000000000E+00 0.  1.
          6    1    1    2  501    0 -0.33175748067E+02 -0.19179468323E+02  0.47992685141E+03  0.51159287032E+03  0.17300000000E+03 0.  1.
         -6    1    1    2    0  503  0.33175748067E+02  0.19179468323E+02 -0.97139429482E+01  0.17745941213E+03  0.17300000000E+03 0.  1.
<mgrwt>
<rscale>  2 0.17719335E+03</rscale>
<asrwt>0</asrwt>
<pdfrwt beam="1">  1       21 0.89174244E-01 0.17719335E+03</pdfrwt>
<pdfrwt beam="2">  1       21 0.16833798E-01 0.17719335E+03</pdfrwt>
<totfact> 0.34378690E+04</totfact>
</mgrwt>
</event>
<event>
 4    1  0.4035350E+000  0.2024139E+03  0.7546771E-02  0.1147718E+00
         21   -1    0    0  501  502  0.00000000000E+00  0.00000000000E+00  0.25693961310E+03  0.25693961310E+03  0.00000000000E+00 0.  1.
         21   -1    0    0  502  503 -0.00000000000E+00 -0.00000000000E+00 -0.31396329944E+03  0.31396329944E+03  0.00000000000E+00 0.  1.
          6    1    1    2  501    0 -0.77915742217E+02 -0.70509092904E+02  0.17173365904E+03  0.26545026787E+03  0.17300000000E+03 0.  1.
         -6    1    1    2    0  503  0.77915742217E+02  0.70509092904E+02 -0.22875734538E+03  0.30545264466E+03  0.17300000000E+03 0.  1.
<mgrwt>
<rscale>  2 0.20241392E+03</rscale>
<asrwt>0</asrwt>
<pdfrwt beam="1">  1       21 0.39529171E-01 0.20241392E+03</pdfrwt>
<pdfrwt beam="2">  1       21 0.48302046E-01 0.20241392E+03</pdfrwt>
<totfact> 0.25117934E+04</totfact>
</mgrwt>
</event>
<event>
 4    1  0.4035350E+000  0.1747272E+03  0.7546771E-02  0.1173006E+00
         21   -1    0    0  503  502  0.00000000000E+00  0.00000000000E+00  0.38263185938E+03  0.38263185938E+03  0.00000000000E+00 0.  1.
         21   -1    0    0  501  503 -0.00000000000E+00 -0.00000000000E+00 -0.12326193368E+03  0.12326193368E+03  0.00000000000E+00 0.  1.
          6    1    1    2  501    0 -0.24315623614E+02 -0.30544097002E+01 -0.20534914148E+02  0.17592970661E+03  0.17300000000E+03 0.  1.
         -6    1    1    2    0  502  0.24315623614E+02  0.30544097002E+01  0.27990483985E+03  0.32996408645E+03  0.17300000000E+03 0.  1.
<mgrwt>
<rscale>  2 0.17472716E+03</rscale>
<asrwt>0</asrwt>
<pdfrwt beam="1">  1       21 0.58866439E-01 0.17472716E+03</pdfrwt>
<pdfrwt beam="2">  1       21 0.18963375E-01 0.17472716E+03</pdfrwt>
<totfact> 0.69344170E+04</totfact>
</mgrwt>
</event>
<event>
 4    1  0.4035350E+000  0.2204217E+03  0.7546771E-02  0.1133569E+00
         21   -1    0    0  501  502  0.00000000000E+00  0.00000000000E+00  0.63650591195E+03  0.63650591195E+03  0.00000000000E+00 0. -1.
         21   -1    0    0  502  503 -0.00000000000E+00 -0.00000000000E+00 -0.11486462986E+03  0.11486462986E+03  0.00000000000E+00 0.  1.
          6    1    1    2  501    0  0.12887337066E+03 -0.45259201631E+02  0.47841397448E+03  0.52675010391E+03  0.17300000000E+03 0.  1.
         -6    1    1    2    0  503 -0.12887337066E+03  0.45259201631E+02  0.43227307617E+02  0.22462043790E+03  0.17300000000E+03 0. -1.
<mgrwt>
<rscale>  2 0.22042173E+03</rscale>
<asrwt>0</asrwt>
<pdfrwt beam="1">  1       21 0.97923985E-01 0.22042173E+03</pdfrwt>
<pdfrwt beam="2">  1       21 0.17671482E-01 0.22042173E+03</pdfrwt>
<totfact> 0.24660824E+04</totfact>
</mgrwt>
</event>
<event>
 4    1  0.4035350E+000  0.1782232E+03  0.7546771E-02  0.1169534E+00
         21   -1    0    0  503  502  0.00000000000E+00  0.00000000000E+00  0.21462016409E+03  0.21462016409E+03  0.00000000000E+00 0. -1.
         21   -1    0    0  501  503 -0.00000000000E+00 -0.00000000000E+00 -0.29497127195E+03  0.29497127195E+03  0.00000000000E+00 0. -1.
          6    1    1    2  501    0 -0.42069146561E+02  0.80438100439E+01 -0.22002965212E+03  0.28315466407E+03  0.17300000000E+03 0. -1.
         -6    1    1    2    0  502  0.42069146561E+02 -0.80438100439E+01  0.13967854426E+03  0.22643677197E+03  0.17300000000E+03 0. -1.
<mgrwt>
<rscale>  2 0.17822322E+03</rscale>
<asrwt>0</asrwt>
<pdfrwt beam="1">  1       21 0.33018487E-01 0.17822322E+03</pdfrwt>
<pdfrwt beam="2">  1       21 0.45380196E-01 0.17822322E+03</pdfrwt>
<totfact> 0.41425504E+04</totfact>
</mgrwt>
</event>
<event>
 4    1  0.4035350E+000  0.1923191E+03  0.7546771E-02  0.1156386E+00
         21   -1    0    0  501  502  0.00000000000E+00  0.00000000000E+00  0.32182714115E+02  0.32182714115E+02  0.00000000000E+00 0. -1.
         21   -1    0    0  502  503 -0.00000000000E+00 -0.00000000000E+00 -0.11586935089E+04  0.11586935089E+04  0.00000000000E+00 0. -1.
          6    1    1    2  501    0 -0.75191556194E+02 -0.37468058413E+02 -0.50955712297E+03  0.54464216426E+03  0.17300000000E+03 0. -1.
         -6    1    1    2    0  503  0.75191556194E+02  0.37468058413E+02 -0.61695367182E+03  0.64623405876E+03  0.17300000000E+03 0. -1.
<mgrwt>
<rscale>  2 0.19231907E+03</rscale>
<asrwt>0</asrwt>
<pdfrwt beam="1">  1       21 0.49511872E-02 0.19231907E+03</pdfrwt>
<pdfrwt beam="2">  1       21 0.17826052E+00 0.19231907E+03</pdfrwt>
<totfact> 0.51157250E+04</totfact>
</mgrwt>
</event>
<event>
 4    1  0.4035350E+000  0.1790871E+03  0.7546771E-02  0.1168690E+00
         21   -1    0    0  501  502  0.00000000000E+00  0.00000000000E+00  0.99686272854E+03  0.99686272854E+03  0.00000000000E+00 0. -1.
         21   -1    0    0  502  503 -0.00000000000E+00 -0.00000000000E+00 -0.57285819791E+02  0.57285819791E+02  0.00000000000E+00 0. -1.
          6    1    1    2  501    0  0.38514412770E+02 -0.25686875739E+02  0.81876402841E+03  0.83812093984E+03  0.17300000000E+03 0. -1.
         -6    1    1    2    0  503 -0.38514412770E+02  0.25686875739E+02  0.12081288034E+03  0.21602760850E+03  0.17300000000E+03 0. -1.
<mgrwt>
<rscale>  2 0.17908706E+03</rscale>
<asrwt>0</asrwt>
<pdfrwt beam="1">  1       21 0.15336348E+00 0.17908706E+03</pdfrwt>
<pdfrwt beam="2">  1       21 0.88132038E-02 0.17908706E+03</pdfrwt>
<totfact> 0.28816542E+04</totfact>
</mgrwt>
</event>
<event>
 4    1  0.4035350E+000  0.1853662E+03  0.7546771E-02  0.1162708E+00
         21   -1    0    0  503  502  0.00000000000E+00  0.00000000000E+00  0.11246991007E+03  0.11246991007E+03  0.00000000000E+00 0. -1.
         21   -1    0    0  501  503 -0.00000000000E+00 -0.00000000000E+00 -0.30552869756E+03  0.30552869756E+03  0.00000000000E+00 0.  1.
          6    1    1    2  501    0 -0.55223784367E+02  0.37174685858E+02 -0.98186991586E+02  0.20976488969E+03  0.17300000000E+03 0. -1.
         -6    1    1    2    0  502  0.55223784367E+02 -0.37174685858E+02 -0.94871795913E+02  0.20823371794E+03  0.17300000000E+03 0. -1.
<mgrwt>
<rscale>  2 0.18536619E+03</rscale>
<asrwt>0</asrwt>
<pdfrwt beam="1">  1       21 0.17303063E-01 0.18536619E+03</pdfrwt>
<pdfrwt beam="2">  1       21 0.47004415E-01 0.18536619E+03</pdfrwt>
<totfact> 0.13113835E+05</totfact>
</mgrwt>
</event>
<event>
 4    1  0.4035350E+000  0.2128366E+03  0.7546771E-02  0.1139339E+00
         21   -1    0    0  503  502  0.00000000000E+00  0.00000000000E+00  0.64322684365E+03  0.64322684365E+03  0.00000000000E+00 0.  1.
         21   -1    0    0  501  503 -0.00000000000E+00 -0.00000000000E+00 -0.35731180196E+03  0.35731180196E+03  0.00000000000E+00 0.  1.
          6    1    1    2  501    0  0.61831706947E+02 -0.10745817652E+03 -0.30530793963E+03  0.37217248378E+03  0.17300000000E+03 0.  1.
         -6    1    1    2    0  502 -0.61831706947E+02  0.10745817652E+03  0.59122298133E+03  0.62836616183E+03  0.17300000000E+03 0.  1.
<mgrwt>
<rscale>  2 0.21283660E+03</rscale>
<asrwt>0</asrwt>
<pdfrwt beam="1">  1       21 0.98957975E-01 0.21283660E+03</pdfrwt>
<pdfrwt beam="2">  1       21 0.54971047E-01 0.21283660E+03</pdfrwt>
<totfact> 0.25829212E+03</totfact>
</mgrwt>
</event>
<event>
 4    1  0.4035350E+000  0.1859924E+03  0.7546771E-02  0.1162126E+00
         21   -1    0    0  501  502  0.00000000000E+00  0.00000000000E+00  0.10864658974E+04  0.10864658974E+04  0.00000000000E+00 0.  1.
         21   -1    0    0  502  503 -0.00000000000E+00 -0.00000000000E+00 -0.41684334395E+02  0.41684334395E+02  0.00000000000E+00 0.  1.
          6    1    1    2  501    0  0.56144098422E+02 -0.38884716716E+02  0.79651128195E+03  0.81793850824E+03  0.17300000000E+03 0.  1.
         -6    1    1    2    0  503 -0.56144098422E+02  0.38884716716E+02  0.24827028108E+03  0.31021172359E+03  0.17300000000E+03 0.  1.
<mgrwt>
<rscale>  2 0.18599242E+03</rscale>
<asrwt>0</asrwt>
<pdfrwt beam="1">  1       21 0.16714858E+00 0.18599242E+03</pdfrwt>
<pdfrwt beam="2">  1       21 0.64129754E-02 0.18599242E+03</pdfrwt>
<totfact> 0.39479120E+04</totfact>
</mgrwt>
</event>
<event>
 4    1  0.4035350E+000  0.1797443E+03  0.7546771E-02  0.1168051E+00
         21   -1    0    0  501  502  0.00000000000E+00  0.00000000000E+00  0.32253171110E+02  0.32253171110E+02  0.00000000000E+00 0.  1.
         21   -1    0    0  502  503 -0.00000000000E+00 -0.00000000000E+00 -0.10354647479E+04  0.10354647479E+04  0.00000000000E+00 0.  1.
          6    1    1    2  501    0 -0.16332944389E+02 -0.45959131048E+02 -0.59800857237E+03  0.62443755447E+03  0.17300000000E+03 0.  1.
         -6    1    1    2    0  503  0.16332944389E+02  0.45959131048E+02 -0.40520300441E+03  0.44328036454E+03  0.17300000000E+03 0.  1.
<mgrwt>
<rscale>  2 0.17974428E+03</rscale>
<asrwt>0</asrwt>
<pdfrwt beam="1">  1       21 0.49620270E-02 0.17974428E+03</pdfrwt>
<pdfrwt beam="2">  1       21 0.15930225E+00 0.17974428E+03</pdfrwt>
<totfact> 0.69879460E+04</totfact>
</mgrwt>
</event>
<event>
 4    1  0.4035350E+000  0.2538022E+03  0.7546771E-02  0.1110925E+00
         21   -1    0    0  501  502  0.00000000000E+00  0.00000000000E+00  0.38030293503E+03  0.38030293503E+03  0.00000000000E+00 0. -1.
         21   -1    0    0  502  503 -0.00000000000E+00 -0.00000000000E+00 -0.17069703958E+03  0.17069703958E+03  0.00000000000E+00 0. -1.
          6    1    1    2  501    0 -0.14493623853E+03 -0.11610357815E+03  0.12900633069E+03  0.28470719600E+03  0.17300000000E+03 0. -1.
         -6    1    1    2    0  503  0.14493623853E+03  0.11610357815E+03  0.80599564763E+02  0.26629277861E+03  0.17300000000E+03 0. -1.
<mgrwt>
<rscale>  2 0.25380219E+03</rscale>
<asrwt>0</asrwt>
<pdfrwt beam="1">  1       21 0.58508144E-01 0.25380219E+03</pdfrwt>
<pdfrwt beam="2">  1       21 0.26261083E-01 0.25380219E+03</pdfrwt>
<totfact> 0.36617713E+04</totfact>
</mgrwt>
</event>
<event>
 4    1  0.4035350E+000  0.1782743E+03  0.7546771E-02  0.1169484E+00
         21   -1    0    0  503  502  0.00000000000E+00  0.00000000000E+00  0.11743651564E+03  0.11743651564E+03  0.00000000000E+00 0.  1.
         21   -1    0    0  501  503 -0.00000000000E+00 -0.00000000000E+00 -0.27133690181E+03  0.27133690181E+03  0.00000000000E+00 0. -1.
          6    1    1    2  501    0  0.41495844024E+01 -0.42842933610E+02 -0.67021900591E+02  0.19045648104E+03  0.17300000000E+03 0.  1.
         -6    1    1    2    0  502 -0.41495844024E+01  0.42842933610E+02 -0.86878485574E+02  0.19831693641E+03  0.17300000000E+03 0.  1.
<mgrwt>
<rscale>  2 0.17827433E+03</rscale>
<asrwt>0</asrwt>
<pdfrwt beam="1">  1       21 0.18067156E-01 0.17827433E+03</pdfrwt>
<pdfrwt beam="2">  1       21 0.41744138E-01 0.17827433E+03</pdfrwt>
<totfact> 0.15474739E+05</totfact>
</mgrwt>
</event>
<event>
 4    1  0.4035350E+000  0.1859346E+03  0.7546771E-02  0.1162180E+00
         21   -1    0    0  501  502  0.00000000000E+00  0.00000000000E+00  0.32919302822E+03  0.32919302822E+03  0.00000000000E+00 0.  1.
         21   -1    0    0  502  503 -0.00000000000E+00 -0.00000000000E+00 -0.14419354569E+03  0.14419354569E+03  0.00000000000E+00 0. -1.
          6    1    1    2  501    0  0.67272960659E+02 -0.10817314716E+02  0.21587060583E+03  0.28490662329E+03  0.17300000000E+03 0.  1.
         -6    1    1    2    0  503 -0.67272960659E+02  0.10817314716E+02 -0.30871123299E+02  0.18847995062E+03  0.17300000000E+03 0. -1.
<mgrwt>
<rscale>  2 0.18593457E+03</rscale>
<asrwt>0</asrwt>
<pdfrwt beam="1">  1       21 0.50645081E-01 0.18593457E+03</pdfrwt>
<pdfrwt beam="2">  1       21 0.22183622E-01 0.18593457E+03</pdfrwt>
<totfact> 0.70698227E+04</totfact>
</mgrwt>
</event>
<event>
 4    1  0.4035350E+000  0.2081696E+03  0.7546771E-02  0.1143024E+00
         21   -1    0    0  503  502  0.00000000000E+00  0.00000000000E+00  0.83884814175E+03  0.83884814175E+03  0.00000000000E+00 0. -1.
         21   -1    0    0  501  503 -0.00000000000E+00 -0.00000000000E+00 -0.54149006199E+02  0.54149006199E+02  0.00000000000E+00 0. -1.
          6    1    1    2  501    0 -0.97298496382E+02  0.62758134518E+02  0.48808451249E+03  0.53062328650E+03  0.17300000000E+03 0. -1.
         -6    1    1    2    0  502  0.97298496382E+02 -0.62758134518E+02  0.29661462306E+03  0.36237386145E+03  0.17300000000E+03 0. -1.
<mgrwt>
<rscale>  2 0.20816960E+03</rscale>
<asrwt>0</asrwt>
<pdfrwt beam="1">  1       21 0.12905355E+00 0.20816960E+03</pdfrwt>
<pdfrwt beam="2">  1       21 0.83306169E-02 0.20816960E+03</pdfrwt>
<totfact> 0.48824175E+04</totfact>
</mgrwt>
</event>
<event>
 4    1  0.4035350E+000  0.1842833E+03  0.7546771E-02  0.1163721E+00
         21   -1    0    0  501  502  0.00000000000E+00  0.00000000000E+00  0.31696821453E+03  0.31696821453E+03  0.00000000000E+00 0.  1.
         21   -1    0    0  502  503 -0.00000000000E+00 -0.00000000000E+00 -0.12575196265E+03  0.12575196265E+03  0.00000000000E+00 0.  1.
          6    1    1    2  501    0 -0.19126638107E+02 -0.60543449900E+02  0.18076596932E+03  0.25814080126E+03  0.17300000000E+03 0.  1.
         -6    1    1    2    0  503  0.19126638107E+02  0.60543449900E+02  0.10450282555E+02  0.18457937592E+03  0.17300000000E+03 0.  1.
<mgrwt>
<rscale>  2 0.18428331E+03</rscale>
<asrwt>0</asrwt>
<pdfrwt beam="1">  1       21 0.48764340E-01 0.18428331E+03</pdfrwt>
<pdfrwt beam="2">  1       21 0.19346456E-01 0.18428331E+03</pdfrwt>
<totfact> 0.98893945E+04</totfact>
</mgrwt>
</event>
<event>
 4    1  0.4035350E+000  0.1801269E+03  0.7546771E-02  0.1167680E+00
         21   -1    0    0  501  502  0.00000000000E+00  0.00000000000E+00  0.57909785222E+02  0.57909785222E+02  0.00000000000E+00 0.  1.
         21   -1    0    0  502  503 -0.00000000000E+00 -0.00000000000E+00 -0.74210143164E+03  0.74210143164E+03  0.00000000000E+00 0. -1.
          6    1    1    2  501    0 -0.25549866596E+02 -0.43173091493E+02 -0.14409972554E+03  0.23067388758E+03  0.17300000000E+03 0.  1.
         -6    1    1    2    0  503  0.25549866596E+02  0.43173091493E+02 -0.54009192088E+03  0.56933732928E+03  0.17300000000E+03 0. -1.
<mgrwt>
<rscale>  2 0.18012693E+03</rscale>
<asrwt>0</asrwt>
<pdfrwt beam="1">  1       21 0.89091982E-02 0.18012693E+03</pdfrwt>
<pdfrwt beam="2">  1       21 0.11416944E+00 0.18012693E+03</pdfrwt>
<totfact> 0.59699672E+04</totfact>
</mgrwt>
</event>
<event>
 4    1  0.4035350E+000  0.1778684E+03  0.7546771E-02  0.1169882E+00
         21   -1    0    0  501  502  0.00000000000E+00  0.00000000000E+00  0.16637542921E+03  0.16637542921E+03  0.00000000000E+00 0.  1.
         21   -1    0    0  502  503 -0.00000000000E+00 -0.00000000000E+00 -0.19177814506E+03  0.19177814506E+03  0.00000000000E+00 0.  1.
          6    1    1    2  501    0  0.32153919932E+02 -0.25967413774E+02  0.37715026995E+01  0.17790841851E+03  0.17300000000E+03 0. -1.
         -6    1    1    2    0  503 -0.32153919932E+02  0.25967413774E+02 -0.29174218546E+02  0.18024515575E+03  0.17300000000E+03 0. -1.
<mgrwt>
<rscale>  2 0.17786844E+03</rscale>
<asrwt>0</asrwt>
<pdfrwt beam="1">  1       21 0.25596220E-01 0.17786844E+03</pdfrwt>
<pdfrwt beam="2">  1       21 0.29504330E-01 0.17786844E+03</pdfrwt>
<totfact> 0.16012295E+05</totfact>
</mgrwt>
</event>
<event>
 4    1  0.4035350E+000  0.2468571E+03  0.7546771E-02  0.1115307E+00
         21   -1    0    0  501  502  0.00000000000E+00  0.00000000000E+00  0.49954157546E+03  0.49954157546E+03  0.00000000000E+00 0. -1.
         21   -1    0    0  502  503 -0.00000000000E+00 -0.00000000000E+00 -0.14431047028E+03  0.14431047028E+03  0.00000000000E+00 0.  1.
          6    1    1    2  501    0  0.16221394738E+03 -0.68527802121E+02  0.30422658173E+03  0.39178085382E+03  0.17300000000E+03 0. -1.
         -6    1    1    2    0  503 -0.16221394738E+03  0.68527802121E+02  0.51004523453E+02  0.25207119193E+03  0.17300000000E+03 0.  1.
<mgrwt>
<rscale>  2 0.24685709E+03</rscale>
<asrwt>0</asrwt>
<pdfrwt beam="1">  1       21 0.76852549E-01 0.24685709E+03</pdfrwt>
<pdfrwt beam="2">  1       21 0.22201611E-01 0.24685709E+03</pdfrwt>
<totfact> 0.27770627E+04</totfact>
</mgrwt>
</event>
<event>
 4    1  0.4035350E+000  0.2404736E+03  0.7546771E-02  0.1119478E+00
         21   -1    0    0  503  502  0.00000000000E+00  0.00000000000E+00  0.54935181656E+02  0.54935181656E+02  0.00000000000E+00 0.  1.
         21   -1    0    0  501  503 -0.00000000000E+00 -0.00000000000E+00 -0.13174275063E+04  0.13174275063E+04  0.00000000000E+00 0.  1.
          6    1    1    2  501    0  0.71396430655E+01  0.16687600608E+03 -0.93886663601E+03  0.96917394524E+03  0.17300000000E+03 0.  1.
         -6    1    1    2    0  502 -0.71396430655E+01 -0.16687600608E+03 -0.32362568862E+03  0.40318874270E+03  0.17300000000E+03 0.  1.
<mgrwt>
<rscale>  2 0.24047365E+03</rscale>
<asrwt>0</asrwt>
<pdfrwt beam="1">  1       21 0.84515666E-02 0.24047365E+03</pdfrwt>
<pdfrwt beam="2">  1       21 0.20268115E+00 0.24047365E+03</pdfrwt>
<totfact> 0.13580907E+04</totfact>
</mgrwt>
</event>
<event>
 4    1  0.4035350E+000  0.2329173E+03  0.7546771E-02  0.1124603E+00
         21   -1    0    0  501  502  0.00000000000E+00  0.00000000000E+00  0.55839071042E+02  0.55839071042E+02  0.00000000000E+00 0.  1.
         21   -1    0    0  502  503 -0.00000000000E+00 -0.00000000000E+00 -0.13291806869E+04  0.13291806869E+04  0.00000000000E+00 0.  1.
          6    1    1    2  501    0  0.13862802220E+03 -0.71440304628E+02 -0.27745834859E+03  0.36226175739E+03  0.17300000000E+03 0.  1.
         -6    1    1    2    0  503 -0.13862802220E+03  0.71440304628E+02 -0.99588326724E+03  0.10227580005E+04  0.17300000000E+03 0.  1.
<mgrwt>
<rscale>  2 0.23291725E+03</rscale>
<asrwt>0</asrwt>
<pdfrwt beam="1">  1       21 0.85906272E-02 0.23291725E+03</pdfrwt>
<pdfrwt beam="2">  1       21 0.20448931E+00 0.23291725E+03</pdfrwt>
<totfact> 0.12914563E+04</totfact>
</mgrwt>
</event>
<event>
 4    1  0.4035350E+000  0.2399094E+03  0.7546771E-02  0.1119853E+00
         21   -1    0    0  501  502  0.00000000000E+00  0.00000000000E+00  0.43613960351E+03  0.43613960351E+03  0.00000000000E+00 0. -1.
         21   -1    0    0  502  503 -0.00000000000E+00 -0.00000000000E+00 -0.16021032325E+03  0.16021032325E+03  0.00000000000E+00 0. -1.
          6    1    1    2  501    0 -0.13096044524E+03  0.10235667779E+03  0.26315622565E+03  0.35610072565E+03  0.17300000000E+03 0. -1.
         -6    1    1    2    0  503  0.13096044524E+03 -0.10235667779E+03  0.12773054606E+02  0.24024920110E+03  0.17300000000E+03 0. -1.
<mgrwt>
<rscale>  2 0.23990942E+03</rscale>
<asrwt>0</asrwt>
<pdfrwt beam="1">  1       21 0.67098400E-01 0.23990942E+03</pdfrwt>
<pdfrwt beam="2">  1       21 0.24647742E-01 0.23990942E+03</pdfrwt>
<totfact> 0.30888826E+04</totfact>
</mgrwt>
</event>
<event>
 4    1  0.4035350E+000  0.1779539E+03  0.7546771E-02  0.1169798E+00
         21   -1    0    0  503  502  0.00000000000E+00  0.00000000000E+00  0.21357580621E+03  0.21357580621E+03  0.00000000000E+00 0.  1.
         21   -1    0    0  501  503 -0.00000000000E+00 -0.00000000000E+00 -0.14917184293E+03  0.14917184293E+03  0.00000000000E+00 0.  1.
          6    1    1    2  501    0  0.18758210559E+02  0.37238518938E+02  0.18124856058E+02  0.17887450395E+03  0.17300000000E+03 0. -1.
         -6    1    1    2    0  502 -0.18758210559E+02 -0.37238518938E+02  0.46279107226E+02  0.18387314519E+03  0.17300000000E+03 0. -1.
<mgrwt>
<rscale>  2 0.17795386E+03</rscale>
<asrwt>0</asrwt>
<pdfrwt beam="1">  1       21 0.32857816E-01 0.17795386E+03</pdfrwt>
<pdfrwt beam="2">  1       21 0.22949514E-01 0.17795386E+03</pdfrwt>
<totfact> 0.15964129E+05</totfact>
</mgrwt>
</event>
<event>
 4    1  0.4035350E+000  0.2145803E+03  0.7546771E-02  0.1137989E+00
         21   -1    0    0  501  502  0.00000000000E+00  0.00000000000E+00  0.10569472003E+04  0.10569472003E+04  0.00000000000E+00 0.  1.
         21   -1    0    0  502  503 -0.00000000000E+00 -0.00000000000E+00 -0.57409081412E+02  0.57409081412E+02  0.00000000000E+00 0.  1.
          6    1    1    2  501    0 -0.12198894530E+03  0.35134326034E+02  0.77339254493E+03  0.80260871675E+03  0.17300000000E+03 0.  1.
         -6    1    1    2    0  503  0.12198894530E+03 -0.35134326034E+02  0.22614557395E+03  0.31174756496E+03  0.17300000000E+03 0.  1.
<mgrwt>
<rscale>  2 0.21458034E+03</rscale>
<asrwt>0</asrwt>
<pdfrwt beam="1">  1       21 0.16260725E+00 0.21458034E+03</pdfrwt>
<pdfrwt beam="2">  1       21 0.88321672E-02 0.21458034E+03</pdfrwt>
<totfact> 0.23976011E+04</totfact>
</mgrwt>
</event>
<event>
 4    1  0.4035350E+000  0.1963875E+03  0.7546771E-02  0.1152823E+00
         21   -1    0    0  501  502  0.00000000000E+00  0.00000000000E+00  0.10268993852E+03  0.10268993852E+03  0.00000000000E+00 0.  1.
         21   -1    0    0  502  503 -0.00000000000E+00 -0.00000000000E+00 -0.40539361058E+03  0.40539361058E+03  0.00000000000E+00 0.  1.
          6    1    1    2  501    0 -0.58776605008E+02 -0.72002393152E+02 -0.82456165247E+02  0.21299542977E+03  0.17300000000E+03 0.  1.
         -6    1    1    2    0  503  0.58776605008E+02  0.72002393152E+02 -0.22024750681E+03  0.29508811934E+03  0.17300000000E+03 0.  1.
<mgrwt>
<rscale>  2 0.19638746E+03</rscale>
<asrwt>0</asrwt>
<pdfrwt beam="1">  1       21 0.15798452E-01 0.19638746E+03</pdfrwt>
<pdfrwt beam="2">  1       21 0.62368247E-01 0.19638746E+03</pdfrwt>
<totfact> 0.84938051E+04</totfact>
</mgrwt>
</event>
<event>
 4    1  0.4035350E+000  0.1983501E+03  0.7546771E-02  0.1151139E+00
         21   -1    0    0  503  502  0.00000000000E+00  0.00000000000E+00  0.12798968521E+03  0.12798968521E+03  0.00000000000E+00 0.  1.
         21   -1    0    0  501  503 -0.00000000000E+00 -0.00000000000E+00 -0.44005514829E+03  0.44005514829E+03  0.00000000000E+00 0.  1.
          6    1    1    2  501    0 -0.95213916430E+01 -0.96556307884E+02 -0.31197976896E+03  0.36969467637E+03  0.17300000000E+03 0.  1.
         -6    1    1    2    0  502  0.95213916430E+01  0.96556307884E+02 -0.85694110436E-01  0.19835015713E+03  0.17300000000E+03 0.  1.
<mgrwt>
<rscale>  2 0.19835014E+03</rscale>
<asrwt>0</asrwt>
<pdfrwt beam="1">  1       21 0.19690721E-01 0.19835014E+03</pdfrwt>
<pdfrwt beam="2">  1       21 0.67700793E-01 0.19835014E+03</pdfrwt>
<totfact> 0.47253064E+04</totfact>
</mgrwt>
</event>
<event>
 4    1  0.4035350E+000  0.1935807E+03  0.7546771E-02  0.1155271E+00
         21   -1    0    0  503  502  0.00000000000E+00  0.00000000000E+00  0.29613366824E+03  0.29613366824E+03  0.00000000000E+00 0. -1.
         21   -1    0    0  501  503 -0.00000000000E+00 -0.00000000000E+00 -0.12837139711E+03  0.12837139711E+03  0.00000000000E+00 0. -1.
          6    1    1    2  501    0 -0.19555344930E+01 -0.86836898932E+02  0.10921624814E+03  0.22226484200E+03  0.17300000000E+03 0. -1.
         -6    1    1    2    0  502  0.19555344930E+01  0.86836898932E+02  0.58546022993E+02  0.20224022335E+03  0.17300000000E+03 0. -1.
<mgrwt>
<rscale>  2 0.19358066E+03</rscale>
<asrwt>0</asrwt>
<pdfrwt beam="1">  1       21 0.45559026E-01 0.19358066E+03</pdfrwt>
<pdfrwt beam="2">  1       21 0.19749446E-01 0.19358066E+03</pdfrwt>
<totfact> 0.10914945E+05</totfact>
</mgrwt>
</event>
<event>
 4    1  0.4035350E+000  0.1831311E+03  0.7546771E-02  0.1164807E+00
         21   -1    0    0  503  502  0.00000000000E+00  0.00000000000E+00  0.17631790114E+03  0.17631790114E+03  0.00000000000E+00 0.  1.
         21   -1    0    0  501  503 -0.00000000000E+00 -0.00000000000E+00 -0.19189814487E+03  0.19189814487E+03  0.00000000000E+00 0.  1.
          6    1    1    2  501    0  0.42301603096E+02 -0.42644842817E+02  0.94900548072E+01  0.18337685073E+03  0.17300000000E+03 0.  1.
         -6    1    1    2    0  502 -0.42301603096E+02  0.42644842817E+02 -0.25070298535E+02  0.18483919528E+03  0.17300000000E+03 0.  1.
<mgrwt>
<rscale>  2 0.18313112E+03</rscale>
<asrwt>0</asrwt>
<pdfrwt beam="1">  1       21 0.27125831E-01 0.18313112E+03</pdfrwt>
<pdfrwt beam="2">  1       21 0.29522792E-01 0.18313112E+03</pdfrwt>
<totfact> 0.14284788E+05</totfact>
</mgrwt>
</event>
<event>
 4    1  0.4035350E+000  0.1799080E+03  0.7546771E-02  0.1167892E+00
         21   -1    0    0  501  502  0.00000000000E+00  0.00000000000E+00  0.21591954647E+03  0.21591954647E+03  0.00000000000E+00 0. -1.
         21   -1    0    0  502  503 -0.00000000000E+00 -0.00000000000E+00 -0.15311044954E+03  0.15311044954E+03  0.00000000000E+00 0. -1.
          6    1    1    2  501    0 -0.31362650567E+02  0.38135061581E+02  0.58112284636E+02  0.18906066856E+03  0.17300000000E+03 0.  1.
         -6    1    1    2    0  503  0.31362650567E+02 -0.38135061581E+02  0.46968122930E+01  0.17996932744E+03  0.17300000000E+03 0.  1.
<mgrwt>
<rscale>  2 0.17990803E+03</rscale>
<asrwt>0</asrwt>
<pdfrwt beam="1">  1       21 0.33218392E-01 0.17990803E+03</pdfrwt>
<pdfrwt beam="2">  1       21 0.23555454E-01 0.17990803E+03</pdfrwt>
<totfact> 0.14863965E+05</totfact>
</mgrwt>
</event>
<event>
 4    1  0.4035350E+000  0.2003098E+03  0.7546771E-02  0.1149478E+00
         21   -1    0    0  503  502  0.00000000000E+00  0.00000000000E+00  0.94937670006E+03  0.94937670006E+03  0.00000000000E+00 0.  1.
         21   -1    0    0  501  503 -0.00000000000E+00 -0.00000000000E+00 -0.84822242040E+02  0.84822242040E+02  0.00000000000E+00 0.  1.
          6    1    1    2  501    0  0.11804291434E+02 -0.10027808445E+03  0.65997128897E+02  0.21090200696E+03  0.17300000000E+03 0.  1.
         -6    1    1    2    0  502 -0.11804291434E+02  0.10027808445E+03  0.79855732913E+03  0.82329693515E+03  0.17300000000E+03 0.  1.
<mgrwt>
<rscale>  2 0.20030985E+03</rscale>
<asrwt>0</asrwt>
<pdfrwt beam="1">  1       21 0.14605795E+00 0.20030985E+03</pdfrwt>
<pdfrwt beam="2">  1       21 0.13049576E-01 0.20030985E+03</pdfrwt>
<totfact> 0.16095317E+04</totfact>
</mgrwt>
</event>
<event>
 4    1  0.4035350E+000  0.4395689E+03  0.7546771E-02  0.1030879E+00
         21   -1    0    0  503  502  0.00000000000E+00  0.00000000000E+00  0.71488509314E+03  0.71488509314E+03  0.00000000000E+00 0.  1.
         21   -1    0    0  501  503 -0.00000000000E+00 -0.00000000000E+00 -0.51646876570E+03  0.51646876570E+03  0.00000000000E+00 0.  1.
          6    1    1    2  501    0 -0.62914502907E+02  0.39916611532E+03 -0.32586422206E+03  0.54718215753E+03  0.17300000000E+03 0.  1.
         -6    1    1    2    0  502  0.62914502907E+02 -0.39916611532E+03  0.52428054950E+03  0.68417170131E+03  0.17300000000E+03 0.  1.
<mgrwt>
<rscale>  2 0.43956891E+03</rscale>
<asrwt>0</asrwt>
<pdfrwt beam="1">  1       21 0.10998232E+00 0.43956891E+03</pdfrwt>
<pdfrwt beam="2">  1       21 0.79456734E-01 0.43956891E+03</pdfrwt>
<totfact> 0.77444336E+02</totfact>
</mgrwt>
</event>
<event>
 4    1  0.4035350E+000  0.2126873E+03  0.7546771E-02  0.1139455E+00
         21   -1    0    0  501  502  0.00000000000E+00  0.00000000000E+00  0.84394659023E+02  0.84394659023E+02  0.00000000000E+00 0.  1.
         21   -1    0    0  502  503 -0.00000000000E+00 -0.00000000000E+00 -0.53824241807E+03  0.53824241807E+03  0.00000000000E+00 0.  1.
          6    1    1    2  501    0  0.64591691094E+02  0.10552150480E+03 -0.20684742838E+03  0.29668456846E+03  0.17300000000E+03 0.  1.
         -6    1    1    2    0  503 -0.64591691094E+02 -0.10552150480E+03 -0.24700033067E+03  0.32595250864E+03  0.17300000000E+03 0.  1.
<mgrwt>
<rscale>  2 0.21268727E+03</rscale>
<asrwt>0</asrwt>
<pdfrwt beam="1">  1       21 0.12983794E-01 0.21268727E+03</pdfrwt>
<pdfrwt beam="2">  1       21 0.82806523E-01 0.21268727E+03</pdfrwt>
<totfact> 0.64196736E+04</totfact>
</mgrwt>
</event>
<event>
 4    1  0.4035350E+000  0.2301407E+03  0.7546771E-02  0.1126541E+00
         21   -1    0    0  501  502  0.00000000000E+00  0.00000000000E+00  0.15317590802E+03  0.15317590802E+03  0.00000000000E+00 0.  1.
         21   -1    0    0  502  503 -0.00000000000E+00 -0.00000000000E+00 -0.34775329589E+03  0.34775329589E+03  0.00000000000E+00 0. -1.
          6    1    1    2  501    0  0.12758584327E+03  0.82204690010E+02 -0.78408822233E+02  0.24313103847E+03  0.17300000000E+03 0. -1.
         -6    1    1    2    0  503 -0.12758584327E+03 -0.82204690010E+02 -0.11616856564E+03  0.25779816544E+03  0.17300000000E+03 0. -1.
<mgrwt>
<rscale>  2 0.23014074E+03</rscale>
<asrwt>0</asrwt>
<pdfrwt beam="1">  1       21 0.23565524E-01 0.23014074E+03</pdfrwt>
<pdfrwt beam="2">  1       21 0.53500507E-01 0.23014074E+03</pdfrwt>
<totfact> 0.55100142E+04</totfact>
</mgrwt>
</event>
<event>
 4    1  0.4035350E+000  0.1731094E+03  0.7546771E-02  0.1174643E+00
         21   -1    0    0  503  502  0.00000000000E+00  0.00000000000E+00  0.13326475669E+03  0.13326475669E+03  0.00000000000E+00 0.  1.
         21   -1    0    0  501  503 -0.00000000000E+00 -0.00000000000E+00 -0.70278861682E+03  0.70278861682E+03  0.00000000000E+00 0.  1.
          6    1    1    2  501    0 -0.16289559544E+01 -0.59342732192E+01 -0.62948464965E+03  0.65285357718E+03  0.17300000000E+03 0.  1.
         -6    1    1    2    0  502  0.16289559544E+01  0.59342732192E+01  0.59960789523E+02  0.18319979633E+03  0.17300000000E+03 0.  1.
<mgrwt>
<rscale>  2 0.17310941E+03</rscale>
<asrwt>0</asrwt>
<pdfrwt beam="1">  1       21 0.20502270E-01 0.17310941E+03</pdfrwt>
<pdfrwt beam="2">  1       21 0.10812132E+00 0.17310941E+03</pdfrwt>
<totfact> 0.15202916E+04</totfact>
</mgrwt>
</event>
<event>
 4    1  0.4035350E+000  0.1930683E+03  0.7546771E-02  0.1155723E+00
         21   -1    0    0  503  502  0.00000000000E+00  0.00000000000E+00  0.35406270831E+02  0.35406270831E+02  0.00000000000E+00 0.  1.
         21   -1    0    0  501  503 -0.00000000000E+00 -0.00000000000E+00 -0.12271206269E+04  0.12271206269E+04  0.00000000000E+00 0.  1.
          6    1    1    2  501    0  0.83603301415E+02 -0.18890219636E+02 -0.83379002740E+03  0.85585113319E+03  0.17300000000E+03 0.  1.
         -6    1    1    2    0  502 -0.83603301415E+02  0.18890219636E+02 -0.35792432867E+03  0.40667576453E+03  0.17300000000E+03 0.  1.
<mgrwt>
<rscale>  2 0.19306826E+03</rscale>
<asrwt>0</asrwt>
<pdfrwt beam="1">  1       21 0.54471184E-02 0.19306826E+03</pdfrwt>
<pdfrwt beam="2">  1       21 0.18878780E+00 0.19306826E+03</pdfrwt>
<totfact> 0.36937790E+04</totfact>
</mgrwt>
</event>
<event>
 4    1  0.4035350E+000  0.2570414E+03  0.7546771E-02  0.1108934E+00
         21   -1    0    0  503  502  0.00000000000E+00  0.00000000000E+00  0.63451236205E+02  0.63451236205E+02  0.00000000000E+00 0.  1.
         21   -1    0    0  501  503 -0.00000000000E+00 -0.00000000000E+00 -0.14040874363E+04  0.14040874363E+04  0.00000000000E+00 0.  1.
          6    1    1    2  501    0 -0.66339116706E+02  0.17815832299E+03 -0.10433129245E+04  0.10745101790E+04  0.17300000000E+03 0.  1.
         -6    1    1    2    0  502  0.66339116706E+02 -0.17815832299E+03 -0.29732327559E+03  0.39302849345E+03  0.17300000000E+03 0.  1.
<mgrwt>
<rscale>  2 0.25704137E+03</rscale>
<asrwt>0</asrwt>
<pdfrwt beam="1">  1       21 0.97617294E-02 0.25704137E+03</pdfrwt>
<pdfrwt beam="2">  1       21 0.21601343E+00 0.25704137E+03</pdfrwt>
<totfact> 0.85676207E+03</totfact>
</mgrwt>
</event>
<event>
 4    1  0.4035350E+000  0.2284364E+03  0.7546771E-02  0.1127745E+00
         21   -1    0    0  503  502  0.00000000000E+00  0.00000000000E+00  0.30377238722E+03  0.30377238722E+03  0.00000000000E+00 0.  1.
         21   -1    0    0  501  503 -0.00000000000E+00 -0.00000000000E+00 -0.22413785862E+03  0.22413785862E+03  0.00000000000E+00 0. -1.
          6    1    1    2  501    0  0.12635018542E+03 -0.79308300212E+02 -0.87752470383E+02  0.24471140532E+03  0.17300000000E+03 0. -1.
         -6    1    1    2    0  502 -0.12635018542E+03  0.79308300212E+02  0.16738699898E+03  0.28319884051E+03  0.17300000000E+03 0.  1.
<mgrwt>
<rscale>  2 0.22843637E+03</rscale>
<asrwt>0</asrwt>
<pdfrwt beam="1">  1       21 0.46734213E-01 0.22843637E+03</pdfrwt>
<pdfrwt beam="2">  1       21 0.34482747E-01 0.22843637E+03</pdfrwt>
<totfact> 0.34891815E+04</totfact>
</mgrwt>
</event>
<event>
 4    1  0.4035350E+000  0.1783794E+03  0.7546771E-02  0.1169381E+00
         21   -1    0    0  501  502  0.00000000000E+00  0.00000000000E+00  0.27087715132E+03  0.27087715132E+03  0.00000000000E+00 0.  1.
         21   -1    0    0  502  503 -0.00000000000E+00 -0.00000000000E+00 -0.14138851594E+03  0.14138851594E+03  0.00000000000E+00 0.  1.
          6    1    1    2  501    0  0.43428478497E+02  0.20446199056E+01  0.14953176163E+03  0.23276374492E+03  0.17300000000E+03 0.  1.
         -6    1    1    2    0  503 -0.43428478497E+02 -0.20446199056E+01 -0.20043126250E+02  0.17950192234E+03  0.17300000000E+03 0.  1.
<mgrwt>
<rscale>  2 0.17837941E+03</rscale>
<asrwt>0</asrwt>
<pdfrwt beam="1">  1       21 0.41673408E-01 0.17837941E+03</pdfrwt>
<pdfrwt beam="2">  1       21 0.21752079E-01 0.17837941E+03</pdfrwt>
<totfact> 0.10988730E+05</totfact>
</mgrwt>
</event>
<event>
 4    1  0.4035350E+000  0.1909048E+03  0.7546771E-02  0.1157648E+00
         21   -1    0    0  501  502  0.00000000000E+00  0.00000000000E+00  0.41568540211E+03  0.41568540211E+03  0.00000000000E+00 0.  1.
         21   -1    0    0  502  503 -0.00000000000E+00 -0.00000000000E+00 -0.10148646190E+03  0.10148646190E+03  0.00000000000E+00 0.  1.
          6    1    1    2  501    0 -0.78680546558E+02 -0.18028435388E+02  0.25249807458E+03  0.31654372613E+03  0.17300000000E+03 0.  1.
         -6    1    1    2    0  503  0.78680546558E+02  0.18028435388E+02  0.61700865629E+02  0.20062813788E+03  0.17300000000E+03 0.  1.
<mgrwt>
<rscale>  2 0.19090483E+03</rscale>
<asrwt>0</asrwt>
<pdfrwt beam="1">  1       21 0.63951600E-01 0.19090483E+03</pdfrwt>
<pdfrwt beam="2">  1       21 0.15613302E-01 0.19090483E+03</pdfrwt>
<totfact> 0.82392581E+04</totfact>
</mgrwt>
</event>
<event>
 4    1  0.4035350E+000  0.3578876E+03  0.7546771E-02  0.1059423E+00
         21   -1    0    0  501  502  0.00000000000E+00  0.00000000000E+00  0.26258247406E+03  0.26258247406E+03  0.00000000000E+00 0.  1.
         21   -1    0    0  502  503 -0.00000000000E+00 -0.00000000000E+00 -0.74774242512E+03  0.74774242512E+03  0.00000000000E+00 0. -1.
          6    1    1    2  501    0 -0.26486883152E+03 -0.16732909763E+03 -0.54043642824E+03  0.64819368849E+03  0.17300000000E+03 0. -1.
         -6    1    1    2    0  503  0.26486883152E+03  0.16732909763E+03  0.55276477179E+02  0.36213121069E+03  0.17300000000E+03 0. -1.
<mgrwt>
<rscale>  2 0.35788759E+03</rscale>
<asrwt>0</asrwt>
<pdfrwt beam="1">  1       21 0.40397305E-01 0.35788759E+03</pdfrwt>
<pdfrwt beam="2">  1       21 0.11503729E+00 0.35788759E+03</pdfrwt>
<totfact> 0.31171867E+03</totfact>
</mgrwt>
</event>
<event>
 4    1  0.4035350E+000  0.2133506E+03  0.7546771E-02  0.1138940E+00
         21   -1    0    0  501  502  0.00000000000E+00  0.00000000000E+00  0.28368351907E+03  0.28368351907E+03  0.00000000000E+00 0.  1.
         21   -1    0    0  502  503 -0.00000000000E+00 -0.00000000000E+00 -0.16517559676E+03  0.16517559676E+03  0.00000000000E+00 0.  1.
          6    1    1    2  501    0 -0.64797730855E+02  0.10672730247E+03  0.21313581042E+02  0.21441252704E+03  0.17300000000E+03 0.  1.
         -6    1    1    2    0  503  0.64797730855E+02 -0.10672730247E+03  0.97194341266E+02  0.23444658878E+03  0.17300000000E+03 0.  1.
<mgrwt>
<rscale>  2 0.21335056E+03</rscale>
<asrwt>0</asrwt>
<pdfrwt beam="1">  1       21 0.43643618E-01 0.21335056E+03</pdfrwt>
<pdfrwt beam="2">  1       21 0.25411630E-01 0.21335056E+03</pdfrwt>
<totfact> 0.73410053E+04</totfact>
</mgrwt>
</event>
<event>
 4    1  0.4035350E+000  0.2118871E+03  0.7546771E-02  0.1140080E+00
         21   -1    0    0  501  502  0.00000000000E+00  0.00000000000E+00  0.11373308341E+03  0.11373308341E+03  0.00000000000E+00 0.  1.
         21   -1    0    0  502  503 -0.00000000000E+00 -0.00000000000E+00 -0.62434001285E+03  0.62434001285E+03  0.00000000000E+00 0.  1.
          6    1    1    2  501    0 -0.11563843138E+03  0.39936020252E+02 -0.31516230478E+02  0.21421812554E+03  0.17300000000E+03 0.  1.
         -6    1    1    2    0  503  0.11563843138E+03 -0.39936020252E+02 -0.47909069896E+03  0.52385497073E+03  0.17300000000E+03 0.  1.
<mgrwt>
<rscale>  2 0.21188707E+03</rscale>
<asrwt>0</asrwt>
<pdfrwt beam="1">  1       21 0.17497397E-01 0.21188707E+03</pdfrwt>
<pdfrwt beam="2">  1       21 0.96052310E-01 0.21188707E+03</pdfrwt>
<totfact> 0.26410801E+04</totfact>
</mgrwt>
</event>
<event>
 4    1  0.4035350E+000  0.2082779E+03  0.7546771E-02  0.1142937E+00
         21   -1    0    0  503  502  0.00000000000E+00  0.00000000000E+00  0.13510919374E+03  0.13510919374E+03  0.00000000000E+00 0. -1.
         21   -1    0    0  501  503 -0.00000000000E+00 -0.00000000000E+00 -0.36440863341E+03  0.36440863341E+03  0.00000000000E+00 0. -1.
          6    1    1    2  501    0 -0.67244213804E+02  0.94492904740E+02 -0.20078031175E+03  0.28929643434E+03  0.17300000000E+03 0. -1.
         -6    1    1    2    0  502  0.67244213804E+02 -0.94492904740E+02 -0.28519127925E+02  0.21022139281E+03  0.17300000000E+03 0. -1.
<mgrwt>
<rscale>  2 0.20827792E+03</rscale>
<asrwt>0</asrwt>
<pdfrwt beam="1">  1       21 0.20786030E-01 0.20827792E+03</pdfrwt>
<pdfrwt beam="2">  1       21 0.56062866E-01 0.20827792E+03</pdfrwt>
<totfact> 0.63868572E+04</totfact>
</mgrwt>
</event>
<event>
 4    1  0.4035350E+000  0.2047551E+03  0.7546771E-02  0.1145788E+00
         21   -1    0    0  503  502  0.00000000000E+00  0.00000000000E+00  0.55345010086E+02  0.55345010086E+02  0.00000000000E+00 0.  1.
         21   -1    0    0  501  503 -0.00000000000E+00 -0.00000000000E+00 -0.75792294138E+03  0.75792294138E+03  0.00000000000E+00 0. -1.
          6    1    1    2  501    0  0.44725010634E+02 -0.99976651729E+02 -0.36072656660E+03  0.41478706985E+03  0.17300000000E+03 0.  1.
         -6    1    1    2    0  502 -0.44725010634E+02  0.99976651729E+02 -0.34185136470E+03  0.39848088162E+03  0.17300000000E+03 0.  1.
<mgrwt>
<rscale>  2 0.20475512E+03</rscale>
<asrwt>0</asrwt>
<pdfrwt beam="1">  1       21 0.85146171E-02 0.20475512E+03</pdfrwt>
<pdfrwt beam="2">  1       21 0.11660353E+00 0.20475512E+03</pdfrwt>
<totfact> 0.60635118E+04</totfact>
</mgrwt>
</event>
<event>
 4    1  0.4035350E+000  0.2182057E+03  0.7546771E-02  0.1135228E+00
         21   -1    0    0  503  502  0.00000000000E+00  0.00000000000E+00  0.16216464123E+03  0.16216464123E+03  0.00000000000E+00 0. -1.
         21   -1    0    0  501  503 -0.00000000000E+00 -0.00000000000E+00 -0.29407403153E+03  0.29407403153E+03  0.00000000000E+00 0.  1.
          6    1    1    2  501    0 -0.12993336919E+03 -0.28320605886E+02 -0.56927839037E+02  0.22550945879E+03  0.17300000000E+03 0. -1.
         -6    1    1    2    0  502  0.12993336919E+03  0.28320605886E+02 -0.74981551260E+02  0.23072921397E+03  0.17300000000E+03 0.  1.
<mgrwt>
<rscale>  2 0.21820572E+03</rscale>
<asrwt>0</asrwt>
<pdfrwt beam="1">  1       21 0.24948407E-01 0.21820572E+03</pdfrwt>
<pdfrwt beam="2">  1       21 0.45242158E-01 0.21820572E+03</pdfrwt>
<totfact> 0.70480359E+04</totfact>
</mgrwt>
</event>
<event>
 4    1  0.4035350E+000  0.2649514E+03  0.7546771E-02  0.1104204E+00
         21   -1    0    0  503  502  0.00000000000E+00  0.00000000000E+00  0.12173504759E+04  0.12173504759E+04  0.00000000000E+00 0. -1.
         21   -1    0    0  501  503 -0.00000000000E+00 -0.00000000000E+00 -0.65074883429E+02  0.65074883429E+02  0.00000000000E+00 0. -1.
          6    1    1    2  501    0  0.19476905636E+03  0.48324441140E+02  0.35977443717E+03  0.44680743343E+03  0.17300000000E+03 0. -1.
         -6    1    1    2    0  502 -0.19476905636E+03 -0.48324441140E+02  0.79250115526E+03  0.83561792586E+03  0.17300000000E+03 0. -1.
<mgrwt>
<rscale>  2 0.26495139E+03</rscale>
<asrwt>0</asrwt>
<pdfrwt beam="1">  1       21 0.18728467E+00 0.26495139E+03</pdfrwt>
<pdfrwt beam="2">  1       21 0.10011521E-01 0.26495139E+03</pdfrwt>
<totfact> 0.12522991E+04</totfact>
</mgrwt>
</event>
<event>
 4    1  0.4035350E+000  0.1795543E+03  0.7546771E-02  0.1168235E+00
         21   -1    0    0  503  502  0.00000000000E+00  0.00000000000E+00  0.17484081540E+03  0.17484081540E+03  0.00000000000E+00 0. -1.
         21   -1    0    0  501  503 -0.00000000000E+00 -0.00000000000E+00 -0.23298524940E+03  0.23298524940E+03  0.00000000000E+00 0.  1.
          6    1    1    2  501    0 -0.40165889581E+02  0.26409137729E+02 -0.12219503813E+03  0.21718970644E+03  0.17300000000E+03 0.  1.
         -6    1    1    2    0  502  0.40165889581E+02 -0.26409137729E+02  0.64050604123E+02  0.19063635836E+03  0.17300000000E+03 0. -1.
<mgrwt>
<rscale>  2 0.17955428E+03</rscale>
<asrwt>0</asrwt>
<pdfrwt beam="1">  1       21 0.26898587E-01 0.17955428E+03</pdfrwt>
<pdfrwt beam="2">  1       21 0.35843885E-01 0.17955428E+03</pdfrwt>
<totfact> 0.99291625E+04</totfact>
</mgrwt>
</event>
<event>
 4    1  0.4035350E+000  0.2041393E+03  0.7546771E-02  0.1146293E+00
         21   -1    0    0  503  502  0.00000000000E+00  0.00000000000E+00  0.19810638217E+03  0.19810638217E+03  0.00000000000E+00 0.  1.
         21   -1    0    0  501  503 -0.00000000000E+00 -0.00000000000E+00 -0.22722716390E+03  0.22722716390E+03  0.00000000000E+00 0.  1.
          6    1    1    2  501    0  0.99279932082E+02 -0.43443668629E+02 -0.72508946520E+02  0.21663426457E+03  0.17300000000E+03 0.  1.
         -6    1    1    2    0  502 -0.99279932082E+02  0.43443668629E+02  0.43388164790E+02  0.20869928151E+03  0.17300000000E+03 0.  1.
<mgrwt>
<rscale>  2 0.20413931E+03</rscale>
<asrwt>0</asrwt>
<pdfrwt beam="1">  1       21 0.30477905E-01 0.20413931E+03</pdfrwt>
<pdfrwt beam="2">  1       21 0.34958025E-01 0.20413931E+03</pdfrwt>
<totfact> 0.81106214E+04</totfact>
</mgrwt>
</event>
<event>
 4    1  0.4035350E+000  0.2064807E+03  0.7546771E-02  0.1144384E+00
         21   -1    0    0  503  502  0.00000000000E+00  0.00000000000E+00  0.70906471267E+02  0.70906471267E+02  0.00000000000E+00 0.  1.
         21   -1    0    0  501  503 -0.00000000000E+00 -0.00000000000E+00 -0.64712025381E+03  0.64712025381E+03  0.00000000000E+00 0.  1.
          6    1    1    2  501    0 -0.75451713978E+02 -0.83739702896E+02 -0.19254942888E+03  0.28232885355E+03  0.17300000000E+03 0.  1.
         -6    1    1    2    0  502  0.75451713978E+02  0.83739702896E+02 -0.38366435366E+03  0.43569787153E+03  0.17300000000E+03 0.  1.
<mgrwt>
<rscale>  2 0.20648075E+03</rscale>
<asrwt>0</asrwt>
<pdfrwt beam="1">  1       21 0.10908688E-01 0.20648075E+03</pdfrwt>
<pdfrwt beam="2">  1       21 0.99556962E-01 0.20648075E+03</pdfrwt>
<totfact> 0.57313328E+04</totfact>
</mgrwt>
</event>
<event>
 4    1  0.4035350E+000  0.1857830E+03  0.7546771E-02  0.1162321E+00
         21   -1    0    0  501  502  0.00000000000E+00  0.00000000000E+00  0.44475841067E+03  0.44475841067E+03  0.00000000000E+00 0. -1.
         21   -1    0    0  502  503 -0.00000000000E+00 -0.00000000000E+00 -0.16013920635E+03  0.16013920635E+03  0.00000000000E+00 0. -1.
          6    1    1    2  501    0 -0.35708374253E+02 -0.57543268518E+02  0.35944017719E+03  0.40461408369E+03  0.17300000000E+03 0. -1.
         -6    1    1    2    0  503  0.35708374253E+02  0.57543268518E+02 -0.74820972868E+02  0.20028353333E+03  0.17300000000E+03 0. -1.
<mgrwt>
<rscale>  2 0.18578298E+03</rscale>
<asrwt>0</asrwt>
<pdfrwt beam="1">  1       21 0.68424371E-01 0.18578298E+03</pdfrwt>
<pdfrwt beam="2">  1       21 0.24636801E-01 0.18578298E+03</pdfrwt>
<totfact> 0.30455452E+04</totfact>
</mgrwt>
</event>
<event>
 4    1  0.4035350E+000  0.2229958E+03  0.7546771E-02  0.1131669E+00
         21   -1    0    0  503  502  0.00000000000E+00  0.00000000000E+00  0.50800652596E+02  0.50800652596E+02  0.00000000000E+00 0. -1.
         21   -1    0    0  501  503 -0.00000000000E+00 -0.00000000000E+00 -0.99427658344E+03  0.99427658344E+03  0.00000000000E+00 0. -1.
          6    1    1    2  501    0 -0.18482124849E+02  0.13948670288E+03 -0.53678795778E+03  0.58126451881E+03  0.17300000000E+03 0.  1.
         -6    1    1    2    0  502  0.18482124849E+02 -0.13948670288E+03 -0.40668797307E+03  0.46381271723E+03  0.17300000000E+03 0.  1.
<mgrwt>
<rscale>  2 0.22299581E+03</rscale>
<asrwt>0</asrwt>
<pdfrwt beam="1">  1       21 0.78154850E-02 0.22299581E+03</pdfrwt>
<pdfrwt beam="2">  1       21 0.15296563E+00 0.22299581E+03</pdfrwt>
<totfact> 0.34841798E+04</totfact>
</mgrwt>
</event>
<event>
 4    1  0.4035350E+000  0.3256189E+03  0.7546771E-02  0.1073092E+00
         21   -1    0    0  501  502  0.00000000000E+00  0.00000000000E+00  0.63061837863E+03  0.63061837863E+03  0.00000000000E+00 0.  1.
         21   -1    0    0  502  503 -0.00000000000E+00 -0.00000000000E+00 -0.16980619279E+03  0.16980619279E+03  0.00000000000E+00 0. -1.
          6    1    1    2  501    0 -0.27582726846E+03  0.42426522053E+01  0.19067754949E+03  0.37734017809E+03  0.17300000000E+03 0. -1.
         -6    1    1    2    0  503  0.27582726846E+03 -0.42426522053E+01  0.27013463636E+03  0.42308439333E+03  0.17300000000E+03 0.  1.
<mgrwt>
<rscale>  2 0.32561892E+03</rscale>
<asrwt>0</asrwt>
<pdfrwt beam="1">  1       21 0.97018211E-01 0.32561892E+03</pdfrwt>
<pdfrwt beam="2">  1       21 0.26124030E-01 0.32561892E+03</pdfrwt>
<totfact> 0.11433656E+04</totfact>
</mgrwt>
</event>
<event>
 4    1  0.4035350E+000  0.1742949E+03  0.7546771E-02  0.1173442E+00
         21   -1    0    0  501  502  0.00000000000E+00  0.00000000000E+00  0.19033868299E+03  0.19033868299E+03  0.00000000000E+00 0.  1.
         21   -1    0    0  502  503 -0.00000000000E+00 -0.00000000000E+00 -0.21812823345E+03  0.21812823345E+03  0.00000000000E+00 0.  1.
          6    1    1    2  501    0 -0.19678416219E+02  0.79044215355E+01  0.91894264064E+02  0.19703622944E+03  0.17300000000E+03 0.  1.
         -6    1    1    2    0  503  0.19678416219E+02 -0.79044215355E+01 -0.11968381452E+03  0.21143068700E+03  0.17300000000E+03 0.  1.
<mgrwt>
<rscale>  2 0.17429492E+03</rscale>
<asrwt>0</asrwt>
<pdfrwt beam="1">  1       21 0.29282874E-01 0.17429492E+03</pdfrwt>
<pdfrwt beam="2">  1       21 0.33558190E-01 0.17429492E+03</pdfrwt>
<totfact> 0.96213029E+04</totfact>
</mgrwt>
</event>
<event>
 4    1  0.4035350E+000  0.2257142E+03  0.7546771E-02  0.1129693E+00
         21   -1    0    0  501  502  0.00000000000E+00  0.00000000000E+00  0.25298655039E+03  0.25298655039E+03  0.00000000000E+00 0. -1.
         21   -1    0    0  502  503 -0.00000000000E+00 -0.00000000000E+00 -0.33667851818E+03  0.33667851818E+03  0.00000000000E+00 0. -1.
          6    1    1    2  501    0  0.12111662278E+03  0.79678540264E+02  0.14505483806E+03  0.26830544560E+03  0.17300000000E+03 0. -1.
         -6    1    1    2    0  503 -0.12111662278E+03 -0.79678540264E+02 -0.22874680585E+03  0.32135962298E+03  0.17300000000E+03 0. -1.
<mgrwt>
<rscale>  2 0.22571421E+03</rscale>
<asrwt>0</asrwt>
<pdfrwt beam="1">  1       21 0.38921008E-01 0.22571421E+03</pdfrwt>
<pdfrwt beam="2">  1       21 0.51796695E-01 0.22571421E+03</pdfrwt>
<totfact> 0.22111659E+04</totfact>
</mgrwt>
</event>
<event>
 4    1  0.4035350E+000  0.2792033E+03  0.7546771E-02  0.1096125E+00
         21   -1    0    0  503  502  0.00000000000E+00  0.00000000000E+00  0.26717230100E+03  0.26717230100E+03  0.00000000000E+00 0.  1.
         21   -1    0    0  501  503 -0.00000000000E+00 -0.00000000000E+00 -0.37659878608E+03  0.37659878608E+03  0.00000000000E+00 0. -1.
          6    1    1    2  501    0  0.13155597522E+03  0.17526701471E+03 -0.20747615796E+03  0.34785177474E+03  0.17300000000E+03 0. -1.
         -6    1    1    2    0  502 -0.13155597522E+03 -0.17526701471E+03  0.98049672887E+02  0.29591931234E+03  0.17300000000E+03 0. -1.
<mgrwt>
<rscale>  2 0.27920333E+03</rscale>
<asrwt>0</asrwt>
<pdfrwt beam="1">  1       21 0.41103431E-01 0.27920333E+03</pdfrwt>
<pdfrwt beam="2">  1       21 0.57938274E-01 0.27920333E+03</pdfrwt>
<totfact> 0.15189880E+04</totfact>
</mgrwt>
</event>
<event>
 4    1  0.4035350E+000  0.2555810E+03  0.7546771E-02  0.1109828E+00
         21   -1    0    0  501  502  0.00000000000E+00  0.00000000000E+00  0.21180295952E+03  0.21180295952E+03  0.00000000000E+00 0. -1.
         21   -1    0    0  502  503 -0.00000000000E+00 -0.00000000000E+00 -0.31131541695E+03  0.31131541695E+03  0.00000000000E+00 0.  1.
          6    1    1    2  501    0 -0.18478270924E+03 -0.35327123895E+02 -0.24477882873E+02  0.25675050548E+03  0.17300000000E+03 0. -1.
         -6    1    1    2    0  503  0.18478270924E+03  0.35327123895E+02 -0.75034574562E+02  0.26636787099E+03  0.17300000000E+03 0.  1.
<mgrwt>
<rscale>  2 0.25558102E+03</rscale>
<asrwt>0</asrwt>
<pdfrwt beam="1">  1       21 0.32585071E-01 0.25558102E+03</pdfrwt>
<pdfrwt beam="2">  1       21 0.47894680E-01 0.25558102E+03</pdfrwt>
<totfact> 0.36659917E+04</totfact>
</mgrwt>
</event>
<event>
 4    1  0.4035350E+000  0.1820812E+03  0.7546771E-02  0.1165804E+00
         21   -1    0    0  503  502  0.00000000000E+00  0.00000000000E+00  0.19089953364E+04  0.19089953364E+04  0.00000000000E+00 0. -1.
         21   -1    0    0  501  503 -0.00000000000E+00 -0.00000000000E+00 -0.18239916151E+02  0.18239916151E+02  0.00000000000E+00 0.  1.
          6    1    1    2  501    0  0.38295725151E+02 -0.41928338597E+02  0.73457500705E+03  0.75680511965E+03  0.17300000000E+03 0. -1.
         -6    1    1    2    0  502 -0.38295725151E+02  0.41928338597E+02  0.11561804132E+04  0.11704301329E+04  0.17300000000E+03 0. -1.
<mgrwt>
<rscale>  2 0.18208116E+03</rscale>
<asrwt>0</asrwt>
<pdfrwt beam="1">  1       21 0.29369143E+00 0.18208116E+03</pdfrwt>
<pdfrwt beam="2">  1       21 0.28061425E-02 0.18208116E+03</pdfrwt>
<totfact> 0.26494721E+04</totfact>
</mgrwt>
</event>
