<event>
 8    1  0.2497772E-006  0.9118800E+02  0.7816164E-02  0.1184000E+00
        -11   -1    0    0    0    0  0.00000000000E+00  0.00000000000E+00  0.45593999997E+02  0.45594000000E+02  0.51100000000E-03 0. -1.
         11   -1    0    0    0    0 -0.00000000000E+00 -0.00000000000E+00 -0.45593999997E+02  0.45594000000E+02  0.51100000000E-03 0.  1.
         23    2    1    2    0    0  0.00000000000E+00  0.88817841970E-15  0.00000000000E+00  0.91188000000E+02  0.91188000000E+02 0.  0.
    9900012    2    3    3    0    0 -0.27648758159E+02  0.22346800181E+01 -0.24214297913E+02  0.54367084124E+02  0.39999999878E+02 0.  0.
         12    1    3    3    0    0  0.27648758159E+02 -0.22346800181E+01  0.24214297913E+02  0.36820915876E+02  0.00000000000E+00 0. -1.
         11    1    4    4    0    0  0.16031052670E+01 -0.96307650830E+01 -0.47598275108E+01  0.10861746672E+02  0.51100000000E-03 0. -1.
        -11    1    4    4    0    0 -0.19459278095E+02  0.18675137074E+02 -0.14040368365E+02  0.30406515631E+02  0.51100000000E-03 0.  1.
        -12    1    4    4    0    0 -0.97925853309E+01 -0.68096919734E+01 -0.54141020369E+01  0.13098821821E+02  0.00000000000E+00 0.  1.
</event>
<event>
 8    1  0.2497772E-006  0.9118800E+02  0.7816164E-02  0.1184000E+00
        -11   -1    0    0    0    0  0.00000000000E+00  0.00000000000E+00  0.45593999997E+02  0.45594000000E+02  0.51100000000E-03 0. -1.
         11   -1    0    0    0    0 -0.00000000000E+00 -0.00000000000E+00 -0.45593999997E+02  0.45594000000E+02  0.51100000000E-03 0.  1.
         23    2    1    2    0    0  0.00000000000E+00  0.00000000000E+00  0.00000000000E+00  0.91188000000E+02  0.91188000000E+02 0.  0.
    9900012    2    3    3    0    0 -0.20424262795E+02 -0.11015959797E+02 -0.28588054043E+02  0.54367099482E+02  0.40000034890E+02 0.  0.
         12    1    3    3    0    0  0.20424262795E+02  0.11015959797E+02  0.28588054043E+02  0.36820900518E+02  0.00000000000E+00 0. -1.
         11    1    4    4    0    0 -0.12162650517E+02 -0.17848700878E+02  0.71574398622E+00  0.21610610364E+02  0.51100000000E-03 0. -1.
        -11    1    4    4    0    0 -0.86482163553E+01  0.17475872702E+01 -0.13305634739E+02  0.15965137752E+02  0.51100000000E-03 0.  1.
         12    1    4    4    0    0  0.38660407740E+00  0.50851538108E+01 -0.15998163291E+02  0.16791351365E+02  0.00000000000E+00 0. -1.
</event>
<event>
 8    1  0.2497772E-006  0.9118800E+02  0.7816164E-02  0.1184000E+00
        -11   -1    0    0    0    0  0.00000000000E+00  0.00000000000E+00  0.45593999997E+02  0.45594000000E+02  0.51100000000E-03 0. -1.
         11   -1    0    0    0    0 -0.00000000000E+00 -0.00000000000E+00 -0.45593999997E+02  0.45594000000E+02  0.51100000000E-03 0.  1.
         23    2    1    2    0    0  0.00000000000E+00  0.00000000000E+00  0.00000000000E+00  0.91188000000E+02  0.91188000000E+02 0.  0.
    9900012    2    3    3    0    0  0.33825788529E+02 -0.44307138995E+01  0.13855126644E+02  0.54367085704E+02  0.40000003480E+02 0.  0.
        -12    1    3    3    0    0 -0.33825788529E+02  0.44307138995E+01 -0.13855126644E+02  0.36820914296E+02  0.00000000000E+00 0.  1.
         11    1    4    4    0    0  0.14362969652E+02 -0.12263515604E+02  0.42564749232E+01  0.19359914546E+02  0.51100000000E-03 0. -1.
        -11    1    4    4    0    0  0.85620049780E+01  0.47057517158E+01 -0.89609600839E+01  0.13257105051E+02  0.51100000000E-03 0.  1.
        -12    1    4    4    0    0  0.10900813899E+02  0.31270499889E+01  0.18559611805E+02  0.21750066107E+02  0.00000000000E+00 0.  1.
</event>
<event>
 8    1  0.2497772E-006  0.9118800E+02  0.7816164E-02  0.1184000E+00
        -11   -1    0    0    0    0  0.00000000000E+00  0.00000000000E+00  0.45593999997E+02  0.45594000000E+02  0.51100000000E-03 0.  1.
         11   -1    0    0    0    0 -0.00000000000E+00 -0.00000000000E+00 -0.45593999997E+02  0.45594000000E+02  0.51100000000E-03 0. -1.
         23    2    1    2    0    0  0.00000000000E+00 -0.35527136788E-14 -0.71054273576E-14  0.91188000000E+02  0.91188000000E+02 0.  0.
    9900012    2    3    3    0    0 -0.10505304625E+02 -0.18238675230E+02 -0.30212037706E+02  0.54367110253E+02  0.40000059445E+02 0.  0.
        -12    1    3    3    0    0  0.10505304625E+02  0.18238675230E+02  0.30212037706E+02  0.36820889747E+02  0.00000000000E+00 0.  1.
         11    1    4    4    0    0 -0.12578979648E+02 -0.25462348488E+02 -0.21830331163E+02  0.35820738105E+02  0.51100000000E-03 0. -1.
        -11    1    4    4    0    0 -0.12119396673E+01 -0.41662957656E+01 -0.40200514055E+01  0.59150343809E+01  0.51100000000E-03 0.  1.
        -12    1    4    4    0    0  0.32856146897E+01  0.11389969024E+02 -0.43616551373E+01  0.12631337767E+02  0.00000000000E+00 0.  1.
</event>
<event>
 8    1  0.2497772E-006  0.9118800E+02  0.7816164E-02  0.1184000E+00
        -11   -1    0    0    0    0  0.00000000000E+00  0.00000000000E+00  0.45593999997E+02  0.45594000000E+02  0.51100000000E-03 0.  1.
         11   -1    0    0    0    0 -0.00000000000E+00 -0.00000000000E+00 -0.45593999997E+02  0.45594000000E+02  0.51100000000E-03 0. -1.
         23    2    1    2    0    0  0.00000000000E+00  0.00000000000E+00  0.00000000000E+00  0.91188000000E+02  0.91188000000E+02 0.  0.
    9900012    2    3    3    0    0 -0.75281177712E+01  0.14130318551E+02 -0.33157802423E+02  0.54367104831E+02  0.40000047082E+02 0.  0.
        -12    1    3    3    0    0  0.75281177712E+01 -0.14130318551E+02  0.33157802423E+02  0.36820895169E+02  0.00000000000E+00 0.  1.
         11    1    4    4    0    0  0.52207470928E+01  0.91705825318E+01 -0.28394889182E+02  0.30292334279E+02  0.51100000000E-03 0. -1.
        -11    1    4    4    0    0 -0.17005787220E+01  0.89345183159E+01  0.34700723475E+01  0.97344228327E+01  0.51100000000E-03 0.  1.
         12    1    4    4    0    0 -0.11048286142E+02 -0.39747822966E+01 -0.82329855891E+01  0.14340347719E+02  0.00000000000E+00 0. -1.
</event>
<event>
 8    1  0.2497772E-006  0.9118800E+02  0.7816164E-02  0.1184000E+00
        -11   -1    0    0    0    0  0.00000000000E+00  0.00000000000E+00  0.45593999997E+02  0.45594000000E+02  0.51100000000E-03 0.  1.
         11   -1    0    0    0    0 -0.00000000000E+00 -0.00000000000E+00 -0.45593999997E+02  0.45594000000E+02  0.51100000000E-03 0. -1.
         23    2    1    2    0    0  0.17763568394E-14  0.35527136788E-14 -0.35527136788E-14  0.91188000000E+02  0.91188000000E+02 0.  0.
    9900012    2    3    3    0    0 -0.46912328779E+01  0.25298636995E+02 -0.26339154027E+02  0.54367085636E+02  0.40000003325E+02 0.  0.
        -12    1    3    3    0    0  0.46912328779E+01 -0.25298636995E+02  0.26339154027E+02  0.36820914364E+02  0.00000000000E+00 0.  1.
         11    1    4    4    0    0  0.12592001371E+01  0.15403530655E+02 -0.27983324790E+02  0.31967496120E+02  0.51100000000E-03 0. -1.
        -11    1    4    4    0    0  0.44732049324E+01  0.42041777898E+01 -0.57489453220E+01  0.84104129406E+01  0.51100000000E-03 0.  1.
        -12    1    4    4    0    0 -0.10423637947E+02  0.56909285502E+01  0.73931160850E+01  0.13989176576E+02  0.00000000000E+00 0.  1.
</event>
<event>
 8    1  0.2497772E-006  0.9118800E+02  0.7816164E-02  0.1184000E+00
        -11   -1    0    0    0    0  0.00000000000E+00  0.00000000000E+00  0.45593999997E+02  0.45594000000E+02  0.51100000000E-03 0.  1.
         11   -1    0    0    0    0 -0.00000000000E+00 -0.00000000000E+00 -0.45593999997E+02  0.45594000000E+02  0.51100000000E-03 0. -1.
         23    2    1    2    0    0  0.00000000000E+00  0.00000000000E+00  0.00000000000E+00  0.91188000000E+02  0.91188000000E+02 0.  0.
    9900012    2    3    3    0    0  0.17529138961E+02 -0.28522454875E+02 -0.15329035587E+02  0.54367075557E+02  0.39999980347E+02 0.  0.
        -12    1    3    3    0    0 -0.17529138961E+02  0.28522454875E+02  0.15329035587E+02  0.36820924443E+02  0.00000000000E+00 0.  1.
         11    1    4    4    0    0 -0.32138894599E+01 -0.27379100663E+02 -0.16155956420E+01  0.27614387339E+02  0.51100000000E-03 0. -1.
        -11    1    4    4    0    0  0.92727890781E+01  0.23942193686E+01 -0.16188794937E+01  0.97127583491E+01  0.51100000000E-03 0.  1.
         12    1    4    4    0    0  0.11470239343E+02 -0.35375735805E+01 -0.12094560451E+02  0.17039929869E+02  0.00000000000E+00 0. -1.
</event>
<event>
 8    1  0.2497772E-006  0.9118800E+02  0.7816164E-02  0.1184000E+00
        -11   -1    0    0    0    0  0.00000000000E+00  0.00000000000E+00  0.45593999997E+02  0.45594000000E+02  0.51100000000E-03 0.  1.
         11   -1    0    0    0    0 -0.00000000000E+00 -0.00000000000E+00 -0.45593999997E+02  0.45594000000E+02  0.51100000000E-03 0. -1.
         23    2    1    2    0    0  0.00000000000E+00  0.71054273576E-14 -0.53290705182E-14  0.91188000000E+02  0.91188000000E+02 0.  0.
    9900012    2    3    3    0    0 -0.14777327308E+01 -0.35322017161E+02  0.10293333985E+02  0.54367064177E+02  0.39999954404E+02 0.  0.
         12    1    3    3    0    0  0.14777327308E+01  0.35322017161E+02 -0.10293333985E+02  0.36820935823E+02  0.00000000000E+00 0. -1.
         11    1    4    4    0    0  0.53529483587E+01 -0.93626380888E+01 -0.10308831065E+02  0.14919284376E+02  0.51100000000E-03 0. -1.
        -11    1    4    4    0    0 -0.13887706582E+02 -0.18982975994E+02  0.12493530462E+02  0.26632875837E+02  0.51100000000E-03 0.  1.
         12    1    4    4    0    0  0.70570254928E+01 -0.69764030790E+01  0.81086345880E+01  0.12814903964E+02  0.00000000000E+00 0. -1.
</event>
<event>
 8    1  0.2497772E-006  0.9118800E+02  0.7816164E-02  0.1184000E+00
        -11   -1    0    0    0    0  0.00000000000E+00  0.00000000000E+00  0.45593999997E+02  0.45594000000E+02  0.51100000000E-03 0.  1.
         11   -1    0    0    0    0 -0.00000000000E+00 -0.00000000000E+00 -0.45593999997E+02  0.45594000000E+02  0.51100000000E-03 0. -1.
         23    2    1    2    0    0  0.00000000000E+00  0.00000000000E+00  0.35527136788E-14  0.91188000000E+02  0.91188000000E+02 0.  0.
    9900012    2    3    3    0    0  0.20455271283E+02  0.10942309773E+01 -0.30596804410E+02  0.54367083325E+02  0.39999998055E+02 0.  0.
        -12    1    3    3    0    0 -0.20455271283E+02 -0.10942309773E+01  0.30596804410E+02  0.36820916675E+02  0.00000000000E+00 0.  1.
         11    1    4    4    0    0  0.16362727491E+02 -0.87335849302E-01 -0.33155641449E+02  0.36973545118E+02  0.51100000000E-03 0. -1.
        -11    1    4    4    0    0  0.10072249772E+02  0.31134714415E+01  0.33452153731E+01  0.11060487604E+02  0.51100000000E-03 0.  1.
        -12    1    4    4    0    0 -0.59797059795E+01 -0.19319046150E+01 -0.78637833432E+00  0.63330506020E+01  0.00000000000E+00 0.  1.
</event>
<event>
 8    1  0.2497772E-006  0.9118800E+02  0.7816164E-02  0.1184000E+00
        -11   -1    0    0    0    0  0.00000000000E+00  0.00000000000E+00  0.45593999997E+02  0.45594000000E+02  0.51100000000E-03 0. -1.
         11   -1    0    0    0    0 -0.00000000000E+00 -0.00000000000E+00 -0.45593999997E+02  0.45594000000E+02  0.51100000000E-03 0.  1.
         23    2    1    2    0    0  0.17763568394E-14  0.71054273576E-14 -0.17763568394E-14  0.91188000000E+02  0.91188000000E+02 0.  0.
    9900012    2    3    3    0    0  0.12063221784E+02  0.32381878369E+02 -0.12714997477E+02  0.54367102030E+02  0.40000040697E+02 0.  0.
         12    1    3    3    0    0 -0.12063221784E+02 -0.32381878369E+02  0.12714997477E+02  0.36820897970E+02  0.00000000000E+00 0. -1.
         11    1    4    4    0    0  0.55217660703E+01  0.10848987680E+02  0.19569546293E+01  0.12329643381E+02  0.51100000000E-03 0.  1.
        -11    1    4    4    0    0 -0.41472032138E+01  0.25588467650E+02 -0.36874909114E+01  0.26183326005E+02  0.51100000000E-03 0. -1.
        -12    1    4    4    0    0  0.10688658927E+02 -0.40555769615E+01 -0.10984461195E+02  0.15854132644E+02  0.00000000000E+00 0.  1.
</event>
<event>
 8    1  0.2497772E-006  0.9118800E+02  0.7816164E-02  0.1184000E+00
        -11   -1    0    0    0    0  0.00000000000E+00  0.00000000000E+00  0.45593999997E+02  0.45594000000E+02  0.51100000000E-03 0.  1.
         11   -1    0    0    0    0 -0.00000000000E+00 -0.00000000000E+00 -0.45593999997E+02  0.45594000000E+02  0.51100000000E-03 0. -1.
         23    2    1    2    0    0 -0.17763568394E-14  0.00000000000E+00  0.00000000000E+00  0.91188000000E+02  0.91188000000E+02 0.  0.
    9900012    2    3    3    0    0 -0.93359313346E+01  0.32899772917E+02 -0.13646439210E+02  0.54367082371E+02  0.39999995882E+02 0.  0.
        -12    1    3    3    0    0  0.93359313346E+01 -0.32899772917E+02  0.13646439210E+02  0.36820917629E+02  0.00000000000E+00 0.  1.
         11    1    4    4    0    0 -0.20596056473E+01  0.27957887828E+02 -0.79348353351E+01  0.29134980338E+02  0.51100000000E-03 0. -1.
        -11    1    4    4    0    0  0.65876654094E+01 -0.43355917884E+01 -0.21531795108E+01  0.81750152274E+01  0.51100000000E-03 0.  1.
         12    1    4    4    0    0 -0.13863991097E+02  0.92774768775E+01 -0.35584243642E+01  0.17057086806E+02  0.00000000000E+00 0. -1.
</event>
<event>
 8    1  0.2497772E-006  0.9118800E+02  0.7816164E-02  0.1184000E+00
        -11   -1    0    0    0    0  0.00000000000E+00  0.00000000000E+00  0.45593999997E+02  0.45594000000E+02  0.51100000000E-03 0. -1.
         11   -1    0    0    0    0 -0.00000000000E+00 -0.00000000000E+00 -0.45593999997E+02  0.45594000000E+02  0.51100000000E-03 0.  1.
         23    2    1    2    0    0  0.00000000000E+00  0.00000000000E+00 -0.35527136788E-14  0.91188000000E+02  0.91188000000E+02 0.  0.
    9900012    2    3    3    0    0  0.22236435056E+02  0.21869515016E+02  0.19571536538E+02  0.54367085107E+02  0.40000002119E+02 0.  0.
        -12    1    3    3    0    0 -0.22236435056E+02 -0.21869515016E+02 -0.19571536538E+02  0.36820914893E+02  0.00000000000E+00 0.  1.
         11    1    4    4    0    0  0.77250577460E+01  0.16640248214E+02  0.30566387516E+01  0.18598855302E+02  0.51100000000E-03 0. -1.
        -11    1    4    4    0    0 -0.71019757602E+01  0.31293020957E+01 -0.10590447093E+01  0.78327624285E+01  0.51100000000E-03 0.  1.
         12    1    4    4    0    0  0.21613353071E+02  0.20999647061E+01  0.17573942496E+02  0.27935467377E+02  0.00000000000E+00 0. -1.
</event>
<event>
 8    1  0.2497772E-006  0.9118800E+02  0.7816164E-02  0.1184000E+00
        -11   -1    0    0    0    0  0.00000000000E+00  0.00000000000E+00  0.45593999997E+02  0.45594000000E+02  0.51100000000E-03 0. -1.
         11   -1    0    0    0    0 -0.00000000000E+00 -0.00000000000E+00 -0.45593999997E+02  0.45594000000E+02  0.51100000000E-03 0.  1.
         23    2    1    2    0    0  0.35527136788E-14 -0.35527136788E-14 -0.35527136788E-14  0.91188000000E+02  0.91188000000E+02 0.  0.
    9900012    2    3    3    0    0  0.72687144317E+01 -0.29742967951E+02 -0.20452376817E+02  0.54367108247E+02  0.40000054870E+02 0.  0.
         12    1    3    3    0    0 -0.72687144317E+01  0.29742967951E+02  0.20452376817E+02  0.36820891753E+02  0.00000000000E+00 0. -1.
         11    1    4    4    0    0 -0.87861568565E+01 -0.12999835892E+02 -0.11955745946E+02  0.19726432696E+02  0.51100000000E-03 0. -1.
        -11    1    4    4    0    0  0.27514494147E+01 -0.64742996449E+01 -0.15041760795E+02  0.16605468914E+02  0.51100000000E-03 0.  1.
         12    1    4    4    0    0  0.13303421873E+02 -0.10268832415E+02  0.65451299245E+01  0.18035206637E+02  0.00000000000E+00 0. -1.
</event>
<event>
 8    1  0.2497772E-006  0.9118800E+02  0.7816164E-02  0.1184000E+00
        -11   -1    0    0    0    0  0.00000000000E+00  0.00000000000E+00  0.45593999997E+02  0.45594000000E+02  0.51100000000E-03 0.  1.
         11   -1    0    0    0    0 -0.00000000000E+00 -0.00000000000E+00 -0.45593999997E+02  0.45594000000E+02  0.51100000000E-03 0. -1.
         23    2    1    2    0    0 -0.35527136788E-14  0.88817841970E-15  0.71054273576E-14  0.91188000000E+02  0.91188000000E+02 0.  0.
    9900012    2    3    3    0    0 -0.24739002556E+02 -0.59637659739E+01  0.26611942297E+02  0.54367078979E+02  0.39999988148E+02 0.  0.
         12    1    3    3    0    0  0.24739002556E+02  0.59637659739E+01 -0.26611942297E+02  0.36820921021E+02  0.00000000000E+00 0. -1.
         11    1    4    4    0    0 -0.29724142947E+02 -0.41711026119E+01  0.31523296849E+02  0.43527474260E+02  0.51100000000E-03 0.  1.
        -11    1    4    4    0    0 -0.66298351530E+00 -0.28219748212E+01 -0.41296208881E+01  0.50454789638E+01  0.51100000000E-03 0. -1.
        -12    1    4    4    0    0  0.56481239068E+01  0.10293114591E+01 -0.78173366422E+00  0.57941257553E+01  0.00000000000E+00 0.  1.
</event>
<event>
 8    1  0.2497772E-006  0.9118800E+02  0.7816164E-02  0.1184000E+00
        -11   -1    0    0    0    0  0.00000000000E+00  0.00000000000E+00  0.45593999997E+02  0.45594000000E+02  0.51100000000E-03 0. -1.
         11   -1    0    0    0    0 -0.00000000000E+00 -0.00000000000E+00 -0.45593999997E+02  0.45594000000E+02  0.51100000000E-03 0.  1.
         23    2    1    2    0    0  0.00000000000E+00  0.00000000000E+00  0.00000000000E+00  0.91188000000E+02  0.91188000000E+02 0.  0.
    9900012    2    3    3    0    0  0.22244415984E+02  0.24460719218E+02 -0.16206326022E+02  0.54367002861E+02  0.39999814623E+02 0.  0.
         12    1    3    3    0    0 -0.22244415984E+02 -0.24460719218E+02  0.16206326022E+02  0.36820997139E+02  0.00000000000E+00 0. -1.
         11    1    4    4    0    0  0.76262235643E+01 -0.24049324705E+01 -0.58019316629E+01  0.98795443884E+01  0.51100000000E-03 0. -1.
        -11    1    4    4    0    0  0.18549049546E+02  0.79583659509E+01 -0.14364772463E+02  0.24773968512E+02  0.51100000000E-03 0.  1.
        -12    1    4    4    0    0 -0.39308571262E+01  0.18907285738E+02  0.39603781036E+01  0.19713489961E+02  0.00000000000E+00 0.  1.
</event>
<event>
 8    1  0.2497772E-006  0.9118800E+02  0.7816164E-02  0.1184000E+00
        -11   -1    0    0    0    0  0.00000000000E+00  0.00000000000E+00  0.45593999997E+02  0.45594000000E+02  0.51100000000E-03 0. -1.
         11   -1    0    0    0    0 -0.00000000000E+00 -0.00000000000E+00 -0.45593999997E+02  0.45594000000E+02  0.51100000000E-03 0.  1.
         23    2    1    2    0    0 -0.17763568394E-14  0.00000000000E+00 -0.17763568394E-14  0.91188000000E+02  0.91188000000E+02 0.  0.
    9900012    2    3    3    0    0  0.15659889844E+02  0.29260615664E+02 -0.15948829607E+02  0.54367069203E+02  0.39999965861E+02 0.  0.
         12    1    3    3    0    0 -0.15659889844E+02 -0.29260615664E+02  0.15948829607E+02  0.36820930797E+02  0.00000000000E+00 0. -1.
         11    1    4    4    0    0 -0.34580313114E+01  0.78993653077E+01 -0.18551176350E+02  0.20457372682E+02  0.51100000000E-03 0. -1.
        -11    1    4    4    0    0  0.31683378900E+01  0.94659978312E+01 -0.66216355590E+01  0.11978711853E+02  0.51100000000E-03 0.  1.
         12    1    4    4    0    0  0.15949583266E+02  0.11895252525E+02  0.92239823022E+01  0.21930984668E+02  0.00000000000E+00 0. -1.
</event>
<event>
 8    1  0.2497772E-006  0.9118800E+02  0.7816164E-02  0.1184000E+00
        -11   -1    0    0    0    0  0.00000000000E+00  0.00000000000E+00  0.45593999997E+02  0.45594000000E+02  0.51100000000E-03 0.  1.
         11   -1    0    0    0    0 -0.00000000000E+00 -0.00000000000E+00 -0.45593999997E+02  0.45594000000E+02  0.51100000000E-03 0. -1.
         23    2    1    2    0    0 -0.35527136788E-14 -0.17763568394E-14  0.00000000000E+00  0.91188000000E+02  0.91188000000E+02 0.  0.
    9900012    2    3    3    0    0 -0.16701448005E+02  0.24136040200E+01  0.32726091549E+02  0.54367341154E+02  0.40000585824E+02 0.  0.
        -12    1    3    3    0    0  0.16701448005E+02 -0.24136040200E+01 -0.32726091549E+02  0.36820658846E+02  0.00000000000E+00 0.  1.
         11    1    4    4    0    0 -0.61127361505E+01 -0.16642174943E+02  0.19388144918E+02  0.26272184791E+02  0.51100000000E-03 0. -1.
        -11    1    4    4    0    0 -0.33774236886E+01  0.14933409121E+02  0.12464798945E+02  0.19742971198E+02  0.51100000000E-03 0.  1.
        -12    1    4    4    0    0 -0.72112881662E+01  0.41223698423E+01  0.87314768561E+00  0.83521851639E+01  0.00000000000E+00 0.  1.
</event>
<event>
 8    1  0.2497772E-006  0.9118800E+02  0.7816164E-02  0.1184000E+00
        -11   -1    0    0    0    0  0.00000000000E+00  0.00000000000E+00  0.45593999997E+02  0.45594000000E+02  0.51100000000E-03 0.  1.
         11   -1    0    0    0    0 -0.00000000000E+00 -0.00000000000E+00 -0.45593999997E+02  0.45594000000E+02  0.51100000000E-03 0. -1.
         23    2    1    2    0    0  0.17763568394E-14  0.00000000000E+00  0.00000000000E+00  0.91188000000E+02  0.91188000000E+02 0.  0.
    9900012    2    3    3    0    0  0.67683722790E+01  0.10401295485E+02  0.34666922073E+02  0.54366901468E+02  0.39999583475E+02 0.  0.
         12    1    3    3    0    0 -0.67683722790E+01 -0.10401295485E+02 -0.34666922073E+02  0.36821098532E+02  0.00000000000E+00 0. -1.
         11    1    4    4    0    0 -0.87625353696E+01  0.78143538508E+01  0.13237689839E+02  0.17694139842E+02  0.51100000000E-03 0. -1.
        -11    1    4    4    0    0  0.69106051525E+01  0.12927829781E+02  0.51257677469E+01  0.15529286580E+02  0.51100000000E-03 0.  1.
         12    1    4    4    0    0  0.86203024961E+01 -0.10340888146E+02  0.16303464487E+02  0.21143475047E+02  0.00000000000E+00 0. -1.
</event>
<event>
 8    1  0.2497772E-006  0.9118800E+02  0.7816164E-02  0.1184000E+00
        -11   -1    0    0    0    0  0.00000000000E+00  0.00000000000E+00  0.45593999997E+02  0.45594000000E+02  0.51100000000E-03 0. -1.
         11   -1    0    0    0    0 -0.00000000000E+00 -0.00000000000E+00 -0.45593999997E+02  0.45594000000E+02  0.51100000000E-03 0.  1.
         23    2    1    2    0    0  0.44408920985E-15  0.00000000000E+00  0.00000000000E+00  0.91188000000E+02  0.91188000000E+02 0.  0.
    9900012    2    3    3    0    0  0.38162430681E+01  0.36262590223E+02 -0.51224978673E+01  0.54367093639E+02  0.40000021568E+02 0.  0.
         12    1    3    3    0    0 -0.38162430681E+01 -0.36262590223E+02  0.51224978673E+01  0.36820906361E+02  0.00000000000E+00 0. -1.
         11    1    4    4    0    0  0.31288095412E+01  0.15478327103E+01  0.26047681615E+01  0.43554623957E+01  0.51100000000E-03 0. -1.
        -11    1    4    4    0    0  0.14719814233E+02  0.31768147255E+02 -0.65967622463E+01  0.35628715715E+02  0.51100000000E-03 0.  1.
        -12    1    4    4    0    0 -0.14032380706E+02  0.29466102578E+01 -0.11305037825E+01  0.14382915528E+02  0.00000000000E+00 0.  1.
</event>
<event>
 8    1  0.2497772E-006  0.9118800E+02  0.7816164E-02  0.1184000E+00
        -11   -1    0    0    0    0  0.00000000000E+00  0.00000000000E+00  0.45593999997E+02  0.45594000000E+02  0.51100000000E-03 0. -1.
         11   -1    0    0    0    0 -0.00000000000E+00 -0.00000000000E+00 -0.45593999997E+02  0.45594000000E+02  0.51100000000E-03 0.  1.
         23    2    1    2    0    0  0.00000000000E+00 -0.35527136788E-14  0.00000000000E+00  0.91188000000E+02  0.91188000000E+02 0.  0.
    9900012    2    3    3    0    0  0.87588311958E+01 -0.25196352512E+02  0.25381237021E+02  0.54367075290E+02  0.39999979738E+02 0.  0.
        -12    1    3    3    0    0 -0.87588311958E+01  0.25196352512E+02 -0.25381237021E+02  0.36820924710E+02  0.00000000000E+00 0.  1.
         11    1    4    4    0    0  0.97871114149E+01 -0.16132140147E+02  0.12782241297E+02  0.22790769807E+02  0.51100000000E-03 0.  1.
        -11    1    4    4    0    0  0.11536521569E+01 -0.18333678516E+02  0.41212507874E+01  0.18826560747E+02  0.51100000000E-03 0. -1.
        -12    1    4    4    0    0 -0.21819323761E+01  0.92694661516E+01  0.84777449362E+01  0.12749744736E+02  0.00000000000E+00 0.  1.
</event>
<event>
 8    1  0.2497772E-006  0.9118800E+02  0.7816164E-02  0.1184000E+00
        -11   -1    0    0    0    0  0.00000000000E+00  0.00000000000E+00  0.45593999997E+02  0.45594000000E+02  0.51100000000E-03 0. -1.
         11   -1    0    0    0    0 -0.00000000000E+00 -0.00000000000E+00 -0.45593999997E+02  0.45594000000E+02  0.51100000000E-03 0.  1.
         23    2    1    2    0    0 -0.35527136788E-14 -0.88817841970E-15  0.35527136788E-14  0.91188000000E+02  0.91188000000E+02 0.  0.
    9900012    2    3    3    0    0  0.19582138570E+02  0.62037986191E+01 -0.30558683177E+02  0.54367076793E+02  0.39999983166E+02 0.  0.
         12    1    3    3    0    0 -0.19582138570E+02 -0.62037986191E+01  0.30558683177E+02  0.36820923207E+02  0.00000000000E+00 0. -1.
         11    1    4    4    0    0  0.15065462855E+02  0.33084682756E+01  0.21410569826E+00  0.15425951344E+02  0.51100000000E-03 0. -1.
        -11    1    4    4    0    0  0.11621818769E+02 -0.51331020737E+01 -0.12945068187E+02  0.18138086973E+02  0.51100000000E-03 0.  1.
        -12    1    4    4    0    0 -0.71051430544E+01  0.80284324172E+01 -0.17827720688E+02  0.20803038476E+02  0.00000000000E+00 0.  1.
</event>
<event>
 8    1  0.2497772E-006  0.9118800E+02  0.7816164E-02  0.1184000E+00
        -11   -1    0    0    0    0  0.00000000000E+00  0.00000000000E+00  0.45593999997E+02  0.45594000000E+02  0.51100000000E-03 0.  1.
         11   -1    0    0    0    0 -0.00000000000E+00 -0.00000000000E+00 -0.45593999997E+02  0.45594000000E+02  0.51100000000E-03 0. -1.
         23    2    1    2    0    0 -0.17763568394E-14  0.00000000000E+00  0.00000000000E+00  0.91188000000E+02  0.91188000000E+02 0.  0.
    9900012    2    3    3    0    0 -0.12266757990E+02 -0.66780708114E+01 -0.34069207410E+02  0.54367070151E+02  0.39999968024E+02 0.  0.
        -12    1    3    3    0    0  0.12266757990E+02  0.66780708114E+01  0.34069207410E+02  0.36820929849E+02  0.00000000000E+00 0.  1.
         11    1    4    4    0    0 -0.20375327288E+02  0.48498633449E+01 -0.17861759083E+02  0.27526670237E+02  0.51100000000E-03 0. -1.
        -11    1    4    4    0    0  0.11422177037E+02 -0.63993453774E+01 -0.16076125465E+02  0.20733054762E+02  0.51100000000E-03 0.  1.
         12    1    4    4    0    0 -0.33136077398E+01 -0.51285887789E+01 -0.13132286255E+00  0.61073451524E+01  0.00000000000E+00 0. -1.
</event>
<event>
 8    1  0.2497772E-006  0.9118800E+02  0.7816164E-02  0.1184000E+00
        -11   -1    0    0    0    0  0.00000000000E+00  0.00000000000E+00  0.45593999997E+02  0.45594000000E+02  0.51100000000E-03 0. -1.
         11   -1    0    0    0    0 -0.00000000000E+00 -0.00000000000E+00 -0.45593999997E+02  0.45594000000E+02  0.51100000000E-03 0.  1.
         23    2    1    2    0    0  0.00000000000E+00  0.00000000000E+00  0.00000000000E+00  0.91188000000E+02  0.91188000000E+02 0.  0.
    9900012    2    3    3    0    0  0.31651188929E+02 -0.99311071599E+01 -0.15980054127E+02  0.54366989966E+02  0.39999785224E+02 0.  0.
         12    1    3    3    0    0 -0.31651188929E+02  0.99311071599E+01  0.15980054127E+02  0.36821010034E+02  0.00000000000E+00 0. -1.
         11    1    4    4    0    0  0.38776891948E+01 -0.14164592098E+02 -0.11431940959E+02  0.18610787655E+02  0.51100000000E-03 0.  1.
        -11    1    4    4    0    0  0.19031637087E+02 -0.68520758868E+01  0.17383017870E+01  0.20302114361E+02  0.51100000000E-03 0. -1.
         12    1    4    4    0    0  0.87418626470E+01  0.11085560825E+02 -0.62864149550E+01  0.15454087949E+02  0.00000000000E+00 0. -1.
</event>
<event>
 8    1  0.2497772E-006  0.9118800E+02  0.7816164E-02  0.1184000E+00
        -11   -1    0    0    0    0  0.00000000000E+00  0.00000000000E+00  0.45593999997E+02  0.45594000000E+02  0.51100000000E-03 0. -1.
         11   -1    0    0    0    0 -0.00000000000E+00 -0.00000000000E+00 -0.45593999997E+02  0.45594000000E+02  0.51100000000E-03 0.  1.
         23    2    1    2    0    0  0.00000000000E+00  0.00000000000E+00  0.00000000000E+00  0.91188000000E+02  0.91188000000E+02 0.  0.
    9900012    2    3    3    0    0 -0.21718668743E+02  0.28196562900E+02  0.94357505611E+01  0.54367080403E+02  0.39999991395E+02 0.  0.
         12    1    3    3    0    0  0.21718668743E+02 -0.28196562900E+02 -0.94357505611E+01  0.36820919597E+02  0.00000000000E+00 0. -1.
         11    1    4    4    0    0 -0.90054211621E+01  0.48540253661E+01  0.64278984885E+01  0.12082096333E+02  0.51100000000E-03 0. -1.
        -11    1    4    4    0    0 -0.93644927447E+01 -0.53644010353E+01  0.73524263185E+01  0.13058663632E+02  0.51100000000E-03 0.  1.
        -12    1    4    4    0    0 -0.33487548361E+01  0.28706938569E+02 -0.43445742459E+01  0.29226320438E+02  0.00000000000E+00 0.  1.
</event>
<event>
 8    1  0.2497772E-006  0.9118800E+02  0.7816164E-02  0.1184000E+00
        -11   -1    0    0    0    0  0.00000000000E+00  0.00000000000E+00  0.45593999997E+02  0.45594000000E+02  0.51100000000E-03 0. -1.
         11   -1    0    0    0    0 -0.00000000000E+00 -0.00000000000E+00 -0.45593999997E+02  0.45594000000E+02  0.51100000000E-03 0.  1.
         23    2    1    2    0    0  0.71054273576E-14  0.00000000000E+00 -0.16653345369E-15  0.91188000000E+02  0.91188000000E+02 0.  0.
    9900012    2    3    3    0    0 -0.35634616427E+02  0.92677007321E+01 -0.25212393694E+00  0.54367085682E+02  0.40000003429E+02 0.  0.
        -12    1    3    3    0    0  0.35634616427E+02 -0.92677007321E+01  0.25212393694E+00  0.36820914318E+02  0.00000000000E+00 0.  1.
         11    1    4    4    0    0 -0.21000725334E+02 -0.34168384162E+01 -0.28858182764E+01  0.21471683602E+02  0.51100000000E-03 0. -1.
        -11    1    4    4    0    0 -0.62697373266E+01  0.15311737756E+02 -0.85986936199E+01  0.18646620377E+02  0.51100000000E-03 0.  1.
        -12    1    4    4    0    0 -0.83641537660E+01 -0.26271986074E+01  0.11232387959E+02  0.14248781703E+02  0.00000000000E+00 0.  1.
</event>
<event>
 8    1  0.2497772E-006  0.9118800E+02  0.7816164E-02  0.1184000E+00
        -11   -1    0    0    0    0  0.00000000000E+00  0.00000000000E+00  0.45593999997E+02  0.45594000000E+02  0.51100000000E-03 0.  1.
         11   -1    0    0    0    0 -0.00000000000E+00 -0.00000000000E+00 -0.45593999997E+02  0.45594000000E+02  0.51100000000E-03 0. -1.
         23    2    1    2    0    0  0.00000000000E+00  0.00000000000E+00  0.00000000000E+00  0.91188000000E+02  0.91188000000E+02 0.  0.
    9900012    2    3    3    0    0 -0.19993960410E+02 -0.17676450764E+02 -0.25368668178E+02  0.54367018351E+02  0.39999849934E+02 0.  0.
        -12    1    3    3    0    0  0.19993960410E+02  0.17676450764E+02  0.25368668178E+02  0.36820981649E+02  0.00000000000E+00 0.  1.
         11    1    4    4    0    0  0.53264608771E+01 -0.80172891957E+01  0.48193789715E+01  0.10764503029E+02  0.51100000000E-03 0. -1.
        -11    1    4    4    0    0 -0.15493761657E+01  0.16221540071E+01  0.12805445259E+01  0.25829720613E+01  0.51100000000E-03 0.  1.
         12    1    4    4    0    0 -0.23771045121E+02 -0.11281315575E+02 -0.31468591676E+02  0.41019543261E+02  0.00000000000E+00 0. -1.
</event>
<event>
 8    1  0.2497772E-006  0.9118800E+02  0.7816164E-02  0.1184000E+00
        -11   -1    0    0    0    0  0.00000000000E+00  0.00000000000E+00  0.45593999997E+02  0.45594000000E+02  0.51100000000E-03 0.  1.
         11   -1    0    0    0    0 -0.00000000000E+00 -0.00000000000E+00 -0.45593999997E+02  0.45594000000E+02  0.51100000000E-03 0. -1.
         23    2    1    2    0    0 -0.17763568394E-14  0.00000000000E+00  0.19984014443E-14  0.91188000000E+02  0.91188000000E+02 0.  0.
    9900012    2    3    3    0    0  0.89830391876E+01  0.35674705247E+02 -0.15491907494E+01  0.54367087742E+02  0.40000008126E+02 0.  0.
         12    1    3    3    0    0 -0.89830391876E+01 -0.35674705247E+02  0.15491907494E+01  0.36820912258E+02  0.00000000000E+00 0. -1.
         11    1    4    4    0    0 -0.33144534783E+01  0.42866972284E+01  0.50467559391E+01  0.74048038973E+01  0.51100000000E-03 0. -1.
        -11    1    4    4    0    0 -0.55233319689E+00  0.13976880832E+02  0.12000361511E+02  0.18430055518E+02  0.51100000000E-03 0.  1.
        -12    1    4    4    0    0  0.12849825863E+02  0.17411127187E+02 -0.18596308200E+02  0.28532228327E+02  0.00000000000E+00 0.  1.
</event>
<event>
 8    1  0.2497772E-006  0.9118800E+02  0.7816164E-02  0.1184000E+00
        -11   -1    0    0    0    0  0.00000000000E+00  0.00000000000E+00  0.45593999997E+02  0.45594000000E+02  0.51100000000E-03 0. -1.
         11   -1    0    0    0    0 -0.00000000000E+00 -0.00000000000E+00 -0.45593999997E+02  0.45594000000E+02  0.51100000000E-03 0.  1.
         23    2    1    2    0    0  0.00000000000E+00 -0.17763568394E-14 -0.88817841970E-15  0.91188000000E+02  0.91188000000E+02 0.  0.
    9900012    2    3    3    0    0  0.33964060735E+02 -0.13493487310E+02 -0.44886591815E+01  0.54367086342E+02  0.40000004933E+02 0.  0.
        -12    1    3    3    0    0 -0.33964060735E+02  0.13493487310E+02  0.44886591815E+01  0.36820913658E+02  0.00000000000E+00 0.  1.
         11    1    4    4    0    0  0.32105804501E+01 -0.11247922259E+02 -0.39869307908E+01  0.12357960971E+02  0.51100000000E-03 0. -1.
        -11    1    4    4    0    0  0.29767975871E+01  0.10012732797E+01  0.11245805377E+02  0.11676129962E+02  0.51100000000E-03 0.  1.
        -12    1    4    4    0    0  0.27776682698E+02 -0.32468383312E+01 -0.11747533768E+02  0.30332995409E+02  0.00000000000E+00 0.  1.
</event>
<event>
 8    1  0.2497772E-006  0.9118800E+02  0.7816164E-02  0.1184000E+00
        -11   -1    0    0    0    0  0.00000000000E+00  0.00000000000E+00  0.45593999997E+02  0.45594000000E+02  0.51100000000E-03 0. -1.
         11   -1    0    0    0    0 -0.00000000000E+00 -0.00000000000E+00 -0.45593999997E+02  0.45594000000E+02  0.51100000000E-03 0.  1.
         23    2    1    2    0    0  0.00000000000E+00 -0.88817841970E-15  0.00000000000E+00  0.91188000000E+02  0.91188000000E+02 0.  0.
    9900012    2    3    3    0    0  0.26600710851E+02 -0.76502113476E+01  0.24282787898E+02  0.54367118159E+02  0.40000077467E+02 0.  0.
        -12    1    3    3    0    0 -0.26600710851E+02  0.76502113476E+01 -0.24282787898E+02  0.36820881841E+02  0.00000000000E+00 0.  1.
         11    1    4    4    0    0  0.42059399124E+01  0.11874329001E+02  0.46916071225E+01  0.13442499672E+02  0.51100000000E-03 0. -1.
        -11    1    4    4    0    0  0.26245376880E+02 -0.16801644528E+02  0.17738992234E+02  0.35857870993E+02  0.51100000000E-03 0.  1.
         12    1    4    4    0    0 -0.38506059422E+01 -0.27228958205E+01  0.18521885422E+01  0.50667474939E+01  0.00000000000E+00 0. -1.
</event>
<event>
 8    1  0.2497772E-006  0.9118800E+02  0.7816164E-02  0.1184000E+00
        -11   -1    0    0    0    0  0.00000000000E+00  0.00000000000E+00  0.45593999997E+02  0.45594000000E+02  0.51100000000E-03 0.  1.
         11   -1    0    0    0    0 -0.00000000000E+00 -0.00000000000E+00 -0.45593999997E+02  0.45594000000E+02  0.51100000000E-03 0. -1.
         23    2    1    2    0    0 -0.88817841970E-15  0.00000000000E+00  0.00000000000E+00  0.91188000000E+02  0.91188000000E+02 0.  0.
    9900012    2    3    3    0    0  0.43546874417E+01  0.64193788171E+01 -0.35994568026E+02  0.54367073145E+02  0.39999974848E+02 0.  0.
        -12    1    3    3    0    0 -0.43546874417E+01 -0.64193788171E+01  0.35994568026E+02  0.36820926855E+02  0.00000000000E+00 0.  1.
         11    1    4    4    0    0  0.96396274944E+01  0.35856329335E+00 -0.31313203754E+02  0.32765343207E+02  0.51100000000E-03 0. -1.
        -11    1    4    4    0    0 -0.10173252344E+02 -0.31228473180E+01 -0.30563179776E+01  0.11071960914E+02  0.51100000000E-03 0.  1.
         12    1    4    4    0    0  0.48883122916E+01  0.91836628417E+01 -0.16250462943E+01  0.10529769024E+02  0.00000000000E+00 0. -1.
</event>
<event>
 8    1  0.2497772E-006  0.9118800E+02  0.7816164E-02  0.1184000E+00
        -11   -1    0    0    0    0  0.00000000000E+00  0.00000000000E+00  0.45593999997E+02  0.45594000000E+02  0.51100000000E-03 0. -1.
         11   -1    0    0    0    0 -0.00000000000E+00 -0.00000000000E+00 -0.45593999997E+02  0.45594000000E+02  0.51100000000E-03 0.  1.
         23    2    1    2    0    0  0.00000000000E+00  0.00000000000E+00 -0.17763568394E-14  0.91188000000E+02  0.91188000000E+02 0.  0.
    9900012    2    3    3    0    0 -0.33681807727E+02 -0.13682331571E+02 -0.58402941706E+01  0.54367090112E+02  0.40000013529E+02 0.  0.
         12    1    3    3    0    0  0.33681807727E+02  0.13682331571E+02  0.58402941706E+01  0.36820909888E+02  0.00000000000E+00 0. -1.
         11    1    4    4    0    0 -0.79401817062E+01  0.67303321414E+00  0.74164624818E+01  0.10885925557E+02  0.51100000000E-03 0. -1.
        -11    1    4    4    0    0 -0.27436052689E+02 -0.64865853854E+01 -0.18640361409E+02  0.33797571671E+02  0.51100000000E-03 0.  1.
        -12    1    4    4    0    0  0.16944266683E+01 -0.78687793994E+01  0.53836047567E+01  0.96835928842E+01  0.00000000000E+00 0.  1.
</event>
<event>
 8    1  0.2497772E-006  0.9118800E+02  0.7816164E-02  0.1184000E+00
        -11   -1    0    0    0    0  0.00000000000E+00  0.00000000000E+00  0.45593999997E+02  0.45594000000E+02  0.51100000000E-03 0.  1.
         11   -1    0    0    0    0 -0.00000000000E+00 -0.00000000000E+00 -0.45593999997E+02  0.45594000000E+02  0.51100000000E-03 0. -1.
         23    2    1    2    0    0  0.44408920985E-15  0.11102230246E-14 -0.71054273576E-14  0.91188000000E+02  0.91188000000E+02 0.  0.
    9900012    2    3    3    0    0 -0.38301507392E+01  0.10910175490E+01  0.36604939249E+02  0.54367055534E+02  0.39999934701E+02 0.  0.
         12    1    3    3    0    0  0.38301507392E+01 -0.10910175490E+01 -0.36604939249E+02  0.36820944466E+02  0.00000000000E+00 0. -1.
         11    1    4    4    0    0  0.44744497036E+01  0.89738258342E+01  0.10496902721E+02  0.14516721987E+02  0.51100000000E-03 0. -1.
        -11    1    4    4    0    0 -0.13492796652E+02  0.63230224994E+01  0.14430234893E+02  0.20742898889E+02  0.51100000000E-03 0.  1.
         12    1    4    4    0    0  0.51881962088E+01 -0.14205830785E+02  0.11677801635E+02  0.19107434658E+02  0.00000000000E+00 0. -1.
</event>
<event>
 8    1  0.2497772E-006  0.9118800E+02  0.7816164E-02  0.1184000E+00
        -11   -1    0    0    0    0  0.00000000000E+00  0.00000000000E+00  0.45593999997E+02  0.45594000000E+02  0.51100000000E-03 0.  1.
         11   -1    0    0    0    0 -0.00000000000E+00 -0.00000000000E+00 -0.45593999997E+02  0.45594000000E+02  0.51100000000E-03 0. -1.
         23    2    1    2    0    0  0.17763568394E-14  0.00000000000E+00  0.00000000000E+00  0.91188000000E+02  0.91188000000E+02 0.  0.
    9900012    2    3    3    0    0  0.10171220737E+02  0.33849656838E+02  0.10321172016E+02  0.54367087585E+02  0.40000007767E+02 0.  0.
         12    1    3    3    0    0 -0.10171220737E+02 -0.33849656838E+02 -0.10321172016E+02  0.36820912415E+02  0.00000000000E+00 0. -1.
         11    1    4    4    0    0  0.83908416776E+01  0.43575517497E+01  0.11809149332E+02  0.15127805178E+02  0.51100000000E-03 0. -1.
        -11    1    4    4    0    0  0.13783121282E+02  0.14520396825E+02 -0.94011084240E+00  0.20042459054E+02  0.51100000000E-03 0.  1.
         12    1    4    4    0    0 -0.12002742223E+02  0.14971708263E+02 -0.54786647347E+00  0.19196823353E+02  0.00000000000E+00 0. -1.
</event>
<event>
 8    1  0.2497772E-006  0.9118800E+02  0.7816164E-02  0.1184000E+00
        -11   -1    0    0    0    0  0.00000000000E+00  0.00000000000E+00  0.45593999997E+02  0.45594000000E+02  0.51100000000E-03 0. -1.
         11   -1    0    0    0    0 -0.00000000000E+00 -0.00000000000E+00 -0.45593999997E+02  0.45594000000E+02  0.51100000000E-03 0.  1.
         23    2    1    2    0    0  0.00000000000E+00 -0.35527136788E-14  0.44408920985E-15  0.91188000000E+02  0.91188000000E+02 0.  0.
    9900012    2    3    3    0    0 -0.19652017406E+02 -0.31046501853E+02  0.23896991168E+01  0.54366841309E+02  0.39999446329E+02 0.  0.
         12    1    3    3    0    0  0.19652017406E+02  0.31046501853E+02 -0.23896991168E+01  0.36821158691E+02  0.00000000000E+00 0. -1.
         11    1    4    4    0    0  0.78724411570E+01  0.35931814857E+01  0.34229740438E+01  0.93060751407E+01  0.51100000000E-03 0. -1.
        -11    1    4    4    0    0 -0.22075092447E+02 -0.29165253513E+02 -0.39799246383E+01  0.36793498330E+02  0.51100000000E-03 0.  1.
        -12    1    4    4    0    0 -0.54493661164E+01 -0.54744298260E+01  0.29466497114E+01  0.82672678384E+01  0.00000000000E+00 0.  1.
</event>
<event>
 8    1  0.2497772E-006  0.9118800E+02  0.7816164E-02  0.1184000E+00
        -11   -1    0    0    0    0  0.00000000000E+00  0.00000000000E+00  0.45593999997E+02  0.45594000000E+02  0.51100000000E-03 0. -1.
         11   -1    0    0    0    0 -0.00000000000E+00 -0.00000000000E+00 -0.45593999997E+02  0.45594000000E+02  0.51100000000E-03 0.  1.
         23    2    1    2    0    0  0.00000000000E+00  0.66613381478E-15  0.00000000000E+00  0.91188000000E+02  0.91188000000E+02 0.  0.
    9900012    2    3    3    0    0  0.15360512802E+02  0.14872317370E+01 -0.33430868529E+02  0.54367079555E+02  0.39999989462E+02 0.  0.
         12    1    3    3    0    0 -0.15360512802E+02 -0.14872317370E+01  0.33430868529E+02  0.36820920445E+02  0.00000000000E+00 0. -1.
         11    1    4    4    0    0 -0.10096641685E+01  0.59830235927E+01  0.48079781512E+01  0.77416178675E+01  0.51100000000E-03 0. -1.
        -11    1    4    4    0    0  0.19757883936E+02  0.14502473846E+01 -0.27545425487E+02  0.33929745955E+02  0.51100000000E-03 0.  1.
        -12    1    4    4    0    0 -0.33877069653E+01 -0.59460392403E+01 -0.10693421194E+02  0.12695715732E+02  0.00000000000E+00 0.  1.
</event>
<event>
 8    1  0.2497772E-006  0.9118800E+02  0.7816164E-02  0.1184000E+00
        -11   -1    0    0    0    0  0.00000000000E+00  0.00000000000E+00  0.45593999997E+02  0.45594000000E+02  0.51100000000E-03 0. -1.
         11   -1    0    0    0    0 -0.00000000000E+00 -0.00000000000E+00 -0.45593999997E+02  0.45594000000E+02  0.51100000000E-03 0.  1.
         23    2    1    2    0    0 -0.71054273576E-14 -0.35527136788E-14  0.17763568394E-14  0.91188000000E+02  0.91188000000E+02 0.  0.
    9900012    2    3    3    0    0 -0.31004051010E+02 -0.18347229441E+02 -0.76097224488E+01  0.54367083621E+02  0.39999998732E+02 0.  0.
         12    1    3    3    0    0  0.31004051010E+02  0.18347229441E+02  0.76097224488E+01  0.36820916379E+02  0.00000000000E+00 0. -1.
         11    1    4    4    0    0 -0.17996273338E+02 -0.10979027648E+02 -0.20019705456E+02  0.29072211972E+02  0.51100000000E-03 0.  1.
        -11    1    4    4    0    0  0.32235216308E+01 -0.32186132894E+01  0.19157246803E+00  0.45593051535E+01  0.51100000000E-03 0. -1.
        -12    1    4    4    0    0 -0.16231299303E+02 -0.41495885035E+01  0.12218410539E+02  0.20735566496E+02  0.00000000000E+00 0.  1.
</event>
<event>
 8    1  0.2497772E-006  0.9118800E+02  0.7816164E-02  0.1184000E+00
        -11   -1    0    0    0    0  0.00000000000E+00  0.00000000000E+00  0.45593999997E+02  0.45594000000E+02  0.51100000000E-03 0. -1.
         11   -1    0    0    0    0 -0.00000000000E+00 -0.00000000000E+00 -0.45593999997E+02  0.45594000000E+02  0.51100000000E-03 0.  1.
         23    2    1    2    0    0  0.17763568394E-14  0.35527136788E-14  0.00000000000E+00  0.91188000000E+02  0.91188000000E+02 0.  0.
    9900012    2    3    3    0    0  0.13888398242E+02  0.26769089390E+02 -0.21126008041E+02  0.54367082463E+02  0.39999996091E+02 0.  0.
         12    1    3    3    0    0 -0.13888398242E+02 -0.26769089390E+02  0.21126008041E+02  0.36820917537E+02  0.00000000000E+00 0. -1.
         11    1    4    4    0    0  0.14323332522E+02  0.12826572412E+01 -0.62130779879E+01  0.15665420597E+02  0.51100000000E-03 0. -1.
        -11    1    4    4    0    0  0.83093392188E+01 -0.42575092751E+00 -0.26669132614E+01  0.87372082904E+01  0.51100000000E-03 0.  1.
         12    1    4    4    0    0 -0.87442734989E+01  0.25912183076E+02 -0.12246016792E+02  0.29964453575E+02  0.00000000000E+00 0. -1.
</event>
<event>
 8    1  0.2497772E-006  0.9118800E+02  0.7816164E-02  0.1184000E+00
        -11   -1    0    0    0    0  0.00000000000E+00  0.00000000000E+00  0.45593999997E+02  0.45594000000E+02  0.51100000000E-03 0. -1.
         11   -1    0    0    0    0 -0.00000000000E+00 -0.00000000000E+00 -0.45593999997E+02  0.45594000000E+02  0.51100000000E-03 0.  1.
         23    2    1    2    0    0  0.00000000000E+00  0.35527136788E-14  0.00000000000E+00  0.91188000000E+02  0.91188000000E+02 0.  0.
    9900012    2    3    3    0    0  0.11379077368E+02  0.27325681828E+02 -0.21899841109E+02  0.54367091134E+02  0.40000015858E+02 0.  0.
         12    1    3    3    0    0 -0.11379077368E+02 -0.27325681828E+02  0.21899841109E+02  0.36820908866E+02  0.00000000000E+00 0. -1.
         11    1    4    4    0    0 -0.22008662061E+01  0.10095744646E+01 -0.26775075129E+01  0.36099999169E+01  0.51100000000E-03 0. -1.
        -11    1    4    4    0    0  0.95741165700E+01  0.32981411924E+02 -0.52159978349E+01  0.34736779849E+02  0.51100000000E-03 0.  1.
        -12    1    4    4    0    0  0.40058270038E+01 -0.66653045606E+01 -0.14006335761E+02  0.16020311368E+02  0.00000000000E+00 0.  1.
</event>
<event>
 8    1  0.2497772E-006  0.9118800E+02  0.7816164E-02  0.1184000E+00
        -11   -1    0    0    0    0  0.00000000000E+00  0.00000000000E+00  0.45593999997E+02  0.45594000000E+02  0.51100000000E-03 0. -1.
         11   -1    0    0    0    0 -0.00000000000E+00 -0.00000000000E+00 -0.45593999997E+02  0.45594000000E+02  0.51100000000E-03 0.  1.
         23    2    1    2    0    0  0.00000000000E+00  0.44408920985E-14  0.00000000000E+00  0.91188000000E+02  0.91188000000E+02 0.  0.
    9900012    2    3    3    0    0  0.35095043471E+02 -0.58635232593E+01 -0.94729834698E+01  0.54367076640E+02  0.39999982816E+02 0.  0.
         12    1    3    3    0    0 -0.35095043471E+02  0.58635232593E+01  0.94729834698E+01  0.36820923360E+02  0.00000000000E+00 0. -1.
         11    1    4    4    0    0 -0.31433925042E+00 -0.35704221068E+00  0.22789093058E+01  0.23280283911E+01  0.51100000000E-03 0. -1.
        -11    1    4    4    0    0  0.17335800593E+02  0.15293260304E+02 -0.61294215106E+01  0.23916178650E+02  0.51100000000E-03 0.  1.
        -12    1    4    4    0    0  0.18073582129E+02 -0.20799741353E+02 -0.56224712650E+01  0.28122869599E+02  0.00000000000E+00 0.  1.
</event>
<event>
 8    1  0.2497772E-006  0.9118800E+02  0.7816164E-02  0.1184000E+00
        -11   -1    0    0    0    0  0.00000000000E+00  0.00000000000E+00  0.45593999997E+02  0.45594000000E+02  0.51100000000E-03 0.  1.
         11   -1    0    0    0    0 -0.00000000000E+00 -0.00000000000E+00 -0.45593999997E+02  0.45594000000E+02  0.51100000000E-03 0. -1.
         23    2    1    2    0    0  0.00000000000E+00  0.17763568394E-14  0.00000000000E+00  0.91188000000E+02  0.91188000000E+02 0.  0.
    9900012    2    3    3    0    0 -0.28668759678E+02  0.13733638803E+02  0.18581428869E+02  0.54367080470E+02  0.39999991547E+02 0.  0.
         12    1    3    3    0    0  0.28668759678E+02 -0.13733638803E+02 -0.18581428869E+02  0.36820919530E+02  0.00000000000E+00 0. -1.
         11    1    4    4    0    0 -0.53020768883E+01  0.16074089464E+02  0.22889772274E+00  0.16927515052E+02  0.51100000000E-03 0. -1.
        -11    1    4    4    0    0 -0.29015189544E+01  0.78569980080E+01  0.42868951717E+00  0.83865967414E+01  0.51100000000E-03 0.  1.
        -12    1    4    4    0    0 -0.20465163835E+02 -0.10197448668E+02  0.17923841629E+02  0.29052968676E+02  0.00000000000E+00 0.  1.
</event>
<event>
 8    1  0.2497772E-006  0.9118800E+02  0.7816164E-02  0.1184000E+00
        -11   -1    0    0    0    0  0.00000000000E+00  0.00000000000E+00  0.45593999997E+02  0.45594000000E+02  0.51100000000E-03 0. -1.
         11   -1    0    0    0    0 -0.00000000000E+00 -0.00000000000E+00 -0.45593999997E+02  0.45594000000E+02  0.51100000000E-03 0.  1.
         23    2    1    2    0    0 -0.35527136788E-14  0.35527136788E-14  0.44408920985E-15  0.91188000000E+02  0.91188000000E+02 0.  0.
    9900012    2    3    3    0    0 -0.20995585465E+02  0.30166967580E+02  0.22178814786E+01  0.54367088275E+02  0.40000009340E+02 0.  0.
        -12    1    3    3    0    0  0.20995585465E+02 -0.30166967580E+02 -0.22178814786E+01  0.36820911725E+02  0.00000000000E+00 0.  1.
         11    1    4    4    0    0 -0.17106416831E+02  0.24843644570E+01  0.95924791297E+01  0.19769097593E+02  0.51100000000E-03 0. -1.
        -11    1    4    4    0    0  0.15534695340E+01  0.11457049584E+02  0.58614104491E+01  0.12962769206E+02  0.51100000000E-03 0.  1.
        -12    1    4    4    0    0 -0.54426381687E+01  0.16225553539E+02 -0.13236008100E+02  0.21635221476E+02  0.00000000000E+00 0.  1.
</event>
<event>
 8    1  0.2497772E-006  0.9118800E+02  0.7816164E-02  0.1184000E+00
        -11   -1    0    0    0    0  0.00000000000E+00  0.00000000000E+00  0.45593999997E+02  0.45594000000E+02  0.51100000000E-03 0.  1.
         11   -1    0    0    0    0 -0.00000000000E+00 -0.00000000000E+00 -0.45593999997E+02  0.45594000000E+02  0.51100000000E-03 0. -1.
         23    2    1    2    0    0 -0.17763568394E-14 -0.35527136788E-14 -0.71054273576E-14  0.91188000000E+02  0.91188000000E+02 0.  0.
    9900012    2    3    3    0    0  0.52032605192E+01  0.17446386100E+02  0.32005159880E+02  0.54367074334E+02  0.39999977558E+02 0.  0.
         12    1    3    3    0    0 -0.52032605192E+01 -0.17446386100E+02 -0.32005159880E+02  0.36820925666E+02  0.00000000000E+00 0. -1.
         11    1    4    4    0    0  0.13609748600E+02  0.25729635224E+01  0.46685639321E+01  0.14616459478E+02  0.51100000000E-03 0. -1.
        -11    1    4    4    0    0 -0.41144627159E+01  0.15543444865E+02  0.47724352716E+01  0.16772108406E+02  0.51100000000E-03 0.  1.
        -12    1    4    4    0    0 -0.42920253647E+01 -0.67002228752E+00  0.22564160677E+02  0.22978506449E+02  0.00000000000E+00 0.  1.
</event>
<event>
 8    1  0.2497772E-006  0.9118800E+02  0.7816164E-02  0.1184000E+00
        -11   -1    0    0    0    0  0.00000000000E+00  0.00000000000E+00  0.45593999997E+02  0.45594000000E+02  0.51100000000E-03 0.  1.
         11   -1    0    0    0    0 -0.00000000000E+00 -0.00000000000E+00 -0.45593999997E+02  0.45594000000E+02  0.51100000000E-03 0. -1.
         23    2    1    2    0    0  0.00000000000E+00  0.35527136788E-14  0.00000000000E+00  0.91188000000E+02  0.91188000000E+02 0.  0.
    9900012    2    3    3    0    0 -0.46935718610E+01  0.16893012723E+02  0.32378632322E+02  0.54367091175E+02  0.40000015952E+02 0.  0.
         12    1    3    3    0    0  0.46935718610E+01 -0.16893012723E+02 -0.32378632322E+02  0.36820908825E+02  0.00000000000E+00 0. -1.
         11    1    4    4    0    0 -0.43270448923E+01  0.26416586800E+01  0.52407318459E+01  0.72915669525E+01  0.51100000000E-03 0. -1.
        -11    1    4    4    0    0  0.36759907644E+01  0.15592765588E+02  0.34799301869E+02  0.38309772351E+02  0.51100000000E-03 0.  1.
         12    1    4    4    0    0 -0.40425177331E+01 -0.13414115452E+01 -0.76614013931E+01  0.87657518709E+01  0.00000000000E+00 0. -1.
</event>
<event>
 8    1  0.2497772E-006  0.9118800E+02  0.7816164E-02  0.1184000E+00
        -11   -1    0    0    0    0  0.00000000000E+00  0.00000000000E+00  0.45593999997E+02  0.45594000000E+02  0.51100000000E-03 0.  1.
         11   -1    0    0    0    0 -0.00000000000E+00 -0.00000000000E+00 -0.45593999997E+02  0.45594000000E+02  0.51100000000E-03 0. -1.
         23    2    1    2    0    0  0.00000000000E+00  0.00000000000E+00  0.35527136788E-14  0.91188000000E+02  0.91188000000E+02 0.  0.
    9900012    2    3    3    0    0 -0.63694730162E+01  0.27477926936E+02 -0.23667975195E+02  0.54367086038E+02  0.40000004240E+02 0.  0.
        -12    1    3    3    0    0  0.63694730162E+01 -0.27477926936E+02  0.23667975195E+02  0.36820913962E+02  0.00000000000E+00 0.  1.
         11    1    4    4    0    0  0.33978260995E+01  0.90996747784E+01 -0.29787380296E+02  0.31331092041E+02  0.51100000000E-03 0. -1.
        -11    1    4    4    0    0 -0.10228112159E+02  0.16549002226E+02  0.34358102187E+01  0.19755721832E+02  0.51100000000E-03 0.  1.
         12    1    4    4    0    0  0.46081304354E+00  0.18292499324E+01  0.26835948832E+01  0.32802721645E+01  0.00000000000E+00 0. -1.
</event>
<event>
 8    1  0.2497772E-006  0.9118800E+02  0.7816164E-02  0.1184000E+00
        -11   -1    0    0    0    0  0.00000000000E+00  0.00000000000E+00  0.45593999997E+02  0.45594000000E+02  0.51100000000E-03 0.  1.
         11   -1    0    0    0    0 -0.00000000000E+00 -0.00000000000E+00 -0.45593999997E+02  0.45594000000E+02  0.51100000000E-03 0. -1.
         23    2    1    2    0    0  0.00000000000E+00  0.00000000000E+00  0.00000000000E+00  0.91188000000E+02  0.91188000000E+02 0.  0.
    9900012    2    3    3    0    0 -0.21941909234E+02 -0.18606278952E+02 -0.22981274588E+02  0.54367082318E+02  0.39999995760E+02 0.  0.
         12    1    3    3    0    0  0.21941909234E+02  0.18606278952E+02  0.22981274588E+02  0.36820917682E+02  0.00000000000E+00 0. -1.
         11    1    4    4    0    0  0.13716944511E+01  0.21552712045E+01 -0.15319030355E+01  0.29788364848E+01  0.51100000000E-03 0. -1.
        -11    1    4    4    0    0 -0.24969026215E+02 -0.24883426731E+02 -0.65675083004E+01  0.35857626267E+02  0.51100000000E-03 0.  1.
        -12    1    4    4    0    0  0.16554225298E+01  0.41218765741E+01 -0.14881863252E+02  0.15530619566E+02  0.00000000000E+00 0.  1.
</event>
<event>
 8    1  0.2497772E-006  0.9118800E+02  0.7816164E-02  0.1184000E+00
        -11   -1    0    0    0    0  0.00000000000E+00  0.00000000000E+00  0.45593999997E+02  0.45594000000E+02  0.51100000000E-03 0. -1.
         11   -1    0    0    0    0 -0.00000000000E+00 -0.00000000000E+00 -0.45593999997E+02  0.45594000000E+02  0.51100000000E-03 0.  1.
         23    2    1    2    0    0  0.17763568394E-14  0.00000000000E+00  0.71054273576E-14  0.91188000000E+02  0.91188000000E+02 0.  0.
    9900012    2    3    3    0    0  0.12059227172E+02  0.21016715620E+02  0.27724567151E+02  0.54367096709E+02  0.40000028568E+02 0.  0.
        -12    1    3    3    0    0 -0.12059227172E+02 -0.21016715620E+02 -0.27724567151E+02  0.36820903291E+02  0.00000000000E+00 0.  1.
         11    1    4    4    0    0  0.29591455388E+01  0.69998322589E+01 -0.68995061433E+01  0.10264374275E+02  0.51100000000E-03 0. -1.
        -11    1    4    4    0    0  0.27626084727E+01 -0.89556952481E+00 -0.23488594330E+01  0.37351293477E+01  0.51100000000E-03 0.  1.
         12    1    4    4    0    0  0.63374731601E+01  0.14912452886E+02  0.36972932728E+02  0.40367593087E+02  0.00000000000E+00 0. -1.
</event>
<event>
 8    1  0.2497772E-006  0.9118800E+02  0.7816164E-02  0.1184000E+00
        -11   -1    0    0    0    0  0.00000000000E+00  0.00000000000E+00  0.45593999997E+02  0.45594000000E+02  0.51100000000E-03 0. -1.
         11   -1    0    0    0    0 -0.00000000000E+00 -0.00000000000E+00 -0.45593999997E+02  0.45594000000E+02  0.51100000000E-03 0.  1.
         23    2    1    2    0    0  0.26645352591E-14  0.35527136788E-14 -0.35527136788E-14  0.91188000000E+02  0.91188000000E+02 0.  0.
    9900012    2    3    3    0    0  0.77743463170E+01 -0.24038147097E+02  0.26786297173E+02  0.54367099783E+02  0.40000035576E+02 0.  0.
        -12    1    3    3    0    0 -0.77743463170E+01  0.24038147097E+02 -0.26786297173E+02  0.36820900217E+02  0.00000000000E+00 0.  1.
         11    1    4    4    0    0 -0.16247406907E+01 -0.19212399829E+02  0.18039660395E+02  0.26404269294E+02  0.51100000000E-03 0. -1.
        -11    1    4    4    0    0  0.16915013544E+02 -0.21495326985E+01  0.10177320240E+02  0.19857392113E+02  0.51100000000E-03 0.  1.
        -12    1    4    4    0    0 -0.75159265359E+01 -0.26762145697E+01 -0.14306834617E+01  0.81054383770E+01  0.00000000000E+00 0.  1.
</event>
<event>
 8    1  0.2497772E-006  0.9118800E+02  0.7816164E-02  0.1184000E+00
        -11   -1    0    0    0    0  0.00000000000E+00  0.00000000000E+00  0.45593999997E+02  0.45594000000E+02  0.51100000000E-03 0.  1.
         11   -1    0    0    0    0 -0.00000000000E+00 -0.00000000000E+00 -0.45593999997E+02  0.45594000000E+02  0.51100000000E-03 0. -1.
         23    2    1    2    0    0 -0.44408920985E-15  0.00000000000E+00  0.00000000000E+00  0.91188000000E+02  0.91188000000E+02 0.  0.
    9900012    2    3    3    0    0  0.21132911953E+01 -0.17460352185E+02 -0.32348856308E+02  0.54367103725E+02  0.40000044561E+02 0.  0.
        -12    1    3    3    0    0 -0.21132911953E+01  0.17460352185E+02  0.32348856308E+02  0.36820896275E+02  0.00000000000E+00 0.  1.
         11    1    4    4    0    0  0.10135004810E+02 -0.23312902910E+02 -0.29489918091E+02  0.38934111443E+02  0.51100000000E-03 0. -1.
        -11    1    4    4    0    0 -0.88497851684E+01  0.51552999704E+01 -0.61650047565E+01  0.11954208431E+02  0.51100000000E-03 0.  1.
         12    1    4    4    0    0  0.82807155317E+00  0.69725075492E+00  0.33060665395E+01  0.34787838502E+01  0.00000000000E+00 0. -1.
</event>
<event>
 8    1  0.2497772E-006  0.9118800E+02  0.7816164E-02  0.1184000E+00
        -11   -1    0    0    0    0  0.00000000000E+00  0.00000000000E+00  0.45593999997E+02  0.45594000000E+02  0.51100000000E-03 0. -1.
         11   -1    0    0    0    0 -0.00000000000E+00 -0.00000000000E+00 -0.45593999997E+02  0.45594000000E+02  0.51100000000E-03 0.  1.
         23    2    1    2    0    0  0.00000000000E+00 -0.71054273576E-14  0.88817841970E-15  0.91188000000E+02  0.91188000000E+02 0.  0.
    9900012    2    3    3    0    0  0.11119119036E+02 -0.35039930297E+02 -0.20809123459E+01  0.54367330268E+02  0.40000561008E+02 0.  0.
        -12    1    3    3    0    0 -0.11119119036E+02  0.35039930297E+02  0.20809123459E+01  0.36820669732E+02  0.00000000000E+00 0.  1.
         11    1    4    4    0    0 -0.21231548485E+01 -0.12619000518E+02  0.52914223085E+01  0.13847241996E+02  0.51100000000E-03 0. -1.
        -11    1    4    4    0    0  0.14601354309E+02 -0.69501161634E+01 -0.16004548621E+02  0.22751906275E+02  0.51100000000E-03 0.  1.
        -12    1    4    4    0    0 -0.13590804242E+01 -0.15470813615E+02  0.86322139665E+01  0.17768181997E+02  0.00000000000E+00 0.  1.
</event>
<event>
 8    1  0.2497772E-006  0.9118800E+02  0.7816164E-02  0.1184000E+00
        -11   -1    0    0    0    0  0.00000000000E+00  0.00000000000E+00  0.45593999997E+02  0.45594000000E+02  0.51100000000E-03 0.  1.
         11   -1    0    0    0    0 -0.00000000000E+00 -0.00000000000E+00 -0.45593999997E+02  0.45594000000E+02  0.51100000000E-03 0. -1.
         23    2    1    2    0    0  0.00000000000E+00  0.00000000000E+00  0.35527136788E-14  0.91188000000E+02  0.91188000000E+02 0.  0.
    9900012    2    3    3    0    0 -0.45094183271E+01 -0.20614067413E+02 -0.30174580405E+02  0.54367082961E+02  0.39999997227E+02 0.  0.
        -12    1    3    3    0    0  0.45094183271E+01  0.20614067413E+02  0.30174580405E+02  0.36820917039E+02  0.00000000000E+00 0.  1.
         11    1    4    4    0    0  0.74917196734E+00 -0.85239590988E+00 -0.14761693767E+02  0.14805250439E+02  0.51100000000E-03 0. -1.
        -11    1    4    4    0    0 -0.14789110177E+01 -0.14180034571E+02  0.71955351197E+01  0.15969855483E+02  0.51100000000E-03 0.  1.
        -12    1    4    4    0    0 -0.37796792767E+01 -0.55816369324E+01 -0.22608421758E+02  0.23591977040E+02  0.00000000000E+00 0.  1.
</event>
<event>
 8    1  0.2497772E-006  0.9118800E+02  0.7816164E-02  0.1184000E+00
        -11   -1    0    0    0    0  0.00000000000E+00  0.00000000000E+00  0.45593999997E+02  0.45594000000E+02  0.51100000000E-03 0.  1.
         11   -1    0    0    0    0 -0.00000000000E+00 -0.00000000000E+00 -0.45593999997E+02  0.45594000000E+02  0.51100000000E-03 0. -1.
         23    2    1    2    0    0 -0.17763568394E-14  0.00000000000E+00  0.00000000000E+00  0.91188000000E+02  0.91188000000E+02 0.  0.
    9900012    2    3    3    0    0 -0.43325792311E+01 -0.14221862113E+01  0.36537392898E+02  0.54367150795E+02  0.40000151867E+02 0.  0.
         12    1    3    3    0    0  0.43325792311E+01  0.14221862113E+01 -0.36537392898E+02  0.36820849205E+02  0.00000000000E+00 0. -1.
         11    1    4    4    0    0 -0.17703784657E+01 -0.46469209727E+01 -0.78535011937E+00  0.50343708157E+01  0.51100000000E-03 0. -1.
        -11    1    4    4    0    0 -0.16704831520E+02  0.52679960413E+01  0.24609563783E+02  0.30206519300E+02  0.51100000000E-03 0.  1.
        -12    1    4    4    0    0  0.14142630755E+02 -0.20432612799E+01  0.12713179234E+02  0.19126260679E+02  0.00000000000E+00 0.  1.
</event>
<event>
 8    1  0.2497772E-006  0.9118800E+02  0.7816164E-02  0.1184000E+00
        -11   -1    0    0    0    0  0.00000000000E+00  0.00000000000E+00  0.45593999997E+02  0.45594000000E+02  0.51100000000E-03 0. -1.
         11   -1    0    0    0    0 -0.00000000000E+00 -0.00000000000E+00 -0.45593999997E+02  0.45594000000E+02  0.51100000000E-03 0.  1.
         23    2    1    2    0    0  0.00000000000E+00  0.00000000000E+00  0.00000000000E+00  0.91188000000E+02  0.91188000000E+02 0.  0.
    9900012    2    3    3    0    0  0.12975095829E+02  0.16397719345E+02  0.30307455686E+02  0.54367079566E+02  0.39999989486E+02 0.  0.
        -12    1    3    3    0    0 -0.12975095829E+02 -0.16397719345E+02 -0.30307455686E+02  0.36820920434E+02  0.00000000000E+00 0.  1.
         11    1    4    4    0    0 -0.35182759127E+01  0.46230562535E+01  0.10630641673E+02  0.12114514318E+02  0.51100000000E-03 0. -1.
        -11    1    4    4    0    0 -0.59253317879E+01  0.13561214724E+02  0.93482124979E+01  0.17504433117E+02  0.51100000000E-03 0.  1.
        -12    1    4    4    0    0  0.22418703530E+02 -0.17865516328E+01  0.10328601515E+02  0.24748132130E+02  0.00000000000E+00 0.  1.
</event>
<event>
 8    1  0.2497772E-006  0.9118800E+02  0.7816164E-02  0.1184000E+00
        -11   -1    0    0    0    0  0.00000000000E+00  0.00000000000E+00  0.45593999997E+02  0.45594000000E+02  0.51100000000E-03 0.  1.
         11   -1    0    0    0    0 -0.00000000000E+00 -0.00000000000E+00 -0.45593999997E+02  0.45594000000E+02  0.51100000000E-03 0. -1.
         23    2    1    2    0    0  0.35527136788E-14  0.00000000000E+00  0.00000000000E+00  0.91188000000E+02  0.91188000000E+02 0.  0.
    9900012    2    3    3    0    0  0.28221675611E+02 -0.22031971392E+02 -0.85969474577E+01  0.54367105886E+02  0.40000049489E+02 0.  0.
        -12    1    3    3    0    0 -0.28221675611E+02  0.22031971392E+02  0.85969474577E+01  0.36820894114E+02  0.00000000000E+00 0.  1.
         11    1    4    4    0    0  0.41959727318E+01  0.22154862423E+01 -0.15043323840E+02  0.15773907533E+02  0.51100000000E-03 0. -1.
        -11    1    4    4    0    0  0.17780786748E+02 -0.60427961828E+01  0.38892433964E+01  0.19178059796E+02  0.51100000000E-03 0.  1.
        -12    1    4    4    0    0  0.62449161315E+01 -0.18204661452E+02  0.25571329858E+01  0.19415138557E+02  0.00000000000E+00 0.  1.
</event>
<event>
 8    1  0.2497772E-006  0.9118800E+02  0.7816164E-02  0.1184000E+00
        -11   -1    0    0    0    0  0.00000000000E+00  0.00000000000E+00  0.45593999997E+02  0.45594000000E+02  0.51100000000E-03 0. -1.
         11   -1    0    0    0    0 -0.00000000000E+00 -0.00000000000E+00 -0.45593999997E+02  0.45594000000E+02  0.51100000000E-03 0.  1.
         23    2    1    2    0    0 -0.17763568394E-14  0.00000000000E+00  0.35527136788E-14  0.91188000000E+02  0.91188000000E+02 0.  0.
    9900012    2    3    3    0    0  0.12351303262E+02  0.18567208743E+02 -0.29299889294E+02  0.54367089563E+02  0.40000012276E+02 0.  0.
         12    1    3    3    0    0 -0.12351303262E+02 -0.18567208743E+02  0.29299889294E+02  0.36820910437E+02  0.00000000000E+00 0. -1.
         11    1    4    4    0    0  0.11131124369E+02  0.12039078618E+02 -0.88675542606E+01  0.18640677630E+02  0.51100000000E-03 0.  1.
        -11    1    4    4    0    0 -0.73931921183E+01  0.13019456879E+02 -0.30651853287E+01  0.15282699646E+02  0.51100000000E-03 0. -1.
        -12    1    4    4    0    0  0.86133710120E+01 -0.64913267528E+01 -0.17367149705E+02  0.20443712287E+02  0.00000000000E+00 0.  1.
</event>
<event>
 8    1  0.2497772E-006  0.9118800E+02  0.7816164E-02  0.1184000E+00
        -11   -1    0    0    0    0  0.00000000000E+00  0.00000000000E+00  0.45593999997E+02  0.45594000000E+02  0.51100000000E-03 0.  1.
         11   -1    0    0    0    0 -0.00000000000E+00 -0.00000000000E+00 -0.45593999997E+02  0.45594000000E+02  0.51100000000E-03 0. -1.
         23    2    1    2    0    0  0.00000000000E+00  0.00000000000E+00  0.44408920985E-15  0.91188000000E+02  0.91188000000E+02 0.  0.
    9900012    2    3    3    0    0 -0.23349528778E+02 -0.28354485952E+02 -0.25693688915E+01  0.54367095283E+02  0.40000025316E+02 0.  0.
         12    1    3    3    0    0  0.23349528778E+02  0.28354485952E+02  0.25693688915E+01  0.36820904717E+02  0.00000000000E+00 0. -1.
         11    1    4    4    0    0 -0.18393988507E+02 -0.28212828080E+01  0.15963776083E+01  0.18677442855E+02  0.51100000000E-03 0. -1.
        -11    1    4    4    0    0 -0.14220624390E+02 -0.10419485191E+02 -0.33398664625E+01  0.17942868720E+02  0.51100000000E-03 0.  1.
        -12    1    4    4    0    0  0.92650841193E+01 -0.15113717953E+02 -0.82588003723E+00  0.17746783707E+02  0.00000000000E+00 0.  1.
</event>
<event>
 8    1  0.2497772E-006  0.9118800E+02  0.7816164E-02  0.1184000E+00
        -11   -1    0    0    0    0  0.00000000000E+00  0.00000000000E+00  0.45593999997E+02  0.45594000000E+02  0.51100000000E-03 0. -1.
         11   -1    0    0    0    0 -0.00000000000E+00 -0.00000000000E+00 -0.45593999997E+02  0.45594000000E+02  0.51100000000E-03 0.  1.
         23    2    1    2    0    0  0.00000000000E+00  0.44408920985E-15 -0.35527136788E-14  0.91188000000E+02  0.91188000000E+02 0.  0.
    9900012    2    3    3    0    0 -0.19400070891E+02  0.12807132412E+01  0.31269424900E+02  0.54367083247E+02  0.39999997877E+02 0.  0.
        -12    1    3    3    0    0  0.19400070891E+02 -0.12807132412E+01 -0.31269424900E+02  0.36820916753E+02  0.00000000000E+00 0.  1.
         11    1    4    4    0    0 -0.10779750096E+02  0.60132021781E+01  0.34965494389E+01  0.12829164852E+02  0.51100000000E-03 0. -1.
        -11    1    4    4    0    0 -0.16137657532E+02 -0.11598318055E+02  0.13575040017E+02  0.24067128704E+02  0.51100000000E-03 0.  1.
         12    1    4    4    0    0  0.75173367373E+01  0.68658291184E+01  0.14197835444E+02  0.17470789690E+02  0.00000000000E+00 0. -1.
</event>
<event>
 8    1  0.2497772E-006  0.9118800E+02  0.7816164E-02  0.1184000E+00
        -11   -1    0    0    0    0  0.00000000000E+00  0.00000000000E+00  0.45593999997E+02  0.45594000000E+02  0.51100000000E-03 0. -1.
         11   -1    0    0    0    0 -0.00000000000E+00 -0.00000000000E+00 -0.45593999997E+02  0.45594000000E+02  0.51100000000E-03 0.  1.
         23    2    1    2    0    0  0.17763568394E-14  0.00000000000E+00  0.00000000000E+00  0.91188000000E+02  0.91188000000E+02 0.  0.
    9900012    2    3    3    0    0 -0.10530693737E+02  0.17623915053E+02  0.30565997064E+02  0.54367108255E+02  0.40000054889E+02 0.  0.
        -12    1    3    3    0    0  0.10530693737E+02 -0.17623915053E+02 -0.30565997064E+02  0.36820891745E+02  0.00000000000E+00 0.  1.
         11    1    4    4    0    0 -0.48965826001E+01  0.15473836373E+02  0.91574144972E+01  0.18635299134E+02  0.51100000000E-03 0. -1.
        -11    1    4    4    0    0  0.74882370509E+01  0.22211400149E+01 -0.27157673687E+01  0.82693742060E+01  0.51100000000E-03 0.  1.
        -12    1    4    4    0    0 -0.13122348187E+02 -0.71061335471E-01  0.24124349936E+02  0.27462434915E+02  0.00000000000E+00 0.  1.
</event>
<event>
 8    1  0.2497772E-006  0.9118800E+02  0.7816164E-02  0.1184000E+00
        -11   -1    0    0    0    0  0.00000000000E+00  0.00000000000E+00  0.45593999997E+02  0.45594000000E+02  0.51100000000E-03 0.  1.
         11   -1    0    0    0    0 -0.00000000000E+00 -0.00000000000E+00 -0.45593999997E+02  0.45594000000E+02  0.51100000000E-03 0. -1.
         23    2    1    2    0    0  0.35527136788E-14  0.00000000000E+00  0.00000000000E+00  0.91188000000E+02  0.91188000000E+02 0.  0.
    9900012    2    3    3    0    0  0.20789118712E+02  0.28027616883E+02 -0.11749263190E+02  0.54367082705E+02  0.39999996642E+02 0.  0.
        -12    1    3    3    0    0 -0.20789118712E+02 -0.28027616883E+02  0.11749263190E+02  0.36820917295E+02  0.00000000000E+00 0.  1.
         11    1    4    4    0    0  0.34650845087E+01  0.17609845754E+02  0.19676813078E+01  0.18055061565E+02  0.51100000000E-03 0. -1.
        -11    1    4    4    0    0  0.11241120806E+02  0.17614365559E+02 -0.16345466365E+02  0.26529284611E+02  0.51100000000E-03 0.  1.
        -12    1    4    4    0    0  0.60829133972E+01 -0.71965944300E+01  0.26285218671E+01  0.97827365289E+01  0.00000000000E+00 0.  1.
</event>
<event>
 8    1  0.2497772E-006  0.9118800E+02  0.7816164E-02  0.1184000E+00
        -11   -1    0    0    0    0  0.00000000000E+00  0.00000000000E+00  0.45593999997E+02  0.45594000000E+02  0.51100000000E-03 0.  1.
         11   -1    0    0    0    0 -0.00000000000E+00 -0.00000000000E+00 -0.45593999997E+02  0.45594000000E+02  0.51100000000E-03 0. -1.
         23    2    1    2    0    0  0.88817841970E-15 -0.35527136788E-14  0.00000000000E+00  0.91188000000E+02  0.91188000000E+02 0.  0.
    9900012    2    3    3    0    0 -0.35404282699E+01  0.22906355770E+02  0.28610212825E+02  0.54367081423E+02  0.39999993720E+02 0.  0.
         12    1    3    3    0    0  0.35404282699E+01 -0.22906355770E+02 -0.28610212825E+02  0.36820918577E+02  0.00000000000E+00 0. -1.
         11    1    4    4    0    0  0.74322754444E+01  0.13580998574E+02  0.91215717647E+01  0.17969009774E+02  0.51100000000E-03 0.  1.
        -11    1    4    4    0    0  0.70098729078E+01  0.10165462704E+02  0.51315863855E+01  0.13371915692E+02  0.51100000000E-03 0. -1.
        -12    1    4    4    0    0 -0.17982576622E+02 -0.84010550864E+00  0.14357054674E+02  0.23026155957E+02  0.00000000000E+00 0.  1.
</event>
<event>
 8    1  0.2497772E-006  0.9118800E+02  0.7816164E-02  0.1184000E+00
        -11   -1    0    0    0    0  0.00000000000E+00  0.00000000000E+00  0.45593999997E+02  0.45594000000E+02  0.51100000000E-03 0. -1.
         11   -1    0    0    0    0 -0.00000000000E+00 -0.00000000000E+00 -0.45593999997E+02  0.45594000000E+02  0.51100000000E-03 0.  1.
         23    2    1    2    0    0  0.00000000000E+00  0.00000000000E+00  0.00000000000E+00  0.91188000000E+02  0.91188000000E+02 0.  0.
    9900012    2    3    3    0    0 -0.21627249941E+02  0.17112563831E+02  0.24396748999E+02  0.54367093675E+02  0.40000021651E+02 0.  0.
        -12    1    3    3    0    0  0.21627249941E+02 -0.17112563831E+02 -0.24396748999E+02  0.36820906325E+02  0.00000000000E+00 0.  1.
         11    1    4    4    0    0 -0.14874995565E+02  0.11994801541E+02  0.17590000661E+02  0.25972078865E+02  0.51100000000E-03 0. -1.
        -11    1    4    4    0    0  0.76493424803E+01  0.13556513301E+01 -0.51346918164E+01  0.93121045537E+01  0.51100000000E-03 0.  1.
        -12    1    4    4    0    0 -0.14401596856E+02  0.37621109595E+01  0.11941440155E+02  0.19082910256E+02  0.00000000000E+00 0.  1.
</event>
<event>
 8    1  0.2497772E-006  0.9118800E+02  0.7816164E-02  0.1184000E+00
        -11   -1    0    0    0    0  0.00000000000E+00  0.00000000000E+00  0.45593999997E+02  0.45594000000E+02  0.51100000000E-03 0.  1.
         11   -1    0    0    0    0 -0.00000000000E+00 -0.00000000000E+00 -0.45593999997E+02  0.45594000000E+02  0.51100000000E-03 0. -1.
         23    2    1    2    0    0  0.00000000000E+00 -0.88817841970E-15  0.00000000000E+00  0.91188000000E+02  0.91188000000E+02 0.  0.
    9900012    2    3    3    0    0 -0.33033257527E+02  0.28851557573E+01  0.16008159112E+02  0.54367063228E+02  0.39999952241E+02 0.  0.
         12    1    3    3    0    0  0.33033257527E+02 -0.28851557573E+01 -0.16008159112E+02  0.36820936772E+02  0.00000000000E+00 0. -1.
         11    1    4    4    0    0  0.67998804644E+00  0.36282541438E+01 -0.19796643981E+01  0.41887567684E+01  0.51100000000E-03 0. -1.
        -11    1    4    4    0    0 -0.90419831858E+01 -0.87659994022E+01 -0.67868504646E+01  0.14305996818E+02  0.51100000000E-03 0.  1.
         12    1    4    4    0    0 -0.24671262388E+02  0.80229010158E+01  0.24774673974E+02  0.35872309642E+02  0.00000000000E+00 0. -1.
</event>
<event>
 8    1  0.2497772E-006  0.9118800E+02  0.7816164E-02  0.1184000E+00
        -11   -1    0    0    0    0  0.00000000000E+00  0.00000000000E+00  0.45593999997E+02  0.45594000000E+02  0.51100000000E-03 0. -1.
         11   -1    0    0    0    0 -0.00000000000E+00 -0.00000000000E+00 -0.45593999997E+02  0.45594000000E+02  0.51100000000E-03 0.  1.
         23    2    1    2    0    0  0.55511151231E-15  0.71054273576E-14  0.13322676296E-14  0.91188000000E+02  0.91188000000E+02 0.  0.
    9900012    2    3    3    0    0 -0.74281068974E-01  0.36752767066E+02  0.22377965453E+01  0.54367093736E+02  0.40000021790E+02 0.  0.
         12    1    3    3    0    0  0.74281068974E-01 -0.36752767066E+02 -0.22377965453E+01  0.36820906264E+02  0.00000000000E+00 0. -1.
         11    1    4    4    0    0 -0.28664536593E+01  0.14077584877E+02 -0.21784822878E+01  0.14530682637E+02  0.51100000000E-03 0. -1.
        -11    1    4    4    0    0 -0.85411928896E+01  0.16478404838E+02 -0.94991139773E+01  0.20850011237E+02  0.51100000000E-03 0.  1.
         12    1    4    4    0    0  0.11333365480E+02  0.61967773510E+01  0.13915392810E+02  0.18986399862E+02  0.00000000000E+00 0. -1.
</event>
<event>
 8    1  0.2497772E-006  0.9118800E+02  0.7816164E-02  0.1184000E+00
        -11   -1    0    0    0    0  0.00000000000E+00  0.00000000000E+00  0.45593999997E+02  0.45594000000E+02  0.51100000000E-03 0.  1.
         11   -1    0    0    0    0 -0.00000000000E+00 -0.00000000000E+00 -0.45593999997E+02  0.45594000000E+02  0.51100000000E-03 0. -1.
         23    2    1    2    0    0  0.35527136788E-14 -0.17763568394E-14  0.00000000000E+00  0.91188000000E+02  0.91188000000E+02 0.  0.
    9900012    2    3    3    0    0  0.30098909997E+02 -0.98745459060E+01  0.18770387246E+02  0.54367102711E+02  0.40000042250E+02 0.  0.
         12    1    3    3    0    0 -0.30098909997E+02  0.98745459060E+01 -0.18770387246E+02  0.36820897289E+02  0.00000000000E+00 0. -1.
         11    1    4    4    0    0  0.22803642213E+01  0.53524944852E+01 -0.38236564307E+01  0.69620117033E+01  0.51100000000E-03 0. -1.
        -11    1    4    4    0    0  0.21139357786E+02 -0.21974047202E+02  0.22528021046E+02  0.37910986937E+02  0.51100000000E-03 0.  1.
        -12    1    4    4    0    0  0.66791879892E+01  0.67470068112E+01  0.66022630708E-01  0.94941040700E+01  0.00000000000E+00 0.  1.
</event>
<event>
 8    1  0.2497772E-006  0.9118800E+02  0.7816164E-02  0.1184000E+00
        -11   -1    0    0    0    0  0.00000000000E+00  0.00000000000E+00  0.45593999997E+02  0.45594000000E+02  0.51100000000E-03 0.  1.
         11   -1    0    0    0    0 -0.00000000000E+00 -0.00000000000E+00 -0.45593999997E+02  0.45594000000E+02  0.51100000000E-03 0. -1.
         23    2    1    2    0    0  0.17763568394E-14  0.00000000000E+00  0.00000000000E+00  0.91188000000E+02  0.91188000000E+02 0.  0.
    9900012    2    3    3    0    0  0.10274597809E+02 -0.75688783727E+01 -0.34538732457E+02  0.54367091270E+02  0.40000016169E+02 0.  0.
        -12    1    3    3    0    0 -0.10274597809E+02  0.75688783727E+01  0.34538732457E+02  0.36820908730E+02  0.00000000000E+00 0.  1.
         11    1    4    4    0    0 -0.28638984767E+01 -0.37093465791E+01 -0.40020734686E+01  0.61626097424E+01  0.51100000000E-03 0. -1.
        -11    1    4    4    0    0  0.16506774289E+02  0.44414585853E+01 -0.34427524677E+02  0.38437671722E+02  0.51100000000E-03 0.  1.
         12    1    4    4    0    0 -0.33682780030E+01 -0.83009903789E+01  0.38908656884E+01  0.97668098057E+01  0.00000000000E+00 0. -1.
</event>
<event>
 8    1  0.2497772E-006  0.9118800E+02  0.7816164E-02  0.1184000E+00
        -11   -1    0    0    0    0  0.00000000000E+00  0.00000000000E+00  0.45593999997E+02  0.45594000000E+02  0.51100000000E-03 0.  1.
         11   -1    0    0    0    0 -0.00000000000E+00 -0.00000000000E+00 -0.45593999997E+02  0.45594000000E+02  0.51100000000E-03 0. -1.
         23    2    1    2    0    0 -0.17763568394E-14  0.00000000000E+00  0.00000000000E+00  0.91188000000E+02  0.91188000000E+02 0.  0.
    9900012    2    3    3    0    0  0.12545431310E+02  0.34595721933E+02  0.12365284713E+01  0.54367070822E+02  0.39999969553E+02 0.  0.
         12    1    3    3    0    0 -0.12545431310E+02 -0.34595721933E+02 -0.12365284713E+01  0.36820929178E+02  0.00000000000E+00 0. -1.
         11    1    4    4    0    0 -0.36044419905E+01  0.16974401283E+02  0.28857641102E+01  0.17591189151E+02  0.51100000000E-03 0. -1.
        -11    1    4    4    0    0  0.90293749304E+01  0.24653033054E+02  0.14644090964E+01  0.26295363558E+02  0.51100000000E-03 0.  1.
         12    1    4    4    0    0  0.71204983702E+01 -0.70317124040E+01 -0.31136447353E+01  0.10480518113E+02  0.00000000000E+00 0. -1.
</event>
<event>
 8    1  0.2497772E-006  0.9118800E+02  0.7816164E-02  0.1184000E+00
        -11   -1    0    0    0    0  0.00000000000E+00  0.00000000000E+00  0.45593999997E+02  0.45594000000E+02  0.51100000000E-03 0.  1.
         11   -1    0    0    0    0 -0.00000000000E+00 -0.00000000000E+00 -0.45593999997E+02  0.45594000000E+02  0.51100000000E-03 0. -1.
         23    2    1    2    0    0 -0.35527136788E-14 -0.17763568394E-14  0.35527136788E-14  0.91188000000E+02  0.91188000000E+02 0.  0.
    9900012    2    3    3    0    0  0.19325009760E+02  0.73946749418E+01 -0.30457232233E+02  0.54367079112E+02  0.39999988452E+02 0.  0.
        -12    1    3    3    0    0 -0.19325009760E+02 -0.73946749418E+01  0.30457232233E+02  0.36820920888E+02  0.00000000000E+00 0.  1.
         11    1    4    4    0    0 -0.89580679638E+01  0.35794826514E+01 -0.95111380408E+01  0.13547007964E+02  0.51100000000E-03 0. -1.
        -11    1    4    4    0    0  0.59345384180E+01 -0.15436540041E+01 -0.16242732679E+02  0.17361681343E+02  0.51100000000E-03 0.  1.
        -12    1    4    4    0    0  0.22348539306E+02  0.53588462945E+01 -0.47033615138E+01  0.23458389805E+02  0.00000000000E+00 0.  1.
</event>
<event>
 8    1  0.2497772E-006  0.9118800E+02  0.7816164E-02  0.1184000E+00
        -11   -1    0    0    0    0  0.00000000000E+00  0.00000000000E+00  0.45593999997E+02  0.45594000000E+02  0.51100000000E-03 0. -1.
         11   -1    0    0    0    0 -0.00000000000E+00 -0.00000000000E+00 -0.45593999997E+02  0.45594000000E+02  0.51100000000E-03 0.  1.
         23    2    1    2    0    0  0.00000000000E+00  0.88817841970E-15  0.35527136788E-14  0.91188000000E+02  0.91188000000E+02 0.  0.
    9900012    2    3    3    0    0  0.19017327867E+02 -0.33138476576E+01  0.31355072609E+02  0.54367069487E+02  0.39999966509E+02 0.  0.
        -12    1    3    3    0    0 -0.19017327867E+02  0.33138476576E+01 -0.31355072609E+02  0.36820930513E+02  0.00000000000E+00 0.  1.
         11    1    4    4    0    0 -0.91576490602E+01 -0.86640930019E+01  0.67251069969E+01  0.14288320693E+02  0.51100000000E-03 0. -1.
        -11    1    4    4    0    0  0.20230489685E+02 -0.20791164099E+01  0.12907611827E+02  0.24087380125E+02  0.51100000000E-03 0.  1.
        -12    1    4    4    0    0  0.79444872425E+01  0.74293617542E+01  0.11722353785E+02  0.15991368668E+02  0.00000000000E+00 0.  1.
</event>
<event>
 8    1  0.2497772E-006  0.9118800E+02  0.7816164E-02  0.1184000E+00
        -11   -1    0    0    0    0  0.00000000000E+00  0.00000000000E+00  0.45593999997E+02  0.45594000000E+02  0.51100000000E-03 0. -1.
         11   -1    0    0    0    0 -0.00000000000E+00 -0.00000000000E+00 -0.45593999997E+02  0.45594000000E+02  0.51100000000E-03 0.  1.
         23    2    1    2    0    0 -0.13322676296E-14  0.00000000000E+00 -0.11102230246E-14  0.91188000000E+02  0.91188000000E+02 0.  0.
    9900012    2    3    3    0    0  0.24676804936E+01  0.36718962916E+02 -0.11868828039E+01  0.54367076934E+02  0.39999983487E+02 0.  0.
        -12    1    3    3    0    0 -0.24676804936E+01 -0.36718962916E+02  0.11868828039E+01  0.36820923066E+02  0.00000000000E+00 0.  1.
         11    1    4    4    0    0 -0.12032154082E+02  0.25049976635E+02  0.65303210353E+01  0.28546788862E+02  0.51100000000E-03 0. -1.
        -11    1    4    4    0    0  0.69770300183E+01  0.87199412449E+01 -0.12232953557E+02  0.16563860546E+02  0.51100000000E-03 0.  1.
         12    1    4    4    0    0  0.75228045577E+01  0.29490450358E+01  0.45157497179E+01  0.92564275263E+01  0.00000000000E+00 0. -1.
</event>
<event>
 8    1  0.2497772E-006  0.9118800E+02  0.7816164E-02  0.1184000E+00
        -11   -1    0    0    0    0  0.00000000000E+00  0.00000000000E+00  0.45593999997E+02  0.45594000000E+02  0.51100000000E-03 0.  1.
         11   -1    0    0    0    0 -0.00000000000E+00 -0.00000000000E+00 -0.45593999997E+02  0.45594000000E+02  0.51100000000E-03 0. -1.
         23    2    1    2    0    0 -0.22204460493E-15 -0.35527136788E-14  0.35527136788E-14  0.91188000000E+02  0.91188000000E+02 0.  0.
    9900012    2    3    3    0    0 -0.84457830038E+00  0.19348796688E+02 -0.31315986596E+02  0.54367078471E+02  0.39999986990E+02 0.  0.
        -12    1    3    3    0    0  0.84457830038E+00 -0.19348796688E+02  0.31315986596E+02  0.36820921529E+02  0.00000000000E+00 0.  1.
         11    1    4    4    0    0  0.35586113348E+01  0.12963516061E+02 -0.26238919030E+02  0.29482152829E+02  0.51100000000E-03 0. -1.
        -11    1    4    4    0    0 -0.55023945261E+01  0.71240039587E+01  0.78176400717E+01  0.11922385436E+02  0.51100000000E-03 0.  1.
         12    1    4    4    0    0  0.10992048908E+01 -0.73872333160E+00 -0.12894707637E+02  0.12962540206E+02  0.00000000000E+00 0. -1.
</event>
<event>
 8    1  0.2497772E-006  0.9118800E+02  0.7816164E-02  0.1184000E+00
        -11   -1    0    0    0    0  0.00000000000E+00  0.00000000000E+00  0.45593999997E+02  0.45594000000E+02  0.51100000000E-03 0.  1.
         11   -1    0    0    0    0 -0.00000000000E+00 -0.00000000000E+00 -0.45593999997E+02  0.45594000000E+02  0.51100000000E-03 0. -1.
         23    2    1    2    0    0  0.17763568394E-14  0.17763568394E-14  0.00000000000E+00  0.91188000000E+02  0.91188000000E+02 0.  0.
    9900012    2    3    3    0    0  0.12248626864E+02  0.13337928038E+02  0.32060144072E+02  0.54367054570E+02  0.39999932504E+02 0.  0.
         12    1    3    3    0    0 -0.12248626864E+02 -0.13337928038E+02 -0.32060144072E+02  0.36820945430E+02  0.00000000000E+00 0. -1.
         11    1    4    4    0    0  0.67980060688E+01  0.12140536258E+02  0.63422092076E+01  0.15291472298E+02  0.51100000000E-03 0. -1.
        -11    1    4    4    0    0 -0.10027844895E+01 -0.98955661855E+01  0.24185526698E+02  0.26150860574E+02  0.51100000000E-03 0.  1.
        -12    1    4    4    0    0  0.64534052843E+01  0.11092957965E+02  0.15324081674E+01  0.12924721698E+02  0.00000000000E+00 0.  1.
</event>
<event>
 8    1  0.2497772E-006  0.9118800E+02  0.7816164E-02  0.1184000E+00
        -11   -1    0    0    0    0  0.00000000000E+00  0.00000000000E+00  0.45593999997E+02  0.45594000000E+02  0.51100000000E-03 0.  1.
         11   -1    0    0    0    0 -0.00000000000E+00 -0.00000000000E+00 -0.45593999997E+02  0.45594000000E+02  0.51100000000E-03 0. -1.
         23    2    1    2    0    0  0.00000000000E+00 -0.17763568394E-14  0.00000000000E+00  0.91188000000E+02  0.91188000000E+02 0.  0.
    9900012    2    3    3    0    0 -0.26616429007E+02  0.13375382856E+02  0.21643589768E+02  0.54367080162E+02  0.39999990846E+02 0.  0.
         12    1    3    3    0    0  0.26616429007E+02 -0.13375382856E+02 -0.21643589768E+02  0.36820919838E+02  0.00000000000E+00 0. -1.
         11    1    4    4    0    0 -0.45086319518E+01 -0.66499344233E+00  0.15025147076E+02  0.15701115351E+02  0.51100000000E-03 0. -1.
        -11    1    4    4    0    0 -0.13672064215E+02  0.28446310554E+01 -0.98126365330E+01  0.17067662456E+02  0.51100000000E-03 0.  1.
        -12    1    4    4    0    0 -0.84357328404E+01  0.11195745243E+02  0.16431079225E+02  0.21598302355E+02  0.00000000000E+00 0.  1.
</event>
<event>
 8    1  0.2497772E-006  0.9118800E+02  0.7816164E-02  0.1184000E+00
        -11   -1    0    0    0    0  0.00000000000E+00  0.00000000000E+00  0.45593999997E+02  0.45594000000E+02  0.51100000000E-03 0. -1.
         11   -1    0    0    0    0 -0.00000000000E+00 -0.00000000000E+00 -0.45593999997E+02  0.45594000000E+02  0.51100000000E-03 0.  1.
         23    2    1    2    0    0 -0.17763568394E-14  0.00000000000E+00  0.00000000000E+00  0.91188000000E+02  0.91188000000E+02 0.  0.
    9900012    2    3    3    0    0  0.95523686483E+01 -0.18907341318E+02 -0.30117166919E+02  0.54367094990E+02  0.40000024649E+02 0.  0.
         12    1    3    3    0    0 -0.95523686483E+01  0.18907341318E+02  0.30117166919E+02  0.36820905010E+02  0.00000000000E+00 0. -1.
         11    1    4    4    0    0  0.85267883060E+01 -0.17564054506E+02 -0.85342917940E+01  0.21308126764E+02  0.51100000000E-03 0.  1.
        -11    1    4    4    0    0 -0.18437802762E+01  0.33874359353E+01 -0.25809712098E+02  0.26096273427E+02  0.51100000000E-03 0. -1.
        -12    1    4    4    0    0  0.28693606185E+01 -0.47307227472E+01  0.42268369730E+01  0.69626947991E+01  0.00000000000E+00 0.  1.
</event>
<event>
 8    1  0.2497772E-006  0.9118800E+02  0.7816164E-02  0.1184000E+00
        -11   -1    0    0    0    0  0.00000000000E+00  0.00000000000E+00  0.45593999997E+02  0.45594000000E+02  0.51100000000E-03 0. -1.
         11   -1    0    0    0    0 -0.00000000000E+00 -0.00000000000E+00 -0.45593999997E+02  0.45594000000E+02  0.51100000000E-03 0.  1.
         23    2    1    2    0    0  0.35527136788E-14  0.35527136788E-14  0.00000000000E+00  0.91188000000E+02  0.91188000000E+02 0.  0.
    9900012    2    3    3    0    0 -0.25832552030E+02  0.18582856293E+02 -0.18523910262E+02  0.54367101806E+02  0.40000040188E+02 0.  0.
        -12    1    3    3    0    0  0.25832552030E+02 -0.18582856293E+02  0.18523910262E+02  0.36820898194E+02  0.00000000000E+00 0.  1.
         11    1    4    4    0    0  0.15811161513E-01 -0.31444627442E+01 -0.82473268908E+01  0.88264543871E+01  0.51100000000E-03 0. -1.
        -11    1    4    4    0    0 -0.96966015896E+01 -0.66150387921E+01 -0.23810551374E+01  0.11977155106E+02  0.51100000000E-03 0.  1.
         12    1    4    4    0    0 -0.16151761602E+02  0.28342357829E+02 -0.78955282339E+01  0.33563492313E+02  0.00000000000E+00 0. -1.
</event>
<event>
 8    1  0.2497772E-006  0.9118800E+02  0.7816164E-02  0.1184000E+00
        -11   -1    0    0    0    0  0.00000000000E+00  0.00000000000E+00  0.45593999997E+02  0.45594000000E+02  0.51100000000E-03 0.  1.
         11   -1    0    0    0    0 -0.00000000000E+00 -0.00000000000E+00 -0.45593999997E+02  0.45594000000E+02  0.51100000000E-03 0. -1.
         23    2    1    2    0    0 -0.35527136788E-14  0.00000000000E+00 -0.88817841970E-15  0.91188000000E+02  0.91188000000E+02 0.  0.
    9900012    2    3    3    0    0 -0.28869690570E+02  0.22573006054E+02 -0.35747859579E+01  0.54367099270E+02  0.40000034405E+02 0.  0.
        -12    1    3    3    0    0  0.28869690570E+02 -0.22573006054E+02  0.35747859579E+01  0.36820900730E+02  0.00000000000E+00 0.  1.
         11    1    4    4    0    0  0.70758675006E+01  0.12415943180E+02 -0.58128317221E+01  0.15427655649E+02  0.51100000000E-03 0. -1.
        -11    1    4    4    0    0 -0.37701660310E+01  0.34776308271E+01 -0.25551195224E+01  0.57303319368E+01  0.51100000000E-03 0.  1.
        -12    1    4    4    0    0 -0.32175392040E+02  0.66794320474E+01  0.47931652866E+01  0.33209111684E+02  0.00000000000E+00 0.  1.
</event>
<event>
 8    1  0.2497772E-006  0.9118800E+02  0.7816164E-02  0.1184000E+00
        -11   -1    0    0    0    0  0.00000000000E+00  0.00000000000E+00  0.45593999997E+02  0.45594000000E+02  0.51100000000E-03 0.  1.
         11   -1    0    0    0    0 -0.00000000000E+00 -0.00000000000E+00 -0.45593999997E+02  0.45594000000E+02  0.51100000000E-03 0. -1.
         23    2    1    2    0    0  0.35527136788E-14  0.00000000000E+00  0.00000000000E+00  0.91188000000E+02  0.91188000000E+02 0.  0.
    9900012    2    3    3    0    0 -0.99967064444E+01  0.14239011270E+02 -0.32451449680E+02  0.54367079751E+02  0.39999989908E+02 0.  0.
        -12    1    3    3    0    0  0.99967064444E+01 -0.14239011270E+02  0.32451449680E+02  0.36820920249E+02  0.00000000000E+00 0.  1.
         11    1    4    4    0    0  0.38766149021E+01 -0.14214141133E+01 -0.16817128308E+01  0.44583314689E+01  0.51100000000E-03 0. -1.
        -11    1    4    4    0    0  0.10991877403E+02  0.54366083049E+01 -0.76783179429E+01  0.14468401619E+02  0.51100000000E-03 0.  1.
        -12    1    4    4    0    0 -0.24865198750E+02  0.10223817078E+02 -0.23091418906E+02  0.35440346663E+02  0.00000000000E+00 0.  1.
</event>
<event>
 8    1  0.2497772E-006  0.9118800E+02  0.7816164E-02  0.1184000E+00
        -11   -1    0    0    0    0  0.00000000000E+00  0.00000000000E+00  0.45593999997E+02  0.45594000000E+02  0.51100000000E-03 0.  1.
         11   -1    0    0    0    0 -0.00000000000E+00 -0.00000000000E+00 -0.45593999997E+02  0.45594000000E+02  0.51100000000E-03 0. -1.
         23    2    1    2    0    0 -0.35527136788E-14  0.00000000000E+00  0.00000000000E+00  0.91188000000E+02  0.91188000000E+02 0.  0.
    9900012    2    3    3    0    0 -0.18919323838E+02  0.15356436622E+02 -0.27604652407E+02  0.54367111979E+02  0.40000063378E+02 0.  0.
        -12    1    3    3    0    0  0.18919323838E+02 -0.15356436622E+02  0.27604652407E+02  0.36820888021E+02  0.00000000000E+00 0.  1.
         11    1    4    4    0    0  0.49451183107E+01  0.24948802053E+01  0.45047876177E+01  0.71394491445E+01  0.51100000000E-03 0. -1.
        -11    1    4    4    0    0 -0.15743557895E+02 -0.12958112320E+01 -0.69960667337E+01  0.17276680583E+02  0.51100000000E-03 0.  1.
         12    1    4    4    0    0 -0.81208842529E+01  0.14157367649E+02 -0.25113373291E+02  0.29950982251E+02  0.00000000000E+00 0. -1.
</event>
<event>
 8    1  0.2497772E-006  0.9118800E+02  0.7816164E-02  0.1184000E+00
        -11   -1    0    0    0    0  0.00000000000E+00  0.00000000000E+00  0.45593999997E+02  0.45594000000E+02  0.51100000000E-03 0.  1.
         11   -1    0    0    0    0 -0.00000000000E+00 -0.00000000000E+00 -0.45593999997E+02  0.45594000000E+02  0.51100000000E-03 0. -1.
         23    2    1    2    0    0  0.00000000000E+00  0.15543122345E-14  0.00000000000E+00  0.91188000000E+02  0.91188000000E+02 0.  0.
    9900012    2    3    3    0    0 -0.68622936484E+01  0.13638719909E+01 -0.36150073149E+02  0.54367095481E+02  0.40000025769E+02 0.  0.
        -12    1    3    3    0    0  0.68622936484E+01 -0.13638719909E+01  0.36150073149E+02  0.36820904519E+02  0.00000000000E+00 0.  1.
         11    1    4    4    0    0 -0.69379963999E+01 -0.16413934901E+02 -0.25224599516E+02  0.30884194565E+02  0.51100000000E-03 0. -1.
        -11    1    4    4    0    0 -0.26994622696E+01  0.17142349379E+02 -0.11150248854E+02  0.20627052348E+02  0.51100000000E-03 0.  1.
         12    1    4    4    0    0  0.27751650211E+01  0.63545751250E+00  0.22477522129E+00  0.28558485682E+01  0.00000000000E+00 0. -1.
</event>
<event>
 8    1  0.2497772E-006  0.9118800E+02  0.7816164E-02  0.1184000E+00
        -11   -1    0    0    0    0  0.00000000000E+00  0.00000000000E+00  0.45593999997E+02  0.45594000000E+02  0.51100000000E-03 0. -1.
         11   -1    0    0    0    0 -0.00000000000E+00 -0.00000000000E+00 -0.45593999997E+02  0.45594000000E+02  0.51100000000E-03 0.  1.
         23    2    1    2    0    0  0.00000000000E+00  0.00000000000E+00  0.17763568394E-14  0.91188000000E+02  0.91188000000E+02 0.  0.
    9900012    2    3    3    0    0 -0.31614488837E+02  0.10886147966E+02 -0.15420687344E+02  0.54367058675E+02  0.39999941860E+02 0.  0.
         12    1    3    3    0    0  0.31614488837E+02 -0.10886147966E+02  0.15420687344E+02  0.36820941325E+02  0.00000000000E+00 0. -1.
         11    1    4    4    0    0  0.76228989589E+01  0.36003699459E+01 -0.29200730965E+01  0.89217755764E+01  0.51100000000E-03 0. -1.
        -11    1    4    4    0    0  0.16286382124E+00 -0.29414629269E+01 -0.13442303871E+01  0.32381606460E+01  0.51100000000E-03 0.  1.
         12    1    4    4    0    0 -0.39400251617E+02  0.10227240947E+02 -0.11156383860E+02  0.42207122452E+02  0.00000000000E+00 0. -1.
</event>
<event>
 8    1  0.2497772E-006  0.9118800E+02  0.7816164E-02  0.1184000E+00
        -11   -1    0    0    0    0  0.00000000000E+00  0.00000000000E+00  0.45593999997E+02  0.45594000000E+02  0.51100000000E-03 0. -1.
         11   -1    0    0    0    0 -0.00000000000E+00 -0.00000000000E+00 -0.45593999997E+02  0.45594000000E+02  0.51100000000E-03 0.  1.
         23    2    1    2    0    0  0.35527136788E-14  0.17763568394E-14  0.00000000000E+00  0.91188000000E+02  0.91188000000E+02 0.  0.
    9900012    2    3    3    0    0  0.22123374944E+02 -0.12871204961E+02  0.26470153697E+02  0.54367072896E+02  0.39999974280E+02 0.  0.
        -12    1    3    3    0    0 -0.22123374944E+02  0.12871204961E+02 -0.26470153697E+02  0.36820927104E+02  0.00000000000E+00 0.  1.
         11    1    4    4    0    0  0.70185101520E+01 -0.15902552420E+02  0.29047310339E+01  0.17623510458E+02  0.51100000000E-03 0. -1.
        -11    1    4    4    0    0 -0.41909862424E+01  0.61489235707E+01  0.11736852757E+02  0.13897026289E+02  0.51100000000E-03 0.  1.
        -12    1    4    4    0    0  0.19295851035E+02 -0.31175761114E+01  0.11828569906E+02  0.22846536148E+02  0.00000000000E+00 0.  1.
</event>
<event>
 8    1  0.2497772E-006  0.9118800E+02  0.7816164E-02  0.1184000E+00
        -11   -1    0    0    0    0  0.00000000000E+00  0.00000000000E+00  0.45593999997E+02  0.45594000000E+02  0.51100000000E-03 0. -1.
         11   -1    0    0    0    0 -0.00000000000E+00 -0.00000000000E+00 -0.45593999997E+02  0.45594000000E+02  0.51100000000E-03 0.  1.
         23    2    1    2    0    0 -0.88817841970E-15  0.00000000000E+00  0.00000000000E+00  0.91188000000E+02  0.91188000000E+02 0.  0.
    9900012    2    3    3    0    0  0.21410024616E+01  0.35451834869E+02  0.97140854960E+01  0.54367082791E+02  0.39999996838E+02 0.  0.
        -12    1    3    3    0    0 -0.21410024616E+01 -0.35451834869E+02 -0.97140854960E+01  0.36820917209E+02  0.00000000000E+00 0.  1.
         11    1    4    4    0    0  0.90331112861E+01  0.61806155882E+01  0.13853599350E+02  0.17655574864E+02  0.51100000000E-03 0. -1.
        -11    1    4    4    0    0  0.14456695059E+01  0.36074156378E+00 -0.63683139251E+01  0.65402994814E+01  0.51100000000E-03 0.  1.
         12    1    4    4    0    0 -0.83377783303E+01  0.28910477717E+02  0.22288000708E+01  0.30171208445E+02  0.00000000000E+00 0. -1.
</event>
<event>
 8    1  0.2497772E-006  0.9118800E+02  0.7816164E-02  0.1184000E+00
        -11   -1    0    0    0    0  0.00000000000E+00  0.00000000000E+00  0.45593999997E+02  0.45594000000E+02  0.51100000000E-03 0. -1.
         11   -1    0    0    0    0 -0.00000000000E+00 -0.00000000000E+00 -0.45593999997E+02  0.45594000000E+02  0.51100000000E-03 0.  1.
         23    2    1    2    0    0  0.88817841970E-15  0.00000000000E+00 -0.35527136788E-14  0.91188000000E+02  0.91188000000E+02 0.  0.
    9900012    2    3    3    0    0 -0.77505520061E+01 -0.20375192625E+02  0.29674233378E+02  0.54367086683E+02  0.40000005711E+02 0.  0.
        -12    1    3    3    0    0  0.77505520061E+01  0.20375192625E+02 -0.29674233378E+02  0.36820913317E+02  0.00000000000E+00 0.  1.
         11    1    4    4    0    0 -0.77412341448E+01 -0.25667137492E+02  0.76611224275E+01  0.27882278426E+02  0.51100000000E-03 0.  1.
        -11    1    4    4    0    0  0.46448734487E+01  0.51772215130E+01  0.20407270163E+02  0.21560035893E+02  0.51100000000E-03 0. -1.
        -12    1    4    4    0    0 -0.46541913101E+01  0.11472335398E+00  0.16058407876E+01  0.49247723637E+01  0.00000000000E+00 0.  1.
</event>
<event>
 8    1  0.2497772E-006  0.9118800E+02  0.7816164E-02  0.1184000E+00
        -11   -1    0    0    0    0  0.00000000000E+00  0.00000000000E+00  0.45593999997E+02  0.45594000000E+02  0.51100000000E-03 0.  1.
         11   -1    0    0    0    0 -0.00000000000E+00 -0.00000000000E+00 -0.45593999997E+02  0.45594000000E+02  0.51100000000E-03 0. -1.
         23    2    1    2    0    0  0.00000000000E+00  0.00000000000E+00  0.00000000000E+00  0.91188000000E+02  0.91188000000E+02 0.  0.
    9900012    2    3    3    0    0 -0.28025755312E+02 -0.18941601624E+01  0.23806453977E+02  0.54367108451E+02  0.40000055335E+02 0.  0.
         12    1    3    3    0    0  0.28025755312E+02  0.18941601624E+01 -0.23806453977E+02  0.36820891549E+02  0.00000000000E+00 0. -1.
         11    1    4    4    0    0 -0.16182705743E+01  0.45663858667E+00 -0.52672422317E+01  0.55291192282E+01  0.51100000000E-03 0.  1.
        -11    1    4    4    0    0 -0.86112312929E+01  0.95003787136E+01  0.91777175767E-01  0.12822594254E+02  0.51100000000E-03 0. -1.
        -12    1    4    4    0    0 -0.17796253445E+02 -0.11851177463E+02  0.28981919033E+02  0.36015394969E+02  0.00000000000E+00 0.  1.
</event>
<event>
 8    1  0.2497772E-006  0.9118800E+02  0.7816164E-02  0.1184000E+00
        -11   -1    0    0    0    0  0.00000000000E+00  0.00000000000E+00  0.45593999997E+02  0.45594000000E+02  0.51100000000E-03 0.  1.
         11   -1    0    0    0    0 -0.00000000000E+00 -0.00000000000E+00 -0.45593999997E+02  0.45594000000E+02  0.51100000000E-03 0. -1.
         23    2    1    2    0    0  0.00000000000E+00  0.00000000000E+00 -0.77715611724E-15  0.91188000000E+02  0.91188000000E+02 0.  0.
    9900012    2    3    3    0    0  0.34309140556E+02 -0.13338887293E+02  0.85793107287E+00  0.54367094448E+02  0.40000023414E+02 0.  0.
         12    1    3    3    0    0 -0.34309140556E+02  0.13338887293E+02 -0.85793107287E+00  0.36820905552E+02  0.00000000000E+00 0. -1.
         11    1    4    4    0    0  0.39918156794E+02 -0.15154410404E+02 -0.46277489721E+01  0.42948008771E+02  0.51100000000E-03 0.  1.
        -11    1    4    4    0    0  0.90591094901E+00 -0.19488916032E+01  0.73343594104E-01  0.21504029093E+01  0.51100000000E-03 0. -1.
         12    1    4    4    0    0 -0.65149271872E+01  0.37644147148E+01  0.54123364508E+01  0.92686827681E+01  0.00000000000E+00 0. -1.
</event>
<event>
 8    1  0.2497772E-006  0.9118800E+02  0.7816164E-02  0.1184000E+00
        -11   -1    0    0    0    0  0.00000000000E+00  0.00000000000E+00  0.45593999997E+02  0.45594000000E+02  0.51100000000E-03 0.  1.
         11   -1    0    0    0    0 -0.00000000000E+00 -0.00000000000E+00 -0.45593999997E+02  0.45594000000E+02  0.51100000000E-03 0. -1.
         23    2    1    2    0    0 -0.35527136788E-14  0.00000000000E+00  0.35527136788E-14  0.91188000000E+02  0.91188000000E+02 0.  0.
    9900012    2    3    3    0    0  0.22520707887E+02  0.11513345632E+02 -0.26758869096E+02  0.54367129740E+02  0.40000103869E+02 0.  0.
        -12    1    3    3    0    0 -0.22520707887E+02 -0.11513345632E+02  0.26758869096E+02  0.36820870260E+02  0.00000000000E+00 0.  1.
         11    1    4    4    0    0  0.50679126346E+01  0.10295214324E+02 -0.14575308270E+02  0.18550331206E+02  0.51100000000E-03 0. -1.
        -11    1    4    4    0    0  0.76095804336E+01  0.12074627303E+02  0.31401258743E+01  0.14613785603E+02  0.51100000000E-03 0.  1.
         12    1    4    4    0    0  0.98432148192E+01 -0.10856495995E+02 -0.15323686700E+02  0.21203012931E+02  0.00000000000E+00 0. -1.
</event>
<event>
 8    1  0.2497772E-006  0.9118800E+02  0.7816164E-02  0.1184000E+00
        -11   -1    0    0    0    0  0.00000000000E+00  0.00000000000E+00  0.45593999997E+02  0.45594000000E+02  0.51100000000E-03 0.  1.
         11   -1    0    0    0    0 -0.00000000000E+00 -0.00000000000E+00 -0.45593999997E+02  0.45594000000E+02  0.51100000000E-03 0. -1.
         23    2    1    2    0    0  0.00000000000E+00  0.00000000000E+00  0.00000000000E+00  0.91188000000E+02  0.91188000000E+02 0.  0.
    9900012    2    3    3    0    0 -0.11617039007E+02 -0.23426803244E+02  0.25923142859E+02  0.54367081472E+02  0.39999993833E+02 0.  0.
         12    1    3    3    0    0  0.11617039007E+02  0.23426803244E+02 -0.25923142859E+02  0.36820918528E+02  0.00000000000E+00 0. -1.
         11    1    4    4    0    0 -0.33035568823E+01  0.18488815056E+00 -0.62755123392E+01  0.70943447254E+01  0.51100000000E-03 0. -1.
        -11    1    4    4    0    0 -0.23507145943E+01 -0.60245310423E+01  0.27316038784E+02  0.28071102730E+02  0.51100000000E-03 0.  1.
        -12    1    4    4    0    0 -0.59627675304E+01 -0.17587160352E+02  0.48826164146E+01  0.19201634017E+02  0.00000000000E+00 0.  1.
</event>
<event>
 8    1  0.2497772E-006  0.9118800E+02  0.7816164E-02  0.1184000E+00
        -11   -1    0    0    0    0  0.00000000000E+00  0.00000000000E+00  0.45593999997E+02  0.45594000000E+02  0.51100000000E-03 0.  1.
         11   -1    0    0    0    0 -0.00000000000E+00 -0.00000000000E+00 -0.45593999997E+02  0.45594000000E+02  0.51100000000E-03 0. -1.
         23    2    1    2    0    0  0.35527136788E-14  0.35527136788E-14  0.35527136788E-14  0.91188000000E+02  0.91188000000E+02 0.  0.
    9900012    2    3    3    0    0  0.18102544558E+02  0.19095239627E+02  0.25757504200E+02  0.54367091286E+02  0.40000016204E+02 0.  0.
         12    1    3    3    0    0 -0.18102544558E+02 -0.19095239627E+02 -0.25757504200E+02  0.36820908714E+02  0.00000000000E+00 0. -1.
         11    1    4    4    0    0 -0.36882550454E+01  0.15157639488E+02  0.66940850560E+01  0.16975512809E+02  0.51100000000E-03 0. -1.
        -11    1    4    4    0    0  0.11852857874E+01  0.55358180640E+01 -0.36083132168E+01  0.67134274828E+01  0.51100000000E-03 0.  1.
        -12    1    4    4    0    0  0.20605513816E+02 -0.15982179247E+01  0.22671732361E+02  0.30678150994E+02  0.00000000000E+00 0.  1.
</event>
<event>
 8    1  0.2497772E-006  0.9118800E+02  0.7816164E-02  0.1184000E+00
        -11   -1    0    0    0    0  0.00000000000E+00  0.00000000000E+00  0.45593999997E+02  0.45594000000E+02  0.51100000000E-03 0.  1.
         11   -1    0    0    0    0 -0.00000000000E+00 -0.00000000000E+00 -0.45593999997E+02  0.45594000000E+02  0.51100000000E-03 0. -1.
         23    2    1    2    0    0  0.88817841970E-15  0.00000000000E+00  0.00000000000E+00  0.91188000000E+02  0.91188000000E+02 0.  0.
    9900012    2    3    3    0    0  0.64886288546E+01  0.24517685760E+02 -0.26693890895E+02  0.54367040880E+02  0.39999901294E+02 0.  0.
        -12    1    3    3    0    0 -0.64886288546E+01 -0.24517685760E+02  0.26693890895E+02  0.36820959120E+02  0.00000000000E+00 0.  1.
         11    1    4    4    0    0 -0.34515102626E+01 -0.18315341798E+01 -0.21351584596E+02  0.21706165151E+02  0.51100000000E-03 0. -1.
        -11    1    4    4    0    0 -0.38847601386E+01  0.56446190715E+01  0.11120277295E+01  0.69418795530E+01  0.51100000000E-03 0.  1.
         12    1    4    4    0    0  0.13824899256E+02  0.20704600868E+02 -0.64543340284E+01  0.25718996176E+02  0.00000000000E+00 0. -1.
</event>
<event>
 8    1  0.2497772E-006  0.9118800E+02  0.7816164E-02  0.1184000E+00
        -11   -1    0    0    0    0  0.00000000000E+00  0.00000000000E+00  0.45593999997E+02  0.45594000000E+02  0.51100000000E-03 0. -1.
         11   -1    0    0    0    0 -0.00000000000E+00 -0.00000000000E+00 -0.45593999997E+02  0.45594000000E+02  0.51100000000E-03 0.  1.
         23    2    1    2    0    0  0.00000000000E+00 -0.71054273576E-14 -0.88817841970E-15  0.91188000000E+02  0.91188000000E+02 0.  0.
    9900012    2    3    3    0    0  0.20753661517E+01 -0.36404024090E+02 -0.51205317913E+01  0.54367082569E+02  0.39999996333E+02 0.  0.
         12    1    3    3    0    0 -0.20753661517E+01  0.36404024090E+02  0.51205317913E+01  0.36820917431E+02  0.00000000000E+00 0. -1.
         11    1    4    4    0    0 -0.25478172419E+01 -0.41650866005E+02 -0.39374192738E+01  0.41914070220E+02  0.51100000000E-03 0. -1.
        -11    1    4    4    0    0  0.45954698213E+01 -0.12685418552E+01  0.20381632850E+01  0.51847517930E+01  0.51100000000E-03 0.  1.
         12    1    4    4    0    0  0.27713572234E-01  0.65153837698E+01 -0.32212758025E+01  0.72682605557E+01  0.00000000000E+00 0. -1.
</event>
<event>
 8    1  0.2497772E-006  0.9118800E+02  0.7816164E-02  0.1184000E+00
        -11   -1    0    0    0    0  0.00000000000E+00  0.00000000000E+00  0.45593999997E+02  0.45594000000E+02  0.51100000000E-03 0.  1.
         11   -1    0    0    0    0 -0.00000000000E+00 -0.00000000000E+00 -0.45593999997E+02  0.45594000000E+02  0.51100000000E-03 0. -1.
         23    2    1    2    0    0  0.00000000000E+00  0.00000000000E+00 -0.35527136788E-14  0.91188000000E+02  0.91188000000E+02 0.  0.
    9900012    2    3    3    0    0 -0.13795226346E+02  0.15243160926E+02  0.30546971289E+02  0.54367086379E+02  0.40000005017E+02 0.  0.
         12    1    3    3    0    0  0.13795226346E+02 -0.15243160926E+02 -0.30546971289E+02  0.36820913621E+02  0.00000000000E+00 0. -1.
         11    1    4    4    0    0  0.41996087876E+01  0.16085358239E+02  0.62084042803E+01  0.17745978351E+02  0.51100000000E-03 0. -1.
        -11    1    4    4    0    0 -0.95281620757E+01 -0.89400370870E+01  0.49582464126E+01  0.13974775254E+02  0.51100000000E-03 0.  1.
         12    1    4    4    0    0 -0.84666730581E+01  0.80978397737E+01  0.19380320596E+02  0.22646332774E+02  0.00000000000E+00 0. -1.
</event>
<event>
 8    1  0.2497772E-006  0.9118800E+02  0.7816164E-02  0.1184000E+00
        -11   -1    0    0    0    0  0.00000000000E+00  0.00000000000E+00  0.45593999997E+02  0.45594000000E+02  0.51100000000E-03 0.  1.
         11   -1    0    0    0    0 -0.00000000000E+00 -0.00000000000E+00 -0.45593999997E+02  0.45594000000E+02  0.51100000000E-03 0. -1.
         23    2    1    2    0    0  0.00000000000E+00  0.17763568394E-14 -0.71054273576E-14  0.91188000000E+02  0.91188000000E+02 0.  0.
    9900012    2    3    3    0    0  0.18648039653E+02  0.12396925300E+02 -0.29229235970E+02  0.54367063358E+02  0.39999952538E+02 0.  0.
        -12    1    3    3    0    0 -0.18648039653E+02 -0.12396925300E+02  0.29229235970E+02  0.36820936642E+02  0.00000000000E+00 0.  1.
         11    1    4    4    0    0  0.19186957519E+02  0.52274764242E+01 -0.98577826889E+01  0.22195533975E+02  0.51100000000E-03 0. -1.
        -11    1    4    4    0    0  0.30390477360E+01  0.97440581976E+01  0.19565165099E+01  0.10392807052E+02  0.51100000000E-03 0.  1.
        -12    1    4    4    0    0 -0.35779656023E+01 -0.25746093217E+01 -0.21327969791E+02  0.21778722332E+02  0.00000000000E+00 0.  1.
</event>
<event>
 8    1  0.2497772E-006  0.9118800E+02  0.7816164E-02  0.1184000E+00
        -11   -1    0    0    0    0  0.00000000000E+00  0.00000000000E+00  0.45593999997E+02  0.45594000000E+02  0.51100000000E-03 0.  1.
         11   -1    0    0    0    0 -0.00000000000E+00 -0.00000000000E+00 -0.45593999997E+02  0.45594000000E+02  0.51100000000E-03 0. -1.
         23    2    1    2    0    0  0.00000000000E+00  0.00000000000E+00  0.00000000000E+00  0.91188000000E+02  0.91188000000E+02 0.  0.
    9900012    2    3    3    0    0  0.30371815337E+02 -0.18737825309E+02 -0.90681586627E+01  0.54367017317E+02  0.39999847578E+02 0.  0.
        -12    1    3    3    0    0 -0.30371815337E+02  0.18737825309E+02  0.90681586627E+01  0.36820982683E+02  0.00000000000E+00 0.  1.
         11    1    4    4    0    0  0.48121692987E+01 -0.13314154959E+02 -0.14245299233E+02  0.20083631298E+02  0.51100000000E-03 0. -1.
        -11    1    4    4    0    0  0.25432216063E+02 -0.59463678900E+01 -0.28184047360E+01  0.26269760381E+02  0.51100000000E-03 0.  1.
        -12    1    4    4    0    0  0.12742997537E+00  0.52269754026E+00  0.79955453063E+01  0.80136256378E+01  0.00000000000E+00 0.  1.
</event>
<event>
 8    1  0.2497772E-006  0.9118800E+02  0.7816164E-02  0.1184000E+00
        -11   -1    0    0    0    0  0.00000000000E+00  0.00000000000E+00  0.45593999997E+02  0.45594000000E+02  0.51100000000E-03 0. -1.
         11   -1    0    0    0    0 -0.00000000000E+00 -0.00000000000E+00 -0.45593999997E+02  0.45594000000E+02  0.51100000000E-03 0.  1.
         23    2    1    2    0    0 -0.35527136788E-14 -0.35527136788E-14  0.00000000000E+00  0.91188000000E+02  0.91188000000E+02 0.  0.
    9900012    2    3    3    0    0 -0.18550264172E+02 -0.30667384604E+02 -0.84367380278E+01  0.54367091160E+02  0.40000015916E+02 0.  0.
         12    1    3    3    0    0  0.18550264172E+02  0.30667384604E+02  0.84367380278E+01  0.36820908840E+02  0.00000000000E+00 0. -1.
         11    1    4    4    0    0 -0.34021403945E+01 -0.13197648456E+02  0.69484253502E+01  0.15298140382E+02  0.51100000000E-03 0. -1.
        -11    1    4    4    0    0 -0.48472061026E+01 -0.91090613314E+01  0.74035623221E+01  0.12699729944E+02  0.51100000000E-03 0.  1.
        -12    1    4    4    0    0 -0.10300917674E+02 -0.83606748166E+01 -0.22788725700E+02  0.26369220833E+02  0.00000000000E+00 0.  1.
</event>
<event>
 8    1  0.2497772E-006  0.9118800E+02  0.7816164E-02  0.1184000E+00
        -11   -1    0    0    0    0  0.00000000000E+00  0.00000000000E+00  0.45593999997E+02  0.45594000000E+02  0.51100000000E-03 0. -1.
         11   -1    0    0    0    0 -0.00000000000E+00 -0.00000000000E+00 -0.45593999997E+02  0.45594000000E+02  0.51100000000E-03 0.  1.
         23    2    1    2    0    0 -0.17763568394E-14  0.00000000000E+00 -0.17763568394E-14  0.91188000000E+02  0.91188000000E+02 0.  0.
    9900012    2    3    3    0    0  0.85538642202E+01 -0.34872782418E+02  0.81547605035E+01  0.54367086574E+02  0.40000005463E+02 0.  0.
        -12    1    3    3    0    0 -0.85538642202E+01  0.34872782418E+02 -0.81547605035E+01  0.36820913426E+02  0.00000000000E+00 0.  1.
         11    1    4    4    0    0  0.16973463537E+01 -0.15681903476E+02 -0.12036267980E+02  0.19841240596E+02  0.51100000000E-03 0. -1.
        -11    1    4    4    0    0  0.13437752324E+02 -0.15285352092E+02  0.14818943783E+02  0.25175707958E+02  0.51100000000E-03 0.  1.
         12    1    4    4    0    0 -0.65812344573E+01 -0.39055268501E+01  0.53720847001E+01  0.93501380195E+01  0.00000000000E+00 0. -1.
</event>
<event>
 8    1  0.2497772E-006  0.9118800E+02  0.7816164E-02  0.1184000E+00
        -11   -1    0    0    0    0  0.00000000000E+00  0.00000000000E+00  0.45593999997E+02  0.45594000000E+02  0.51100000000E-03 0. -1.
         11   -1    0    0    0    0 -0.00000000000E+00 -0.00000000000E+00 -0.45593999997E+02  0.45594000000E+02  0.51100000000E-03 0.  1.
         23    2    1    2    0    0 -0.88817841970E-15  0.00000000000E+00  0.00000000000E+00  0.91188000000E+02  0.91188000000E+02 0.  0.
    9900012    2    3    3    0    0  0.61648960211E+01 -0.15175730270E+02 -0.32976806751E+02  0.54367102188E+02  0.40000041058E+02 0.  0.
         12    1    3    3    0    0 -0.61648960211E+01  0.15175730270E+02  0.32976806751E+02  0.36820897812E+02  0.00000000000E+00 0. -1.
         11    1    4    4    0    0  0.37860521712E+01 -0.17135763881E+02 -0.24066155592E+01  0.17713282969E+02  0.51100000000E-03 0. -1.
        -11    1    4    4    0    0  0.12648971856E+01  0.77228904069E+01 -0.28650595804E+01  0.83337607230E+01  0.51100000000E-03 0.  1.
        -12    1    4    4    0    0  0.11139466643E+01 -0.57628567954E+01 -0.27705131612E+02  0.28320058496E+02  0.00000000000E+00 0.  1.
</event>
<event>
 8    1  0.2497772E-006  0.9118800E+02  0.7816164E-02  0.1184000E+00
        -11   -1    0    0    0    0  0.00000000000E+00  0.00000000000E+00  0.45593999997E+02  0.45594000000E+02  0.51100000000E-03 0. -1.
         11   -1    0    0    0    0 -0.00000000000E+00 -0.00000000000E+00 -0.45593999997E+02  0.45594000000E+02  0.51100000000E-03 0.  1.
         23    2    1    2    0    0  0.00000000000E+00  0.00000000000E+00  0.35527136788E-14  0.91188000000E+02  0.91188000000E+02 0.  0.
    9900012    2    3    3    0    0  0.29517041946E+02  0.37881850777E+01  0.21683501121E+02  0.54367077520E+02  0.39999984822E+02 0.  0.
        -12    1    3    3    0    0 -0.29517041946E+02 -0.37881850777E+01 -0.21683501121E+02  0.36820922480E+02  0.00000000000E+00 0.  1.
         11    1    4    4    0    0 -0.58206909087E+01  0.12209646013E+01 -0.41121498717E+00  0.59615681862E+01  0.51100000000E-03 0. -1.
        -11    1    4    4    0    0  0.98145413723E+01  0.10024766485E+02  0.31317773143E+00  0.14032791810E+02  0.51100000000E-03 0.  1.
         12    1    4    4    0    0  0.25523191483E+02 -0.74575460084E+01  0.21781538376E+02  0.34372717524E+02  0.00000000000E+00 0. -1.
</event>
<event>
 8    1  0.2497772E-006  0.9118800E+02  0.7816164E-02  0.1184000E+00
        -11   -1    0    0    0    0  0.00000000000E+00  0.00000000000E+00  0.45593999997E+02  0.45594000000E+02  0.51100000000E-03 0. -1.
         11   -1    0    0    0    0 -0.00000000000E+00 -0.00000000000E+00 -0.45593999997E+02  0.45594000000E+02  0.51100000000E-03 0.  1.
         23    2    1    2    0    0  0.00000000000E+00  0.00000000000E+00 -0.17763568394E-14  0.91188000000E+02  0.91188000000E+02 0.  0.
    9900012    2    3    3    0    0  0.33741398759E+02  0.86115659818E+01  0.11964076524E+02  0.54367079507E+02  0.39999989352E+02 0.  0.
        -12    1    3    3    0    0 -0.33741398759E+02 -0.86115659818E+01 -0.11964076524E+02  0.36820920493E+02  0.00000000000E+00 0.  1.
         11    1    4    4    0    0  0.16593692274E+01 -0.39713063095E+01 -0.81708569613E+01  0.92351331219E+01  0.51100000000E-03 0. -1.
        -11    1    4    4    0    0 -0.25330466254E+01  0.25285231558E+01 -0.47445372097E+00  0.36103824105E+01  0.51100000000E-03 0.  1.
        -12    1    4    4    0    0  0.34615076157E+02  0.10054349135E+02  0.20609387207E+02  0.41521563975E+02  0.00000000000E+00 0.  1.
</event>
<event>
 8    1  0.2497772E-006  0.9118800E+02  0.7816164E-02  0.1184000E+00
        -11   -1    0    0    0    0  0.00000000000E+00  0.00000000000E+00  0.45593999997E+02  0.45594000000E+02  0.51100000000E-03 0.  1.
         11   -1    0    0    0    0 -0.00000000000E+00 -0.00000000000E+00 -0.45593999997E+02  0.45594000000E+02  0.51100000000E-03 0. -1.
         23    2    1    2    0    0  0.00000000000E+00  0.00000000000E+00  0.71054273576E-14  0.91188000000E+02  0.91188000000E+02 0.  0.
    9900012    2    3    3    0    0  0.21143464228E+02  0.10458289323E+02 -0.28272582194E+02  0.54367342767E+02  0.40000589503E+02 0.  0.
        -12    1    3    3    0    0 -0.21143464228E+02 -0.10458289323E+02  0.28272582194E+02  0.36820657233E+02  0.00000000000E+00 0.  1.
         11    1    4    4    0    0 -0.19709064552E+00  0.41386429409E+01  0.49111818835E+01  0.64254896987E+01  0.51100000000E-03 0.  1.
        -11    1    4    4    0    0  0.17212107911E+01  0.10375019807E+02 -0.17424271054E+01  0.10660190198E+02  0.51100000000E-03 0. -1.
         12    1    4    4    0    0  0.19619344082E+02 -0.40553734245E+01 -0.31441336972E+02  0.37281662871E+02  0.00000000000E+00 0. -1.
</event>
<event>
 8    1  0.2497772E-006  0.9118800E+02  0.7816164E-02  0.1184000E+00
        -11   -1    0    0    0    0  0.00000000000E+00  0.00000000000E+00  0.45593999997E+02  0.45594000000E+02  0.51100000000E-03 0.  1.
         11   -1    0    0    0    0 -0.00000000000E+00 -0.00000000000E+00 -0.45593999997E+02  0.45594000000E+02  0.51100000000E-03 0. -1.
         23    2    1    2    0    0  0.44408920985E-15  0.00000000000E+00  0.00000000000E+00  0.91188000000E+02  0.91188000000E+02 0.  0.
    9900012    2    3    3    0    0  0.16324740917E+01 -0.83148295632E+01  0.35832635871E+02  0.54367093496E+02  0.40000021242E+02 0.  0.
         12    1    3    3    0    0 -0.16324740917E+01  0.83148295632E+01 -0.35832635871E+02  0.36820906504E+02  0.00000000000E+00 0. -1.
         11    1    4    4    0    0 -0.44727044938E+01 -0.80729863237E+01 -0.49638136275E+01  0.10479391188E+02  0.51100000000E-03 0. -1.
        -11    1    4    4    0    0 -0.34705729249E+01  0.22694370713E+01  0.24280905890E+02  0.24632450388E+02  0.51100000000E-03 0.  1.
         12    1    4    4    0    0  0.95757515104E+01 -0.25112803108E+01  0.16515543609E+02  0.19255251920E+02  0.00000000000E+00 0. -1.
</event>
<event>
 8    1  0.2497772E-006  0.9118800E+02  0.7816164E-02  0.1184000E+00
        -11   -1    0    0    0    0  0.00000000000E+00  0.00000000000E+00  0.45593999997E+02  0.45594000000E+02  0.51100000000E-03 0. -1.
         11   -1    0    0    0    0 -0.00000000000E+00 -0.00000000000E+00 -0.45593999997E+02  0.45594000000E+02  0.51100000000E-03 0.  1.
         23    2    1    2    0    0 -0.35527136788E-14  0.00000000000E+00  0.00000000000E+00  0.91188000000E+02  0.91188000000E+02 0.  0.
    9900012    2    3    3    0    0  0.31630117394E+02  0.10682477300E+02 -0.15530641127E+02  0.54367075766E+02  0.39999980824E+02 0.  0.
         12    1    3    3    0    0 -0.31630117394E+02 -0.10682477300E+02  0.15530641127E+02  0.36820924234E+02  0.00000000000E+00 0. -1.
         11    1    4    4    0    0  0.17264349500E+01 -0.69676862181E+01  0.54196231951E+01  0.89945285984E+01  0.51100000000E-03 0. -1.
        -11    1    4    4    0    0  0.10096543730E+02 -0.39328156822E+01 -0.41515538544E+01  0.11603561270E+02  0.51100000000E-03 0.  1.
         12    1    4    4    0    0  0.19807138714E+02  0.21582979200E+02 -0.16798710467E+02  0.33768985898E+02  0.00000000000E+00 0. -1.
</event>
<event>
 8    1  0.2497772E-006  0.9118800E+02  0.7816164E-02  0.1184000E+00
        -11   -1    0    0    0    0  0.00000000000E+00  0.00000000000E+00  0.45593999997E+02  0.45594000000E+02  0.51100000000E-03 0.  1.
         11   -1    0    0    0    0 -0.00000000000E+00 -0.00000000000E+00 -0.45593999997E+02  0.45594000000E+02  0.51100000000E-03 0. -1.
         23    2    1    2    0    0 -0.22204460493E-14 -0.35527136788E-14  0.00000000000E+00  0.91188000000E+02  0.91188000000E+02 0.  0.
    9900012    2    3    3    0    0  0.36788283487E+01  0.31800682106E+02  0.18192402283E+02  0.54367073053E+02  0.39999974639E+02 0.  0.
         12    1    3    3    0    0 -0.36788283487E+01 -0.31800682106E+02 -0.18192402283E+02  0.36820926947E+02  0.00000000000E+00 0. -1.
         11    1    4    4    0    0 -0.79787567597E+01 -0.45374393496E+00 -0.30650864798E+01  0.85592755755E+01  0.51100000000E-03 0. -1.
        -11    1    4    4    0    0 -0.42624914706E+01  0.83762300404E+01  0.12817066966E+02  0.15893623536E+02  0.51100000000E-03 0.  1.
         12    1    4    4    0    0  0.15920076579E+02  0.23878196000E+02  0.84404217966E+01  0.29914173942E+02  0.00000000000E+00 0. -1.
</event>
<event>
 8    1  0.2497772E-006  0.9118800E+02  0.7816164E-02  0.1184000E+00
        -11   -1    0    0    0    0  0.00000000000E+00  0.00000000000E+00  0.45593999997E+02  0.45594000000E+02  0.51100000000E-03 0. -1.
         11   -1    0    0    0    0 -0.00000000000E+00 -0.00000000000E+00 -0.45593999997E+02  0.45594000000E+02  0.51100000000E-03 0.  1.
         23    2    1    2    0    0  0.00000000000E+00  0.00000000000E+00 -0.35527136788E-14  0.91188000000E+02  0.91188000000E+02 0.  0.
    9900012    2    3    3    0    0  0.29086914331E+02  0.12156102742E+02 -0.19025437159E+02  0.54366991346E+02  0.39999788371E+02 0.  0.
         12    1    3    3    0    0 -0.29086914331E+02 -0.12156102742E+02  0.19025437159E+02  0.36821008654E+02  0.00000000000E+00 0. -1.
         11    1    4    4    0    0  0.79887799884E+01  0.10485657394E+02  0.25572723576E+01  0.13427928316E+02  0.51100000000E-03 0. -1.
        -11    1    4    4    0    0  0.78114670620E+01 -0.61692686204E+01 -0.23376996948E+02  0.25407929462E+02  0.51100000000E-03 0.  1.
        -12    1    4    4    0    0  0.13286667281E+02  0.78397139689E+01  0.17942874308E+01  0.15531133569E+02  0.00000000000E+00 0.  1.
</event>
<event>
 8    1  0.2497772E-006  0.9118800E+02  0.7816164E-02  0.1184000E+00
        -11   -1    0    0    0    0  0.00000000000E+00  0.00000000000E+00  0.45593999997E+02  0.45594000000E+02  0.51100000000E-03 0.  1.
         11   -1    0    0    0    0 -0.00000000000E+00 -0.00000000000E+00 -0.45593999997E+02  0.45594000000E+02  0.51100000000E-03 0. -1.
         23    2    1    2    0    0 -0.17763568394E-14  0.00000000000E+00  0.00000000000E+00  0.91188000000E+02  0.91188000000E+02 0.  0.
    9900012    2    3    3    0    0 -0.77761484926E+01  0.27330184451E+02  0.23417349405E+02  0.54367085825E+02  0.40000003756E+02 0.  0.
         12    1    3    3    0    0  0.77761484926E+01 -0.27330184451E+02 -0.23417349405E+02  0.36820914175E+02  0.00000000000E+00 0. -1.
         11    1    4    4    0    0  0.14468535429E+02  0.54695048159E+01  0.14587571097E+02  0.21261496447E+02  0.51100000000E-03 0. -1.
        -11    1    4    4    0    0 -0.16718483401E+02  0.19903738805E+02  0.79168383665E+01  0.27172464658E+02  0.51100000000E-03 0.  1.
         12    1    4    4    0    0 -0.55262005206E+01  0.19569408305E+01  0.91293994074E+00  0.59331247201E+01  0.00000000000E+00 0. -1.
</event>
<event>
 8    1  0.2497772E-006  0.9118800E+02  0.7816164E-02  0.1184000E+00
        -11   -1    0    0    0    0  0.00000000000E+00  0.00000000000E+00  0.45593999997E+02  0.45594000000E+02  0.51100000000E-03 0.  1.
         11   -1    0    0    0    0 -0.00000000000E+00 -0.00000000000E+00 -0.45593999997E+02  0.45594000000E+02  0.51100000000E-03 0. -1.
         23    2    1    2    0    0  0.00000000000E+00 -0.77715611724E-15  0.00000000000E+00  0.91188000000E+02  0.91188000000E+02 0.  0.
    9900012    2    3    3    0    0 -0.17750934603E+02 -0.44700820999E+00 -0.32256513617E+02  0.54367106932E+02  0.40000051872E+02 0.  0.
        -12    1    3    3    0    0  0.17750934603E+02  0.44700820999E+00  0.32256513617E+02  0.36820893068E+02  0.00000000000E+00 0.  1.
         11    1    4    4    0    0 -0.16496161119E+01 -0.68374347120E+01 -0.20035112328E+02  0.21233875600E+02  0.51100000000E-03 0. -1.
        -11    1    4    4    0    0  0.13086669096E+01 -0.23401092932E+01  0.59311970586E+01  0.65090567207E+01  0.51100000000E-03 0.  1.
        -12    1    4    4    0    0 -0.17409985401E+02  0.87305357952E+01 -0.18152598348E+02  0.26624174611E+02  0.00000000000E+00 0.  1.
</event>
<event>
 8    1  0.2497772E-006  0.9118800E+02  0.7816164E-02  0.1184000E+00
        -11   -1    0    0    0    0  0.00000000000E+00  0.00000000000E+00  0.45593999997E+02  0.45594000000E+02  0.51100000000E-03 0. -1.
         11   -1    0    0    0    0 -0.00000000000E+00 -0.00000000000E+00 -0.45593999997E+02  0.45594000000E+02  0.51100000000E-03 0.  1.
         23    2    1    2    0    0  0.00000000000E+00  0.00000000000E+00  0.00000000000E+00  0.91188000000E+02  0.91188000000E+02 0.  0.
    9900012    2    3    3    0    0  0.16190423678E+02  0.32531900587E+02  0.59434515997E+01  0.54367095726E+02  0.40000026327E+02 0.  0.
         12    1    3    3    0    0 -0.16190423678E+02 -0.32531900587E+02 -0.59434515997E+01  0.36820904274E+02  0.00000000000E+00 0. -1.
         11    1    4    4    0    0  0.17571585271E+02  0.34329072862E+02  0.14289338338E+01  0.38591290529E+02  0.51100000000E-03 0. -1.
        -11    1    4    4    0    0 -0.61457949409E+01  0.16804817640E+01 -0.22899622396E+01  0.67704314290E+01  0.51100000000E-03 0.  1.
         12    1    4    4    0    0  0.47646333475E+01 -0.34776540398E+01  0.68044800056E+01  0.90053737681E+01  0.00000000000E+00 0. -1.
</event>
<event>
 8    1  0.2497772E-006  0.9118800E+02  0.7816164E-02  0.1184000E+00
        -11   -1    0    0    0    0  0.00000000000E+00  0.00000000000E+00  0.45593999997E+02  0.45594000000E+02  0.51100000000E-03 0.  1.
         11   -1    0    0    0    0 -0.00000000000E+00 -0.00000000000E+00 -0.45593999997E+02  0.45594000000E+02  0.51100000000E-03 0. -1.
         23    2    1    2    0    0  0.35527136788E-14 -0.22204460493E-15  0.35527136788E-14  0.91188000000E+02  0.91188000000E+02 0.  0.
    9900012    2    3    3    0    0 -0.27285370480E+02  0.16266538733E+01  0.24670668705E+02  0.54367091002E+02  0.40000015558E+02 0.  0.
         12    1    3    3    0    0  0.27285370480E+02 -0.16266538733E+01 -0.24670668705E+02  0.36820908998E+02  0.00000000000E+00 0. -1.
         11    1    4    4    0    0 -0.11058657336E+02 -0.39148496365E-01 -0.54633559674E+01  0.12334654165E+02  0.51100000000E-03 0. -1.
        -11    1    4    4    0    0 -0.21299490006E+02  0.34790111050E+01  0.29580991456E+02  0.36617029489E+02  0.51100000000E-03 0.  1.
         12    1    4    4    0    0  0.50727768623E+01 -0.18132087353E+01  0.55303321601E+00  0.54154073485E+01  0.00000000000E+00 0. -1.
</event>
<event>
 8    1  0.2497772E-006  0.9118800E+02  0.7816164E-02  0.1184000E+00
        -11   -1    0    0    0    0  0.00000000000E+00  0.00000000000E+00  0.45593999997E+02  0.45594000000E+02  0.51100000000E-03 0.  1.
         11   -1    0    0    0    0 -0.00000000000E+00 -0.00000000000E+00 -0.45593999997E+02  0.45594000000E+02  0.51100000000E-03 0. -1.
         23    2    1    2    0    0 -0.88817841970E-15  0.00000000000E+00  0.00000000000E+00  0.91188000000E+02  0.91188000000E+02 0.  0.
    9900012    2    3    3    0    0 -0.76650033617E+01 -0.22819598495E+02  0.27862042867E+02  0.54367084956E+02  0.40000001774E+02 0.  0.
         12    1    3    3    0    0  0.76650033617E+01  0.22819598495E+02 -0.27862042867E+02  0.36820915044E+02  0.00000000000E+00 0. -1.
         11    1    4    4    0    0 -0.14503437668E+02  0.13186747311E+01  0.58828202905E+01  0.15706564935E+02  0.51100000000E-03 0. -1.
        -11    1    4    4    0    0 -0.23821561603E+01 -0.19070327079E+02  0.20389824899E+02  0.28019582484E+02  0.51100000000E-03 0.  1.
         12    1    4    4    0    0  0.92205904662E+01 -0.50679461465E+01  0.15893976768E+01  0.10640937537E+02  0.00000000000E+00 0. -1.
</event>
<event>
 8    1  0.2497772E-006  0.9118800E+02  0.7816164E-02  0.1184000E+00
        -11   -1    0    0    0    0  0.00000000000E+00  0.00000000000E+00  0.45593999997E+02  0.45594000000E+02  0.51100000000E-03 0.  1.
         11   -1    0    0    0    0 -0.00000000000E+00 -0.00000000000E+00 -0.45593999997E+02  0.45594000000E+02  0.51100000000E-03 0. -1.
         23    2    1    2    0    0  0.35527136788E-14 -0.10658141036E-13  0.00000000000E+00  0.91188000000E+02  0.91188000000E+02 0.  0.
    9900012    2    3    3    0    0  0.25925685297E+02  0.25871080576E+02 -0.37836464161E+01  0.54367218524E+02  0.40000306269E+02 0.  0.
        -12    1    3    3    0    0 -0.25925685297E+02 -0.25871080576E+02  0.37836464161E+01  0.36820781476E+02  0.00000000000E+00 0.  1.
         11    1    4    4    0    0  0.58387250118E+01 -0.76593204302E+01 -0.84022140528E+00  0.96675680234E+01  0.51100000000E-03 0. -1.
        -11    1    4    4    0    0  0.19280520202E+02  0.32783651734E+02  0.34716724936E+01  0.38191082603E+02  0.51100000000E-03 0.  1.
         12    1    4    4    0    0  0.80644008300E+00  0.74674927234E+00 -0.64150975044E+01  0.65085678974E+01  0.00000000000E+00 0. -1.
</event>
<event>
 8    1  0.2497772E-006  0.9118800E+02  0.7816164E-02  0.1184000E+00
        -11   -1    0    0    0    0  0.00000000000E+00  0.00000000000E+00  0.45593999997E+02  0.45594000000E+02  0.51100000000E-03 0.  1.
         11   -1    0    0    0    0 -0.00000000000E+00 -0.00000000000E+00 -0.45593999997E+02  0.45594000000E+02  0.51100000000E-03 0. -1.
         23    2    1    2    0    0  0.71054273576E-14  0.77715611724E-15  0.00000000000E+00  0.91188000000E+02  0.91188000000E+02 0.  0.
    9900012    2    3    3    0    0  0.33714213847E+02 -0.71351229552E+00  0.14786182084E+02  0.54366966666E+02  0.39999732108E+02 0.  0.
        -12    1    3    3    0    0 -0.33714213847E+02  0.71351229552E+00 -0.14786182084E+02  0.36821033334E+02  0.00000000000E+00 0.  1.
         11    1    4    4    0    0  0.24048464875E+02 -0.12361769141E+02  0.71637710890E+01  0.27972515361E+02  0.51100000000E-03 0. -1.
        -11    1    4    4    0    0  0.28633035051E+01 -0.57979720755E+01  0.28735312939E+01  0.70761691267E+01  0.51100000000E-03 0.  1.
        -12    1    4    4    0    0  0.68024454676E+01  0.17446228921E+02  0.47488797009E+01  0.19318282179E+02  0.00000000000E+00 0.  1.
</event>
<event>
 8    1  0.2497772E-006  0.9118800E+02  0.7816164E-02  0.1184000E+00
        -11   -1    0    0    0    0  0.00000000000E+00  0.00000000000E+00  0.45593999997E+02  0.45594000000E+02  0.51100000000E-03 0. -1.
         11   -1    0    0    0    0 -0.00000000000E+00 -0.00000000000E+00 -0.45593999997E+02  0.45594000000E+02  0.51100000000E-03 0.  1.
         23    2    1    2    0    0  0.00000000000E+00  0.44408920985E-15  0.35527136788E-14  0.91188000000E+02  0.91188000000E+02 0.  0.
    9900012    2    3    3    0    0 -0.19725950518E+02  0.14882206328E+01 -0.31055625224E+02  0.54367084985E+02  0.40000001840E+02 0.  0.
         12    1    3    3    0    0  0.19725950518E+02 -0.14882206328E+01  0.31055625224E+02  0.36820915015E+02  0.00000000000E+00 0. -1.
         11    1    4    4    0    0  0.31993675948E+01  0.14529958133E+02 -0.12821504845E+02  0.19640433374E+02  0.51100000000E-03 0. -1.
        -11    1    4    4    0    0 -0.21094992453E+02 -0.95542372062E+01 -0.19819374444E+02  0.30480973718E+02  0.51100000000E-03 0.  1.
         12    1    4    4    0    0 -0.18303256599E+01 -0.34875002944E+01  0.15852540646E+01  0.42456778933E+01  0.00000000000E+00 0. -1.
</event>
<event>
 8    1  0.2497772E-006  0.9118800E+02  0.7816164E-02  0.1184000E+00
        -11   -1    0    0    0    0  0.00000000000E+00  0.00000000000E+00  0.45593999997E+02  0.45594000000E+02  0.51100000000E-03 0.  1.
         11   -1    0    0    0    0 -0.00000000000E+00 -0.00000000000E+00 -0.45593999997E+02  0.45594000000E+02  0.51100000000E-03 0. -1.
         23    2    1    2    0    0 -0.71054273576E-14  0.44408920985E-15 -0.88817841970E-15  0.91188000000E+02  0.91188000000E+02 0.  0.
    9900012    2    3    3    0    0 -0.36118328910E+02 -0.24681925859E+01 -0.67196166519E+01  0.54367096890E+02  0.40000028981E+02 0.  0.
        -12    1    3    3    0    0  0.36118328910E+02  0.24681925859E+01  0.67196166519E+01  0.36820903110E+02  0.00000000000E+00 0.  1.
         11    1    4    4    0    0 -0.24636052101E+02 -0.38302519149E+01 -0.61546388974E+01  0.25680449238E+02  0.51100000000E-03 0. -1.
        -11    1    4    4    0    0 -0.35846120759E+01  0.13599380612E+02  0.59133627808E+00  0.14076301915E+02  0.51100000000E-03 0.  1.
         12    1    4    4    0    0 -0.78976647328E+01 -0.12237321283E+02 -0.11563140326E+01  0.14610345737E+02  0.00000000000E+00 0. -1.
</event>
<event>
 8    1  0.2497772E-006  0.9118800E+02  0.7816164E-02  0.1184000E+00
        -11   -1    0    0    0    0  0.00000000000E+00  0.00000000000E+00  0.45593999997E+02  0.45594000000E+02  0.51100000000E-03 0.  1.
         11   -1    0    0    0    0 -0.00000000000E+00 -0.00000000000E+00 -0.45593999997E+02  0.45594000000E+02  0.51100000000E-03 0. -1.
         23    2    1    2    0    0  0.00000000000E+00  0.00000000000E+00  0.00000000000E+00  0.91188000000E+02  0.91188000000E+02 0.  0.
    9900012    2    3    3    0    0 -0.19079838413E+02 -0.19846136476E+02 -0.24451379517E+02  0.54367091169E+02  0.40000015938E+02 0.  0.
         12    1    3    3    0    0  0.19079838413E+02  0.19846136476E+02  0.24451379517E+02  0.36820908831E+02  0.00000000000E+00 0. -1.
         11    1    4    4    0    0 -0.62202070610E+01 -0.82699564044E+01 -0.52056478588E+01  0.11583692188E+02  0.51100000000E-03 0. -1.
        -11    1    4    4    0    0  0.27172172907E+01 -0.87972599017E+01  0.73874139210E+01  0.11804615042E+02  0.51100000000E-03 0.  1.
        -12    1    4    4    0    0 -0.15576848642E+02 -0.27789201695E+01 -0.26633145579E+02  0.30978783939E+02  0.00000000000E+00 0.  1.
</event>
<event>
 8    1  0.2497772E-006  0.9118800E+02  0.7816164E-02  0.1184000E+00
        -11   -1    0    0    0    0  0.00000000000E+00  0.00000000000E+00  0.45593999997E+02  0.45594000000E+02  0.51100000000E-03 0. -1.
         11   -1    0    0    0    0 -0.00000000000E+00 -0.00000000000E+00 -0.45593999997E+02  0.45594000000E+02  0.51100000000E-03 0.  1.
         23    2    1    2    0    0  0.00000000000E+00  0.88817841970E-15 -0.88817841970E-15  0.91188000000E+02  0.91188000000E+02 0.  0.
    9900012    2    3    3    0    0  0.35509266922E+02 -0.73607231288E+01  0.63788892754E+01  0.54367102256E+02  0.40000041213E+02 0.  0.
        -12    1    3    3    0    0 -0.35509266922E+02  0.73607231288E+01 -0.63788892754E+01  0.36820897744E+02  0.00000000000E+00 0.  1.
         11    1    4    4    0    0  0.12171996619E+02  0.24810021073E+01  0.16736723676E+02  0.20843003450E+02  0.51100000000E-03 0. -1.
        -11    1    4    4    0    0  0.23077893901E+02 -0.14422102984E+02 -0.96932402844E+01  0.28888495095E+02  0.51100000000E-03 0.  1.
        -12    1    4    4    0    0  0.25937640164E+00  0.45803777476E+01 -0.66459411595E+00  0.46356037112E+01  0.00000000000E+00 0.  1.
</event>
<event>
 8    1  0.2497772E-006  0.9118800E+02  0.7816164E-02  0.1184000E+00
        -11   -1    0    0    0    0  0.00000000000E+00  0.00000000000E+00  0.45593999997E+02  0.45594000000E+02  0.51100000000E-03 0. -1.
         11   -1    0    0    0    0 -0.00000000000E+00 -0.00000000000E+00 -0.45593999997E+02  0.45594000000E+02  0.51100000000E-03 0.  1.
         23    2    1    2    0    0  0.00000000000E+00 -0.17763568394E-14  0.00000000000E+00  0.91188000000E+02  0.91188000000E+02 0.  0.
    9900012    2    3    3    0    0 -0.33912548964E+02  0.11326285938E+02  0.88002725089E+01  0.54366939089E+02  0.39999669239E+02 0.  0.
        -12    1    3    3    0    0  0.33912548964E+02 -0.11326285938E+02 -0.88002725089E+01  0.36821060911E+02  0.00000000000E+00 0.  1.
         11    1    4    4    0    0 -0.92676928574E+01  0.56752658676E+01  0.92145127610E+01  0.14248018081E+02  0.51100000000E-03 0. -1.
        -11    1    4    4    0    0  0.20763770640E+01  0.15563931613E+01  0.10611193822E+02  0.10923879164E+02  0.51100000000E-03 0.  1.
         12    1    4    4    0    0 -0.26721233171E+02  0.40946269089E+01 -0.11025434075E+02  0.29195041843E+02  0.00000000000E+00 0. -1.
</event>
<event>
 8    1  0.2497772E-006  0.9118800E+02  0.7816164E-02  0.1184000E+00
        -11   -1    0    0    0    0  0.00000000000E+00  0.00000000000E+00  0.45593999997E+02  0.45594000000E+02  0.51100000000E-03 0.  1.
         11   -1    0    0    0    0 -0.00000000000E+00 -0.00000000000E+00 -0.45593999997E+02  0.45594000000E+02  0.51100000000E-03 0. -1.
         23    2    1    2    0    0 -0.17763568394E-14  0.00000000000E+00  0.00000000000E+00  0.91188000000E+02  0.91188000000E+02 0.  0.
    9900012    2    3    3    0    0  0.10185926907E+02 -0.98024908161E+01 -0.33999102531E+02  0.54367069729E+02  0.39999967060E+02 0.  0.
        -12    1    3    3    0    0 -0.10185926907E+02  0.98024908161E+01  0.33999102531E+02  0.36820930271E+02  0.00000000000E+00 0.  1.
         11    1    4    4    0    0 -0.14035877773E+01 -0.35938546442E+01  0.29441839693E+01  0.48532534818E+01  0.51100000000E-03 0.  1.
        -11    1    4    4    0    0 -0.51448668408E+01 -0.13698141325E+02 -0.16527941195E+02  0.22074455168E+02  0.51100000000E-03 0. -1.
         12    1    4    4    0    0  0.16734381525E+02  0.74895051532E+01 -0.20415345305E+02  0.27439361078E+02  0.00000000000E+00 0. -1.
</event>
<event>
 8    1  0.2497772E-006  0.9118800E+02  0.7816164E-02  0.1184000E+00
        -11   -1    0    0    0    0  0.00000000000E+00  0.00000000000E+00  0.45593999997E+02  0.45594000000E+02  0.51100000000E-03 0.  1.
         11   -1    0    0    0    0 -0.00000000000E+00 -0.00000000000E+00 -0.45593999997E+02  0.45594000000E+02  0.51100000000E-03 0. -1.
         23    2    1    2    0    0 -0.35527136788E-14  0.00000000000E+00  0.00000000000E+00  0.91188000000E+02  0.91188000000E+02 0.  0.
    9900012    2    3    3    0    0  0.30456196419E+02  0.17541065081E+02 -0.10977732810E+02  0.54367089064E+02  0.40000011139E+02 0.  0.
        -12    1    3    3    0    0 -0.30456196419E+02 -0.17541065081E+02  0.10977732810E+02  0.36820910936E+02  0.00000000000E+00 0.  1.
         11    1    4    4    0    0  0.20875305124E+02  0.41177422137E+01 -0.11445754428E+02  0.24160700727E+02  0.51100000000E-03 0. -1.
        -11    1    4    4    0    0 -0.38341219267E+00  0.73176070878E+01 -0.11399120133E+02  0.13551174062E+02  0.51100000000E-03 0.  1.
        -12    1    4    4    0    0  0.99643034882E+01  0.61057157794E+01  0.11867141751E+02  0.16655214274E+02  0.00000000000E+00 0.  1.
</event>
<event>
 8    1  0.2497772E-006  0.9118800E+02  0.7816164E-02  0.1184000E+00
        -11   -1    0    0    0    0  0.00000000000E+00  0.00000000000E+00  0.45593999997E+02  0.45594000000E+02  0.51100000000E-03 0.  1.
         11   -1    0    0    0    0 -0.00000000000E+00 -0.00000000000E+00 -0.45593999997E+02  0.45594000000E+02  0.51100000000E-03 0. -1.
         23    2    1    2    0    0  0.00000000000E+00  0.00000000000E+00  0.00000000000E+00  0.91188000000E+02  0.91188000000E+02 0.  0.
    9900012    2    3    3    0    0 -0.50783809473E+01 -0.35512084170E+02  0.82983662959E+01  0.54367340604E+02  0.40000584571E+02 0.  0.
         12    1    3    3    0    0  0.50783809473E+01  0.35512084170E+02 -0.82983662959E+01  0.36820659396E+02  0.00000000000E+00 0. -1.
         11    1    4    4    0    0  0.49384576459E+01  0.61922284540E+01 -0.27480814150E+01  0.83835558608E+01  0.51100000000E-03 0.  1.
        -11    1    4    4    0    0 -0.39013006807E+01 -0.46126927120E+01  0.51363684467E+01  0.79296508206E+01  0.51100000000E-03 0. -1.
        -12    1    4    4    0    0 -0.61155379126E+01 -0.37091619912E+02  0.59100792642E+01  0.38054133923E+02  0.00000000000E+00 0.  1.
</event>
<event>
 8    1  0.2497772E-006  0.9118800E+02  0.7816164E-02  0.1184000E+00
        -11   -1    0    0    0    0  0.00000000000E+00  0.00000000000E+00  0.45593999997E+02  0.45594000000E+02  0.51100000000E-03 0. -1.
         11   -1    0    0    0    0 -0.00000000000E+00 -0.00000000000E+00 -0.45593999997E+02  0.45594000000E+02  0.51100000000E-03 0.  1.
         23    2    1    2    0    0  0.00000000000E+00  0.71054273576E-14  0.22204460493E-15  0.91188000000E+02  0.91188000000E+02 0.  0.
    9900012    2    3    3    0    0  0.28068231493E+02 -0.23792127912E+02 -0.13740055883E+01  0.54367097497E+02  0.40000030365E+02 0.  0.
         12    1    3    3    0    0 -0.28068231493E+02  0.23792127912E+02  0.13740055883E+01  0.36820902503E+02  0.00000000000E+00 0. -1.
         11    1    4    4    0    0 -0.22299793217E+01  0.70879547600E+01  0.41918896671E+00  0.74422866181E+01  0.51100000000E-03 0. -1.
        -11    1    4    4    0    0  0.77181665349E+01  0.96016290769E+00  0.71352332021E+00  0.78103215849E+01  0.51100000000E-03 0.  1.
        -12    1    4    4    0    0  0.22580044280E+02 -0.31840245580E+02 -0.25067178752E+01  0.39114489295E+02  0.00000000000E+00 0.  1.
</event>
<event>
 8    1  0.2497772E-006  0.9118800E+02  0.7816164E-02  0.1184000E+00
        -11   -1    0    0    0    0  0.00000000000E+00  0.00000000000E+00  0.45593999997E+02  0.45594000000E+02  0.51100000000E-03 0.  1.
         11   -1    0    0    0    0 -0.00000000000E+00 -0.00000000000E+00 -0.45593999997E+02  0.45594000000E+02  0.51100000000E-03 0. -1.
         23    2    1    2    0    0  0.17763568394E-14 -0.71054273576E-14  0.00000000000E+00  0.91188000000E+02  0.91188000000E+02 0.  0.
    9900012    2    3    3    0    0  0.13187473335E+02  0.33264194466E+02  0.86812756040E+01  0.54367073442E+02  0.39999975527E+02 0.  0.
         12    1    3    3    0    0 -0.13187473335E+02 -0.33264194466E+02 -0.86812756040E+01  0.36820926558E+02  0.00000000000E+00 0. -1.
         11    1    4    4    0    0  0.18260340281E+02  0.60394723048E+01  0.30744937498E+01  0.19477365453E+02  0.51100000000E-03 0. -1.
        -11    1    4    4    0    0  0.42206897627E+00  0.28327312930E+02  0.23982379261E+01  0.28431784071E+02  0.51100000000E-03 0.  1.
         12    1    4    4    0    0 -0.54949359228E+01 -0.11025907686E+01  0.32085439280E+01  0.64579239185E+01  0.00000000000E+00 0. -1.
</event>
<event>
 8    1  0.2497772E-006  0.9118800E+02  0.7816164E-02  0.1184000E+00
        -11   -1    0    0    0    0  0.00000000000E+00  0.00000000000E+00  0.45593999997E+02  0.45594000000E+02  0.51100000000E-03 0. -1.
         11   -1    0    0    0    0 -0.00000000000E+00 -0.00000000000E+00 -0.45593999997E+02  0.45594000000E+02  0.51100000000E-03 0.  1.
         23    2    1    2    0    0  0.44408920985E-15  0.00000000000E+00 -0.88817841970E-15  0.91188000000E+02  0.91188000000E+02 0.  0.
    9900012    2    3    3    0    0  0.22415256522E+01 -0.36252009214E+02 -0.60454764572E+01  0.54367076669E+02  0.39999982883E+02 0.  0.
         12    1    3    3    0    0 -0.22415256522E+01  0.36252009214E+02  0.60454764572E+01  0.36820923331E+02  0.00000000000E+00 0. -1.
         11    1    4    4    0    0  0.11434166745E+02 -0.64154491507E+01  0.49773309986E+01  0.14023978790E+02  0.51100000000E-03 0.  1.
        -11    1    4    4    0    0  0.15139898487E+01 -0.91508338422E+01  0.63884858074E+01  0.11262445402E+02  0.51100000000E-03 0. -1.
         12    1    4    4    0    0 -0.10706630942E+02 -0.20685726221E+02 -0.17411293263E+02  0.29080652478E+02  0.00000000000E+00 0. -1.
</event>
<event>
 8    1  0.2497772E-006  0.9118800E+02  0.7816164E-02  0.1184000E+00
        -11   -1    0    0    0    0  0.00000000000E+00  0.00000000000E+00  0.45593999997E+02  0.45594000000E+02  0.51100000000E-03 0. -1.
         11   -1    0    0    0    0 -0.00000000000E+00 -0.00000000000E+00 -0.45593999997E+02  0.45594000000E+02  0.51100000000E-03 0.  1.
         23    2    1    2    0    0  0.00000000000E+00  0.00000000000E+00 -0.35527136788E-14  0.91188000000E+02  0.91188000000E+02 0.  0.
    9900012    2    3    3    0    0  0.25400423081E+02 -0.17510235153E+02  0.20099511987E+02  0.54367079182E+02  0.39999988610E+02 0.  0.
        -12    1    3    3    0    0 -0.25400423081E+02  0.17510235153E+02 -0.20099511987E+02  0.36820920818E+02  0.00000000000E+00 0.  1.
         11    1    4    4    0    0  0.21413642206E+02 -0.89768016279E+01  0.12880283150E+02  0.26552377187E+02  0.51100000000E-03 0. -1.
        -11    1    4    4    0    0  0.74487286250E+01  0.69487647310E+01 -0.44381551772E+00  0.10196365131E+02  0.51100000000E-03 0.  1.
        -12    1    4    4    0    0 -0.34619477495E+01 -0.15482198256E+02  0.76630443546E+01  0.17618336863E+02  0.00000000000E+00 0.  1.
</event>
<event>
 8    1  0.2497772E-006  0.9118800E+02  0.7816164E-02  0.1184000E+00
        -11   -1    0    0    0    0  0.00000000000E+00  0.00000000000E+00  0.45593999997E+02  0.45594000000E+02  0.51100000000E-03 0.  1.
         11   -1    0    0    0    0 -0.00000000000E+00 -0.00000000000E+00 -0.45593999997E+02  0.45594000000E+02  0.51100000000E-03 0. -1.
         23    2    1    2    0    0  0.00000000000E+00  0.00000000000E+00 -0.17763568394E-14  0.91188000000E+02  0.91188000000E+02 0.  0.
    9900012    2    3    3    0    0 -0.32825324791E+02 -0.13231272169E+02  0.10159280129E+02  0.54367089044E+02  0.40000011095E+02 0.  0.
        -12    1    3    3    0    0  0.32825324791E+02  0.13231272169E+02 -0.10159280129E+02  0.36820910956E+02  0.00000000000E+00 0.  1.
         11    1    4    4    0    0 -0.28585755227E+02 -0.50867528770E+00 -0.59289014415E+01  0.29198562037E+02  0.51100000000E-03 0. -1.
        -11    1    4    4    0    0 -0.47878098364E+01 -0.15506752498E+02  0.15089707218E+02  0.22160364624E+02  0.51100000000E-03 0.  1.
        -12    1    4    4    0    0  0.54824027227E+00  0.27841556169E+01  0.99847435173E+00  0.30081623836E+01  0.00000000000E+00 0.  1.
</event>
<event>
 8    1  0.2497772E-006  0.9118800E+02  0.7816164E-02  0.1184000E+00
        -11   -1    0    0    0    0  0.00000000000E+00  0.00000000000E+00  0.45593999997E+02  0.45594000000E+02  0.51100000000E-03 0. -1.
         11   -1    0    0    0    0 -0.00000000000E+00 -0.00000000000E+00 -0.45593999997E+02  0.45594000000E+02  0.51100000000E-03 0.  1.
         23    2    1    2    0    0  0.00000000000E+00  0.00000000000E+00  0.00000000000E+00  0.91188000000E+02  0.91188000000E+02 0.  0.
    9900012    2    3    3    0    0 -0.30216316972E+02 -0.13942286101E+02  0.15759711133E+02  0.54367059653E+02  0.39999944090E+02 0.  0.
        -12    1    3    3    0    0  0.30216316972E+02  0.13942286101E+02 -0.15759711133E+02  0.36820940347E+02  0.00000000000E+00 0.  1.
         11    1    4    4    0    0 -0.18099115337E+02 -0.20709261573E+02  0.12472067912E+02  0.30199403457E+02  0.51100000000E-03 0. -1.
        -11    1    4    4    0    0 -0.28716683309E+01 -0.35395584001E+01 -0.59707576026E+01  0.75116509025E+01  0.51100000000E-03 0.  1.
        -12    1    4    4    0    0 -0.92455333038E+01  0.10306533872E+02  0.92584008231E+01  0.16656005293E+02  0.00000000000E+00 0.  1.
</event>
<event>
 8    1  0.2497772E-006  0.9118800E+02  0.7816164E-02  0.1184000E+00
        -11   -1    0    0    0    0  0.00000000000E+00  0.00000000000E+00  0.45593999997E+02  0.45594000000E+02  0.51100000000E-03 0. -1.
         11   -1    0    0    0    0 -0.00000000000E+00 -0.00000000000E+00 -0.45593999997E+02  0.45594000000E+02  0.51100000000E-03 0.  1.
         23    2    1    2    0    0  0.35527136788E-14 -0.44408920985E-15  0.35527136788E-14  0.91188000000E+02  0.91188000000E+02 0.  0.
    9900012    2    3    3    0    0  0.29348787237E+02 -0.68828821245E+00  0.22225108652E+02  0.54367075140E+02  0.39999979397E+02 0.  0.
        -12    1    3    3    0    0 -0.29348787237E+02  0.68828821245E+00 -0.22225108652E+02  0.36820924860E+02  0.00000000000E+00 0.  1.
         11    1    4    4    0    0  0.10744061473E+02 -0.41298996590E+01  0.21891730449E+02  0.24733353804E+02  0.51100000000E-03 0. -1.
        -11    1    4    4    0    0  0.13838016331E+02 -0.85944832186E+01 -0.22150250434E+01  0.16439652489E+02  0.51100000000E-03 0.  1.
        -12    1    4    4    0    0  0.47667094341E+01  0.12036094665E+02  0.25484032467E+01  0.13194068846E+02  0.00000000000E+00 0.  1.
</event>
<event>
 8    1  0.2497772E-006  0.9118800E+02  0.7816164E-02  0.1184000E+00
        -11   -1    0    0    0    0  0.00000000000E+00  0.00000000000E+00  0.45593999997E+02  0.45594000000E+02  0.51100000000E-03 0. -1.
         11   -1    0    0    0    0 -0.00000000000E+00 -0.00000000000E+00 -0.45593999997E+02  0.45594000000E+02  0.51100000000E-03 0.  1.
         23    2    1    2    0    0  0.35527136788E-14  0.00000000000E+00 -0.71054273576E-14  0.91188000000E+02  0.91188000000E+02 0.  0.
    9900012    2    3    3    0    0 -0.16458667375E+02  0.29851771560E+01 -0.32802153292E+02  0.54367078298E+02  0.39999986596E+02 0.  0.
         12    1    3    3    0    0  0.16458667375E+02 -0.29851771560E+01  0.32802153292E+02  0.36820921702E+02  0.00000000000E+00 0. -1.
         11    1    4    4    0    0  0.87236206043E+01 -0.57727967077E+01  0.18550110856E+00  0.10462368240E+02  0.51100000000E-03 0. -1.
        -11    1    4    4    0    0 -0.17162889928E+01  0.20126501917E+01 -0.10092014598E+02  0.10432888747E+02  0.51100000000E-03 0.  1.
         12    1    4    4    0    0 -0.23465998987E+02  0.67453236720E+01 -0.22895639802E+02  0.33471821311E+02  0.00000000000E+00 0. -1.
</event>
<event>
 8    1  0.2497772E-006  0.9118800E+02  0.7816164E-02  0.1184000E+00
        -11   -1    0    0    0    0  0.00000000000E+00  0.00000000000E+00  0.45593999997E+02  0.45594000000E+02  0.51100000000E-03 0.  1.
         11   -1    0    0    0    0 -0.00000000000E+00 -0.00000000000E+00 -0.45593999997E+02  0.45594000000E+02  0.51100000000E-03 0. -1.
         23    2    1    2    0    0  0.35527136788E-14  0.35527136788E-14  0.00000000000E+00  0.91188000000E+02  0.91188000000E+02 0.  0.
    9900012    2    3    3    0    0 -0.19895007387E+02 -0.23639572284E+02 -0.20028412913E+02  0.54367108911E+02  0.40000056385E+02 0.  0.
        -12    1    3    3    0    0  0.19895007387E+02  0.23639572284E+02  0.20028412913E+02  0.36820891089E+02  0.00000000000E+00 0.  1.
         11    1    4    4    0    0 -0.11190484902E+01 -0.74291732394E+01 -0.16337516949E+01  0.76885648470E+01  0.51100000000E-03 0. -1.
        -11    1    4    4    0    0 -0.84227725511E+01 -0.25762435493E+02 -0.18093778993E+02  0.32588817384E+02  0.51100000000E-03 0.  1.
         12    1    4    4    0    0 -0.10353186346E+02  0.95520364480E+01 -0.30088222546E+00  0.14089726680E+02  0.00000000000E+00 0. -1.
</event>
<event>
 8    1  0.2497772E-006  0.9118800E+02  0.7816164E-02  0.1184000E+00
        -11   -1    0    0    0    0  0.00000000000E+00  0.00000000000E+00  0.45593999997E+02  0.45594000000E+02  0.51100000000E-03 0.  1.
         11   -1    0    0    0    0 -0.00000000000E+00 -0.00000000000E+00 -0.45593999997E+02  0.45594000000E+02  0.51100000000E-03 0. -1.
         23    2    1    2    0    0  0.66613381478E-15  0.00000000000E+00 -0.35527136788E-14  0.91188000000E+02  0.91188000000E+02 0.  0.
    9900012    2    3    3    0    0 -0.18732784793E+01 -0.18886639383E+02  0.31552608481E+02  0.54367062730E+02  0.39999951106E+02 0.  0.
         12    1    3    3    0    0  0.18732784793E+01  0.18886639383E+02 -0.31552608481E+02  0.36820937270E+02  0.00000000000E+00 0. -1.
         11    1    4    4    0    0 -0.91147645573E+01  0.14365001697E+01  0.83882107916E+01  0.12470146199E+02  0.51100000000E-03 0. -1.
        -11    1    4    4    0    0  0.16156423940E+02 -0.62714148845E+01  0.69805943402E+01  0.18683933654E+02  0.51100000000E-03 0.  1.
        -12    1    4    4    0    0 -0.89149378617E+01 -0.14051724669E+02  0.16183803349E+02  0.23212982878E+02  0.00000000000E+00 0.  1.
</event>
<event>
 8    1  0.2497772E-006  0.9118800E+02  0.7816164E-02  0.1184000E+00
        -11   -1    0    0    0    0  0.00000000000E+00  0.00000000000E+00  0.45593999997E+02  0.45594000000E+02  0.51100000000E-03 0. -1.
         11   -1    0    0    0    0 -0.00000000000E+00 -0.00000000000E+00 -0.45593999997E+02  0.45594000000E+02  0.51100000000E-03 0.  1.
         23    2    1    2    0    0  0.44408920985E-15 -0.44408920985E-15  0.00000000000E+00  0.91188000000E+02  0.91188000000E+02 0.  0.
    9900012    2    3    3    0    0 -0.32717087709E+01 -0.16612300431E+01  0.36637632096E+02  0.54367084081E+02  0.39999999778E+02 0.  0.
        -12    1    3    3    0    0  0.32717087709E+01  0.16612300431E+01 -0.36637632096E+02  0.36820915919E+02  0.00000000000E+00 0.  1.
         11    1    4    4    0    0 -0.13825178740E+02 -0.26211133815E+01  0.22343059895E+02  0.26404888341E+02  0.51100000000E-03 0. -1.
        -11    1    4    4    0    0  0.15473565729E+02  0.52481977465E+01  0.59964868430E+01  0.17404961094E+02  0.51100000000E-03 0.  1.
        -12    1    4    4    0    0 -0.49200957605E+01 -0.42883144080E+01  0.82980853579E+01  0.10557234646E+02  0.00000000000E+00 0.  1.
</event>
<event>
 8    1  0.2497772E-006  0.9118800E+02  0.7816164E-02  0.1184000E+00
        -11   -1    0    0    0    0  0.00000000000E+00  0.00000000000E+00  0.45593999997E+02  0.45594000000E+02  0.51100000000E-03 0. -1.
         11   -1    0    0    0    0 -0.00000000000E+00 -0.00000000000E+00 -0.45593999997E+02  0.45594000000E+02  0.51100000000E-03 0.  1.
         23    2    1    2    0    0 -0.35527136788E-14  0.00000000000E+00  0.00000000000E+00  0.91188000000E+02  0.91188000000E+02 0.  0.
    9900012    2    3    3    0    0  0.28268636249E+02 -0.19345444889E+02  0.13506187615E+02  0.54367093748E+02  0.40000021818E+02 0.  0.
        -12    1    3    3    0    0 -0.28268636249E+02  0.19345444889E+02 -0.13506187615E+02  0.36820906252E+02  0.00000000000E+00 0.  1.
         11    1    4    4    0    0  0.60769228923E+01 -0.78230550255E+01  0.19787336314E+02  0.22128440082E+02  0.51100000000E-03 0. -1.
        -11    1    4    4    0    0 -0.29633708978E+00 -0.62969589368E+01 -0.66303669416E+01  0.91488400119E+01  0.51100000000E-03 0.  1.
        -12    1    4    4    0    0  0.22488050446E+02 -0.52254309268E+01  0.34921824209E+00  0.23089813655E+02  0.00000000000E+00 0.  1.
</event>
<event>
 8    1  0.2497772E-006  0.9118800E+02  0.7816164E-02  0.1184000E+00
        -11   -1    0    0    0    0  0.00000000000E+00  0.00000000000E+00  0.45593999997E+02  0.45594000000E+02  0.51100000000E-03 0.  1.
         11   -1    0    0    0    0 -0.00000000000E+00 -0.00000000000E+00 -0.45593999997E+02  0.45594000000E+02  0.51100000000E-03 0. -1.
         23    2    1    2    0    0  0.00000000000E+00  0.00000000000E+00  0.00000000000E+00  0.91188000000E+02  0.91188000000E+02 0.  0.
    9900012    2    3    3    0    0 -0.16918025097E+02 -0.32198833324E+02  0.57266160528E+01  0.54367101423E+02  0.40000039314E+02 0.  0.
         12    1    3    3    0    0  0.16918025097E+02  0.32198833324E+02 -0.57266160528E+01  0.36820898577E+02  0.00000000000E+00 0. -1.
         11    1    4    4    0    0 -0.83377056933E+01  0.15609404049E+01  0.83665763597E+01  0.11914422832E+02  0.51100000000E-03 0. -1.
        -11    1    4    4    0    0  0.19923257548E+01 -0.28988685335E+02  0.36037243594E+01  0.29279686967E+02  0.51100000000E-03 0.  1.
         12    1    4    4    0    0 -0.10572645158E+02 -0.47710883942E+01 -0.62436846664E+01  0.13172991624E+02  0.00000000000E+00 0. -1.
</event>
<event>
 8    1  0.2497772E-006  0.9118800E+02  0.7816164E-02  0.1184000E+00
        -11   -1    0    0    0    0  0.00000000000E+00  0.00000000000E+00  0.45593999997E+02  0.45594000000E+02  0.51100000000E-03 0. -1.
         11   -1    0    0    0    0 -0.00000000000E+00 -0.00000000000E+00 -0.45593999997E+02  0.45594000000E+02  0.51100000000E-03 0.  1.
         23    2    1    2    0    0  0.76327832943E-16  0.35527136788E-14  0.00000000000E+00  0.91188000000E+02  0.91188000000E+02 0.  0.
    9900012    2    3    3    0    0  0.22282194450E-01 -0.18207971693E+02  0.32003887458E+02  0.54367088250E+02  0.40000009285E+02 0.  0.
        -12    1    3    3    0    0 -0.22282194450E-01  0.18207971693E+02 -0.32003887458E+02  0.36820911750E+02  0.00000000000E+00 0.  1.
         11    1    4    4    0    0  0.59233941900E+01 -0.11568016123E+02  0.25342267692E+01  0.13241144261E+02  0.51100000000E-03 0.  1.
        -11    1    4    4    0    0 -0.13931374586E+01  0.13350855871E+01  0.31650270395E+02  0.31709035019E+02  0.51100000000E-03 0. -1.
         12    1    4    4    0    0 -0.45079745370E+01 -0.79750411569E+01 -0.21806097060E+01  0.94169089712E+01  0.00000000000E+00 0. -1.
</event>
<event>
 8    1  0.2497772E-006  0.9118800E+02  0.7816164E-02  0.1184000E+00
        -11   -1    0    0    0    0  0.00000000000E+00  0.00000000000E+00  0.45593999997E+02  0.45594000000E+02  0.51100000000E-03 0. -1.
         11   -1    0    0    0    0 -0.00000000000E+00 -0.00000000000E+00 -0.45593999997E+02  0.45594000000E+02  0.51100000000E-03 0.  1.
         23    2    1    2    0    0  0.00000000000E+00  0.00000000000E+00  0.00000000000E+00  0.91188000000E+02  0.91188000000E+02 0.  0.
    9900012    2    3    3    0    0  0.26605567766E+02 -0.16841073178E+02 -0.19086734019E+02  0.54367063056E+02  0.39999951849E+02 0.  0.
         12    1    3    3    0    0 -0.26605567766E+02  0.16841073178E+02  0.19086734019E+02  0.36820936944E+02  0.00000000000E+00 0. -1.
         11    1    4    4    0    0 -0.18072024363E+01 -0.15619158372E+01  0.71739858573E+01  0.75611927016E+01  0.51100000000E-03 0. -1.
        -11    1    4    4    0    0  0.12766247813E+02 -0.74820019432E+01 -0.25285512337E+02  0.29297006174E+02  0.51100000000E-03 0.  1.
         12    1    4    4    0    0  0.15646522389E+02 -0.77971553976E+01 -0.97520753847E+00  0.17508864181E+02  0.00000000000E+00 0. -1.
</event>
<event>
 8    1  0.2497772E-006  0.9118800E+02  0.7816164E-02  0.1184000E+00
        -11   -1    0    0    0    0  0.00000000000E+00  0.00000000000E+00  0.45593999997E+02  0.45594000000E+02  0.51100000000E-03 0. -1.
         11   -1    0    0    0    0 -0.00000000000E+00 -0.00000000000E+00 -0.45593999997E+02  0.45594000000E+02  0.51100000000E-03 0.  1.
         23    2    1    2    0    0  0.00000000000E+00 -0.20816681712E-15  0.00000000000E+00  0.91188000000E+02  0.91188000000E+02 0.  0.
    9900012    2    3    3    0    0  0.32781573451E+02  0.90701494901E-01  0.16767236027E+02  0.54367082186E+02  0.39999995459E+02 0.  0.
        -12    1    3    3    0    0 -0.32781573451E+02 -0.90701494901E-01 -0.16767236027E+02  0.36820917814E+02  0.00000000000E+00 0.  1.
         11    1    4    4    0    0  0.20741106533E+02  0.61261275868E+01 -0.32152978291E+00  0.21629293125E+02  0.51100000000E-03 0. -1.
        -11    1    4    4    0    0 -0.24736684333E+01 -0.12402307117E+01 -0.50947971804E+01  0.57977725298E+01  0.51100000000E-03 0.  1.
         12    1    4    4    0    0  0.14514135351E+02 -0.47951953802E+01  0.22183562991E+02  0.26940016531E+02  0.00000000000E+00 0. -1.
</event>
<event>
 8    1  0.2497772E-006  0.9118800E+02  0.7816164E-02  0.1184000E+00
        -11   -1    0    0    0    0  0.00000000000E+00  0.00000000000E+00  0.45593999997E+02  0.45594000000E+02  0.51100000000E-03 0.  1.
         11   -1    0    0    0    0 -0.00000000000E+00 -0.00000000000E+00 -0.45593999997E+02  0.45594000000E+02  0.51100000000E-03 0. -1.
         23    2    1    2    0    0  0.00000000000E+00 -0.35527136788E-14 -0.88817841970E-15  0.91188000000E+02  0.91188000000E+02 0.  0.
    9900012    2    3    3    0    0  0.26145939139E+02  0.24727098389E+02 -0.77935491621E+01  0.54367096470E+02  0.40000028023E+02 0.  0.
        -12    1    3    3    0    0 -0.26145939139E+02 -0.24727098389E+02  0.77935491621E+01  0.36820903530E+02  0.00000000000E+00 0.  1.
         11    1    4    4    0    0  0.41899438037E+01  0.74720320534E+01 -0.96581678211E+01  0.12909961193E+02  0.51100000000E-03 0. -1.
        -11    1    4    4    0    0  0.25062851669E+02  0.13817171405E+01 -0.52874980395E+00  0.25106478301E+02  0.51100000000E-03 0.  1.
        -12    1    4    4    0    0 -0.31068563341E+01  0.15873349195E+02  0.23933684630E+01  0.16350656976E+02  0.00000000000E+00 0.  1.
</event>
<event>
 8    1  0.2497772E-006  0.9118800E+02  0.7816164E-02  0.1184000E+00
        -11   -1    0    0    0    0  0.00000000000E+00  0.00000000000E+00  0.45593999997E+02  0.45594000000E+02  0.51100000000E-03 0. -1.
         11   -1    0    0    0    0 -0.00000000000E+00 -0.00000000000E+00 -0.45593999997E+02  0.45594000000E+02  0.51100000000E-03 0.  1.
         23    2    1    2    0    0  0.17763568394E-14  0.17763568394E-14  0.00000000000E+00  0.91188000000E+02  0.91188000000E+02 0.  0.
    9900012    2    3    3    0    0 -0.61571201421E+01 -0.11038587306E+02 -0.34583503882E+02  0.54367091824E+02  0.40000017431E+02 0.  0.
         12    1    3    3    0    0  0.61571201421E+01  0.11038587306E+02  0.34583503882E+02  0.36820908176E+02  0.00000000000E+00 0. -1.
         11    1    4    4    0    0  0.11521061509E+02 -0.28647418131E+01 -0.20508227110E+02  0.23696602782E+02  0.51100000000E-03 0. -1.
        -11    1    4    4    0    0 -0.83566953116E+00 -0.19106028950E+01 -0.12454823124E+02  0.12628197270E+02  0.51100000000E-03 0.  1.
         12    1    4    4    0    0 -0.16842512120E+02 -0.62632425980E+01 -0.16204536484E+01  0.18042291772E+02  0.00000000000E+00 0. -1.
</event>
<event>
 8    1  0.2497772E-006  0.9118800E+02  0.7816164E-02  0.1184000E+00
        -11   -1    0    0    0    0  0.00000000000E+00  0.00000000000E+00  0.45593999997E+02  0.45594000000E+02  0.51100000000E-03 0.  1.
         11   -1    0    0    0    0 -0.00000000000E+00 -0.00000000000E+00 -0.45593999997E+02  0.45594000000E+02  0.51100000000E-03 0. -1.
         23    2    1    2    0    0  0.00000000000E+00 -0.88817841970E-15  0.00000000000E+00  0.91188000000E+02  0.91188000000E+02 0.  0.
    9900012    2    3    3    0    0 -0.34847923196E+02 -0.50642812180E+01 -0.10758967261E+02  0.54367081056E+02  0.39999992884E+02 0.  0.
         12    1    3    3    0    0  0.34847923196E+02  0.50642812180E+01  0.10758967261E+02  0.36820918944E+02  0.00000000000E+00 0. -1.
         11    1    4    4    0    0 -0.88678783977E+01 -0.10039294381E+02 -0.89688741570E+01  0.16120403309E+02  0.51100000000E-03 0. -1.
        -11    1    4    4    0    0 -0.31703385841E+02  0.63087825188E+01 -0.13397047466E+01  0.32352746711E+02  0.51100000000E-03 0.  1.
        -12    1    4    4    0    0  0.57233410429E+01 -0.13337693563E+01 -0.45038835767E+00  0.58939310364E+01  0.00000000000E+00 0.  1.
</event>
<event>
 8    1  0.2497772E-006  0.9118800E+02  0.7816164E-02  0.1184000E+00
        -11   -1    0    0    0    0  0.00000000000E+00  0.00000000000E+00  0.45593999997E+02  0.45594000000E+02  0.51100000000E-03 0. -1.
         11   -1    0    0    0    0 -0.00000000000E+00 -0.00000000000E+00 -0.45593999997E+02  0.45594000000E+02  0.51100000000E-03 0.  1.
         23    2    1    2    0    0  0.35527136788E-14  0.00000000000E+00  0.00000000000E+00  0.91188000000E+02  0.91188000000E+02 0.  0.
    9900012    2    3    3    0    0 -0.10564621454E+02 -0.12214881576E+02  0.33090281614E+02  0.54367064438E+02  0.39999954999E+02 0.  0.
        -12    1    3    3    0    0  0.10564621454E+02  0.12214881576E+02 -0.33090281614E+02  0.36820935562E+02  0.00000000000E+00 0.  1.
         11    1    4    4    0    0 -0.19343041195E+02 -0.10952652735E+02  0.31529665412E+02  0.38577631419E+02  0.51100000000E-03 0. -1.
        -11    1    4    4    0    0  0.11930977994E+02 -0.90630278538E+00  0.29536066069E+01  0.12324504569E+02  0.51100000000E-03 0.  1.
         12    1    4    4    0    0 -0.31525582523E+01 -0.35592605634E+00 -0.13929904055E+01  0.34649284497E+01  0.00000000000E+00 0. -1.
</event>
<event>
 8    1  0.2497772E-006  0.9118800E+02  0.7816164E-02  0.1184000E+00
        -11   -1    0    0    0    0  0.00000000000E+00  0.00000000000E+00  0.45593999997E+02  0.45594000000E+02  0.51100000000E-03 0.  1.
         11   -1    0    0    0    0 -0.00000000000E+00 -0.00000000000E+00 -0.45593999997E+02  0.45594000000E+02  0.51100000000E-03 0. -1.
         23    2    1    2    0    0  0.00000000000E+00 -0.13322676296E-14 -0.17763568394E-14  0.91188000000E+02  0.91188000000E+02 0.  0.
    9900012    2    3    3    0    0  0.35854452244E+02  0.17527131611E+01 -0.81954830225E+01  0.54367086227E+02  0.40000004671E+02 0.  0.
         12    1    3    3    0    0 -0.35854452244E+02 -0.17527131611E+01  0.81954830225E+01  0.36820913773E+02  0.00000000000E+00 0. -1.
         11    1    4    4    0    0  0.22473894615E+02 -0.15924676309E+02 -0.95039260892E+01  0.29137533631E+02  0.51100000000E-03 0. -1.
        -11    1    4    4    0    0  0.11226241343E+02  0.15946349692E+02  0.54515545705E+01  0.20249296548E+02  0.51100000000E-03 0.  1.
         12    1    4    4    0    0  0.21543162853E+01  0.17310397772E+01 -0.41431115038E+01  0.49802560477E+01  0.00000000000E+00 0. -1.
</event>
<event>
 8    1  0.2497772E-006  0.9118800E+02  0.7816164E-02  0.1184000E+00
        -11   -1    0    0    0    0  0.00000000000E+00  0.00000000000E+00  0.45593999997E+02  0.45594000000E+02  0.51100000000E-03 0.  1.
         11   -1    0    0    0    0 -0.00000000000E+00 -0.00000000000E+00 -0.45593999997E+02  0.45594000000E+02  0.51100000000E-03 0. -1.
         23    2    1    2    0    0 -0.71054273576E-14  0.00000000000E+00  0.00000000000E+00  0.91188000000E+02  0.91188000000E+02 0.  0.
    9900012    2    3    3    0    0 -0.32994697402E+02  0.14444296950E+02 -0.76480503173E+01  0.54367075994E+02  0.39999981343E+02 0.  0.
        -12    1    3    3    0    0  0.32994697402E+02 -0.14444296950E+02  0.76480503173E+01  0.36820924006E+02  0.00000000000E+00 0.  1.
         11    1    4    4    0    0 -0.20074626868E+02  0.49994972817E+01  0.34000431454E+00  0.20690607051E+02  0.51100000000E-03 0.  1.
        -11    1    4    4    0    0 -0.21650616338E+02  0.10115877428E+02 -0.67559556355E+01  0.24833910300E+02  0.51100000000E-03 0. -1.
        -12    1    4    4    0    0  0.87305458048E+01 -0.67107775956E+00 -0.12320989963E+01  0.88425586425E+01  0.00000000000E+00 0.  1.
</event>
<event>
 8    1  0.2497772E-006  0.9118800E+02  0.7816164E-02  0.1184000E+00
        -11   -1    0    0    0    0  0.00000000000E+00  0.00000000000E+00  0.45593999997E+02  0.45594000000E+02  0.51100000000E-03 0.  1.
         11   -1    0    0    0    0 -0.00000000000E+00 -0.00000000000E+00 -0.45593999997E+02  0.45594000000E+02  0.51100000000E-03 0. -1.
         23    2    1    2    0    0  0.35527136788E-14  0.00000000000E+00 -0.66613381478E-15  0.91188000000E+02  0.91188000000E+02 0.  0.
    9900012    2    3    3    0    0 -0.31428839534E+02  0.19141639413E+02  0.12685292486E+01  0.54367034772E+02  0.39999887369E+02 0.  0.
         12    1    3    3    0    0  0.31428839534E+02 -0.19141639413E+02 -0.12685292486E+01  0.36820965228E+02  0.00000000000E+00 0. -1.
         11    1    4    4    0    0  0.26223065698E+00 -0.18476959419E+01  0.38711766772E+00  0.19059395481E+01  0.51100000000E-03 0. -1.
        -11    1    4    4    0    0 -0.30864825668E+02  0.14078628898E+02 -0.13478327133E+02  0.36503569110E+02  0.51100000000E-03 0.  1.
         12    1    4    4    0    0 -0.82624452269E+00  0.69107064574E+01  0.14359738714E+02  0.15957526114E+02  0.00000000000E+00 0. -1.
</event>
<event>
 8    1  0.2497772E-006  0.9118800E+02  0.7816164E-02  0.1184000E+00
        -11   -1    0    0    0    0  0.00000000000E+00  0.00000000000E+00  0.45593999997E+02  0.45594000000E+02  0.51100000000E-03 0. -1.
         11   -1    0    0    0    0 -0.00000000000E+00 -0.00000000000E+00 -0.45593999997E+02  0.45594000000E+02  0.51100000000E-03 0.  1.
         23    2    1    2    0    0  0.00000000000E+00  0.00000000000E+00  0.00000000000E+00  0.91188000000E+02  0.91188000000E+02 0.  0.
    9900012    2    3    3    0    0 -0.31188055726E+01  0.34727439070E+02 -0.11834529454E+02  0.54367108376E+02  0.40000055165E+02 0.  0.
         12    1    3    3    0    0  0.31188055726E+01 -0.34727439070E+02  0.11834529454E+02  0.36820891624E+02  0.00000000000E+00 0. -1.
         11    1    4    4    0    0 -0.42769507372E+01  0.42618459202E+01  0.67030589067E+01  0.90214542743E+01  0.51100000000E-03 0. -1.
        -11    1    4    4    0    0  0.83013614761E+01  0.24072057203E+02 -0.11485474354E+01  0.25489129091E+02  0.51100000000E-03 0.  1.
         12    1    4    4    0    0 -0.71432163115E+01  0.63935359471E+01 -0.17389040926E+02  0.19856525011E+02  0.00000000000E+00 0. -1.
</event>
<event>
 8    1  0.2497772E-006  0.9118800E+02  0.7816164E-02  0.1184000E+00
        -11   -1    0    0    0    0  0.00000000000E+00  0.00000000000E+00  0.45593999997E+02  0.45594000000E+02  0.51100000000E-03 0. -1.
         11   -1    0    0    0    0 -0.00000000000E+00 -0.00000000000E+00 -0.45593999997E+02  0.45594000000E+02  0.51100000000E-03 0.  1.
         23    2    1    2    0    0  0.00000000000E+00  0.00000000000E+00  0.00000000000E+00  0.91188000000E+02  0.91188000000E+02 0.  0.
    9900012    2    3    3    0    0 -0.60240221265E+01 -0.36097501047E+02 -0.40572040073E+01  0.54367091147E+02  0.40000015888E+02 0.  0.
         12    1    3    3    0    0  0.60240221265E+01  0.36097501047E+02  0.40572040073E+01  0.36820908853E+02  0.00000000000E+00 0. -1.
         11    1    4    4    0    0 -0.18808577675E+02 -0.10231508967E+02 -0.96466240028E+01  0.23484116437E+02  0.51100000000E-03 0. -1.
        -11    1    4    4    0    0  0.55070540036E+01 -0.52636262811E+01  0.48294893600E+01  0.90198322139E+01  0.51100000000E-03 0.  1.
         12    1    4    4    0    0  0.72775015453E+01 -0.20602365799E+02  0.75993063545E+00  0.21863142496E+02  0.00000000000E+00 0. -1.
</event>
<event>
 8    1  0.2497772E-006  0.9118800E+02  0.7816164E-02  0.1184000E+00
        -11   -1    0    0    0    0  0.00000000000E+00  0.00000000000E+00  0.45593999997E+02  0.45594000000E+02  0.51100000000E-03 0.  1.
         11   -1    0    0    0    0 -0.00000000000E+00 -0.00000000000E+00 -0.45593999997E+02  0.45594000000E+02  0.51100000000E-03 0. -1.
         23    2    1    2    0    0 -0.71054273576E-14  0.00000000000E+00  0.00000000000E+00  0.91188000000E+02  0.91188000000E+02 0.  0.
    9900012    2    3    3    0    0 -0.31493973040E+02 -0.13214779048E+02 -0.13757830865E+02  0.54367100592E+02  0.40000037419E+02 0.  0.
        -12    1    3    3    0    0  0.31493973040E+02  0.13214779048E+02  0.13757830865E+02  0.36820899408E+02  0.00000000000E+00 0.  1.
         11    1    4    4    0    0 -0.54394471635E+01  0.16782594573E+01  0.30704625436E+01  0.64677570102E+01  0.51100000000E-03 0. -1.
        -11    1    4    4    0    0  0.63252043653E+01  0.38352817907E+01 -0.20105917890E+01  0.76655121342E+01  0.51100000000E-03 0.  1.
         12    1    4    4    0    0 -0.32379730242E+02 -0.18728320296E+02 -0.14817701620E+02  0.40233831447E+02  0.00000000000E+00 0. -1.
</event>
<event>
 8    1  0.2497772E-006  0.9118800E+02  0.7816164E-02  0.1184000E+00
        -11   -1    0    0    0    0  0.00000000000E+00  0.00000000000E+00  0.45593999997E+02  0.45594000000E+02  0.51100000000E-03 0.  1.
         11   -1    0    0    0    0 -0.00000000000E+00 -0.00000000000E+00 -0.45593999997E+02  0.45594000000E+02  0.51100000000E-03 0. -1.
         23    2    1    2    0    0 -0.13322676296E-14  0.00000000000E+00  0.00000000000E+00  0.91188000000E+02  0.91188000000E+02 0.  0.
    9900012    2    3    3    0    0  0.20170320538E+01  0.21957665610E+02  0.29488514939E+02  0.54367081888E+02  0.39999994779E+02 0.  0.
         12    1    3    3    0    0 -0.20170320538E+01 -0.21957665610E+02 -0.29488514939E+02  0.36820918112E+02  0.00000000000E+00 0. -1.
         11    1    4    4    0    0  0.63949428401E+01  0.24923974308E+01  0.16688613751E+02  0.18044865421E+02  0.51100000000E-03 0. -1.
        -11    1    4    4    0    0  0.11265358905E+02  0.45832960579E+01  0.67016940307E+01  0.13886238409E+02  0.51100000000E-03 0.  1.
         12    1    4    4    0    0 -0.15643269691E+02  0.14881972121E+02  0.60982071572E+01  0.22435978057E+02  0.00000000000E+00 0. -1.
</event>
<event>
 8    1  0.2497772E-006  0.9118800E+02  0.7816164E-02  0.1184000E+00
        -11   -1    0    0    0    0  0.00000000000E+00  0.00000000000E+00  0.45593999997E+02  0.45594000000E+02  0.51100000000E-03 0.  1.
         11   -1    0    0    0    0 -0.00000000000E+00 -0.00000000000E+00 -0.45593999997E+02  0.45594000000E+02  0.51100000000E-03 0. -1.
         23    2    1    2    0    0  0.17763568394E-14  0.00000000000E+00  0.00000000000E+00  0.91188000000E+02  0.91188000000E+02 0.  0.
    9900012    2    3    3    0    0  0.12748950563E+02  0.25279571025E+02  0.23541147092E+02  0.54367108402E+02  0.40000055224E+02 0.  0.
        -12    1    3    3    0    0 -0.12748950563E+02 -0.25279571025E+02 -0.23541147092E+02  0.36820891598E+02  0.00000000000E+00 0.  1.
         11    1    4    4    0    0 -0.94982427737E+01  0.16222057238E+02 -0.11597091090E+01  0.18833923710E+02  0.51100000000E-03 0. -1.
        -11    1    4    4    0    0  0.71408116041E+01  0.71091863117E+01  0.12239747113E+02  0.15853804907E+02  0.51100000000E-03 0.  1.
         12    1    4    4    0    0  0.15106381733E+02  0.19483274749E+01  0.12461109089E+02  0.19679379785E+02  0.00000000000E+00 0. -1.
</event>
<event>
 8    1  0.2497772E-006  0.9118800E+02  0.7816164E-02  0.1184000E+00
        -11   -1    0    0    0    0  0.00000000000E+00  0.00000000000E+00  0.45593999997E+02  0.45594000000E+02  0.51100000000E-03 0.  1.
         11   -1    0    0    0    0 -0.00000000000E+00 -0.00000000000E+00 -0.45593999997E+02  0.45594000000E+02  0.51100000000E-03 0. -1.
         23    2    1    2    0    0  0.35527136788E-14  0.35527136788E-14 -0.17763568394E-14  0.91188000000E+02  0.91188000000E+02 0.  0.
    9900012    2    3    3    0    0 -0.26702938959E+02 -0.24875048698E+02 -0.48950519336E+01  0.54367129149E+02  0.40000102522E+02 0.  0.
        -12    1    3    3    0    0  0.26702938959E+02  0.24875048698E+02  0.48950519336E+01  0.36820870851E+02  0.00000000000E+00 0.  1.
         11    1    4    4    0    0 -0.47000117957E+01 -0.35683530287E+01 -0.42149364089E+01  0.72518234541E+01  0.51100000000E-03 0. -1.
        -11    1    4    4    0    0 -0.31312328964E+01 -0.14870135566E+02  0.15298882621E+02  0.21563426465E+02  0.51100000000E-03 0.  1.
        -12    1    4    4    0    0 -0.18871694267E+02 -0.64365601034E+01 -0.15978998146E+02  0.25551879230E+02  0.00000000000E+00 0.  1.
</event>
<event>
 8    1  0.2497772E-006  0.9118800E+02  0.7816164E-02  0.1184000E+00
        -11   -1    0    0    0    0  0.00000000000E+00  0.00000000000E+00  0.45593999997E+02  0.45594000000E+02  0.51100000000E-03 0. -1.
         11   -1    0    0    0    0 -0.00000000000E+00 -0.00000000000E+00 -0.45593999997E+02  0.45594000000E+02  0.51100000000E-03 0.  1.
         23    2    1    2    0    0  0.35527136788E-14  0.00000000000E+00 -0.44408920985E-15  0.91188000000E+02  0.91188000000E+02 0.  0.
    9900012    2    3    3    0    0  0.25895924066E+02 -0.26153969019E+02 -0.10756753367E+01  0.54366999795E+02  0.39999807632E+02 0.  0.
        -12    1    3    3    0    0 -0.25895924066E+02  0.26153969019E+02  0.10756753367E+01  0.36821000205E+02  0.00000000000E+00 0.  1.
         11    1    4    4    0    0  0.21471952548E+02 -0.28241121827E+02  0.10448590071E+02  0.36983492845E+02  0.51100000000E-03 0. -1.
        -11    1    4    4    0    0  0.69004398287E+00  0.68771402059E+01 -0.55493284910E+01  0.88637613388E+01  0.51100000000E-03 0.  1.
        -12    1    4    4    0    0  0.37339275349E+01 -0.47899873977E+01 -0.59749369171E+01  0.85197456106E+01  0.00000000000E+00 0.  1.
</event>
<event>
 8    1  0.2497772E-006  0.9118800E+02  0.7816164E-02  0.1184000E+00
        -11   -1    0    0    0    0  0.00000000000E+00  0.00000000000E+00  0.45593999997E+02  0.45594000000E+02  0.51100000000E-03 0. -1.
         11   -1    0    0    0    0 -0.00000000000E+00 -0.00000000000E+00 -0.45593999997E+02  0.45594000000E+02  0.51100000000E-03 0.  1.
         23    2    1    2    0    0 -0.35527136788E-14 -0.88817841970E-15 -0.35527136788E-14  0.91188000000E+02  0.91188000000E+02 0.  0.
    9900012    2    3    3    0    0 -0.23902568238E+02 -0.21521048663E+01 -0.27925190281E+02  0.54367074211E+02  0.39999977279E+02 0.  0.
         12    1    3    3    0    0  0.23902568238E+02  0.21521048663E+01  0.27925190281E+02  0.36820925789E+02  0.00000000000E+00 0. -1.
         11    1    4    4    0    0  0.60079188298E+01 -0.32001812722E+01 -0.30154308833E+01  0.74450703498E+01  0.51100000000E-03 0. -1.
        -11    1    4    4    0    0 -0.19651458826E+02 -0.11882399511E+02 -0.11655171024E+02  0.25752946705E+02  0.51100000000E-03 0.  1.
         12    1    4    4    0    0 -0.10259028242E+02  0.12930475917E+02 -0.13254588374E+02  0.21169057156E+02  0.00000000000E+00 0. -1.
</event>
<event>
 8    1  0.2497772E-006  0.9118800E+02  0.7816164E-02  0.1184000E+00
        -11   -1    0    0    0    0  0.00000000000E+00  0.00000000000E+00  0.45593999997E+02  0.45594000000E+02  0.51100000000E-03 0. -1.
         11   -1    0    0    0    0 -0.00000000000E+00 -0.00000000000E+00 -0.45593999997E+02  0.45594000000E+02  0.51100000000E-03 0.  1.
         23    2    1    2    0    0  0.88817841970E-15 -0.71054273576E-14  0.00000000000E+00  0.91188000000E+02  0.91188000000E+02 0.  0.
    9900012    2    3    3    0    0 -0.48025724348E+01  0.25400800223E+02 -0.26220477242E+02  0.54367098588E+02  0.40000032851E+02 0.  0.
         12    1    3    3    0    0  0.48025724348E+01 -0.25400800223E+02  0.26220477242E+02  0.36820901412E+02  0.00000000000E+00 0. -1.
         11    1    4    4    0    0 -0.10290513887E+01 -0.29114857681E+01 -0.17615474163E+02  0.17884088638E+02  0.51100000000E-03 0.  1.
        -11    1    4    4    0    0 -0.55031574046E+01  0.24129949383E+02 -0.14780125356E+02  0.28826919788E+02  0.51100000000E-03 0. -1.
         12    1    4    4    0    0  0.17296363585E+01  0.41823366085E+01  0.61751222771E+01  0.76560901625E+01  0.00000000000E+00 0. -1.
</event>
<event>
 8    1  0.2497772E-006  0.9118800E+02  0.7816164E-02  0.1184000E+00
        -11   -1    0    0    0    0  0.00000000000E+00  0.00000000000E+00  0.45593999997E+02  0.45594000000E+02  0.51100000000E-03 0. -1.
         11   -1    0    0    0    0 -0.00000000000E+00 -0.00000000000E+00 -0.45593999997E+02  0.45594000000E+02  0.51100000000E-03 0.  1.
         23    2    1    2    0    0  0.00000000000E+00  0.11102230246E-14  0.00000000000E+00  0.91188000000E+02  0.91188000000E+02 0.  0.
    9900012    2    3    3    0    0 -0.32577899664E+02  0.18369723148E+01 -0.17061261600E+02  0.54367073053E+02  0.39999974640E+02 0.  0.
         12    1    3    3    0    0  0.32577899664E+02 -0.18369723148E+01  0.17061261600E+02  0.36820926947E+02  0.00000000000E+00 0. -1.
         11    1    4    4    0    0 -0.68897779095E+01  0.18287005284E+02 -0.64267671565E+01  0.20571507923E+02  0.51100000000E-03 0. -1.
        -11    1    4    4    0    0 -0.11942857593E+02 -0.13125447057E+02 -0.77429369330E+01  0.19361360503E+02  0.51100000000E-03 0.  1.
         12    1    4    4    0    0 -0.13745264162E+02 -0.33245859117E+01 -0.28915575103E+01  0.14434204627E+02  0.00000000000E+00 0. -1.
</event>
<event>
 8    1  0.2497772E-006  0.9118800E+02  0.7816164E-02  0.1184000E+00
        -11   -1    0    0    0    0  0.00000000000E+00  0.00000000000E+00  0.45593999997E+02  0.45594000000E+02  0.51100000000E-03 0.  1.
         11   -1    0    0    0    0 -0.00000000000E+00 -0.00000000000E+00 -0.45593999997E+02  0.45594000000E+02  0.51100000000E-03 0. -1.
         23    2    1    2    0    0 -0.88817841970E-15 -0.17763568394E-14  0.71054273576E-14  0.91188000000E+02  0.91188000000E+02 0.  0.
    9900012    2    3    3    0    0  0.48228955173E+01  0.11442207359E+02 -0.34664023367E+02  0.54367096339E+02  0.40000027725E+02 0.  0.
        -12    1    3    3    0    0 -0.48228955173E+01 -0.11442207359E+02  0.34664023367E+02  0.36820903661E+02  0.00000000000E+00 0.  1.
         11    1    4    4    0    0  0.62607039731E+01  0.90704958457E+01 -0.32287053999E+02  0.34116332823E+02  0.51100000000E-03 0. -1.
        -11    1    4    4    0    0  0.23051026115E+01  0.10326399223E+02  0.14184161492E+01  0.10675201337E+02  0.51100000000E-03 0.  1.
        -12    1    4    4    0    0 -0.37429110673E+01 -0.79546877098E+01 -0.37953855173E+01  0.95755621790E+01  0.00000000000E+00 0.  1.
</event>
<event>
 8    1  0.2497772E-006  0.9118800E+02  0.7816164E-02  0.1184000E+00
        -11   -1    0    0    0    0  0.00000000000E+00  0.00000000000E+00  0.45593999997E+02  0.45594000000E+02  0.51100000000E-03 0. -1.
         11   -1    0    0    0    0 -0.00000000000E+00 -0.00000000000E+00 -0.45593999997E+02  0.45594000000E+02  0.51100000000E-03 0.  1.
         23    2    1    2    0    0  0.00000000000E+00  0.00000000000E+00  0.17763568394E-14  0.91188000000E+02  0.91188000000E+02 0.  0.
    9900012    2    3    3    0    0 -0.30357675723E+02  0.18849243527E+02 -0.88824409192E+01  0.54367079132E+02  0.39999988498E+02 0.  0.
        -12    1    3    3    0    0  0.30357675723E+02 -0.18849243527E+02  0.88824409192E+01  0.36820920868E+02  0.00000000000E+00 0.  1.
         11    1    4    4    0    0 -0.24486586351E+02  0.71204082204E+01 -0.10353875166E+02  0.27522642598E+02  0.51100000000E-03 0. -1.
        -11    1    4    4    0    0 -0.85938358108E+01  0.10062391513E+00  0.92229688923E+01  0.12606636925E+02  0.51100000000E-03 0.  1.
         12    1    4    4    0    0  0.27227464392E+01  0.11628211392E+02 -0.77515346459E+01  0.14237799609E+02  0.00000000000E+00 0. -1.
</event>
<event>
 8    1  0.2497772E-006  0.9118800E+02  0.7816164E-02  0.1184000E+00
        -11   -1    0    0    0    0  0.00000000000E+00  0.00000000000E+00  0.45593999997E+02  0.45594000000E+02  0.51100000000E-03 0. -1.
         11   -1    0    0    0    0 -0.00000000000E+00 -0.00000000000E+00 -0.45593999997E+02  0.45594000000E+02  0.51100000000E-03 0.  1.
         23    2    1    2    0    0  0.35527136788E-14 -0.71054273576E-14  0.35527136788E-14  0.91188000000E+02  0.91188000000E+02 0.  0.
    9900012    2    3    3    0    0  0.11510783640E+02 -0.25595483430E+02  0.23835944026E+02  0.54367093715E+02  0.40000021743E+02 0.  0.
        -12    1    3    3    0    0 -0.11510783640E+02  0.25595483430E+02 -0.23835944026E+02  0.36820906285E+02  0.00000000000E+00 0.  1.
         11    1    4    4    0    0 -0.10172986807E+02 -0.18345735872E+01  0.32467973637E+01  0.10834990272E+02  0.51100000000E-03 0. -1.
        -11    1    4    4    0    0  0.37783845123E+01 -0.19613773570E+02  0.10918542197E+02  0.22763806078E+02  0.51100000000E-03 0.  1.
        -12    1    4    4    0    0  0.17905385934E+02 -0.41471362725E+01  0.96706044647E+01  0.20768297365E+02  0.00000000000E+00 0.  1.
</event>
<event>
 8    1  0.2497772E-006  0.9118800E+02  0.7816164E-02  0.1184000E+00
        -11   -1    0    0    0    0  0.00000000000E+00  0.00000000000E+00  0.45593999997E+02  0.45594000000E+02  0.51100000000E-03 0.  1.
         11   -1    0    0    0    0 -0.00000000000E+00 -0.00000000000E+00 -0.45593999997E+02  0.45594000000E+02  0.51100000000E-03 0. -1.
         23    2    1    2    0    0  0.35527136788E-14  0.35527136788E-14  0.00000000000E+00  0.91188000000E+02  0.91188000000E+02 0.  0.
    9900012    2    3    3    0    0  0.20869142237E+02  0.18300155804E+02  0.24194253986E+02  0.54367099331E+02  0.40000034544E+02 0.  0.
         12    1    3    3    0    0 -0.20869142237E+02 -0.18300155804E+02 -0.24194253986E+02  0.36820900669E+02  0.00000000000E+00 0. -1.
         11    1    4    4    0    0  0.51193362426E+00 -0.38462613158E+01 -0.17353661328E+00  0.38840593922E+01  0.51100000000E-03 0. -1.
        -11    1    4    4    0    0 -0.20257317352E+01  0.86096467227E+00  0.19006150130E+02  0.19133180401E+02  0.51100000000E-03 0.  1.
        -12    1    4    4    0    0  0.22382940348E+02  0.21285452448E+02  0.53616404698E+01  0.31349859538E+02  0.00000000000E+00 0.  1.
</event>
<event>
 8    1  0.2497772E-006  0.9118800E+02  0.7816164E-02  0.1184000E+00
        -11   -1    0    0    0    0  0.00000000000E+00  0.00000000000E+00  0.45593999997E+02  0.45594000000E+02  0.51100000000E-03 0.  1.
         11   -1    0    0    0    0 -0.00000000000E+00 -0.00000000000E+00 -0.45593999997E+02  0.45594000000E+02  0.51100000000E-03 0. -1.
         23    2    1    2    0    0  0.71054273576E-14  0.00000000000E+00  0.78409501114E-15  0.91188000000E+02  0.91188000000E+02 0.  0.
    9900012    2    3    3    0    0  0.34552145242E+02  0.12725081796E+02 -0.33060672514E-01  0.54367088271E+02  0.40000009331E+02 0.  0.
         12    1    3    3    0    0 -0.34552145242E+02 -0.12725081796E+02  0.33060672514E-01  0.36820911729E+02  0.00000000000E+00 0. -1.
         11    1    4    4    0    0  0.18065926860E+02  0.16927483065E+02 -0.97043740785E+01  0.26591206681E+02  0.51100000000E-03 0. -1.
        -11    1    4    4    0    0  0.16454437021E+02  0.34393285090E+01  0.19674695802E+01  0.16924787003E+02  0.51100000000E-03 0.  1.
        -12    1    4    4    0    0  0.31781360688E-01 -0.76417297776E+01  0.77038438258E+01  0.10851094587E+02  0.00000000000E+00 0.  1.
</event>
<event>
 8    1  0.2497772E-006  0.9118800E+02  0.7816164E-02  0.1184000E+00
        -11   -1    0    0    0    0  0.00000000000E+00  0.00000000000E+00  0.45593999997E+02  0.45594000000E+02  0.51100000000E-03 0. -1.
         11   -1    0    0    0    0 -0.00000000000E+00 -0.00000000000E+00 -0.45593999997E+02  0.45594000000E+02  0.51100000000E-03 0.  1.
         23    2    1    2    0    0  0.00000000000E+00  0.00000000000E+00  0.00000000000E+00  0.91188000000E+02  0.91188000000E+02 0.  0.
    9900012    2    3    3    0    0 -0.20071121582E+02  0.20669189618E+02 -0.22928590014E+02  0.54367006517E+02  0.39999822956E+02 0.  0.
         12    1    3    3    0    0  0.20071121582E+02 -0.20669189618E+02  0.22928590014E+02  0.36820993483E+02  0.00000000000E+00 0. -1.
         11    1    4    4    0    0  0.47595613789E+01  0.16730941383E+02 -0.16410738377E+02  0.23914225022E+02  0.51100000000E-03 0. -1.
        -11    1    4    4    0    0 -0.39683805216E+01  0.53882714449E+00 -0.83250412429E+01  0.92382190174E+01  0.51100000000E-03 0.  1.
        -12    1    4    4    0    0 -0.20862302439E+02  0.33994210909E+01  0.18071896059E+01  0.21214562477E+02  0.00000000000E+00 0.  1.
</event>
<event>
 8    1  0.2497772E-006  0.9118800E+02  0.7816164E-02  0.1184000E+00
        -11   -1    0    0    0    0  0.00000000000E+00  0.00000000000E+00  0.45593999997E+02  0.45594000000E+02  0.51100000000E-03 0.  1.
         11   -1    0    0    0    0 -0.00000000000E+00 -0.00000000000E+00 -0.45593999997E+02  0.45594000000E+02  0.51100000000E-03 0. -1.
         23    2    1    2    0    0  0.00000000000E+00  0.71054273576E-14 -0.88817841970E-15  0.91188000000E+02  0.91188000000E+02 0.  0.
    9900012    2    3    3    0    0  0.85612221515E+01 -0.35736557000E+02 -0.23194720838E+01  0.54367136598E+02  0.40000119501E+02 0.  0.
         12    1    3    3    0    0 -0.85612221515E+01  0.35736557000E+02  0.23194720838E+01  0.36820863402E+02  0.00000000000E+00 0. -1.
         11    1    4    4    0    0  0.17097071861E+01  0.67017249204E+01 -0.72238007641E+01  0.10000975618E+02  0.51100000000E-03 0. -1.
        -11    1    4    4    0    0  0.80749988451E+01 -0.37711346577E+02  0.18576738071E+01  0.38610908034E+02  0.51100000000E-03 0.  1.
         12    1    4    4    0    0 -0.12234838797E+01 -0.47269353436E+01  0.30466548732E+01  0.57552529452E+01  0.00000000000E+00 0. -1.
</event>
<event>
 8    1  0.2497772E-006  0.9118800E+02  0.7816164E-02  0.1184000E+00
        -11   -1    0    0    0    0  0.00000000000E+00  0.00000000000E+00  0.45593999997E+02  0.45594000000E+02  0.51100000000E-03 0.  1.
         11   -1    0    0    0    0 -0.00000000000E+00 -0.00000000000E+00 -0.45593999997E+02  0.45594000000E+02  0.51100000000E-03 0. -1.
         23    2    1    2    0    0  0.00000000000E+00 -0.88817841970E-15 -0.35527136788E-14  0.91188000000E+02  0.91188000000E+02 0.  0.
    9900012    2    3    3    0    0  0.22652463110E+02 -0.66968202010E+01  0.28245328636E+02  0.54367081006E+02  0.39999992770E+02 0.  0.
        -12    1    3    3    0    0 -0.22652463110E+02  0.66968202010E+01 -0.28245328636E+02  0.36820918994E+02  0.00000000000E+00 0.  1.
         11    1    4    4    0    0  0.17682473745E+02  0.28679254069E+01  0.14110517137E+02  0.22803542883E+02  0.51100000000E-03 0. -1.
        -11    1    4    4    0    0 -0.10000225923E+02 -0.85854776116E+01  0.74435067224E+01  0.15136734685E+02  0.51100000000E-03 0.  1.
        -12    1    4    4    0    0  0.14970215288E+02 -0.97926799624E+00  0.66913047772E+01  0.16426803438E+02  0.00000000000E+00 0.  1.
</event>
<event>
 8    1  0.2497772E-006  0.9118800E+02  0.7816164E-02  0.1184000E+00
        -11   -1    0    0    0    0  0.00000000000E+00  0.00000000000E+00  0.45593999997E+02  0.45594000000E+02  0.51100000000E-03 0.  1.
         11   -1    0    0    0    0 -0.00000000000E+00 -0.00000000000E+00 -0.45593999997E+02  0.45594000000E+02  0.51100000000E-03 0. -1.
         23    2    1    2    0    0  0.00000000000E+00 -0.17763568394E-14  0.35527136788E-14  0.91188000000E+02  0.91188000000E+02 0.  0.
    9900012    2    3    3    0    0 -0.25298126790E+02  0.89894091604E+01 -0.25198623852E+02  0.54367145309E+02  0.40000139361E+02 0.  0.
        -12    1    3    3    0    0  0.25298126790E+02 -0.89894091604E+01  0.25198623852E+02  0.36820854691E+02  0.00000000000E+00 0.  1.
         11    1    4    4    0    0 -0.19333586011E+02 -0.20204186739E+01 -0.12451459941E+02  0.23084810907E+02  0.51100000000E-03 0. -1.
        -11    1    4    4    0    0 -0.15588395234E+01 -0.69604748917E+01  0.22347508128E+01  0.74747777782E+01  0.51100000000E-03 0.  1.
        -12    1    4    4    0    0 -0.44057012550E+01  0.17970302726E+02 -0.14981914724E+02  0.23807556624E+02  0.00000000000E+00 0.  1.
</event>
<event>
 8    1  0.2497772E-006  0.9118800E+02  0.7816164E-02  0.1184000E+00
        -11   -1    0    0    0    0  0.00000000000E+00  0.00000000000E+00  0.45593999997E+02  0.45594000000E+02  0.51100000000E-03 0.  1.
         11   -1    0    0    0    0 -0.00000000000E+00 -0.00000000000E+00 -0.45593999997E+02  0.45594000000E+02  0.51100000000E-03 0. -1.
         23    2    1    2    0    0 -0.35527136788E-14  0.00000000000E+00  0.17763568394E-14  0.91188000000E+02  0.91188000000E+02 0.  0.
    9900012    2    3    3    0    0 -0.31490690491E+02 -0.17008598434E+02 -0.86501024310E+01  0.54367078225E+02  0.39999986430E+02 0.  0.
        -12    1    3    3    0    0  0.31490690491E+02  0.17008598434E+02  0.86501024310E+01  0.36820921775E+02  0.00000000000E+00 0.  1.
         11    1    4    4    0    0 -0.15152554434E+02 -0.16159767834E+02 -0.14615445478E+02  0.26539578917E+02  0.51100000000E-03 0. -1.
        -11    1    4    4    0    0 -0.59429803857E+01  0.55944251328E+01  0.11743408278E+02  0.14301197386E+02  0.51100000000E-03 0.  1.
        -12    1    4    4    0    0 -0.10395155671E+02 -0.64432557329E+01 -0.57780652311E+01  0.13526301922E+02  0.00000000000E+00 0.  1.
</event>
<event>
 8    1  0.2497772E-006  0.9118800E+02  0.7816164E-02  0.1184000E+00
        -11   -1    0    0    0    0  0.00000000000E+00  0.00000000000E+00  0.45593999997E+02  0.45594000000E+02  0.51100000000E-03 0.  1.
         11   -1    0    0    0    0 -0.00000000000E+00 -0.00000000000E+00 -0.45593999997E+02  0.45594000000E+02  0.51100000000E-03 0. -1.
         23    2    1    2    0    0  0.35527136788E-14  0.17763568394E-14 -0.17763568394E-14  0.91188000000E+02  0.91188000000E+02 0.  0.
    9900012    2    3    3    0    0  0.30646806420E+02  0.14709334241E+02 -0.14148864824E+02  0.54367059852E+02  0.39999944545E+02 0.  0.
        -12    1    3    3    0    0 -0.30646806420E+02 -0.14709334241E+02  0.14148864824E+02  0.36820940148E+02  0.00000000000E+00 0.  1.
         11    1    4    4    0    0  0.15107714010E+01  0.58991798443E+01  0.26928351942E+01  0.66583867945E+01  0.51100000000E-03 0. -1.
        -11    1    4    4    0    0  0.17660523352E+01 -0.96565993584E+01  0.15128779155E+01  0.99326558315E+01  0.51100000000E-03 0.  1.
         12    1    4    4    0    0  0.27369982684E+02  0.18466753755E+02 -0.18354577933E+02  0.37776017226E+02  0.00000000000E+00 0. -1.
</event>
<event>
 8    1  0.2497772E-006  0.9118800E+02  0.7816164E-02  0.1184000E+00
        -11   -1    0    0    0    0  0.00000000000E+00  0.00000000000E+00  0.45593999997E+02  0.45594000000E+02  0.51100000000E-03 0. -1.
         11   -1    0    0    0    0 -0.00000000000E+00 -0.00000000000E+00 -0.45593999997E+02  0.45594000000E+02  0.51100000000E-03 0.  1.
         23    2    1    2    0    0  0.00000000000E+00  0.17763568394E-14  0.00000000000E+00  0.91188000000E+02  0.91188000000E+02 0.  0.
    9900012    2    3    3    0    0 -0.96636749955E+01 -0.15661129994E+02 -0.31892424843E+02  0.54367022698E+02  0.39999859845E+02 0.  0.
         12    1    3    3    0    0  0.96636749955E+01  0.15661129994E+02  0.31892424843E+02  0.36820977302E+02  0.00000000000E+00 0. -1.
         11    1    4    4    0    0  0.48648835915E+01  0.35466842785E+01 -0.95443596282E+01  0.11284540873E+02  0.51100000000E-03 0. -1.
        -11    1    4    4    0    0 -0.60599521627E+01 -0.25084562913E+02 -0.11942173451E+02  0.28435432541E+02  0.51100000000E-03 0.  1.
        -12    1    4    4    0    0 -0.84686064243E+01  0.58767486412E+01 -0.10405891764E+02  0.14647049285E+02  0.00000000000E+00 0.  1.
</event>
<event>
 8    1  0.2497772E-006  0.9118800E+02  0.7816164E-02  0.1184000E+00
        -11   -1    0    0    0    0  0.00000000000E+00  0.00000000000E+00  0.45593999997E+02  0.45594000000E+02  0.51100000000E-03 0. -1.
         11   -1    0    0    0    0 -0.00000000000E+00 -0.00000000000E+00 -0.45593999997E+02  0.45594000000E+02  0.51100000000E-03 0.  1.
         23    2    1    2    0    0  0.17763568394E-14  0.00000000000E+00  0.35527136788E-14  0.91188000000E+02  0.91188000000E+02 0.  0.
    9900012    2    3    3    0    0  0.15925708979E+02  0.13380558795E+02  0.30382762867E+02  0.54367084211E+02  0.40000000076E+02 0.  0.
        -12    1    3    3    0    0 -0.15925708979E+02 -0.13380558795E+02 -0.30382762867E+02  0.36820915789E+02  0.00000000000E+00 0.  1.
         11    1    4    4    0    0  0.96456283772E+01  0.43463882958E+01  0.22398009492E+02  0.24770952090E+02  0.51100000000E-03 0. -1.
        -11    1    4    4    0    0  0.71582335564E+01  0.15010425968E+02  0.13497630637E+02  0.21418198534E+02  0.51100000000E-03 0.  1.
         12    1    4    4    0    0 -0.87815295502E+00 -0.59762554692E+01 -0.55128772615E+01  0.81779335866E+01  0.00000000000E+00 0. -1.
</event>
<event>
 8    1  0.2497772E-006  0.9118800E+02  0.7816164E-02  0.1184000E+00
        -11   -1    0    0    0    0  0.00000000000E+00  0.00000000000E+00  0.45593999997E+02  0.45594000000E+02  0.51100000000E-03 0. -1.
         11   -1    0    0    0    0 -0.00000000000E+00 -0.00000000000E+00 -0.45593999997E+02  0.45594000000E+02  0.51100000000E-03 0.  1.
         23    2    1    2    0    0 -0.35527136788E-14  0.35527136788E-14  0.13322676296E-14  0.91188000000E+02  0.91188000000E+02 0.  0.
    9900012    2    3    3    0    0  0.21345929677E+02 -0.29871178553E+02 -0.28006666213E+01  0.54367085353E+02  0.40000002678E+02 0.  0.
         12    1    3    3    0    0 -0.21345929677E+02  0.29871178553E+02  0.28006666213E+01  0.36820914647E+02  0.00000000000E+00 0. -1.
         11    1    4    4    0    0 -0.24884785289E+00 -0.19484120116E+02  0.61549075918E+01  0.20434670286E+02  0.51100000000E-03 0. -1.
        -11    1    4    4    0    0  0.98314593301E+00 -0.11711537807E+02 -0.98593024471E+00  0.11794013416E+02  0.51100000000E-03 0.  1.
         12    1    4    4    0    0  0.20611631597E+02  0.13244793703E+01 -0.79696439684E+01  0.22138401651E+02  0.00000000000E+00 0. -1.
</event>
<event>
 8    1  0.2497772E-006  0.9118800E+02  0.7816164E-02  0.1184000E+00
        -11   -1    0    0    0    0  0.00000000000E+00  0.00000000000E+00  0.45593999997E+02  0.45594000000E+02  0.51100000000E-03 0.  1.
         11   -1    0    0    0    0 -0.00000000000E+00 -0.00000000000E+00 -0.45593999997E+02  0.45594000000E+02  0.51100000000E-03 0. -1.
         23    2    1    2    0    0  0.00000000000E+00  0.00000000000E+00 -0.17763568394E-14  0.91188000000E+02  0.91188000000E+02 0.  0.
    9900012    2    3    3    0    0  0.25404342468E+02 -0.22266977152E+02 -0.14648597190E+02  0.54367078131E+02  0.39999986214E+02 0.  0.
        -12    1    3    3    0    0 -0.25404342468E+02  0.22266977152E+02  0.14648597190E+02  0.36820921869E+02  0.00000000000E+00 0.  1.
         11    1    4    4    0    0 -0.20903046101E+01 -0.99877659309E+01 -0.10308935637E+02  0.14505136879E+02  0.51100000000E-03 0. -1.
        -11    1    4    4    0    0  0.15731949999E+02  0.68024466134E+01 -0.71192137729E+00  0.17154426922E+02  0.51100000000E-03 0.  1.
         12    1    4    4    0    0  0.11762697078E+02 -0.19081657834E+02 -0.36277401757E+01  0.22707514330E+02  0.00000000000E+00 0. -1.
</event>
<event>
 8    1  0.2497772E-006  0.9118800E+02  0.7816164E-02  0.1184000E+00
        -11   -1    0    0    0    0  0.00000000000E+00  0.00000000000E+00  0.45593999997E+02  0.45594000000E+02  0.51100000000E-03 0. -1.
         11   -1    0    0    0    0 -0.00000000000E+00 -0.00000000000E+00 -0.45593999997E+02  0.45594000000E+02  0.51100000000E-03 0.  1.
         23    2    1    2    0    0  0.00000000000E+00 -0.17763568394E-14  0.00000000000E+00  0.91188000000E+02  0.91188000000E+02 0.  0.
    9900012    2    3    3    0    0  0.34797891676E+02 -0.49345591555E+01  0.10979122173E+02  0.54367024146E+02  0.39999863145E+02 0.  0.
        -12    1    3    3    0    0 -0.34797891676E+02  0.49345591555E+01 -0.10979122173E+02  0.36820975854E+02  0.00000000000E+00 0.  1.
         11    1    4    4    0    0  0.27359393647E+02  0.12625922638E+02  0.14913402902E+02  0.33620825831E+02  0.51100000000E-03 0. -1.
        -11    1    4    4    0    0 -0.12218901917E+01 -0.13406703350E+01  0.39470012300E+00  0.18563946337E+01  0.51100000000E-03 0.  1.
         12    1    4    4    0    0  0.86603882211E+01 -0.16219811458E+02 -0.43289808526E+01  0.18889803681E+02  0.00000000000E+00 0. -1.
</event>
<event>
 8    1  0.2497772E-006  0.9118800E+02  0.7816164E-02  0.1184000E+00
        -11   -1    0    0    0    0  0.00000000000E+00  0.00000000000E+00  0.45593999997E+02  0.45594000000E+02  0.51100000000E-03 0.  1.
         11   -1    0    0    0    0 -0.00000000000E+00 -0.00000000000E+00 -0.45593999997E+02  0.45594000000E+02  0.51100000000E-03 0. -1.
         23    2    1    2    0    0 -0.17763568394E-14  0.11102230246E-14  0.00000000000E+00  0.91188000000E+02  0.91188000000E+02 0.  0.
    9900012    2    3    3    0    0  0.15402827826E+02 -0.10128790620E+01  0.33429125223E+02  0.54367089607E+02  0.40000012376E+02 0.  0.
         12    1    3    3    0    0 -0.15402827826E+02  0.10128790620E+01 -0.33429125223E+02  0.36820910393E+02  0.00000000000E+00 0. -1.
         11    1    4    4    0    0  0.42672183004E+01  0.88969115270E+01  0.16842510016E+01  0.10010039382E+02  0.51100000000E-03 0. -1.
        -11    1    4    4    0    0  0.39334317132E+01 -0.27428517764E+01  0.33675088858E+02  0.34014801642E+02  0.51100000000E-03 0.  1.
         12    1    4    4    0    0  0.72021778121E+01 -0.71669388126E+01 -0.19302146366E+01  0.10342248582E+02  0.00000000000E+00 0. -1.
</event>
<event>
 8    1  0.2497772E-006  0.9118800E+02  0.7816164E-02  0.1184000E+00
        -11   -1    0    0    0    0  0.00000000000E+00  0.00000000000E+00  0.45593999997E+02  0.45594000000E+02  0.51100000000E-03 0.  1.
         11   -1    0    0    0    0 -0.00000000000E+00 -0.00000000000E+00 -0.45593999997E+02  0.45594000000E+02  0.51100000000E-03 0. -1.
         23    2    1    2    0    0  0.00000000000E+00 -0.71054273576E-14  0.17763568394E-14  0.91188000000E+02  0.91188000000E+02 0.  0.
    9900012    2    3    3    0    0 -0.21850700024E+02  0.26713178681E+02 -0.12834858905E+02  0.54367073750E+02  0.39999976228E+02 0.  0.
        -12    1    3    3    0    0  0.21850700024E+02 -0.26713178681E+02  0.12834858905E+02  0.36820926250E+02  0.00000000000E+00 0.  1.
         11    1    4    4    0    0 -0.10700931043E+01 -0.73679915141E+01 -0.36702480772E+01  0.83007902885E+01  0.51100000000E-03 0. -1.
        -11    1    4    4    0    0  0.21539454945E+01  0.12598357063E+01  0.32939576565E+01  0.41324114635E+01  0.51100000000E-03 0.  1.
         12    1    4    4    0    0 -0.22934552414E+02  0.32821334489E+02 -0.12458568485E+02  0.41933871998E+02  0.00000000000E+00 0. -1.
</event>
<event>
 8    1  0.2497772E-006  0.9118800E+02  0.7816164E-02  0.1184000E+00
        -11   -1    0    0    0    0  0.00000000000E+00  0.00000000000E+00  0.45593999997E+02  0.45594000000E+02  0.51100000000E-03 0.  1.
         11   -1    0    0    0    0 -0.00000000000E+00 -0.00000000000E+00 -0.45593999997E+02  0.45594000000E+02  0.51100000000E-03 0. -1.
         23    2    1    2    0    0 -0.13322676296E-14  0.17763568394E-14  0.71054273576E-14  0.91188000000E+02  0.91188000000E+02 0.  0.
    9900012    2    3    3    0    0  0.28457330486E+01 -0.99752539103E+01 -0.35329532757E+02  0.54367085128E+02  0.40000002167E+02 0.  0.
        -12    1    3    3    0    0 -0.28457330486E+01  0.99752539103E+01  0.35329532757E+02  0.36820914872E+02  0.00000000000E+00 0.  1.
         11    1    4    4    0    0 -0.13595162070E+02 -0.13704235115E+02 -0.12574707630E+02  0.23038180571E+02  0.51100000000E-03 0. -1.
        -11    1    4    4    0    0 -0.63805071488E+00 -0.10204886093E+01  0.10851084806E+01  0.16204833822E+01  0.51100000000E-03 0.  1.
        -12    1    4    4    0    0  0.17078945834E+02  0.47494698136E+01 -0.23839933607E+02  0.29708421175E+02  0.00000000000E+00 0.  1.
</event>
<event>
 8    1  0.2497772E-006  0.9118800E+02  0.7816164E-02  0.1184000E+00
        -11   -1    0    0    0    0  0.00000000000E+00  0.00000000000E+00  0.45593999997E+02  0.45594000000E+02  0.51100000000E-03 0. -1.
         11   -1    0    0    0    0 -0.00000000000E+00 -0.00000000000E+00 -0.45593999997E+02  0.45594000000E+02  0.51100000000E-03 0.  1.
         23    2    1    2    0    0  0.71054273576E-14 -0.44408920985E-15  0.00000000000E+00  0.91188000000E+02  0.91188000000E+02 0.  0.
    9900012    2    3    3    0    0  0.33397068572E+02 -0.23317740091E+01 -0.15329008571E+02  0.54367083892E+02  0.39999999349E+02 0.  0.
         12    1    3    3    0    0 -0.33397068572E+02  0.23317740091E+01  0.15329008571E+02  0.36820916108E+02  0.00000000000E+00 0. -1.
         11    1    4    4    0    0  0.90653177525E+01 -0.82061509981E+01 -0.18976642707E+02  0.22575071846E+02  0.51100000000E-03 0. -1.
        -11    1    4    4    0    0  0.13187808968E+02  0.25043659953E+01 -0.77493959051E+01  0.15499783597E+02  0.51100000000E-03 0.  1.
         12    1    4    4    0    0  0.11143941852E+02  0.33700109936E+01  0.11397030041E+02  0.16292228450E+02  0.00000000000E+00 0. -1.
</event>
<event>
 8    1  0.2497772E-006  0.9118800E+02  0.7816164E-02  0.1184000E+00
        -11   -1    0    0    0    0  0.00000000000E+00  0.00000000000E+00  0.45593999997E+02  0.45594000000E+02  0.51100000000E-03 0. -1.
         11   -1    0    0    0    0 -0.00000000000E+00 -0.00000000000E+00 -0.45593999997E+02  0.45594000000E+02  0.51100000000E-03 0.  1.
         23    2    1    2    0    0  0.71054273576E-14 -0.26645352591E-14 -0.17763568394E-14  0.91188000000E+02  0.91188000000E+02 0.  0.
    9900012    2    3    3    0    0 -0.33624848730E+02  0.26765057051E+01  0.14764358491E+02  0.54367076375E+02  0.39999982212E+02 0.  0.
        -12    1    3    3    0    0  0.33624848730E+02 -0.26765057051E+01 -0.14764358491E+02  0.36820923625E+02  0.00000000000E+00 0.  1.
         11    1    4    4    0    0 -0.19693111115E+02 -0.31851206496E+01  0.13844737348E+02  0.24282511637E+02  0.51100000000E-03 0. -1.
        -11    1    4    4    0    0  0.10086650741E+01 -0.89601630657E+01 -0.52472831240E-01  0.90169108377E+01  0.51100000000E-03 0.  1.
        -12    1    4    4    0    0 -0.14940402690E+02  0.14821789420E+02  0.97209397464E+00  0.21067653900E+02  0.00000000000E+00 0.  1.
</event>
<event>
 8    1  0.2497772E-006  0.9118800E+02  0.7816164E-02  0.1184000E+00
        -11   -1    0    0    0    0  0.00000000000E+00  0.00000000000E+00  0.45593999997E+02  0.45594000000E+02  0.51100000000E-03 0.  1.
         11   -1    0    0    0    0 -0.00000000000E+00 -0.00000000000E+00 -0.45593999997E+02  0.45594000000E+02  0.51100000000E-03 0. -1.
         23    2    1    2    0    0  0.00000000000E+00 -0.26645352591E-14  0.00000000000E+00  0.91188000000E+02  0.91188000000E+02 0.  0.
    9900012    2    3    3    0    0  0.29748379957E+02 -0.29204982444E+01 -0.21500751257E+02  0.54367112929E+02  0.40000065545E+02 0.  0.
        -12    1    3    3    0    0 -0.29748379957E+02  0.29204982444E+01  0.21500751257E+02  0.36820887071E+02  0.00000000000E+00 0.  1.
         11    1    4    4    0    0  0.62122166998E+00 -0.26417839228E+01 -0.71170835813E+01  0.76169428002E+01  0.51100000000E-03 0. -1.
        -11    1    4    4    0    0  0.18644069838E+01 -0.13370135607E+02 -0.84631821086E+01  0.15933047141E+02  0.51100000000E-03 0.  1.
        -12    1    4    4    0    0  0.27262751303E+02  0.13091421285E+02 -0.59204855669E+01  0.30817122988E+02  0.00000000000E+00 0.  1.
</event>
<event>
 8    1  0.2497772E-006  0.9118800E+02  0.7816164E-02  0.1184000E+00
        -11   -1    0    0    0    0  0.00000000000E+00  0.00000000000E+00  0.45593999997E+02  0.45594000000E+02  0.51100000000E-03 0.  1.
         11   -1    0    0    0    0 -0.00000000000E+00 -0.00000000000E+00 -0.45593999997E+02  0.45594000000E+02  0.51100000000E-03 0. -1.
         23    2    1    2    0    0  0.00000000000E+00 -0.26645352591E-14 -0.71054273576E-14  0.91188000000E+02  0.91188000000E+02 0.  0.
    9900012    2    3    3    0    0  0.85686169451E+01  0.61416299248E+01  0.35279439603E+02  0.54367086470E+02  0.40000005226E+02 0.  0.
         12    1    3    3    0    0 -0.85686169451E+01 -0.61416299248E+01 -0.35279439603E+02  0.36820913530E+02  0.00000000000E+00 0. -1.
         11    1    4    4    0    0  0.83557589648E+01 -0.60912486472E+01 -0.44321364433E+01  0.11250148962E+02  0.51100000000E-03 0. -1.
        -11    1    4    4    0    0  0.38331051113E+01  0.97005097745E+01  0.16734211704E+02  0.19718682165E+02  0.51100000000E-03 0.  1.
         12    1    4    4    0    0 -0.36202471310E+01  0.25323687976E+01  0.22977364342E+02  0.23398255343E+02  0.00000000000E+00 0. -1.
</event>
<event>
 8    1  0.2497772E-006  0.9118800E+02  0.7816164E-02  0.1184000E+00
        -11   -1    0    0    0    0  0.00000000000E+00  0.00000000000E+00  0.45593999997E+02  0.45594000000E+02  0.51100000000E-03 0. -1.
         11   -1    0    0    0    0 -0.00000000000E+00 -0.00000000000E+00 -0.45593999997E+02  0.45594000000E+02  0.51100000000E-03 0.  1.
         23    2    1    2    0    0 -0.71054273576E-14  0.00000000000E+00  0.17763568394E-14  0.91188000000E+02  0.91188000000E+02 0.  0.
    9900012    2    3    3    0    0  0.32818351478E+02  0.11015769317E+02 -0.12545469808E+02  0.54367079586E+02  0.39999989533E+02 0.  0.
         12    1    3    3    0    0 -0.32818351478E+02 -0.11015769317E+02  0.12545469808E+02  0.36820920414E+02  0.00000000000E+00 0. -1.
         11    1    4    4    0    0  0.20448068201E+02  0.56128763749E+01  0.42826968936E+01  0.21632599643E+02  0.51100000000E-03 0. -1.
        -11    1    4    4    0    0  0.16756421377E+02  0.74415803299E+01 -0.19857538780E+02  0.27027331015E+02  0.51100000000E-03 0.  1.
         12    1    4    4    0    0 -0.43861381002E+01 -0.20386873875E+01  0.30293720783E+01  0.57071489280E+01  0.00000000000E+00 0. -1.
</event>
<event>
 8    1  0.2497772E-006  0.9118800E+02  0.7816164E-02  0.1184000E+00
        -11   -1    0    0    0    0  0.00000000000E+00  0.00000000000E+00  0.45593999997E+02  0.45594000000E+02  0.51100000000E-03 0.  1.
         11   -1    0    0    0    0 -0.00000000000E+00 -0.00000000000E+00 -0.45593999997E+02  0.45594000000E+02  0.51100000000E-03 0. -1.
         23    2    1    2    0    0 -0.71054273576E-14  0.13322676296E-14 -0.35527136788E-14  0.91188000000E+02  0.91188000000E+02 0.  0.
    9900012    2    3    3    0    0  0.28813519944E+02  0.23432846290E+01 -0.22805038744E+02  0.54367086017E+02  0.40000004193E+02 0.  0.
        -12    1    3    3    0    0 -0.28813519944E+02 -0.23432846290E+01  0.22805038744E+02  0.36820913983E+02  0.00000000000E+00 0.  1.
         11    1    4    4    0    0 -0.24892979428E+01 -0.15140783116E+01 -0.57781288587E+00  0.29703375859E+01  0.51100000000E-03 0. -1.
        -11    1    4    4    0    0 -0.88480150652E+00  0.83579358386E+01  0.43034306892E+01  0.94423239272E+01  0.51100000000E-03 0.  1.
         12    1    4    4    0    0  0.32187619393E+02 -0.45005728980E+01 -0.26530656547E+02  0.41954424504E+02  0.00000000000E+00 0. -1.
</event>
<event>
 8    1  0.2497772E-006  0.9118800E+02  0.7816164E-02  0.1184000E+00
        -11   -1    0    0    0    0  0.00000000000E+00  0.00000000000E+00  0.45593999997E+02  0.45594000000E+02  0.51100000000E-03 0. -1.
         11   -1    0    0    0    0 -0.00000000000E+00 -0.00000000000E+00 -0.45593999997E+02  0.45594000000E+02  0.51100000000E-03 0.  1.
         23    2    1    2    0    0 -0.17763568394E-14  0.71054273576E-14  0.00000000000E+00  0.91188000000E+02  0.91188000000E+02 0.  0.
    9900012    2    3    3    0    0  0.13845425810E+02 -0.33542988756E+02 -0.62412477882E+01  0.54367067306E+02  0.39999961537E+02 0.  0.
         12    1    3    3    0    0 -0.13845425810E+02  0.33542988756E+02  0.62412477882E+01  0.36820932694E+02  0.00000000000E+00 0. -1.
         11    1    4    4    0    0 -0.38791744534E+01 -0.21805383269E+01  0.19569684005E+01  0.48613236281E+01  0.51100000000E-03 0. -1.
        -11    1    4    4    0    0 -0.88262344048E+01 -0.12754667527E+02 -0.71168270299E+01  0.17065555506E+02  0.51100000000E-03 0.  1.
        -12    1    4    4    0    0  0.26550834668E+02 -0.18607782902E+02 -0.10813891589E+01  0.32440188171E+02  0.00000000000E+00 0.  1.
</event>
<event>
 8    1  0.2497772E-006  0.9118800E+02  0.7816164E-02  0.1184000E+00
        -11   -1    0    0    0    0  0.00000000000E+00  0.00000000000E+00  0.45593999997E+02  0.45594000000E+02  0.51100000000E-03 0.  1.
         11   -1    0    0    0    0 -0.00000000000E+00 -0.00000000000E+00 -0.45593999997E+02  0.45594000000E+02  0.51100000000E-03 0. -1.
         23    2    1    2    0    0  0.35527136788E-14  0.00000000000E+00  0.17763568394E-14  0.91188000000E+02  0.91188000000E+02 0.  0.
    9900012    2    3    3    0    0  0.28673386913E+02  0.17100991572E+02 -0.15529736559E+02  0.54367085462E+02  0.40000002928E+02 0.  0.
        -12    1    3    3    0    0 -0.28673386913E+02 -0.17100991572E+02  0.15529736559E+02  0.36820914538E+02  0.00000000000E+00 0.  1.
         11    1    4    4    0    0 -0.27867526216E+01  0.13519437055E+01 -0.12764490557E+02  0.13134913833E+02  0.51100000000E-03 0.  1.
        -11    1    4    4    0    0  0.13141179057E+02  0.38016046824E+01  0.90221832637E+01  0.16387268726E+02  0.51100000000E-03 0. -1.
         12    1    4    4    0    0  0.18318960477E+02  0.11947443184E+02 -0.11787429266E+02  0.24844902904E+02  0.00000000000E+00 0. -1.
</event>
<event>
 8    1  0.2497772E-006  0.9118800E+02  0.7816164E-02  0.1184000E+00
        -11   -1    0    0    0    0  0.00000000000E+00  0.00000000000E+00  0.45593999997E+02  0.45594000000E+02  0.51100000000E-03 0.  1.
         11   -1    0    0    0    0 -0.00000000000E+00 -0.00000000000E+00 -0.45593999997E+02  0.45594000000E+02  0.51100000000E-03 0. -1.
         23    2    1    2    0    0  0.00000000000E+00  0.00000000000E+00  0.35527136788E-14  0.91188000000E+02  0.91188000000E+02 0.  0.
    9900012    2    3    3    0    0 -0.28620337860E+02  0.13159590725E+02 -0.19064999239E+02  0.54367180301E+02  0.40000219132E+02 0.  0.
        -12    1    3    3    0    0  0.28620337860E+02 -0.13159590725E+02  0.19064999239E+02  0.36820819699E+02  0.00000000000E+00 0.  1.
         11    1    4    4    0    0 -0.10525630494E+02  0.15090854086E+02 -0.13350850084E+01  0.18447363676E+02  0.51100000000E-03 0. -1.
        -11    1    4    4    0    0 -0.22767852293E+02 -0.29182337008E+01 -0.67184549855E+01  0.23917124067E+02  0.51100000000E-03 0.  1.
         12    1    4    4    0    0  0.46731449264E+01  0.98697033982E+00 -0.11011459245E+02  0.12002692559E+02  0.00000000000E+00 0. -1.
</event>
<event>
 8    1  0.2497772E-006  0.9118800E+02  0.7816164E-02  0.1184000E+00
        -11   -1    0    0    0    0  0.00000000000E+00  0.00000000000E+00  0.45593999997E+02  0.45594000000E+02  0.51100000000E-03 0.  1.
         11   -1    0    0    0    0 -0.00000000000E+00 -0.00000000000E+00 -0.45593999997E+02  0.45594000000E+02  0.51100000000E-03 0. -1.
         23    2    1    2    0    0  0.35527136788E-14  0.00000000000E+00  0.00000000000E+00  0.91188000000E+02  0.91188000000E+02 0.  0.
    9900012    2    3    3    0    0  0.29557848112E+02 -0.13794613532E+01  0.21913694960E+02  0.54367091192E+02  0.40000015990E+02 0.  0.
        -12    1    3    3    0    0 -0.29557848112E+02  0.13794613532E+01 -0.21913694960E+02  0.36820908808E+02  0.00000000000E+00 0.  1.
         11    1    4    4    0    0  0.44930442334E+01 -0.59202671456E+01  0.17846673026E+01  0.76434316377E+01  0.51100000000E-03 0. -1.
        -11    1    4    4    0    0  0.94946565418E+01 -0.10891180409E+00  0.27342957694E+02  0.28944735279E+02  0.51100000000E-03 0.  1.
        -12    1    4    4    0    0  0.15570147337E+02  0.46497175965E+01 -0.72139300364E+01  0.17778924276E+02  0.00000000000E+00 0.  1.
</event>
<event>
 8    1  0.2497772E-006  0.9118800E+02  0.7816164E-02  0.1184000E+00
        -11   -1    0    0    0    0  0.00000000000E+00  0.00000000000E+00  0.45593999997E+02  0.45594000000E+02  0.51100000000E-03 0.  1.
         11   -1    0    0    0    0 -0.00000000000E+00 -0.00000000000E+00 -0.45593999997E+02  0.45594000000E+02  0.51100000000E-03 0. -1.
         23    2    1    2    0    0  0.00000000000E+00  0.00000000000E+00  0.88817841970E-15  0.91188000000E+02  0.91188000000E+02 0.  0.
    9900012    2    3    3    0    0  0.34528259358E+02  0.11324363417E+02  0.59443093084E+01  0.54367126650E+02  0.40000096824E+02 0.  0.
         12    1    3    3    0    0 -0.34528259358E+02 -0.11324363417E+02 -0.59443093084E+01  0.36820873350E+02  0.00000000000E+00 0. -1.
         11    1    4    4    0    0  0.29313328774E+02 -0.56181758842E+01 -0.39460746086E+01  0.30106588136E+02  0.51100000000E-03 0. -1.
        -11    1    4    4    0    0  0.59482652159E+01  0.14336594145E+02  0.12921745327E+02  0.20196318806E+02  0.51100000000E-03 0.  1.
        -12    1    4    4    0    0 -0.73333463165E+00  0.26059451560E+01 -0.30313614100E+01  0.40642197082E+01  0.00000000000E+00 0.  1.
</event>
<event>
 8    1  0.2497772E-006  0.9118800E+02  0.7816164E-02  0.1184000E+00
        -11   -1    0    0    0    0  0.00000000000E+00  0.00000000000E+00  0.45593999997E+02  0.45594000000E+02  0.51100000000E-03 0.  1.
         11   -1    0    0    0    0 -0.00000000000E+00 -0.00000000000E+00 -0.45593999997E+02  0.45594000000E+02  0.51100000000E-03 0. -1.
         23    2    1    2    0    0  0.35527136788E-14 -0.17763568394E-14  0.00000000000E+00  0.91188000000E+02  0.91188000000E+02 0.  0.
    9900012    2    3    3    0    0  0.30255866092E+02  0.13972718744E+02 -0.15656462290E+02  0.54367094070E+02  0.40000022552E+02 0.  0.
         12    1    3    3    0    0 -0.30255866092E+02 -0.13972718744E+02  0.15656462290E+02  0.36820905930E+02  0.00000000000E+00 0. -1.
         11    1    4    4    0    0 -0.20793204213E+01 -0.44889850235E+01 -0.13633070072E+02  0.14502936247E+02  0.51100000000E-03 0. -1.
        -11    1    4    4    0    0  0.78901553279E+01  0.33945493520E+01  0.54748445974E+01  0.10185845082E+02  0.51100000000E-03 0.  1.
         12    1    4    4    0    0  0.24445031185E+02  0.15067154415E+02 -0.74982368155E+01  0.29678312741E+02  0.00000000000E+00 0. -1.
</event>
<event>
 8    1  0.2497772E-006  0.9118800E+02  0.7816164E-02  0.1184000E+00
        -11   -1    0    0    0    0  0.00000000000E+00  0.00000000000E+00  0.45593999997E+02  0.45594000000E+02  0.51100000000E-03 0.  1.
         11   -1    0    0    0    0 -0.00000000000E+00 -0.00000000000E+00 -0.45593999997E+02  0.45594000000E+02  0.51100000000E-03 0. -1.
         23    2    1    2    0    0  0.44408920985E-15  0.00000000000E+00  0.00000000000E+00  0.91188000000E+02  0.91188000000E+02 0.  0.
    9900012    2    3    3    0    0 -0.14675041579E+01 -0.33459155134E+02  0.15300677342E+02  0.54367090751E+02  0.40000014986E+02 0.  0.
        -12    1    3    3    0    0  0.14675041579E+01  0.33459155134E+02 -0.15300677342E+02  0.36820909249E+02  0.00000000000E+00 0.  1.
         11    1    4    4    0    0  0.10308950441E+01 -0.22285017782E+02  0.19333706710E+02  0.29520788905E+02  0.51100000000E-03 0.  1.
        -11    1    4    4    0    0  0.54615528954E+01 -0.36556399815E+01 -0.10309092767E+02  0.12225778407E+02  0.51100000000E-03 0. -1.
        -12    1    4    4    0    0 -0.79599520974E+01 -0.75184973711E+01  0.62760633989E+01  0.12620523440E+02  0.00000000000E+00 0.  1.
</event>
<event>
 8    1  0.2497772E-006  0.9118800E+02  0.7816164E-02  0.1184000E+00
        -11   -1    0    0    0    0  0.00000000000E+00  0.00000000000E+00  0.45593999997E+02  0.45594000000E+02  0.51100000000E-03 0.  1.
         11   -1    0    0    0    0 -0.00000000000E+00 -0.00000000000E+00 -0.45593999997E+02  0.45594000000E+02  0.51100000000E-03 0. -1.
         23    2    1    2    0    0  0.00000000000E+00  0.00000000000E+00  0.00000000000E+00  0.91188000000E+02  0.91188000000E+02 0.  0.
    9900012    2    3    3    0    0 -0.15828254062E+02  0.14207319196E+02  0.30056563318E+02  0.54367101805E+02  0.40000040185E+02 0.  0.
         12    1    3    3    0    0  0.15828254062E+02 -0.14207319196E+02 -0.30056563318E+02  0.36820898195E+02  0.00000000000E+00 0. -1.
         11    1    4    4    0    0  0.11175935085E+01  0.92192004114E+01  0.16529414148E+02  0.18959541234E+02  0.51100000000E-03 0. -1.
        -11    1    4    4    0    0 -0.10713029546E+02  0.68459129609E+01  0.21585941361E+02  0.25051714333E+02  0.51100000000E-03 0.  1.
         12    1    4    4    0    0 -0.62328180243E+01 -0.18577941763E+01 -0.80587921907E+01  0.10355846238E+02  0.00000000000E+00 0. -1.
</event>
<event>
 8    1  0.2497772E-006  0.9118800E+02  0.7816164E-02  0.1184000E+00
        -11   -1    0    0    0    0  0.00000000000E+00  0.00000000000E+00  0.45593999997E+02  0.45594000000E+02  0.51100000000E-03 0.  1.
         11   -1    0    0    0    0 -0.00000000000E+00 -0.00000000000E+00 -0.45593999997E+02  0.45594000000E+02  0.51100000000E-03 0. -1.
         23    2    1    2    0    0  0.00000000000E+00  0.44408920985E-15  0.00000000000E+00  0.91188000000E+02  0.91188000000E+02 0.  0.
    9900012    2    3    3    0    0  0.34085147873E+02  0.36783018305E+01 -0.13433269253E+02  0.54367082946E+02  0.39999997192E+02 0.  0.
        -12    1    3    3    0    0 -0.34085147873E+02 -0.36783018305E+01  0.13433269253E+02  0.36820917054E+02  0.00000000000E+00 0.  1.
         11    1    4    4    0    0 -0.95678472551E+00  0.73462179674E+01  0.19688474215E+01  0.76654233977E+01  0.51100000000E-03 0. -1.
        -11    1    4    4    0    0  0.22244499691E+02  0.77550502161E+01 -0.17601885417E+02  0.29407225998E+02  0.51100000000E-03 0.  1.
        -12    1    4    4    0    0  0.12797432907E+02 -0.11422966353E+02  0.21997687427E+01  0.17294433551E+02  0.00000000000E+00 0.  1.
</event>
<event>
 8    1  0.2497772E-006  0.9118800E+02  0.7816164E-02  0.1184000E+00
        -11   -1    0    0    0    0  0.00000000000E+00  0.00000000000E+00  0.45593999997E+02  0.45594000000E+02  0.51100000000E-03 0.  1.
         11   -1    0    0    0    0 -0.00000000000E+00 -0.00000000000E+00 -0.45593999997E+02  0.45594000000E+02  0.51100000000E-03 0. -1.
         23    2    1    2    0    0  0.35527136788E-14  0.00000000000E+00  0.00000000000E+00  0.91188000000E+02  0.91188000000E+02 0.  0.
    9900012    2    3    3    0    0  0.21894700143E+02  0.15451860458E+02  0.25251643173E+02  0.54367036285E+02  0.39999890819E+02 0.  0.
         12    1    3    3    0    0 -0.21894700143E+02 -0.15451860458E+02 -0.25251643173E+02  0.36820963715E+02  0.00000000000E+00 0. -1.
         11    1    4    4    0    0  0.97754533057E+01  0.15750345722E+02 -0.18626028356E+01  0.18630678122E+02  0.51100000000E-03 0. -1.
        -11    1    4    4    0    0  0.17689931692E+02 -0.44491794811E+00  0.21076825810E+02  0.27520251121E+02  0.51100000000E-03 0.  1.
         12    1    4    4    0    0 -0.55706848546E+01  0.14643268355E+00  0.60374201986E+01  0.82161070426E+01  0.00000000000E+00 0. -1.
</event>
<event>
 8    1  0.2497772E-006  0.9118800E+02  0.7816164E-02  0.1184000E+00
        -11   -1    0    0    0    0  0.00000000000E+00  0.00000000000E+00  0.45593999997E+02  0.45594000000E+02  0.51100000000E-03 0. -1.
         11   -1    0    0    0    0 -0.00000000000E+00 -0.00000000000E+00 -0.45593999997E+02  0.45594000000E+02  0.51100000000E-03 0.  1.
         23    2    1    2    0    0 -0.17763568394E-14 -0.44408920985E-15  0.00000000000E+00  0.91188000000E+02  0.91188000000E+02 0.  0.
    9900012    2    3    3    0    0  0.98997580797E+01  0.17586726846E+01  0.35421486016E+02  0.54367084595E+02  0.40000000952E+02 0.  0.
        -12    1    3    3    0    0 -0.98997580797E+01 -0.17586726846E+01 -0.35421486016E+02  0.36820915405E+02  0.00000000000E+00 0.  1.
         11    1    4    4    0    0  0.88312030581E+01  0.28657109929E+01  0.23619301294E+02  0.25378609907E+02  0.51100000000E-03 0. -1.
        -11    1    4    4    0    0  0.11989370643E+02  0.42623726208E+01  0.10953255894E+02  0.16789480151E+02  0.51100000000E-03 0.  1.
        -12    1    4    4    0    0 -0.10920815621E+02 -0.53694109290E+01  0.84892882762E+00  0.12198994537E+02  0.00000000000E+00 0.  1.
</event>
<event>
 8    1  0.2497772E-006  0.9118800E+02  0.7816164E-02  0.1184000E+00
        -11   -1    0    0    0    0  0.00000000000E+00  0.00000000000E+00  0.45593999997E+02  0.45594000000E+02  0.51100000000E-03 0.  1.
         11   -1    0    0    0    0 -0.00000000000E+00 -0.00000000000E+00 -0.45593999997E+02  0.45594000000E+02  0.51100000000E-03 0. -1.
         23    2    1    2    0    0 -0.35527136788E-14  0.00000000000E+00 -0.17763568394E-14  0.91188000000E+02  0.91188000000E+02 0.  0.
    9900012    2    3    3    0    0 -0.31275556530E+02 -0.15418985289E+02 -0.11826825764E+02  0.54367090841E+02  0.40000015191E+02 0.  0.
        -12    1    3    3    0    0  0.31275556530E+02  0.15418985289E+02  0.11826825764E+02  0.36820909159E+02  0.00000000000E+00 0.  1.
         11    1    4    4    0    0 -0.97602916318E+01 -0.18020321634E+02  0.92529836860E+01  0.22485839808E+02  0.51100000000E-03 0. -1.
        -11    1    4    4    0    0 -0.19454911987E+02 -0.17736116016E+00 -0.13898172268E+02  0.23909919490E+02  0.51100000000E-03 0.  1.
         12    1    4    4    0    0 -0.20603529117E+01  0.27786975054E+01 -0.71816371821E+01  0.79713315427E+01  0.00000000000E+00 0. -1.
</event>
<event>
 8    1  0.2497772E-006  0.9118800E+02  0.7816164E-02  0.1184000E+00
        -11   -1    0    0    0    0  0.00000000000E+00  0.00000000000E+00  0.45593999997E+02  0.45594000000E+02  0.51100000000E-03 0. -1.
         11   -1    0    0    0    0 -0.00000000000E+00 -0.00000000000E+00 -0.45593999997E+02  0.45594000000E+02  0.51100000000E-03 0.  1.
         23    2    1    2    0    0 -0.35527136788E-14 -0.44408920985E-15  0.35527136788E-14  0.91188000000E+02  0.91188000000E+02 0.  0.
    9900012    2    3    3    0    0 -0.22998544442E+02  0.31818215107E+01 -0.28578372705E+02  0.54367076314E+02  0.39999982074E+02 0.  0.
         12    1    3    3    0    0  0.22998544442E+02 -0.31818215107E+01  0.28578372705E+02  0.36820923686E+02  0.00000000000E+00 0. -1.
         11    1    4    4    0    0  0.50093897023E+01 -0.30475230216E+01  0.43540808989E+01  0.73033829485E+01  0.51100000000E-03 0. -1.
        -11    1    4    4    0    0  0.22841953562E+01 -0.25550362591E+00 -0.80930416656E+00  0.24367609696E+01  0.51100000000E-03 0.  1.
        -12    1    4    4    0    0 -0.30292129501E+02  0.64848481583E+01 -0.32123149438E+02  0.44626932396E+02  0.00000000000E+00 0.  1.
</event>
<event>
 8    1  0.2497772E-006  0.9118800E+02  0.7816164E-02  0.1184000E+00
        -11   -1    0    0    0    0  0.00000000000E+00  0.00000000000E+00  0.45593999997E+02  0.45594000000E+02  0.51100000000E-03 0. -1.
         11   -1    0    0    0    0 -0.00000000000E+00 -0.00000000000E+00 -0.45593999997E+02  0.45594000000E+02  0.51100000000E-03 0.  1.
         23    2    1    2    0    0  0.00000000000E+00  0.35527136788E-14  0.00000000000E+00  0.91188000000E+02  0.91188000000E+02 0.  0.
    9900012    2    3    3    0    0 -0.14230391001E+02 -0.16015031023E+02  0.29946596754E+02  0.54367029021E+02  0.39999874258E+02 0.  0.
        -12    1    3    3    0    0  0.14230391001E+02  0.16015031023E+02 -0.29946596754E+02  0.36820970979E+02  0.00000000000E+00 0.  1.
         11    1    4    4    0    0 -0.92762338323E+01 -0.98176407095E+01  0.15243628506E+02  0.20366707969E+02  0.51100000000E-03 0.  1.
        -11    1    4    4    0    0  0.92150751399E+01  0.67040328630E+01  0.68113076999E+01  0.13276128174E+02  0.51100000000E-03 0. -1.
         12    1    4    4    0    0 -0.14169232308E+02 -0.12901423176E+02  0.78916605483E+01  0.20724192877E+02  0.00000000000E+00 0. -1.
</event>
<event>
 8    1  0.2497772E-006  0.9118800E+02  0.7816164E-02  0.1184000E+00
        -11   -1    0    0    0    0  0.00000000000E+00  0.00000000000E+00  0.45593999997E+02  0.45594000000E+02  0.51100000000E-03 0.  1.
         11   -1    0    0    0    0 -0.00000000000E+00 -0.00000000000E+00 -0.45593999997E+02  0.45594000000E+02  0.51100000000E-03 0. -1.
         23    2    1    2    0    0 -0.35527136788E-14  0.71054273576E-14  0.35527136788E-14  0.91188000000E+02  0.91188000000E+02 0.  0.
    9900012    2    3    3    0    0 -0.19687925419E+02 -0.24164551768E+02 -0.19602063404E+02  0.54367070366E+02  0.39999968513E+02 0.  0.
        -12    1    3    3    0    0  0.19687925419E+02  0.24164551768E+02  0.19602063404E+02  0.36820929634E+02  0.00000000000E+00 0.  1.
         11    1    4    4    0    0 -0.11133270626E+02 -0.17507275611E+02 -0.26797744622E+02  0.33890611255E+02  0.51100000000E-03 0. -1.
        -11    1    4    4    0    0 -0.30606207395E+00  0.29692256015E+01 -0.29820451191E+01  0.42193089504E+01  0.51100000000E-03 0.  1.
        -12    1    4    4    0    0 -0.82485927190E+01 -0.96265017584E+01  0.10177726337E+02  0.16257150161E+02  0.00000000000E+00 0.  1.
</event>
<event>
 8    1  0.2497772E-006  0.9118800E+02  0.7816164E-02  0.1184000E+00
        -11   -1    0    0    0    0  0.00000000000E+00  0.00000000000E+00  0.45593999997E+02  0.45594000000E+02  0.51100000000E-03 0.  1.
         11   -1    0    0    0    0 -0.00000000000E+00 -0.00000000000E+00 -0.45593999997E+02  0.45594000000E+02  0.51100000000E-03 0. -1.
         23    2    1    2    0    0 -0.66613381478E-15  0.22204460493E-15  0.00000000000E+00  0.91188000000E+02  0.91188000000E+02 0.  0.
    9900012    2    3    3    0    0  0.36306742890E+00 -0.19984715607E+01  0.36764805298E+02  0.54367127996E+02  0.40000099893E+02 0.  0.
         12    1    3    3    0    0 -0.36306742890E+00  0.19984715607E+01 -0.36764805298E+02  0.36820872004E+02  0.00000000000E+00 0. -1.
         11    1    4    4    0    0  0.51051347461E+01  0.12070715395E+01  0.15604975044E+02  0.16463130591E+02  0.51100000000E-03 0. -1.
        -11    1    4    4    0    0 -0.76803543619E+01 -0.16203315858E+02  0.14182065203E+02  0.22861895407E+02  0.51100000000E-03 0.  1.
         12    1    4    4    0    0  0.29382870447E+01  0.12997772758E+02  0.69777650506E+01  0.15042101998E+02  0.00000000000E+00 0. -1.
</event>
<event>
 8    1  0.2497772E-006  0.9118800E+02  0.7816164E-02  0.1184000E+00
        -11   -1    0    0    0    0  0.00000000000E+00  0.00000000000E+00  0.45593999997E+02  0.45594000000E+02  0.51100000000E-03 0. -1.
         11   -1    0    0    0    0 -0.00000000000E+00 -0.00000000000E+00 -0.45593999997E+02  0.45594000000E+02  0.51100000000E-03 0.  1.
         23    2    1    2    0    0  0.00000000000E+00  0.35527136788E-14  0.00000000000E+00  0.91188000000E+02  0.91188000000E+02 0.  0.
    9900012    2    3    3    0    0  0.12371481386E+02 -0.31124439806E+02  0.15296887640E+02  0.54367094574E+02  0.40000023700E+02 0.  0.
        -12    1    3    3    0    0 -0.12371481386E+02  0.31124439806E+02 -0.15296887640E+02  0.36820905426E+02  0.00000000000E+00 0.  1.
         11    1    4    4    0    0  0.83277580745E+01 -0.85750090454E+01 -0.72759568614E+01  0.13993637239E+02  0.51100000000E-03 0. -1.
        -11    1    4    4    0    0 -0.78767671711E+01 -0.60528228542E+00  0.23583090961E+01  0.82444799574E+01  0.51100000000E-03 0.  1.
         12    1    4    4    0    0  0.11920490483E+02 -0.21944148475E+02  0.20214535405E+02  0.32128977377E+02  0.00000000000E+00 0. -1.
</event>
<event>
 8    1  0.2497772E-006  0.9118800E+02  0.7816164E-02  0.1184000E+00
        -11   -1    0    0    0    0  0.00000000000E+00  0.00000000000E+00  0.45593999997E+02  0.45594000000E+02  0.51100000000E-03 0.  1.
         11   -1    0    0    0    0 -0.00000000000E+00 -0.00000000000E+00 -0.45593999997E+02  0.45594000000E+02  0.51100000000E-03 0. -1.
         23    2    1    2    0    0  0.00000000000E+00 -0.35527136788E-14  0.00000000000E+00  0.91188000000E+02  0.91188000000E+02 0.  0.
    9900012    2    3    3    0    0  0.22075282067E+02  0.16878256993E+02 -0.24157629662E+02  0.54367018096E+02  0.39999849354E+02 0.  0.
        -12    1    3    3    0    0 -0.22075282067E+02 -0.16878256993E+02  0.24157629662E+02  0.36820981904E+02  0.00000000000E+00 0.  1.
         11    1    4    4    0    0  0.44205242039E+01  0.10748321536E+02 -0.27972700696E+01  0.11953751301E+02  0.51100000000E-03 0. -1.
        -11    1    4    4    0    0 -0.20665953440E+01  0.10312172464E+02  0.28614049884E+01  0.10899511733E+02  0.51100000000E-03 0.  1.
         12    1    4    4    0    0  0.19721353207E+02 -0.41822370068E+01 -0.24221764581E+02  0.31513755062E+02  0.00000000000E+00 0. -1.
</event>
<event>
 8    1  0.2497772E-006  0.9118800E+02  0.7816164E-02  0.1184000E+00
        -11   -1    0    0    0    0  0.00000000000E+00  0.00000000000E+00  0.45593999997E+02  0.45594000000E+02  0.51100000000E-03 0. -1.
         11   -1    0    0    0    0 -0.00000000000E+00 -0.00000000000E+00 -0.45593999997E+02  0.45594000000E+02  0.51100000000E-03 0.  1.
         23    2    1    2    0    0  0.00000000000E+00 -0.44408920985E-15  0.35527136788E-14  0.91188000000E+02  0.91188000000E+02 0.  0.
    9900012    2    3    3    0    0 -0.24386587364E+02 -0.36476956585E+01 -0.27345354510E+02  0.54367085561E+02  0.40000003154E+02 0.  0.
         12    1    3    3    0    0  0.24386587364E+02  0.36476956585E+01  0.27345354510E+02  0.36820914439E+02  0.00000000000E+00 0. -1.
         11    1    4    4    0    0  0.28885205986E+01  0.11266951328E+01 -0.29155488690E+01  0.42559862123E+01  0.51100000000E-03 0. -1.
        -11    1    4    4    0    0  0.74357263787E+01  0.27488350017E+01 -0.22617486169E+01  0.82438842612E+01  0.51100000000E-03 0.  1.
        -12    1    4    4    0    0 -0.34710834341E+02 -0.75232257930E+01 -0.22168057024E+02  0.41867215088E+02  0.00000000000E+00 0.  1.
</event>
<event>
 8    1  0.2497772E-006  0.9118800E+02  0.7816164E-02  0.1184000E+00
        -11   -1    0    0    0    0  0.00000000000E+00  0.00000000000E+00  0.45593999997E+02  0.45594000000E+02  0.51100000000E-03 0.  1.
         11   -1    0    0    0    0 -0.00000000000E+00 -0.00000000000E+00 -0.45593999997E+02  0.45594000000E+02  0.51100000000E-03 0. -1.
         23    2    1    2    0    0 -0.35527136788E-14  0.00000000000E+00  0.00000000000E+00  0.91188000000E+02  0.91188000000E+02 0.  0.
    9900012    2    3    3    0    0 -0.31377672075E+02 -0.18190675968E+02 -0.63498844203E+01  0.54367081636E+02  0.39999994206E+02 0.  0.
         12    1    3    3    0    0  0.31377672075E+02  0.18190675968E+02  0.63498844203E+01  0.36820918364E+02  0.00000000000E+00 0. -1.
         11    1    4    4    0    0 -0.16299493500E+02  0.32279463137E+01 -0.10761442367E+02  0.19796508981E+02  0.51100000000E-03 0.  1.
        -11    1    4    4    0    0 -0.88078105208E+01 -0.10884340657E+02 -0.88079027320E+01  0.16541630769E+02  0.51100000000E-03 0. -1.
        -12    1    4    4    0    0 -0.62703680539E+01 -0.10534281624E+02  0.13219460679E+02  0.18028941885E+02  0.00000000000E+00 0.  1.
</event>
<event>
 8    1  0.2497772E-006  0.9118800E+02  0.7816164E-02  0.1184000E+00
        -11   -1    0    0    0    0  0.00000000000E+00  0.00000000000E+00  0.45593999997E+02  0.45594000000E+02  0.51100000000E-03 0. -1.
         11   -1    0    0    0    0 -0.00000000000E+00 -0.00000000000E+00 -0.45593999997E+02  0.45594000000E+02  0.51100000000E-03 0.  1.
         23    2    1    2    0    0 -0.55511151231E-16  0.00000000000E+00  0.00000000000E+00  0.91188000000E+02  0.91188000000E+02 0.  0.
    9900012    2    3    3    0    0 -0.31799861444E+00  0.94912629196E+01  0.35575225011E+02  0.54367057188E+02  0.39999938472E+02 0.  0.
        -12    1    3    3    0    0  0.31799861444E+00 -0.94912629196E+01 -0.35575225011E+02  0.36820942812E+02  0.00000000000E+00 0.  1.
         11    1    4    4    0    0 -0.68674755012E+01  0.21067163183E+02  0.14937239256E+02  0.26722812374E+02  0.51100000000E-03 0. -1.
        -11    1    4    4    0    0 -0.76555327721E+00 -0.66150983192E+00 -0.15540146479E+01  0.18543540290E+01  0.51100000000E-03 0.  1.
         12    1    4    4    0    0  0.73150301640E+01 -0.10914390432E+02  0.22192000403E+02  0.25789890785E+02  0.00000000000E+00 0. -1.
</event>
<event>
 8    1  0.2497772E-006  0.9118800E+02  0.7816164E-02  0.1184000E+00
        -11   -1    0    0    0    0  0.00000000000E+00  0.00000000000E+00  0.45593999997E+02  0.45594000000E+02  0.51100000000E-03 0. -1.
         11   -1    0    0    0    0 -0.00000000000E+00 -0.00000000000E+00 -0.45593999997E+02  0.45594000000E+02  0.51100000000E-03 0.  1.
         23    2    1    2    0    0  0.00000000000E+00  0.44408920985E-15 -0.71054273576E-14  0.91188000000E+02  0.91188000000E+02 0.  0.
    9900012    2    3    3    0    0 -0.10740901453E+02 -0.30885738452E+01 -0.35083826629E+02  0.54367066507E+02  0.39999959715E+02 0.  0.
         12    1    3    3    0    0  0.10740901453E+02  0.30885738452E+01  0.35083826629E+02  0.36820933493E+02  0.00000000000E+00 0. -1.
         11    1    4    4    0    0 -0.72979418915E+01 -0.26570118171E+01  0.74664970180E+01  0.10773497372E+02  0.51100000000E-03 0. -1.
        -11    1    4    4    0    0  0.23773904824E+01  0.15181512639E+01 -0.20914585749E+02  0.21103949063E+02  0.51100000000E-03 0.  1.
        -12    1    4    4    0    0 -0.58203500440E+01 -0.19497132920E+01 -0.21635737898E+02  0.22489620071E+02  0.00000000000E+00 0.  1.
</event>
<event>
 8    1  0.2497772E-006  0.9118800E+02  0.7816164E-02  0.1184000E+00
        -11   -1    0    0    0    0  0.00000000000E+00  0.00000000000E+00  0.45593999997E+02  0.45594000000E+02  0.51100000000E-03 0. -1.
         11   -1    0    0    0    0 -0.00000000000E+00 -0.00000000000E+00 -0.45593999997E+02  0.45594000000E+02  0.51100000000E-03 0.  1.
         23    2    1    2    0    0  0.35527136788E-14 -0.35527136788E-14 -0.71054273576E-14  0.91188000000E+02  0.91188000000E+02 0.  0.
    9900012    2    3    3    0    0  0.25094127755E+02 -0.19432132690E+02 -0.18667010925E+02  0.54367077612E+02  0.39999985032E+02 0.  0.
         12    1    3    3    0    0 -0.25094127755E+02  0.19432132690E+02  0.18667010925E+02  0.36820922388E+02  0.00000000000E+00 0. -1.
         11    1    4    4    0    0  0.19794481759E+02  0.76559709259E+00 -0.23154215793E+01  0.19944142608E+02  0.51100000000E-03 0. -1.
        -11    1    4    4    0    0  0.52449831594E+01 -0.80950848127E+01 -0.19640489868E+02  0.21881249713E+02  0.51100000000E-03 0.  1.
         12    1    4    4    0    0  0.54662836190E-01 -0.12102644970E+02  0.32889005227E+01  0.12541685291E+02  0.00000000000E+00 0. -1.
</event>
<event>
 8    1  0.2497772E-006  0.9118800E+02  0.7816164E-02  0.1184000E+00
        -11   -1    0    0    0    0  0.00000000000E+00  0.00000000000E+00  0.45593999997E+02  0.45594000000E+02  0.51100000000E-03 0. -1.
         11   -1    0    0    0    0 -0.00000000000E+00 -0.00000000000E+00 -0.45593999997E+02  0.45594000000E+02  0.51100000000E-03 0.  1.
         23    2    1    2    0    0  0.00000000000E+00 -0.35527136788E-14  0.35527136788E-14  0.91188000000E+02  0.91188000000E+02 0.  0.
    9900012    2    3    3    0    0  0.14043601669E+02  0.22165352540E+02  0.25831269531E+02  0.54367080855E+02  0.39999992425E+02 0.  0.
        -12    1    3    3    0    0 -0.14043601669E+02 -0.22165352540E+02 -0.25831269531E+02  0.36820919145E+02  0.00000000000E+00 0.  1.
         11    1    4    4    0    0  0.88870297622E+01  0.15102857869E+02  0.27061988606E+01  0.17731303571E+02  0.51100000000E-03 0. -1.
        -11    1    4    4    0    0  0.77689206509E+01  0.53111205709E+00 -0.39007869816E+01  0.87094401333E+01  0.51100000000E-03 0.  1.
         12    1    4    4    0    0 -0.26123487437E+01  0.65313826145E+01  0.27025857652E+02  0.27926337151E+02  0.00000000000E+00 0. -1.
</event>
<event>
 8    1  0.2497772E-006  0.9118800E+02  0.7816164E-02  0.1184000E+00
        -11   -1    0    0    0    0  0.00000000000E+00  0.00000000000E+00  0.45593999997E+02  0.45594000000E+02  0.51100000000E-03 0. -1.
         11   -1    0    0    0    0 -0.00000000000E+00 -0.00000000000E+00 -0.45593999997E+02  0.45594000000E+02  0.51100000000E-03 0.  1.
         23    2    1    2    0    0  0.00000000000E+00 -0.17763568394E-14  0.00000000000E+00  0.91188000000E+02  0.91188000000E+02 0.  0.
    9900012    2    3    3    0    0  0.52353619864E+01  0.11584699140E+02 -0.34556701797E+02  0.54367083276E+02  0.39999997945E+02 0.  0.
         12    1    3    3    0    0 -0.52353619864E+01 -0.11584699140E+02  0.34556701797E+02  0.36820916724E+02  0.00000000000E+00 0. -1.
         11    1    4    4    0    0  0.85322088951E+01  0.18220945811E+02 -0.27826738858E+02  0.34338445664E+02  0.51100000000E-03 0. -1.
        -11    1    4    4    0    0  0.60001226126E+01 -0.42299448271E+01 -0.73720143827E+01  0.10403869517E+02  0.51100000000E-03 0.  1.
         12    1    4    4    0    0 -0.92969695213E+01 -0.24063018438E+01  0.64205144375E+00  0.96247680959E+01  0.00000000000E+00 0. -1.
</event>
<event>
 8    1  0.2497772E-006  0.9118800E+02  0.7816164E-02  0.1184000E+00
        -11   -1    0    0    0    0  0.00000000000E+00  0.00000000000E+00  0.45593999997E+02  0.45594000000E+02  0.51100000000E-03 0.  1.
         11   -1    0    0    0    0 -0.00000000000E+00 -0.00000000000E+00 -0.45593999997E+02  0.45594000000E+02  0.51100000000E-03 0. -1.
         23    2    1    2    0    0 -0.66613381478E-15  0.00000000000E+00  0.00000000000E+00  0.91188000000E+02  0.91188000000E+02 0.  0.
    9900012    2    3    3    0    0  0.18110917456E+01 -0.85355220667E+01  0.35772133302E+02  0.54367072374E+02  0.39999973091E+02 0.  0.
         12    1    3    3    0    0 -0.18110917456E+01  0.85355220667E+01 -0.35772133302E+02  0.36820927626E+02  0.00000000000E+00 0. -1.
         11    1    4    4    0    0  0.14584404162E+02 -0.71442797794E+01  0.41270081390E+01  0.16756424881E+02  0.51100000000E-03 0. -1.
        -11    1    4    4    0    0 -0.89250039243E+00  0.40316821167E+01  0.18959165503E+02  0.19403633023E+02  0.51100000000E-03 0.  1.
         12    1    4    4    0    0 -0.11880812024E+02 -0.54229244040E+01  0.12685959660E+02  0.18207014471E+02  0.00000000000E+00 0. -1.
</event>
<event>
 8    1  0.2497772E-006  0.9118800E+02  0.7816164E-02  0.1184000E+00
        -11   -1    0    0    0    0  0.00000000000E+00  0.00000000000E+00  0.45593999997E+02  0.45594000000E+02  0.51100000000E-03 0. -1.
         11   -1    0    0    0    0 -0.00000000000E+00 -0.00000000000E+00 -0.45593999997E+02  0.45594000000E+02  0.51100000000E-03 0.  1.
         23    2    1    2    0    0  0.00000000000E+00 -0.26645352591E-14 -0.35527136788E-14  0.91188000000E+02  0.91188000000E+02 0.  0.
    9900012    2    3    3    0    0  0.30158618042E+02  0.20552377965E+01  0.21024073609E+02  0.54367110335E+02  0.40000059631E+02 0.  0.
         12    1    3    3    0    0 -0.30158618042E+02 -0.20552377965E+01 -0.21024073609E+02  0.36820889665E+02  0.00000000000E+00 0. -1.
         11    1    4    4    0    0 -0.44360101067E+00 -0.74182463960E+01 -0.51998286961E+01  0.90700264707E+01  0.51100000000E-03 0. -1.
        -11    1    4    4    0    0 -0.63063650317E+00 -0.22034101503E+01 -0.74680754258E+00  0.24104855229E+01  0.51100000000E-03 0.  1.
         12    1    4    4    0    0  0.31232855556E+02  0.11676894343E+02  0.26970709847E+02  0.42886598342E+02  0.00000000000E+00 0. -1.
</event>
<event>
 8    1  0.2497772E-006  0.9118800E+02  0.7816164E-02  0.1184000E+00
        -11   -1    0    0    0    0  0.00000000000E+00  0.00000000000E+00  0.45593999997E+02  0.45594000000E+02  0.51100000000E-03 0. -1.
         11   -1    0    0    0    0 -0.00000000000E+00 -0.00000000000E+00 -0.45593999997E+02  0.45594000000E+02  0.51100000000E-03 0.  1.
         23    2    1    2    0    0  0.35527136788E-14 -0.71054273576E-14  0.44408920985E-15  0.91188000000E+02  0.91188000000E+02 0.  0.
    9900012    2    3    3    0    0  0.18784231631E+02 -0.31564803306E+02  0.25682507782E+01  0.54367080976E+02  0.39999992701E+02 0.  0.
        -12    1    3    3    0    0 -0.18784231631E+02  0.31564803306E+02 -0.25682507782E+01  0.36820919024E+02  0.00000000000E+00 0.  1.
         11    1    4    4    0    0  0.19221898347E+01 -0.23228459715E+01  0.96614648463E+01  0.10120984656E+02  0.51100000000E-03 0. -1.
        -11    1    4    4    0    0  0.13519877561E+02 -0.21297276861E+01  0.47285372529E+01  0.14480396890E+02  0.51100000000E-03 0.  1.
        -12    1    4    4    0    0  0.33421642356E+01 -0.27112229648E+02 -0.11821751321E+02  0.29765699430E+02  0.00000000000E+00 0.  1.
</event>
<event>
 8    1  0.2497772E-006  0.9118800E+02  0.7816164E-02  0.1184000E+00
        -11   -1    0    0    0    0  0.00000000000E+00  0.00000000000E+00  0.45593999997E+02  0.45594000000E+02  0.51100000000E-03 0. -1.
         11   -1    0    0    0    0 -0.00000000000E+00 -0.00000000000E+00 -0.45593999997E+02  0.45594000000E+02  0.51100000000E-03 0.  1.
         23    2    1    2    0    0  0.00000000000E+00  0.00000000000E+00  0.00000000000E+00  0.91188000000E+02  0.91188000000E+02 0.  0.
    9900012    2    3    3    0    0 -0.29105641813E+02  0.10211021089E+02  0.20109110976E+02  0.54367086360E+02  0.40000004975E+02 0.  0.
        -12    1    3    3    0    0  0.29105641813E+02 -0.10211021089E+02 -0.20109110976E+02  0.36820913640E+02  0.00000000000E+00 0.  1.
         11    1    4    4    0    0 -0.20116326124E+01 -0.80654690674E+01 -0.77527624373E+00  0.83486232733E+01  0.51100000000E-03 0. -1.
        -11    1    4    4    0    0 -0.61505386905E+01 -0.60804755141E+01  0.65146753375E+01  0.10827848525E+02  0.51100000000E-03 0.  1.
         12    1    4    4    0    0 -0.20943470510E+02  0.24356965671E+02  0.14369711882E+02  0.35190614562E+02  0.00000000000E+00 0. -1.
</event>
<event>
 8    1  0.2497772E-006  0.9118800E+02  0.7816164E-02  0.1184000E+00
        -11   -1    0    0    0    0  0.00000000000E+00  0.00000000000E+00  0.45593999997E+02  0.45594000000E+02  0.51100000000E-03 0.  1.
         11   -1    0    0    0    0 -0.00000000000E+00 -0.00000000000E+00 -0.45593999997E+02  0.45594000000E+02  0.51100000000E-03 0. -1.
         23    2    1    2    0    0  0.00000000000E+00  0.15543122345E-14  0.00000000000E+00  0.91188000000E+02  0.91188000000E+02 0.  0.
    9900012    2    3    3    0    0 -0.15770894477E+02 -0.94189253851E+00 -0.33259162431E+02  0.54367079862E+02  0.39999990162E+02 0.  0.
        -12    1    3    3    0    0  0.15770894477E+02  0.94189253851E+00  0.33259162431E+02  0.36820920138E+02  0.00000000000E+00 0.  1.
         11    1    4    4    0    0 -0.21944973752E+01  0.17703355881E+02 -0.14146538535E+02  0.22767283127E+02  0.51100000000E-03 0. -1.
        -11    1    4    4    0    0 -0.26681192610E+01 -0.89013266386E+01 -0.28335012559E+01  0.97149990193E+01  0.51100000000E-03 0.  1.
         12    1    4    4    0    0 -0.10908277841E+02 -0.97439217810E+01 -0.16279122640E+02  0.21884797716E+02  0.00000000000E+00 0. -1.
</event>
<event>
 8    1  0.2497772E-006  0.9118800E+02  0.7816164E-02  0.1184000E+00
        -11   -1    0    0    0    0  0.00000000000E+00  0.00000000000E+00  0.45593999997E+02  0.45594000000E+02  0.51100000000E-03 0.  1.
         11   -1    0    0    0    0 -0.00000000000E+00 -0.00000000000E+00 -0.45593999997E+02  0.45594000000E+02  0.51100000000E-03 0. -1.
         23    2    1    2    0    0  0.00000000000E+00 -0.35527136788E-14  0.35527136788E-14  0.91188000000E+02  0.91188000000E+02 0.  0.
    9900012    2    3    3    0    0 -0.15597953837E+02  0.24352941597E+02 -0.22790745562E+02  0.54367081874E+02  0.39999994748E+02 0.  0.
        -12    1    3    3    0    0  0.15597953837E+02 -0.24352941597E+02  0.22790745562E+02  0.36820918126E+02  0.00000000000E+00 0.  1.
         11    1    4    4    0    0 -0.14468921088E+02  0.19199776194E+02 -0.23773179313E+02  0.33810429430E+02  0.51100000000E-03 0. -1.
        -11    1    4    4    0    0 -0.35897144012E+01  0.89257580707E+01  0.78001955042E+01  0.12385404991E+02  0.51100000000E-03 0.  1.
        -12    1    4    4    0    0  0.24606816514E+01 -0.37725926669E+01 -0.68177617535E+01  0.81712474536E+01  0.00000000000E+00 0.  1.
</event>
<event>
 8    1  0.2497772E-006  0.9118800E+02  0.7816164E-02  0.1184000E+00
        -11   -1    0    0    0    0  0.00000000000E+00  0.00000000000E+00  0.45593999997E+02  0.45594000000E+02  0.51100000000E-03 0. -1.
         11   -1    0    0    0    0 -0.00000000000E+00 -0.00000000000E+00 -0.45593999997E+02  0.45594000000E+02  0.51100000000E-03 0.  1.
         23    2    1    2    0    0 -0.17763568394E-14  0.00000000000E+00 -0.35527136788E-14  0.91188000000E+02  0.91188000000E+02 0.  0.
    9900012    2    3    3    0    0  0.98554870968E+01  0.25258633613E+02  0.24912851124E+02  0.54367090872E+02  0.40000015261E+02 0.  0.
        -12    1    3    3    0    0 -0.98554870968E+01 -0.25258633613E+02 -0.24912851124E+02  0.36820909128E+02  0.00000000000E+00 0.  1.
         11    1    4    4    0    0  0.70933338123E+01  0.31271737953E+02  0.28846888184E+02  0.43132121874E+02  0.51100000000E-03 0. -1.
        -11    1    4    4    0    0  0.47576212940E+01 -0.24856317860E+01 -0.46711809025E+01  0.71157049572E+01  0.51100000000E-03 0.  1.
         12    1    4    4    0    0 -0.19954680095E+01 -0.35274725541E+01  0.73714384176E+00  0.41192640411E+01  0.00000000000E+00 0. -1.
</event>
<event>
 8    1  0.2497772E-006  0.9118800E+02  0.7816164E-02  0.1184000E+00
        -11   -1    0    0    0    0  0.00000000000E+00  0.00000000000E+00  0.45593999997E+02  0.45594000000E+02  0.51100000000E-03 0. -1.
         11   -1    0    0    0    0 -0.00000000000E+00 -0.00000000000E+00 -0.45593999997E+02  0.45594000000E+02  0.51100000000E-03 0.  1.
         23    2    1    2    0    0  0.00000000000E+00  0.35527136788E-14  0.17763568394E-14  0.91188000000E+02  0.91188000000E+02 0.  0.
    9900012    2    3    3    0    0 -0.22726568476E+02 -0.25640020869E+02 -0.13486011268E+02  0.54367080881E+02  0.39999992485E+02 0.  0.
         12    1    3    3    0    0  0.22726568476E+02  0.25640020869E+02  0.13486011268E+02  0.36820919119E+02  0.00000000000E+00 0. -1.
         11    1    4    4    0    0 -0.37756679934E+01 -0.22333839296E+02  0.39794260463E+01  0.22997649411E+02  0.51100000000E-03 0. -1.
        -11    1    4    4    0    0 -0.19966784949E+01  0.42715806736E+01  0.13785605167E+01  0.49125915586E+01  0.51100000000E-03 0.  1.
        -12    1    4    4    0    0 -0.16954221987E+02 -0.75777622457E+01 -0.18843997831E+02  0.26456839912E+02  0.00000000000E+00 0.  1.
</event>
<event>
 8    1  0.2497772E-006  0.9118800E+02  0.7816164E-02  0.1184000E+00
        -11   -1    0    0    0    0  0.00000000000E+00  0.00000000000E+00  0.45593999997E+02  0.45594000000E+02  0.51100000000E-03 0.  1.
         11   -1    0    0    0    0 -0.00000000000E+00 -0.00000000000E+00 -0.45593999997E+02  0.45594000000E+02  0.51100000000E-03 0. -1.
         23    2    1    2    0    0  0.17763568394E-14 -0.44408920985E-15  0.71054273576E-14  0.91188000000E+02  0.91188000000E+02 0.  0.
    9900012    2    3    3    0    0  0.12193489381E+02  0.11058690923E+01  0.34725675138E+02  0.54367127611E+02  0.40000099014E+02 0.  0.
         12    1    3    3    0    0 -0.12193489381E+02 -0.11058690923E+01 -0.34725675138E+02  0.36820872389E+02  0.00000000000E+00 0. -1.
         11    1    4    4    0    0  0.19546396645E+01 -0.81911122134E+01 -0.10432917025E+01  0.84854813268E+01  0.51100000000E-03 0. -1.
        -11    1    4    4    0    0  0.17096244379E+02  0.66825516523E+01  0.33501210554E+02  0.38200381900E+02  0.51100000000E-03 0.  1.
        -12    1    4    4    0    0 -0.68573946623E+01  0.26144296534E+01  0.22677562861E+01  0.76812643842E+01  0.00000000000E+00 0.  1.
</event>
<event>
 8    1  0.2497772E-006  0.9118800E+02  0.7816164E-02  0.1184000E+00
        -11   -1    0    0    0    0  0.00000000000E+00  0.00000000000E+00  0.45593999997E+02  0.45594000000E+02  0.51100000000E-03 0.  1.
         11   -1    0    0    0    0 -0.00000000000E+00 -0.00000000000E+00 -0.45593999997E+02  0.45594000000E+02  0.51100000000E-03 0. -1.
         23    2    1    2    0    0 -0.88817841970E-15  0.00000000000E+00  0.00000000000E+00  0.91188000000E+02  0.91188000000E+02 0.  0.
    9900012    2    3    3    0    0 -0.73041242414E+01 -0.35649078050E+02 -0.56190395229E+01  0.54367073859E+02  0.39999976476E+02 0.  0.
        -12    1    3    3    0    0  0.73041242414E+01  0.35649078050E+02  0.56190395229E+01  0.36820926141E+02  0.00000000000E+00 0.  1.
         11    1    4    4    0    0  0.26581963017E+01 -0.14214954798E+02 -0.13919893157E+02  0.20072228905E+02  0.51100000000E-03 0. -1.
        -11    1    4    4    0    0  0.65640044536E+01 -0.31722816505E+01 -0.20584241708E+01  0.75753967332E+01  0.51100000000E-03 0.  1.
         12    1    4    4    0    0 -0.16526324997E+02 -0.18261841602E+02  0.10359277805E+02  0.26719448221E+02  0.00000000000E+00 0. -1.
</event>
<event>
 8    1  0.2497772E-006  0.9118800E+02  0.7816164E-02  0.1184000E+00
        -11   -1    0    0    0    0  0.00000000000E+00  0.00000000000E+00  0.45593999997E+02  0.45594000000E+02  0.51100000000E-03 0.  1.
         11   -1    0    0    0    0 -0.00000000000E+00 -0.00000000000E+00 -0.45593999997E+02  0.45594000000E+02  0.51100000000E-03 0. -1.
         23    2    1    2    0    0 -0.35527136788E-14  0.17763568394E-14  0.35527136788E-14  0.91188000000E+02  0.91188000000E+02 0.  0.
    9900012    2    3    3    0    0 -0.21937269514E+02 -0.14041079434E+02  0.26026594453E+02  0.54367091208E+02  0.40000016028E+02 0.  0.
         12    1    3    3    0    0  0.21937269514E+02  0.14041079434E+02 -0.26026594453E+02  0.36820908792E+02  0.00000000000E+00 0. -1.
         11    1    4    4    0    0  0.17213198574E+01  0.82415130465E+00  0.11141326920E+02  0.11303598243E+02  0.51100000000E-03 0. -1.
        -11    1    4    4    0    0 -0.83831070824E+01 -0.10611956774E+02  0.21888465700E+02  0.25729264309E+02  0.51100000000E-03 0.  1.
         12    1    4    4    0    0 -0.15275482289E+02 -0.42532739644E+01 -0.70031981665E+01  0.17334228657E+02  0.00000000000E+00 0. -1.
</event>
<event>
 8    1  0.2497772E-006  0.9118800E+02  0.7816164E-02  0.1184000E+00
        -11   -1    0    0    0    0  0.00000000000E+00  0.00000000000E+00  0.45593999997E+02  0.45594000000E+02  0.51100000000E-03 0.  1.
         11   -1    0    0    0    0 -0.00000000000E+00 -0.00000000000E+00 -0.45593999997E+02  0.45594000000E+02  0.51100000000E-03 0. -1.
         23    2    1    2    0    0  0.00000000000E+00  0.00000000000E+00  0.00000000000E+00  0.91188000000E+02  0.91188000000E+02 0.  0.
    9900012    2    3    3    0    0 -0.10402499419E+02  0.18417467678E+02 -0.30139111684E+02  0.54367066240E+02  0.39999959107E+02 0.  0.
        -12    1    3    3    0    0  0.10402499419E+02 -0.18417467678E+02  0.30139111684E+02  0.36820933760E+02  0.00000000000E+00 0.  1.
         11    1    4    4    0    0 -0.60921310917E+01 -0.63800714166E+01 -0.18957609501E+02  0.20909575098E+02  0.51100000000E-03 0. -1.
        -11    1    4    4    0    0  0.33123972531E+01  0.23312902839E+02 -0.66584790271E+01  0.24470364884E+02  0.51100000000E-03 0.  1.
         12    1    4    4    0    0 -0.76227655808E+01  0.14846362556E+01 -0.45230231562E+01  0.89871262583E+01  0.00000000000E+00 0. -1.
</event>
<event>
 8    1  0.2497772E-006  0.9118800E+02  0.7816164E-02  0.1184000E+00
        -11   -1    0    0    0    0  0.00000000000E+00  0.00000000000E+00  0.45593999997E+02  0.45594000000E+02  0.51100000000E-03 0. -1.
         11   -1    0    0    0    0 -0.00000000000E+00 -0.00000000000E+00 -0.45593999997E+02  0.45594000000E+02  0.51100000000E-03 0.  1.
         23    2    1    2    0    0 -0.17763568394E-14  0.00000000000E+00 -0.35527136788E-14  0.91188000000E+02  0.91188000000E+02 0.  0.
    9900012    2    3    3    0    0 -0.13695386157E+02  0.15804038637E+02 -0.30305905149E+02  0.54367093899E+02  0.40000022160E+02 0.  0.
         12    1    3    3    0    0  0.13695386157E+02 -0.15804038637E+02  0.30305905149E+02  0.36820906101E+02  0.00000000000E+00 0. -1.
         11    1    4    4    0    0  0.15605738630E+01 -0.18981357021E+01 -0.68842192024E+01  0.73096363941E+01  0.51100000000E-03 0. -1.
        -11    1    4    4    0    0 -0.12161471938E+02  0.46168415903E+01 -0.29545487433E+02  0.32282386125E+02  0.51100000000E-03 0.  1.
         12    1    4    4    0    0 -0.30944880827E+01  0.13085332748E+02  0.61238014868E+01  0.14775071380E+02  0.00000000000E+00 0. -1.
</event>
<event>
 8    1  0.2497772E-006  0.9118800E+02  0.7816164E-02  0.1184000E+00
        -11   -1    0    0    0    0  0.00000000000E+00  0.00000000000E+00  0.45593999997E+02  0.45594000000E+02  0.51100000000E-03 0. -1.
         11   -1    0    0    0    0 -0.00000000000E+00 -0.00000000000E+00 -0.45593999997E+02  0.45594000000E+02  0.51100000000E-03 0.  1.
         23    2    1    2    0    0 -0.24424906542E-14  0.00000000000E+00  0.00000000000E+00  0.91188000000E+02  0.91188000000E+02 0.  0.
    9900012    2    3    3    0    0 -0.19646951635E+01 -0.43307302321E+01  0.36512523327E+02  0.54367087313E+02  0.40000007147E+02 0.  0.
        -12    1    3    3    0    0  0.19646951635E+01  0.43307302321E+01 -0.36512523327E+02  0.36820912687E+02  0.00000000000E+00 0.  1.
         11    1    4    4    0    0  0.13309951153E+01  0.67631258114E+00 -0.38462243482E+01  0.41258197612E+01  0.51100000000E-03 0. -1.
        -11    1    4    4    0    0 -0.16364550266E+02 -0.29630315003E+01  0.24102471956E+02  0.29283224135E+02  0.51100000000E-03 0.  1.
         12    1    4    4    0    0  0.13068859987E+02 -0.20440113129E+01  0.16256275719E+02  0.20958043417E+02  0.00000000000E+00 0. -1.
</event>
<event>
 8    1  0.2497772E-006  0.9118800E+02  0.7816164E-02  0.1184000E+00
        -11   -1    0    0    0    0  0.00000000000E+00  0.00000000000E+00  0.45593999997E+02  0.45594000000E+02  0.51100000000E-03 0.  1.
         11   -1    0    0    0    0 -0.00000000000E+00 -0.00000000000E+00 -0.45593999997E+02  0.45594000000E+02  0.51100000000E-03 0. -1.
         23    2    1    2    0    0 -0.35527136788E-14 -0.88817841970E-15 -0.35527136788E-14  0.91188000000E+02  0.91188000000E+02 0.  0.
    9900012    2    3    3    0    0  0.20290551248E+02 -0.76655620326E+01  0.29754200965E+02  0.54367084934E+02  0.40000001724E+02 0.  0.
         12    1    3    3    0    0 -0.20290551248E+02  0.76655620326E+01 -0.29754200965E+02  0.36820915066E+02  0.00000000000E+00 0. -1.
         11    1    4    4    0    0  0.22209246440E+02 -0.53773726602E+01  0.88150749179E+01  0.24492290832E+02  0.51100000000E-03 0. -1.
        -11    1    4    4    0    0  0.11209807135E+01  0.89868704862E+01  0.12635381053E+02  0.15545844895E+02  0.51100000000E-03 0.  1.
        -12    1    4    4    0    0 -0.30396759049E+01 -0.11275059859E+02  0.83037449943E+01  0.14328949206E+02  0.00000000000E+00 0.  1.
</event>
<event>
 8    1  0.2497772E-006  0.9118800E+02  0.7816164E-02  0.1184000E+00
        -11   -1    0    0    0    0  0.00000000000E+00  0.00000000000E+00  0.45593999997E+02  0.45594000000E+02  0.51100000000E-03 0.  1.
         11   -1    0    0    0    0 -0.00000000000E+00 -0.00000000000E+00 -0.45593999997E+02  0.45594000000E+02  0.51100000000E-03 0. -1.
         23    2    1    2    0    0 -0.71054273576E-14  0.00000000000E+00  0.88817841970E-15  0.91188000000E+02  0.91188000000E+02 0.  0.
    9900012    2    3    3    0    0 -0.25465320550E+02 -0.26387956587E+02  0.33125161331E+01  0.54367087916E+02  0.40000008523E+02 0.  0.
         12    1    3    3    0    0  0.25465320550E+02  0.26387956587E+02 -0.33125161331E+01  0.36820912084E+02  0.00000000000E+00 0. -1.
         11    1    4    4    0    0  0.81411922922E+00 -0.24345183992E+01 -0.12680598584E+02  0.12937822486E+02  0.51100000000E-03 0. -1.
        -11    1    4    4    0    0  0.11393488032E+01 -0.39437566515E+01  0.56468230055E+00  0.41436938332E+01  0.51100000000E-03 0.  1.
        -12    1    4    4    0    0 -0.27418788583E+02 -0.20009681536E+02  0.15428432417E+02  0.37285571597E+02  0.00000000000E+00 0.  1.
</event>
<event>
 8    1  0.2497772E-006  0.9118800E+02  0.7816164E-02  0.1184000E+00
        -11   -1    0    0    0    0  0.00000000000E+00  0.00000000000E+00  0.45593999997E+02  0.45594000000E+02  0.51100000000E-03 0.  1.
         11   -1    0    0    0    0 -0.00000000000E+00 -0.00000000000E+00 -0.45593999997E+02  0.45594000000E+02  0.51100000000E-03 0. -1.
         23    2    1    2    0    0  0.88817841970E-15  0.00000000000E+00 -0.71054273576E-14  0.91188000000E+02  0.91188000000E+02 0.  0.
    9900012    2    3    3    0    0  0.70323359234E+01  0.40026073651E+01 -0.35920830756E+02  0.54367072575E+02  0.39999973548E+02 0.  0.
        -12    1    3    3    0    0 -0.70323359234E+01 -0.40026073651E+01  0.35920830756E+02  0.36820927425E+02  0.00000000000E+00 0.  1.
         11    1    4    4    0    0  0.19402471718E+02  0.15757051682E+01 -0.28262471802E+02  0.34317722362E+02  0.51100000000E-03 0. -1.
        -11    1    4    4    0    0 -0.70050556814E+01  0.80516834781E+01 -0.53643807191E+01  0.11944747494E+02  0.51100000000E-03 0.  1.
         12    1    4    4    0    0 -0.53650801130E+01 -0.56247812812E+01 -0.22939782352E+01  0.81046027184E+01  0.00000000000E+00 0. -1.
</event>
<event>
 8    1  0.2497772E-006  0.9118800E+02  0.7816164E-02  0.1184000E+00
        -11   -1    0    0    0    0  0.00000000000E+00  0.00000000000E+00  0.45593999997E+02  0.45594000000E+02  0.51100000000E-03 0.  1.
         11   -1    0    0    0    0 -0.00000000000E+00 -0.00000000000E+00 -0.45593999997E+02  0.45594000000E+02  0.51100000000E-03 0. -1.
         23    2    1    2    0    0 -0.44408920985E-15  0.00000000000E+00 -0.99920072216E-15  0.91188000000E+02  0.91188000000E+02 0.  0.
    9900012    2    3    3    0    0  0.10244886919E+01 -0.36805394335E+02 -0.30549280785E+00  0.54367082642E+02  0.39999996500E+02 0.  0.
         12    1    3    3    0    0 -0.10244886919E+01  0.36805394335E+02  0.30549280785E+00  0.36820917358E+02  0.00000000000E+00 0. -1.
         11    1    4    4    0    0  0.69722975084E+01 -0.46694701550E+01  0.13384614682E+02  0.15797619900E+02  0.51100000000E-03 0. -1.
        -11    1    4    4    0    0  0.46968214490E+01 -0.14827281323E+02 -0.40120692921E+01  0.16062537266E+02  0.51100000000E-03 0.  1.
         12    1    4    4    0    0 -0.10644630265E+02 -0.17308642857E+02 -0.96780381976E+01  0.22506925476E+02  0.00000000000E+00 0. -1.
</event>
<event>
 8    1  0.2497772E-006  0.9118800E+02  0.7816164E-02  0.1184000E+00
        -11   -1    0    0    0    0  0.00000000000E+00  0.00000000000E+00  0.45593999997E+02  0.45594000000E+02  0.51100000000E-03 0.  1.
         11   -1    0    0    0    0 -0.00000000000E+00 -0.00000000000E+00 -0.45593999997E+02  0.45594000000E+02  0.51100000000E-03 0. -1.
         23    2    1    2    0    0  0.17763568394E-14 -0.17763568394E-14  0.00000000000E+00  0.91188000000E+02  0.91188000000E+02 0.  0.
    9900012    2    3    3    0    0  0.10718774142E+02  0.14422089266E+02  0.32138564627E+02  0.54367134798E+02  0.40000115399E+02 0.  0.
         12    1    3    3    0    0 -0.10718774142E+02 -0.14422089266E+02 -0.32138564627E+02  0.36820865202E+02  0.00000000000E+00 0. -1.
         11    1    4    4    0    0 -0.18903688091E+01 -0.58365409518E+01  0.16473989191E+02  0.17579278275E+02  0.51100000000E-03 0. -1.
        -11    1    4    4    0    0  0.15628587664E+02  0.93663728624E+01  0.17585753039E+02  0.25322725035E+02  0.51100000000E-03 0.  1.
         12    1    4    4    0    0 -0.30194447127E+01  0.10892257356E+02 -0.19211776028E+01  0.11465131489E+02  0.00000000000E+00 0. -1.
</event>
<event>
 8    1  0.2497772E-006  0.9118800E+02  0.7816164E-02  0.1184000E+00
        -11   -1    0    0    0    0  0.00000000000E+00  0.00000000000E+00  0.45593999997E+02  0.45594000000E+02  0.51100000000E-03 0.  1.
         11   -1    0    0    0    0 -0.00000000000E+00 -0.00000000000E+00 -0.45593999997E+02  0.45594000000E+02  0.51100000000E-03 0. -1.
         23    2    1    2    0    0  0.00000000000E+00  0.00000000000E+00 -0.35527136788E-14  0.91188000000E+02  0.91188000000E+02 0.  0.
    9900012    2    3    3    0    0  0.32178177087E+02 -0.40721637672E+01 -0.17428757009E+02  0.54367093313E+02  0.40000020825E+02 0.  0.
         12    1    3    3    0    0 -0.32178177087E+02  0.40721637672E+01  0.17428757009E+02  0.36820906687E+02  0.00000000000E+00 0. -1.
         11    1    4    4    0    0  0.20213117006E+02 -0.29204477121E+01 -0.18911422597E+02  0.27834169986E+02  0.51100000000E-03 0. -1.
        -11    1    4    4    0    0  0.96709703024E+01 -0.11924133849E+02  0.21297349572E+01  0.15499948577E+02  0.51100000000E-03 0.  1.
         12    1    4    4    0    0  0.22940897792E+01  0.10772417794E+02 -0.64706936898E+00  0.11032974749E+02  0.00000000000E+00 0. -1.
</event>
<event>
 8    1  0.2497772E-006  0.9118800E+02  0.7816164E-02  0.1184000E+00
        -11   -1    0    0    0    0  0.00000000000E+00  0.00000000000E+00  0.45593999997E+02  0.45594000000E+02  0.51100000000E-03 0.  1.
         11   -1    0    0    0    0 -0.00000000000E+00 -0.00000000000E+00 -0.45593999997E+02  0.45594000000E+02  0.51100000000E-03 0. -1.
         23    2    1    2    0    0  0.00000000000E+00  0.00000000000E+00 -0.35527136788E-14  0.91188000000E+02  0.91188000000E+02 0.  0.
    9900012    2    3    3    0    0 -0.18147698214E+02 -0.24300599750E+02  0.20878782154E+02  0.54367059723E+02  0.39999944251E+02 0.  0.
         12    1    3    3    0    0  0.18147698214E+02  0.24300599750E+02 -0.20878782154E+02  0.36820940277E+02  0.00000000000E+00 0. -1.
         11    1    4    4    0    0  0.42726742192E+01 -0.52646555548E+01 -0.87336679661E-01  0.67808532686E+01  0.51100000000E-03 0. -1.
        -11    1    4    4    0    0 -0.81868440298E+01 -0.16213048810E+02 -0.41028567061E+01  0.18620440389E+02  0.51100000000E-03 0.  1.
         12    1    4    4    0    0 -0.14233528403E+02 -0.28228953855E+01  0.25068975539E+02  0.28965766065E+02  0.00000000000E+00 0. -1.
</event>
<event>
 8    1  0.2497772E-006  0.9118800E+02  0.7816164E-02  0.1184000E+00
        -11   -1    0    0    0    0  0.00000000000E+00  0.00000000000E+00  0.45593999997E+02  0.45594000000E+02  0.51100000000E-03 0.  1.
         11   -1    0    0    0    0 -0.00000000000E+00 -0.00000000000E+00 -0.45593999997E+02  0.45594000000E+02  0.51100000000E-03 0. -1.
         23    2    1    2    0    0  0.00000000000E+00  0.00000000000E+00 -0.88817841970E-15  0.91188000000E+02  0.91188000000E+02 0.  0.
    9900012    2    3    3    0    0  0.13921732932E+02  0.33577846471E+02  0.58731864739E+01  0.54367071972E+02  0.39999972175E+02 0.  0.
         12    1    3    3    0    0 -0.13921732932E+02 -0.33577846471E+02 -0.58731864739E+01  0.36820928028E+02  0.00000000000E+00 0. -1.
         11    1    4    4    0    0 -0.11724958552E+02  0.34067073554E+01  0.19903791418E+01  0.12371011173E+02  0.51100000000E-03 0. -1.
        -11    1    4    4    0    0  0.89156175765E+01  0.20732597115E+02  0.29905108963E+01  0.22765587530E+02  0.51100000000E-03 0.  1.
         12    1    4    4    0    0  0.16731073908E+02  0.94385420009E+01  0.89229643585E+00  0.19230473269E+02  0.00000000000E+00 0. -1.
</event>
<event>
 8    1  0.2497772E-006  0.9118800E+02  0.7816164E-02  0.1184000E+00
        -11   -1    0    0    0    0  0.00000000000E+00  0.00000000000E+00  0.45593999997E+02  0.45594000000E+02  0.51100000000E-03 0.  1.
         11   -1    0    0    0    0 -0.00000000000E+00 -0.00000000000E+00 -0.45593999997E+02  0.45594000000E+02  0.51100000000E-03 0. -1.
         23    2    1    2    0    0  0.00000000000E+00  0.35527136788E-14  0.00000000000E+00  0.91188000000E+02  0.91188000000E+02 0.  0.
    9900012    2    3    3    0    0 -0.12817156013E+02 -0.17829311109E+02  0.29557001435E+02  0.54367079904E+02  0.39999990257E+02 0.  0.
         12    1    3    3    0    0  0.12817156013E+02  0.17829311109E+02 -0.29557001435E+02  0.36820920096E+02  0.00000000000E+00 0. -1.
         11    1    4    4    0    0 -0.87333153033E+01 -0.11212610446E+02 -0.18215590587E+01  0.14328695225E+02  0.51100000000E-03 0. -1.
        -11    1    4    4    0    0 -0.11995174477E+02 -0.10580826858E+02  0.21051809934E+02  0.26438926028E+02  0.51100000000E-03 0.  1.
        -12    1    4    4    0    0  0.79113337675E+01  0.39641261948E+01  0.10326750560E+02  0.13599458651E+02  0.00000000000E+00 0.  1.
</event>
<event>
 8    1  0.2497772E-006  0.9118800E+02  0.7816164E-02  0.1184000E+00
        -11   -1    0    0    0    0  0.00000000000E+00  0.00000000000E+00  0.45593999997E+02  0.45594000000E+02  0.51100000000E-03 0. -1.
         11   -1    0    0    0    0 -0.00000000000E+00 -0.00000000000E+00 -0.45593999997E+02  0.45594000000E+02  0.51100000000E-03 0.  1.
         23    2    1    2    0    0 -0.12212453271E-14  0.00000000000E+00 -0.35527136788E-14  0.91188000000E+02  0.91188000000E+02 0.  0.
    9900012    2    3    3    0    0 -0.74437341937E+00 -0.31737292734E+02 -0.18653972443E+02  0.54367074838E+02  0.39999978709E+02 0.  0.
         12    1    3    3    0    0  0.74437341937E+00  0.31737292734E+02  0.18653972443E+02  0.36820925162E+02  0.00000000000E+00 0. -1.
         11    1    4    4    0    0 -0.13774500495E+02 -0.59731156301E+01 -0.16005585273E+02  0.21945244004E+02  0.51100000000E-03 0. -1.
        -11    1    4    4    0    0 -0.16393348045E+01 -0.36800103244E+01  0.33498876559E+01  0.52394314727E+01  0.51100000000E-03 0.  1.
        -12    1    4    4    0    0  0.14669461880E+02 -0.22084166779E+02 -0.59982748255E+01  0.27182399361E+02  0.00000000000E+00 0.  1.
</event>
<event>
 8    1  0.2497772E-006  0.9118800E+02  0.7816164E-02  0.1184000E+00
        -11   -1    0    0    0    0  0.00000000000E+00  0.00000000000E+00  0.45593999997E+02  0.45594000000E+02  0.51100000000E-03 0. -1.
         11   -1    0    0    0    0 -0.00000000000E+00 -0.00000000000E+00 -0.45593999997E+02  0.45594000000E+02  0.51100000000E-03 0.  1.
         23    2    1    2    0    0 -0.35527136788E-14  0.17763568394E-14 -0.35527136788E-14  0.91188000000E+02  0.91188000000E+02 0.  0.
    9900012    2    3    3    0    0  0.21274672417E+02  0.13903106633E+02  0.26643413593E+02  0.54367088165E+02  0.40000009090E+02 0.  0.
        -12    1    3    3    0    0 -0.21274672417E+02 -0.13903106633E+02 -0.26643413593E+02  0.36820911835E+02  0.00000000000E+00 0.  1.
         11    1    4    4    0    0  0.28714670505E+00 -0.40488706986E+01  0.22741095744E+02  0.23100503092E+02  0.51100000000E-03 0. -1.
        -11    1    4    4    0    0  0.17083868921E+01  0.73944744430E+01  0.52761906961E+01  0.92431069768E+01  0.51100000000E-03 0.  1.
         12    1    4    4    0    0  0.19279138820E+02  0.10557502888E+02 -0.13738728477E+01  0.22023478097E+02  0.00000000000E+00 0. -1.
</event>
<event>
 8    1  0.2497772E-006  0.9118800E+02  0.7816164E-02  0.1184000E+00
        -11   -1    0    0    0    0  0.00000000000E+00  0.00000000000E+00  0.45593999997E+02  0.45594000000E+02  0.51100000000E-03 0.  1.
         11   -1    0    0    0    0 -0.00000000000E+00 -0.00000000000E+00 -0.45593999997E+02  0.45594000000E+02  0.51100000000E-03 0. -1.
         23    2    1    2    0    0  0.35527136788E-14  0.00000000000E+00 -0.35527136788E-14  0.91188000000E+02  0.91188000000E+02 0.  0.
    9900012    2    3    3    0    0  0.13581627727E+02  0.15417926844E+02 -0.30554974285E+02  0.54367088368E+02  0.40000009553E+02 0.  0.
        -12    1    3    3    0    0 -0.13581627727E+02 -0.15417926844E+02  0.30554974285E+02  0.36820911632E+02  0.00000000000E+00 0.  1.
         11    1    4    4    0    0  0.21191391218E+02  0.34637564947E+01 -0.24466207350E+02  0.32552541731E+02  0.51100000000E-03 0. -1.
        -11    1    4    4    0    0 -0.24195018407E+01  0.13773630620E+02 -0.52971454209E+00  0.13994552060E+02  0.51100000000E-03 0.  1.
         12    1    4    4    0    0 -0.51902616503E+01 -0.18194602710E+01 -0.55590523923E+01  0.78199945765E+01  0.00000000000E+00 0. -1.
</event>
<event>
 8    1  0.2497772E-006  0.9118800E+02  0.7816164E-02  0.1184000E+00
        -11   -1    0    0    0    0  0.00000000000E+00  0.00000000000E+00  0.45593999997E+02  0.45594000000E+02  0.51100000000E-03 0. -1.
         11   -1    0    0    0    0 -0.00000000000E+00 -0.00000000000E+00 -0.45593999997E+02  0.45594000000E+02  0.51100000000E-03 0.  1.
         23    2    1    2    0    0  0.00000000000E+00  0.00000000000E+00  0.88817841970E-15  0.91188000000E+02  0.91188000000E+02 0.  0.
    9900012    2    3    3    0    0 -0.16665097468E+02  0.32151142667E+02  0.66601813071E+01  0.54367089318E+02  0.40000011719E+02 0.  0.
        -12    1    3    3    0    0  0.16665097468E+02 -0.32151142667E+02 -0.66601813071E+01  0.36820910682E+02  0.00000000000E+00 0.  1.
         11    1    4    4    0    0 -0.18476319023E+02  0.24850853953E+02 -0.46754456391E+00  0.30970274539E+02  0.51100000000E-03 0. -1.
        -11    1    4    4    0    0 -0.77169594481E+01  0.22760237762E+01  0.94155461444E+01  0.12384839798E+02  0.51100000000E-03 0.  1.
        -12    1    4    4    0    0  0.95281810036E+01  0.50242649378E+01 -0.22878202734E+01  0.11011974982E+02  0.00000000000E+00 0.  1.
</event>
<event>
 8    1  0.2497772E-006  0.9118800E+02  0.7816164E-02  0.1184000E+00
        -11   -1    0    0    0    0  0.00000000000E+00  0.00000000000E+00  0.45593999997E+02  0.45594000000E+02  0.51100000000E-03 0.  1.
         11   -1    0    0    0    0 -0.00000000000E+00 -0.00000000000E+00 -0.45593999997E+02  0.45594000000E+02  0.51100000000E-03 0. -1.
         23    2    1    2    0    0  0.00000000000E+00  0.71054273576E-14 -0.44408920985E-15  0.91188000000E+02  0.91188000000E+02 0.  0.
    9900012    2    3    3    0    0  0.87657001891E+01 -0.35581978236E+02 -0.35867748940E+01  0.54367087068E+02  0.40000006588E+02 0.  0.
        -12    1    3    3    0    0 -0.87657001891E+01  0.35581978236E+02  0.35867748940E+01  0.36820912932E+02  0.00000000000E+00 0.  1.
         11    1    4    4    0    0  0.14219202968E+02 -0.79654019906E+01 -0.82040384056E+00  0.16318897776E+02  0.51100000000E-03 0. -1.
        -11    1    4    4    0    0 -0.18908397356E+01 -0.14202276120E+02 -0.14120453921E+02  0.20116340151E+02  0.51100000000E-03 0.  1.
         12    1    4    4    0    0 -0.35626630428E+01 -0.13414300126E+02  0.11354082868E+02  0.17931849140E+02  0.00000000000E+00 0. -1.
</event>
<event>
 8    1  0.2497772E-006  0.9118800E+02  0.7816164E-02  0.1184000E+00
        -11   -1    0    0    0    0  0.00000000000E+00  0.00000000000E+00  0.45593999997E+02  0.45594000000E+02  0.51100000000E-03 0.  1.
         11   -1    0    0    0    0 -0.00000000000E+00 -0.00000000000E+00 -0.45593999997E+02  0.45594000000E+02  0.51100000000E-03 0. -1.
         23    2    1    2    0    0 -0.17763568394E-14 -0.35527136788E-14  0.00000000000E+00  0.91188000000E+02  0.91188000000E+02 0.  0.
    9900012    2    3    3    0    0 -0.11412425484E+02  0.26158653482E+02 -0.23265018537E+02  0.54367086174E+02  0.40000004552E+02 0.  0.
        -12    1    3    3    0    0  0.11412425484E+02 -0.26158653482E+02  0.23265018537E+02  0.36820913826E+02  0.00000000000E+00 0.  1.
         11    1    4    4    0    0  0.50472000076E+01  0.14658927299E+02 -0.11368749419E+02  0.19225161666E+02  0.51100000000E-03 0. -1.
        -11    1    4    4    0    0 -0.10806034052E+02 -0.59258945222E+01  0.15441171048E+01  0.12420583550E+02  0.51100000000E-03 0.  1.
         12    1    4    4    0    0 -0.56535914393E+01  0.17425620705E+02 -0.13440386223E+02  0.22721340959E+02  0.00000000000E+00 0. -1.
</event>
<event>
 8    1  0.2497772E-006  0.9118800E+02  0.7816164E-02  0.1184000E+00
        -11   -1    0    0    0    0  0.00000000000E+00  0.00000000000E+00  0.45593999997E+02  0.45594000000E+02  0.51100000000E-03 0.  1.
         11   -1    0    0    0    0 -0.00000000000E+00 -0.00000000000E+00 -0.45593999997E+02  0.45594000000E+02  0.51100000000E-03 0. -1.
         23    2    1    2    0    0  0.35527136788E-14  0.00000000000E+00 -0.35527136788E-14  0.91188000000E+02  0.91188000000E+02 0.  0.
    9900012    2    3    3    0    0  0.23536621621E+02  0.18574239011E+02 -0.21373004519E+02  0.54367078850E+02  0.39999987853E+02 0.  0.
        -12    1    3    3    0    0 -0.23536621621E+02 -0.18574239011E+02  0.21373004519E+02  0.36820921150E+02  0.00000000000E+00 0.  1.
         11    1    4    4    0    0  0.16521519544E+01  0.14538693341E+02  0.27389100678E+01  0.14886397776E+02  0.51100000000E-03 0.  1.
        -11    1    4    4    0    0 -0.25437664108E+01  0.12378239522E+01  0.21137316918E+01  0.35314044820E+01  0.51100000000E-03 0. -1.
         12    1    4    4    0    0  0.24428236078E+02  0.27977217179E+01 -0.26225646279E+02  0.35949276591E+02  0.00000000000E+00 0. -1.
</event>
<event>
 8    1  0.2497772E-006  0.9118800E+02  0.7816164E-02  0.1184000E+00
        -11   -1    0    0    0    0  0.00000000000E+00  0.00000000000E+00  0.45593999997E+02  0.45594000000E+02  0.51100000000E-03 0. -1.
         11   -1    0    0    0    0 -0.00000000000E+00 -0.00000000000E+00 -0.45593999997E+02  0.45594000000E+02  0.51100000000E-03 0.  1.
         23    2    1    2    0    0  0.35527136788E-14  0.00000000000E+00  0.17763568394E-14  0.91188000000E+02  0.91188000000E+02 0.  0.
    9900012    2    3    3    0    0 -0.25262423265E+02 -0.24447505011E+02 -0.10950414818E+02  0.54367053309E+02  0.39999929629E+02 0.  0.
         12    1    3    3    0    0  0.25262423265E+02  0.24447505011E+02  0.10950414818E+02  0.36820946691E+02  0.00000000000E+00 0. -1.
         11    1    4    4    0    0 -0.10901192600E+02 -0.23479606746E+02  0.69893038758E+01  0.26813770753E+02  0.51100000000E-03 0. -1.
        -11    1    4    4    0    0 -0.14188354505E+02  0.45457689744E+01 -0.10228025191E+02  0.18071688319E+02  0.51100000000E-03 0.  1.
         12    1    4    4    0    0 -0.17287616040E+00 -0.55136672394E+01 -0.77116935031E+01  0.94815942372E+01  0.00000000000E+00 0. -1.
</event>
<event>
 8    1  0.2497772E-006  0.9118800E+02  0.7816164E-02  0.1184000E+00
        -11   -1    0    0    0    0  0.00000000000E+00  0.00000000000E+00  0.45593999997E+02  0.45594000000E+02  0.51100000000E-03 0. -1.
         11   -1    0    0    0    0 -0.00000000000E+00 -0.00000000000E+00 -0.45593999997E+02  0.45594000000E+02  0.51100000000E-03 0.  1.
         23    2    1    2    0    0  0.00000000000E+00 -0.35527136788E-14 -0.17763568394E-14  0.91188000000E+02  0.91188000000E+02 0.  0.
    9900012    2    3    3    0    0  0.30136058339E+02 -0.15763084721E+02 -0.14111115727E+02  0.54367076068E+02  0.39999981513E+02 0.  0.
         12    1    3    3    0    0 -0.30136058339E+02  0.15763084721E+02  0.14111115727E+02  0.36820923932E+02  0.00000000000E+00 0. -1.
         11    1    4    4    0    0  0.12296006517E+02 -0.65068895674E+01  0.51291016672E+01  0.14826971109E+02  0.51100000000E-03 0. -1.
        -11    1    4    4    0    0  0.82205147455E+01  0.94769211083E+01 -0.11751079834E+02  0.17189437859E+02  0.51100000000E-03 0.  1.
        -12    1    4    4    0    0  0.96195370763E+01 -0.18733116262E+02 -0.74891375606E+01  0.22350667101E+02  0.00000000000E+00 0.  1.
</event>
<event>
 8    1  0.2497772E-006  0.9118800E+02  0.7816164E-02  0.1184000E+00
        -11   -1    0    0    0    0  0.00000000000E+00  0.00000000000E+00  0.45593999997E+02  0.45594000000E+02  0.51100000000E-03 0.  1.
         11   -1    0    0    0    0 -0.00000000000E+00 -0.00000000000E+00 -0.45593999997E+02  0.45594000000E+02  0.51100000000E-03 0. -1.
         23    2    1    2    0    0 -0.35527136788E-14  0.24424906542E-14  0.00000000000E+00  0.91188000000E+02  0.91188000000E+02 0.  0.
    9900012    2    3    3    0    0  0.29526236051E+02  0.17908775270E+01 -0.21926528558E+02  0.54367102234E+02  0.40000041163E+02 0.  0.
        -12    1    3    3    0    0 -0.29526236051E+02 -0.17908775270E+01  0.21926528558E+02  0.36820897766E+02  0.00000000000E+00 0.  1.
         11    1    4    4    0    0  0.26145668037E+02 -0.16513670710E+02 -0.13559908269E+02  0.33766379580E+02  0.51100000000E-03 0. -1.
        -11    1    4    4    0    0  0.24252488363E+01  0.11839153446E+02 -0.39557695917E+01  0.12715954528E+02  0.51100000000E-03 0.  1.
         12    1    4    4    0    0  0.95531917771E+00  0.64653947911E+01 -0.44108506977E+01  0.78847681268E+01  0.00000000000E+00 0. -1.
</event>
<event>
 8    1  0.2497772E-006  0.9118800E+02  0.7816164E-02  0.1184000E+00
        -11   -1    0    0    0    0  0.00000000000E+00  0.00000000000E+00  0.45593999997E+02  0.45594000000E+02  0.51100000000E-03 0.  1.
         11   -1    0    0    0    0 -0.00000000000E+00 -0.00000000000E+00 -0.45593999997E+02  0.45594000000E+02  0.51100000000E-03 0. -1.
         23    2    1    2    0    0  0.35527136788E-14 -0.16653345369E-14 -0.35527136788E-14  0.91188000000E+02  0.91188000000E+02 0.  0.
    9900012    2    3    3    0    0 -0.25483365615E+02  0.50774944491E+00  0.26572820946E+02  0.54367156099E+02  0.40000163958E+02 0.  0.
         12    1    3    3    0    0  0.25483365615E+02 -0.50774944491E+00 -0.26572820946E+02  0.36820843901E+02  0.00000000000E+00 0. -1.
         11    1    4    4    0    0 -0.11786749601E+02 -0.10712573207E+02 -0.12064163720E+01  0.15973169115E+02  0.51100000000E-03 0. -1.
        -11    1    4    4    0    0 -0.16875541019E+02  0.22983451890E+01  0.17758724033E+02  0.24605661032E+02  0.51100000000E-03 0.  1.
         12    1    4    4    0    0  0.31789250051E+01  0.89219774625E+01  0.10020513285E+02  0.13788325951E+02  0.00000000000E+00 0. -1.
</event>
<event>
 8    1  0.2497772E-006  0.9118800E+02  0.7816164E-02  0.1184000E+00
        -11   -1    0    0    0    0  0.00000000000E+00  0.00000000000E+00  0.45593999997E+02  0.45594000000E+02  0.51100000000E-03 0. -1.
         11   -1    0    0    0    0 -0.00000000000E+00 -0.00000000000E+00 -0.45593999997E+02  0.45594000000E+02  0.51100000000E-03 0.  1.
         23    2    1    2    0    0  0.00000000000E+00  0.35527136788E-14  0.35527136788E-14  0.91188000000E+02  0.91188000000E+02 0.  0.
    9900012    2    3    3    0    0 -0.23654789321E+02  0.25449681266E+02  0.12187849743E+02  0.54367095398E+02  0.40000025579E+02 0.  0.
         12    1    3    3    0    0  0.23654789321E+02 -0.25449681266E+02 -0.12187849743E+02  0.36820904602E+02  0.00000000000E+00 0. -1.
         11    1    4    4    0    0 -0.13016178377E+02 -0.16416909176E+01  0.10860480320E+02  0.17031326480E+02  0.51100000000E-03 0. -1.
        -11    1    4    4    0    0 -0.32224144238E+01  0.17831866068E+02 -0.10200109871E+02  0.20794269495E+02  0.51100000000E-03 0.  1.
        -12    1    4    4    0    0 -0.74161965201E+01  0.92595061151E+01  0.11527479293E+02  0.16541499423E+02  0.00000000000E+00 0.  1.
</event>
<event>
 8    1  0.2497772E-006  0.9118800E+02  0.7816164E-02  0.1184000E+00
        -11   -1    0    0    0    0  0.00000000000E+00  0.00000000000E+00  0.45593999997E+02  0.45594000000E+02  0.51100000000E-03 0. -1.
         11   -1    0    0    0    0 -0.00000000000E+00 -0.00000000000E+00 -0.45593999997E+02  0.45594000000E+02  0.51100000000E-03 0.  1.
         23    2    1    2    0    0  0.00000000000E+00  0.35527136788E-14 -0.35527136788E-14  0.91188000000E+02  0.91188000000E+02 0.  0.
    9900012    2    3    3    0    0 -0.16480649230E+02  0.21650822540E+02 -0.24807454701E+02  0.54367085774E+02  0.40000003638E+02 0.  0.
         12    1    3    3    0    0  0.16480649230E+02 -0.21650822540E+02  0.24807454701E+02  0.36820914226E+02  0.00000000000E+00 0. -1.
         11    1    4    4    0    0 -0.10839473546E+02  0.14072252349E+02 -0.15104980467E+02  0.23317008986E+02  0.51100000000E-03 0. -1.
        -11    1    4    4    0    0  0.63932872010E+01 -0.57271937927E+01 -0.99069767363E+01  0.13108129473E+02  0.51100000000E-03 0.  1.
        -12    1    4    4    0    0 -0.12034462885E+02  0.13305763984E+02  0.20450250206E+00  0.17941947314E+02  0.00000000000E+00 0.  1.
</event>
<event>
 8    1  0.2497772E-006  0.9118800E+02  0.7816164E-02  0.1184000E+00
        -11   -1    0    0    0    0  0.00000000000E+00  0.00000000000E+00  0.45593999997E+02  0.45594000000E+02  0.51100000000E-03 0. -1.
         11   -1    0    0    0    0 -0.00000000000E+00 -0.00000000000E+00 -0.45593999997E+02  0.45594000000E+02  0.51100000000E-03 0.  1.
         23    2    1    2    0    0  0.00000000000E+00  0.00000000000E+00  0.26645352591E-14  0.91188000000E+02  0.91188000000E+02 0.  0.
    9900012    2    3    3    0    0  0.31346457764E+02 -0.19202967630E+02 -0.21036434884E+01  0.54367086159E+02  0.40000004516E+02 0.  0.
         12    1    3    3    0    0 -0.31346457764E+02  0.19202967630E+02  0.21036434884E+01  0.36820913841E+02  0.00000000000E+00 0. -1.
         11    1    4    4    0    0  0.19310966285E+02 -0.86950704583E+01  0.11378612583E+02  0.24041432855E+02  0.51100000000E-03 0. -1.
        -11    1    4    4    0    0  0.14825029412E+02  0.67757114019E+00 -0.11154036239E+02  0.18564835695E+02  0.51100000000E-03 0.  1.
        -12    1    4    4    0    0 -0.27895379328E+01 -0.11185468312E+02 -0.23282198323E+01  0.11760817609E+02  0.00000000000E+00 0.  1.
</event>
<event>
 8    1  0.2497772E-006  0.9118800E+02  0.7816164E-02  0.1184000E+00
        -11   -1    0    0    0    0  0.00000000000E+00  0.00000000000E+00  0.45593999997E+02  0.45594000000E+02  0.51100000000E-03 0.  1.
         11   -1    0    0    0    0 -0.00000000000E+00 -0.00000000000E+00 -0.45593999997E+02  0.45594000000E+02  0.51100000000E-03 0. -1.
         23    2    1    2    0    0  0.00000000000E+00  0.17763568394E-14  0.00000000000E+00  0.91188000000E+02  0.91188000000E+02 0.  0.
    9900012    2    3    3    0    0 -0.26860555608E+02  0.11645435884E+02  0.22331020178E+02  0.54367080855E+02  0.39999992425E+02 0.  0.
         12    1    3    3    0    0  0.26860555608E+02 -0.11645435884E+02 -0.22331020178E+02  0.36820919145E+02  0.00000000000E+00 0. -1.
         11    1    4    4    0    0 -0.10051670452E+02 -0.90000773666E+01  0.22330109269E+02  0.26089677110E+02  0.51100000000E-03 0. -1.
        -11    1    4    4    0    0 -0.45682390981E+01  0.58678285544E+01  0.43314757455E+01  0.86059225418E+01  0.51100000000E-03 0.  1.
         12    1    4    4    0    0 -0.12240646058E+02  0.14777684696E+02 -0.43305648369E+01  0.19671481203E+02  0.00000000000E+00 0. -1.
</event>
<event>
 8    1  0.2497772E-006  0.9118800E+02  0.7816164E-02  0.1184000E+00
        -11   -1    0    0    0    0  0.00000000000E+00  0.00000000000E+00  0.45593999997E+02  0.45594000000E+02  0.51100000000E-03 0.  1.
         11   -1    0    0    0    0 -0.00000000000E+00 -0.00000000000E+00 -0.45593999997E+02  0.45594000000E+02  0.51100000000E-03 0. -1.
         23    2    1    2    0    0  0.00000000000E+00  0.35527136788E-14 -0.13322676296E-14  0.91188000000E+02  0.91188000000E+02 0.  0.
    9900012    2    3    3    0    0 -0.27531067901E+02  0.24240190363E+02 -0.31995008881E+01  0.54367036752E+02  0.39999891883E+02 0.  0.
        -12    1    3    3    0    0  0.27531067901E+02 -0.24240190363E+02  0.31995008881E+01  0.36820963248E+02  0.00000000000E+00 0.  1.
         11    1    4    4    0    0  0.40380480200E+01  0.15507603982E+02  0.52827624999E+01  0.16873031528E+02  0.51100000000E-03 0. -1.
        -11    1    4    4    0    0 -0.11393774758E+02  0.99588125082E+01  0.10043529775E+01  0.15165908313E+02  0.51100000000E-03 0.  1.
        -12    1    4    4    0    0 -0.20175341163E+02 -0.12262261267E+01 -0.94866163655E+01  0.22328096910E+02  0.00000000000E+00 0.  1.
</event>
<event>
 8    1  0.2497772E-006  0.9118800E+02  0.7816164E-02  0.1184000E+00
        -11   -1    0    0    0    0  0.00000000000E+00  0.00000000000E+00  0.45593999997E+02  0.45594000000E+02  0.51100000000E-03 0. -1.
         11   -1    0    0    0    0 -0.00000000000E+00 -0.00000000000E+00 -0.45593999997E+02  0.45594000000E+02  0.51100000000E-03 0.  1.
         23    2    1    2    0    0 -0.35527136788E-14  0.00000000000E+00 -0.35527136788E-14  0.91188000000E+02  0.91188000000E+02 0.  0.
    9900012    2    3    3    0    0  0.24470374080E+02 -0.21677022232E+02  0.16943821650E+02  0.54367006089E+02  0.39999821981E+02 0.  0.
        -12    1    3    3    0    0 -0.24470374080E+02  0.21677022232E+02 -0.16943821650E+02  0.36820993911E+02  0.00000000000E+00 0.  1.
         11    1    4    4    0    0  0.10048127979E+02  0.86267171433E+00 -0.17377628744E+01  0.10233713814E+02  0.51100000000E-03 0.  1.
        -11    1    4    4    0    0 -0.51052439300E+01 -0.60015422721E+01  0.16701866452E+02  0.18467115867E+02  0.51100000000E-03 0. -1.
         12    1    4    4    0    0  0.19527490032E+02 -0.16538151674E+02  0.19797180732E+01  0.25666176407E+02  0.00000000000E+00 0. -1.
</event>
<event>
 8    1  0.2497772E-006  0.9118800E+02  0.7816164E-02  0.1184000E+00
        -11   -1    0    0    0    0  0.00000000000E+00  0.00000000000E+00  0.45593999997E+02  0.45594000000E+02  0.51100000000E-03 0. -1.
         11   -1    0    0    0    0 -0.00000000000E+00 -0.00000000000E+00 -0.45593999997E+02  0.45594000000E+02  0.51100000000E-03 0.  1.
         23    2    1    2    0    0  0.00000000000E+00 -0.71054273576E-14  0.00000000000E+00  0.91188000000E+02  0.91188000000E+02 0.  0.
    9900012    2    3    3    0    0  0.99292000203E+01 -0.34240450639E+02 -0.92077586410E+01  0.54367078064E+02  0.39999986062E+02 0.  0.
         12    1    3    3    0    0 -0.99292000203E+01  0.34240450639E+02  0.92077586410E+01  0.36820921936E+02  0.00000000000E+00 0. -1.
         11    1    4    4    0    0  0.12392555470E+02 -0.92193342664E+01 -0.11374804111E+01  0.15487589139E+02  0.51100000000E-03 0. -1.
        -11    1    4    4    0    0 -0.16521191749E+01 -0.24088760879E+02 -0.17213553720E+02  0.29653066121E+02  0.51100000000E-03 0.  1.
         12    1    4    4    0    0 -0.81123627461E+00 -0.93235549403E+00  0.91432754903E+01  0.92264228036E+01  0.00000000000E+00 0. -1.
</event>
<event>
 8    1  0.2497772E-006  0.9118800E+02  0.7816164E-02  0.1184000E+00
        -11   -1    0    0    0    0  0.00000000000E+00  0.00000000000E+00  0.45593999997E+02  0.45594000000E+02  0.51100000000E-03 0.  1.
         11   -1    0    0    0    0 -0.00000000000E+00 -0.00000000000E+00 -0.45593999997E+02  0.45594000000E+02  0.51100000000E-03 0. -1.
         23    2    1    2    0    0  0.88817841970E-15  0.00000000000E+00  0.71054273576E-14  0.91188000000E+02  0.91188000000E+02 0.  0.
    9900012    2    3    3    0    0 -0.42341076013E+01 -0.90245160424E+01 -0.35445881008E+02  0.54367081524E+02  0.39999993950E+02 0.  0.
        -12    1    3    3    0    0  0.42341076013E+01  0.90245160424E+01  0.35445881008E+02  0.36820918476E+02  0.00000000000E+00 0.  1.
         11    1    4    4    0    0 -0.20391945235E+02 -0.32561295522E+01 -0.16838853955E+02  0.26645465147E+02  0.51100000000E-03 0. -1.
        -11    1    4    4    0    0  0.41927293442E+01  0.16953670876E+01 -0.19130877461E+00  0.45265713541E+01  0.51100000000E-03 0.  1.
        -12    1    4    4    0    0  0.11965108290E+02 -0.74637535778E+01 -0.18415718279E+02  0.23195045022E+02  0.00000000000E+00 0.  1.
</event>
<event>
 8    1  0.2497772E-006  0.9118800E+02  0.7816164E-02  0.1184000E+00
        -11   -1    0    0    0    0  0.00000000000E+00  0.00000000000E+00  0.45593999997E+02  0.45594000000E+02  0.51100000000E-03 0. -1.
         11   -1    0    0    0    0 -0.00000000000E+00 -0.00000000000E+00 -0.45593999997E+02  0.45594000000E+02  0.51100000000E-03 0.  1.
         23    2    1    2    0    0  0.00000000000E+00  0.00000000000E+00  0.00000000000E+00  0.91188000000E+02  0.91188000000E+02 0.  0.
    9900012    2    3    3    0    0  0.30750430062E+02 -0.14271152000E+02 -0.14371035552E+02  0.54367063140E+02  0.39999952041E+02 0.  0.
         12    1    3    3    0    0 -0.30750430062E+02  0.14271152000E+02  0.14371035552E+02  0.36820936860E+02  0.00000000000E+00 0. -1.
         11    1    4    4    0    0  0.12813246410E+02  0.16906233567E+01 -0.34990416940E+01  0.13389577436E+02  0.51100000000E-03 0.  1.
        -11    1    4    4    0    0  0.64069128803E+01  0.95191524144E+01 -0.42476499600E+01  0.12235412776E+02  0.51100000000E-03 0. -1.
         12    1    4    4    0    0  0.11530270772E+02 -0.25480927771E+02 -0.66243438980E+01  0.28742072928E+02  0.00000000000E+00 0. -1.
</event>
<event>
 8    1  0.2497772E-006  0.9118800E+02  0.7816164E-02  0.1184000E+00
        -11   -1    0    0    0    0  0.00000000000E+00  0.00000000000E+00  0.45593999997E+02  0.45594000000E+02  0.51100000000E-03 0.  1.
         11   -1    0    0    0    0 -0.00000000000E+00 -0.00000000000E+00 -0.45593999997E+02  0.45594000000E+02  0.51100000000E-03 0. -1.
         23    2    1    2    0    0  0.00000000000E+00  0.88817841970E-15  0.35527136788E-14  0.91188000000E+02  0.91188000000E+02 0.  0.
    9900012    2    3    3    0    0 -0.29112181607E+02 -0.44590210218E+01 -0.22099267646E+02  0.54367087235E+02  0.40000006969E+02 0.  0.
        -12    1    3    3    0    0  0.29112181607E+02  0.44590210218E+01  0.22099267646E+02  0.36820912765E+02  0.00000000000E+00 0.  1.
         11    1    4    4    0    0 -0.13916509390E+02  0.30784457333E+01 -0.78288312849E+01  0.16261508580E+02  0.51100000000E-03 0. -1.
        -11    1    4    4    0    0 -0.22820611411E+02 -0.62849639378E+01 -0.21981532824E+01  0.23772104555E+02  0.51100000000E-03 0.  1.
        -12    1    4    4    0    0  0.76249391946E+01 -0.12525028174E+01 -0.12072283079E+02  0.14333474100E+02  0.00000000000E+00 0.  1.
</event>
<event>
 8    1  0.2497772E-006  0.9118800E+02  0.7816164E-02  0.1184000E+00
        -11   -1    0    0    0    0  0.00000000000E+00  0.00000000000E+00  0.45593999997E+02  0.45594000000E+02  0.51100000000E-03 0.  1.
         11   -1    0    0    0    0 -0.00000000000E+00 -0.00000000000E+00 -0.45593999997E+02  0.45594000000E+02  0.51100000000E-03 0. -1.
         23    2    1    2    0    0 -0.22204460493E-15  0.35527136788E-14  0.35527136788E-14  0.91188000000E+02  0.91188000000E+02 0.  0.
    9900012    2    3    3    0    0 -0.18169918440E+01  0.30024388790E+02  0.21237145250E+02  0.54367058677E+02  0.39999941866E+02 0.  0.
         12    1    3    3    0    0  0.18169918440E+01 -0.30024388790E+02 -0.21237145250E+02  0.36820941323E+02  0.00000000000E+00 0. -1.
         11    1    4    4    0    0 -0.28840052036E+01 -0.15926688345E+01  0.32911358372E+01  0.46567859508E+01  0.51100000000E-03 0. -1.
        -11    1    4    4    0    0 -0.93134780012E+01 -0.19796566169E+01 -0.13230156214E+01  0.96130267551E+01  0.51100000000E-03 0.  1.
         12    1    4    4    0    0  0.10380491361E+02  0.33596714241E+02  0.19269025034E+02  0.40097245971E+02  0.00000000000E+00 0. -1.
</event>
<event>
 8    1  0.2497772E-006  0.9118800E+02  0.7816164E-02  0.1184000E+00
        -11   -1    0    0    0    0  0.00000000000E+00  0.00000000000E+00  0.45593999997E+02  0.45594000000E+02  0.51100000000E-03 0.  1.
         11   -1    0    0    0    0 -0.00000000000E+00 -0.00000000000E+00 -0.45593999997E+02  0.45594000000E+02  0.51100000000E-03 0. -1.
         23    2    1    2    0    0  0.35527136788E-14  0.00000000000E+00  0.17763568394E-14  0.91188000000E+02  0.91188000000E+02 0.  0.
    9900012    2    3    3    0    0  0.31270964525E+02 -0.13847500809E+02  0.13643790075E+02  0.54367088705E+02  0.40000010322E+02 0.  0.
        -12    1    3    3    0    0 -0.31270964525E+02  0.13847500809E+02 -0.13643790075E+02  0.36820911295E+02  0.00000000000E+00 0.  1.
         11    1    4    4    0    0  0.20115959075E+02 -0.17227082650E+02  0.15199569740E+01  0.26527993810E+02  0.51100000000E-03 0. -1.
        -11    1    4    4    0    0 -0.26217724127E+01 -0.72038209594E+01  0.31810497430E+01  0.82998677537E+01  0.51100000000E-03 0.  1.
        -12    1    4    4    0    0  0.13776777863E+02  0.10583402800E+02  0.89427833578E+01  0.19539227142E+02  0.00000000000E+00 0.  1.
</event>
<event>
 8    1  0.2497772E-006  0.9118800E+02  0.7816164E-02  0.1184000E+00
        -11   -1    0    0    0    0  0.00000000000E+00  0.00000000000E+00  0.45593999997E+02  0.45594000000E+02  0.51100000000E-03 0.  1.
         11   -1    0    0    0    0 -0.00000000000E+00 -0.00000000000E+00 -0.45593999997E+02  0.45594000000E+02  0.51100000000E-03 0. -1.
         23    2    1    2    0    0  0.00000000000E+00  0.00000000000E+00  0.00000000000E+00  0.91188000000E+02  0.91188000000E+02 0.  0.
    9900012    2    3    3    0    0 -0.14572261625E+02  0.15642856575E+02  0.29978821628E+02  0.54367088592E+02  0.40000010064E+02 0.  0.
         12    1    3    3    0    0  0.14572261625E+02 -0.15642856575E+02 -0.29978821628E+02  0.36820911408E+02  0.00000000000E+00 0. -1.
         11    1    4    4    0    0 -0.78362205502E+01  0.10491755535E+02  0.10728624299E+02  0.16928870793E+02  0.51100000000E-03 0. -1.
        -11    1    4    4    0    0 -0.43926256307E+01  0.18153395703E+02  0.90921781279E+01  0.20772786015E+02  0.51100000000E-03 0.  1.
         12    1    4    4    0    0 -0.23434154437E+01 -0.13002294663E+02  0.10158019201E+02  0.16665431784E+02  0.00000000000E+00 0. -1.
</event>
<event>
 8    1  0.2497772E-006  0.9118800E+02  0.7816164E-02  0.1184000E+00
        -11   -1    0    0    0    0  0.00000000000E+00  0.00000000000E+00  0.45593999997E+02  0.45594000000E+02  0.51100000000E-03 0.  1.
         11   -1    0    0    0    0 -0.00000000000E+00 -0.00000000000E+00 -0.45593999997E+02  0.45594000000E+02  0.51100000000E-03 0. -1.
         23    2    1    2    0    0  0.00000000000E+00  0.00000000000E+00  0.00000000000E+00  0.91188000000E+02  0.91188000000E+02 0.  0.
    9900012    2    3    3    0    0 -0.25754826075E+02  0.96342822914E+01 -0.24487745364E+02  0.54367080206E+02  0.39999990947E+02 0.  0.
        -12    1    3    3    0    0  0.25754826075E+02 -0.96342822914E+01  0.24487745364E+02  0.36820919794E+02  0.00000000000E+00 0.  1.
         11    1    4    4    0    0 -0.18712108897E+02 -0.10988327464E+01 -0.18699577984E+02  0.26476870469E+02  0.51100000000E-03 0. -1.
        -11    1    4    4    0    0  0.25046990751E+01 -0.11916963772E+00 -0.11926000161E+02  0.12186763268E+02  0.51100000000E-03 0.  1.
         12    1    4    4    0    0 -0.95474162529E+01  0.10852284676E+02  0.61378327803E+01  0.15703446470E+02  0.00000000000E+00 0. -1.
</event>
<event>
 8    1  0.2497772E-006  0.9118800E+02  0.7816164E-02  0.1184000E+00
        -11   -1    0    0    0    0  0.00000000000E+00  0.00000000000E+00  0.45593999997E+02  0.45594000000E+02  0.51100000000E-03 0.  1.
         11   -1    0    0    0    0 -0.00000000000E+00 -0.00000000000E+00 -0.45593999997E+02  0.45594000000E+02  0.51100000000E-03 0. -1.
         23    2    1    2    0    0 -0.35527136788E-14  0.71054273576E-14 -0.35527136788E-14  0.91188000000E+02  0.91188000000E+02 0.  0.
    9900012    2    3    3    0    0 -0.15682513749E+02  0.32161787906E+02 -0.86866825614E+01  0.54367078057E+02  0.39999986047E+02 0.  0.
        -12    1    3    3    0    0  0.15682513749E+02 -0.32161787906E+02  0.86866825614E+01  0.36820921943E+02  0.00000000000E+00 0.  1.
         11    1    4    4    0    0 -0.17145515111E+01  0.51377661633E+01  0.17695418653E+01  0.56980353375E+01  0.51100000000E-03 0. -1.
        -11    1    4    4    0    0 -0.24643792006E+02  0.18550526815E+02  0.10035883600E+01  0.30861719321E+02  0.51100000000E-03 0.  1.
        -12    1    4    4    0    0  0.10675829769E+02  0.84734949272E+01 -0.11459812787E+02  0.17807323399E+02  0.00000000000E+00 0.  1.
</event>
<event>
 8    1  0.2497772E-006  0.9118800E+02  0.7816164E-02  0.1184000E+00
        -11   -1    0    0    0    0  0.00000000000E+00  0.00000000000E+00  0.45593999997E+02  0.45594000000E+02  0.51100000000E-03 0.  1.
         11   -1    0    0    0    0 -0.00000000000E+00 -0.00000000000E+00 -0.45593999997E+02  0.45594000000E+02  0.51100000000E-03 0. -1.
         23    2    1    2    0    0 -0.35527136788E-14  0.00000000000E+00  0.00000000000E+00  0.91188000000E+02  0.91188000000E+02 0.  0.
    9900012    2    3    3    0    0 -0.23615299334E+02  0.24141004802E+02 -0.14673616821E+02  0.54367007264E+02  0.39999824659E+02 0.  0.
        -12    1    3    3    0    0  0.23615299334E+02 -0.24141004802E+02  0.14673616821E+02  0.36820992736E+02  0.00000000000E+00 0.  1.
         11    1    4    4    0    0  0.65452637455E+01  0.84414672031E+01 -0.14816245571E+02  0.18265267015E+02  0.51100000000E-03 0. -1.
        -11    1    4    4    0    0 -0.39701347958E+01  0.27811596758E+01  0.44529571929E+01  0.65822220764E+01  0.51100000000E-03 0.  1.
         12    1    4    4    0    0 -0.26190428284E+02  0.12918377923E+02 -0.43103284426E+01  0.29519518173E+02  0.00000000000E+00 0. -1.
</event>
<event>
 8    1  0.2497772E-006  0.9118800E+02  0.7816164E-02  0.1184000E+00
        -11   -1    0    0    0    0  0.00000000000E+00  0.00000000000E+00  0.45593999997E+02  0.45594000000E+02  0.51100000000E-03 0.  1.
         11   -1    0    0    0    0 -0.00000000000E+00 -0.00000000000E+00 -0.45593999997E+02  0.45594000000E+02  0.51100000000E-03 0. -1.
         23    2    1    2    0    0 -0.17763568394E-14  0.00000000000E+00  0.71054273576E-14  0.91188000000E+02  0.91188000000E+02 0.  0.
    9900012    2    3    3    0    0 -0.70446847163E+01  0.20143710499E+02  0.30006386209E+02  0.54367083815E+02  0.39999999172E+02 0.  0.
         12    1    3    3    0    0  0.70446847163E+01 -0.20143710499E+02 -0.30006386209E+02  0.36820916185E+02  0.00000000000E+00 0. -1.
         11    1    4    4    0    0  0.12768471303E+02  0.87492151308E+01  0.57095041928E+00  0.15488983487E+02  0.51100000000E-03 0. -1.
        -11    1    4    4    0    0 -0.10115186213E+02  0.93113874758E+01  0.23757444295E+02  0.27448772078E+02  0.51100000000E-03 0.  1.
         12    1    4    4    0    0 -0.96979698058E+01  0.20831078920E+01  0.56779914943E+01  0.11429328250E+02  0.00000000000E+00 0. -1.
</event>
<event>
 8    1  0.2497772E-006  0.9118800E+02  0.7816164E-02  0.1184000E+00
        -11   -1    0    0    0    0  0.00000000000E+00  0.00000000000E+00  0.45593999997E+02  0.45594000000E+02  0.51100000000E-03 0.  1.
         11   -1    0    0    0    0 -0.00000000000E+00 -0.00000000000E+00 -0.45593999997E+02  0.45594000000E+02  0.51100000000E-03 0. -1.
         23    2    1    2    0    0  0.00000000000E+00 -0.17763568394E-14  0.00000000000E+00  0.91188000000E+02  0.91188000000E+02 0.  0.
    9900012    2    3    3    0    0  0.83872153720E+01  0.80022143281E+01  0.34948539050E+02  0.54367065770E+02  0.39999958036E+02 0.  0.
         12    1    3    3    0    0 -0.83872153720E+01 -0.80022143281E+01 -0.34948539050E+02  0.36820934230E+02  0.00000000000E+00 0. -1.
         11    1    4    4    0    0  0.53607922829E+01  0.10025337391E+02  0.21031349822E+02  0.23907387129E+02  0.51100000000E-03 0. -1.
        -11    1    4    4    0    0  0.97266991404E+00  0.25824743446E+01  0.21322556438E+02  0.21500387759E+02  0.51100000000E-03 0.  1.
         12    1    4    4    0    0  0.20537531751E+01 -0.46055974080E+01 -0.74053672104E+01  0.89592908820E+01  0.00000000000E+00 0. -1.
</event>
<event>
 8    1  0.2497772E-006  0.9118800E+02  0.7816164E-02  0.1184000E+00
        -11   -1    0    0    0    0  0.00000000000E+00  0.00000000000E+00  0.45593999997E+02  0.45594000000E+02  0.51100000000E-03 0. -1.
         11   -1    0    0    0    0 -0.00000000000E+00 -0.00000000000E+00 -0.45593999997E+02  0.45594000000E+02  0.51100000000E-03 0.  1.
         23    2    1    2    0    0 -0.17763568394E-14  0.00000000000E+00  0.00000000000E+00  0.91188000000E+02  0.91188000000E+02 0.  0.
    9900012    2    3    3    0    0  0.11816743294E+02 -0.31494786312E+02 -0.14974088105E+02  0.54367077938E+02  0.39999985774E+02 0.  0.
         12    1    3    3    0    0 -0.11816743294E+02  0.31494786312E+02  0.14974088105E+02  0.36820922062E+02  0.00000000000E+00 0. -1.
         11    1    4    4    0    0  0.13375602622E+02 -0.14113496600E+02  0.55798796330E+01  0.20229497986E+02  0.51100000000E-03 0. -1.
        -11    1    4    4    0    0  0.92973306093E+01 -0.11705679933E+02 -0.12393825363E+02  0.19418295665E+02  0.51100000000E-03 0.  1.
         12    1    4    4    0    0 -0.10856189937E+02 -0.56756097793E+01 -0.81601423747E+01  0.14719284286E+02  0.00000000000E+00 0. -1.
</event>
<event>
 8    1  0.2497772E-006  0.9118800E+02  0.7816164E-02  0.1184000E+00
        -11   -1    0    0    0    0  0.00000000000E+00  0.00000000000E+00  0.45593999997E+02  0.45594000000E+02  0.51100000000E-03 0. -1.
         11   -1    0    0    0    0 -0.00000000000E+00 -0.00000000000E+00 -0.45593999997E+02  0.45594000000E+02  0.51100000000E-03 0.  1.
         23    2    1    2    0    0  0.00000000000E+00  0.35527136788E-14  0.35527136788E-14  0.91188000000E+02  0.91188000000E+02 0.  0.
    9900012    2    3    3    0    0  0.10383375662E+02  0.28869001261E+02  0.20360435497E+02  0.54367067672E+02  0.39999962371E+02 0.  0.
         12    1    3    3    0    0 -0.10383375662E+02 -0.28869001261E+02 -0.20360435497E+02  0.36820932328E+02  0.00000000000E+00 0. -1.
         11    1    4    4    0    0 -0.37387889896E+01 -0.49570007225E+01 -0.30102701601E+01  0.69001540540E+01  0.51100000000E-03 0. -1.
        -11    1    4    4    0    0 -0.39182551445E+00 -0.20983680806E+01  0.30306447319E+01  0.37069507128E+01  0.51100000000E-03 0.  1.
        -12    1    4    4    0    0  0.14513990166E+02  0.35924370064E+02  0.20340060925E+02  0.43759962905E+02  0.00000000000E+00 0.  1.
</event>
<event>
 8    1  0.2497772E-006  0.9118800E+02  0.7816164E-02  0.1184000E+00
        -11   -1    0    0    0    0  0.00000000000E+00  0.00000000000E+00  0.45593999997E+02  0.45594000000E+02  0.51100000000E-03 0. -1.
         11   -1    0    0    0    0 -0.00000000000E+00 -0.00000000000E+00 -0.45593999997E+02  0.45594000000E+02  0.51100000000E-03 0.  1.
         23    2    1    2    0    0  0.71054273576E-14  0.88817841970E-15 -0.35527136788E-14  0.91188000000E+02  0.91188000000E+02 0.  0.
    9900012    2    3    3    0    0 -0.28650553700E+02  0.23896895128E+01  0.23004667145E+02  0.54367088092E+02  0.40000008923E+02 0.  0.
        -12    1    3    3    0    0  0.28650553700E+02 -0.23896895128E+01 -0.23004667145E+02  0.36820911908E+02  0.00000000000E+00 0.  1.
         11    1    4    4    0    0  0.30940082318E+01  0.76553802059E+01  0.11883875455E+02  0.14470806098E+02  0.51100000000E-03 0. -1.
        -11    1    4    4    0    0  0.12561727658E+01 -0.51625587105E+01  0.14456871252E+01  0.55063594127E+01  0.51100000000E-03 0.  1.
        -12    1    4    4    0    0 -0.33000734698E+02 -0.10313198249E+00  0.96751045646E+01  0.34389922581E+02  0.00000000000E+00 0.  1.
</event>
<event>
 8    1  0.2497772E-006  0.9118800E+02  0.7816164E-02  0.1184000E+00
        -11   -1    0    0    0    0  0.00000000000E+00  0.00000000000E+00  0.45593999997E+02  0.45594000000E+02  0.51100000000E-03 0. -1.
         11   -1    0    0    0    0 -0.00000000000E+00 -0.00000000000E+00 -0.45593999997E+02  0.45594000000E+02  0.51100000000E-03 0.  1.
         23    2    1    2    0    0  0.44408920985E-15  0.00000000000E+00 -0.17763568394E-14  0.91188000000E+02  0.91188000000E+02 0.  0.
    9900012    2    3    3    0    0 -0.38020061024E+01 -0.36300385562E+02  0.48586763095E+01  0.54367082333E+02  0.39999995794E+02 0.  0.
        -12    1    3    3    0    0  0.38020061024E+01  0.36300385562E+02 -0.48586763095E+01  0.36820917667E+02  0.00000000000E+00 0.  1.
         11    1    4    4    0    0 -0.91873812338E+01 -0.97363958898E+01  0.14043908911E+02  0.19401978163E+02  0.51100000000E-03 0. -1.
        -11    1    4    4    0    0  0.81836272466E+00  0.28711051613E+01  0.14721577352E+01  0.33286950979E+01  0.51100000000E-03 0.  1.
         12    1    4    4    0    0  0.45670124068E+01 -0.29435094834E+02 -0.10657390337E+02  0.31636409072E+02  0.00000000000E+00 0. -1.
</event>
<event>
 8    1  0.2497772E-006  0.9118800E+02  0.7816164E-02  0.1184000E+00
        -11   -1    0    0    0    0  0.00000000000E+00  0.00000000000E+00  0.45593999997E+02  0.45594000000E+02  0.51100000000E-03 0. -1.
         11   -1    0    0    0    0 -0.00000000000E+00 -0.00000000000E+00 -0.45593999997E+02  0.45594000000E+02  0.51100000000E-03 0.  1.
         23    2    1    2    0    0  0.00000000000E+00  0.71054273576E-14 -0.17763568394E-14  0.91188000000E+02  0.91188000000E+02 0.  0.
    9900012    2    3    3    0    0  0.33655351755E+02  0.12398389547E+02 -0.83293178714E+01  0.54367077940E+02  0.39999985781E+02 0.  0.
         12    1    3    3    0    0 -0.33655351755E+02 -0.12398389547E+02  0.83293178714E+01  0.36820922060E+02  0.00000000000E+00 0. -1.
         11    1    4    4    0    0  0.94861695830E+01 -0.84990325266E+01  0.27417753732E+01  0.13028365197E+02  0.51100000000E-03 0. -1.
        -11    1    4    4    0    0  0.26248327360E+02  0.93626287548E+01 -0.98365638694E+01  0.29553197719E+02  0.51100000000E-03 0.  1.
         12    1    4    4    0    0 -0.20791451876E+01  0.11534793319E+02 -0.12345293752E+01  0.11785515025E+02  0.00000000000E+00 0. -1.
</event>
<event>
 8    1  0.2497772E-006  0.9118800E+02  0.7816164E-02  0.1184000E+00
        -11   -1    0    0    0    0  0.00000000000E+00  0.00000000000E+00  0.45593999997E+02  0.45594000000E+02  0.51100000000E-03 0. -1.
         11   -1    0    0    0    0 -0.00000000000E+00 -0.00000000000E+00 -0.45593999997E+02  0.45594000000E+02  0.51100000000E-03 0.  1.
         23    2    1    2    0    0 -0.17763568394E-14  0.00000000000E+00  0.88817841970E-15  0.91188000000E+02  0.91188000000E+02 0.  0.
    9900012    2    3    3    0    0 -0.11764447085E+02 -0.34621732836E+02  0.43256535475E+01  0.54367110842E+02  0.40000060787E+02 0.  0.
        -12    1    3    3    0    0  0.11764447085E+02  0.34621732836E+02 -0.43256535475E+01  0.36820889158E+02  0.00000000000E+00 0.  1.
         11    1    4    4    0    0 -0.14323763877E+02  0.27840757375E+01  0.38057977684E+01  0.15079966387E+02  0.51100000000E-03 0. -1.
        -11    1    4    4    0    0  0.61403557491E+01 -0.12520298494E+02 -0.16966076855E+01  0.14047787050E+02  0.51100000000E-03 0.  1.
         12    1    4    4    0    0 -0.35810389565E+01 -0.24885510080E+02  0.22164634646E+01  0.25239357405E+02  0.00000000000E+00 0. -1.
</event>
<event>
 8    1  0.2497772E-006  0.9118800E+02  0.7816164E-02  0.1184000E+00
        -11   -1    0    0    0    0  0.00000000000E+00  0.00000000000E+00  0.45593999997E+02  0.45594000000E+02  0.51100000000E-03 0.  1.
         11   -1    0    0    0    0 -0.00000000000E+00 -0.00000000000E+00 -0.45593999997E+02  0.45594000000E+02  0.51100000000E-03 0. -1.
         23    2    1    2    0    0 -0.71054273576E-14 -0.53290705182E-14  0.88817841970E-15  0.91188000000E+02  0.91188000000E+02 0.  0.
    9900012    2    3    3    0    0  0.33976812533E+02  0.13482351269E+02 -0.44248420854E+01  0.54367125307E+02  0.40000093763E+02 0.  0.
        -12    1    3    3    0    0 -0.33976812533E+02 -0.13482351269E+02  0.44248420854E+01  0.36820874693E+02  0.00000000000E+00 0.  1.
         11    1    4    4    0    0  0.60884161635E+00 -0.11864127955E+01 -0.17913862193E+01  0.22332326979E+01  0.51100000000E-03 0. -1.
        -11    1    4    4    0    0  0.11499922422E+02  0.23052165830E+02  0.71765832863E+01  0.26742361772E+02  0.51100000000E-03 0.  1.
         12    1    4    4    0    0  0.21868048494E+02 -0.83834017663E+01 -0.98100391524E+01  0.25391530838E+02  0.00000000000E+00 0. -1.
</event>
<event>
 8    1  0.2497772E-006  0.9118800E+02  0.7816164E-02  0.1184000E+00
        -11   -1    0    0    0    0  0.00000000000E+00  0.00000000000E+00  0.45593999997E+02  0.45594000000E+02  0.51100000000E-03 0.  1.
         11   -1    0    0    0    0 -0.00000000000E+00 -0.00000000000E+00 -0.45593999997E+02  0.45594000000E+02  0.51100000000E-03 0. -1.
         23    2    1    2    0    0  0.00000000000E+00  0.11102230246E-14  0.00000000000E+00  0.91188000000E+02  0.91188000000E+02 0.  0.
    9900012    2    3    3    0    0  0.23618679030E+02 -0.11497719793E+01 -0.28224379024E+02  0.54367088197E+02  0.40000009162E+02 0.  0.
        -12    1    3    3    0    0 -0.23618679030E+02  0.11497719793E+01  0.28224379024E+02  0.36820911803E+02  0.00000000000E+00 0.  1.
         11    1    4    4    0    0  0.16625411131E+02 -0.23933670402E+01 -0.13179278264E+02  0.21350079084E+02  0.51100000000E-03 0. -1.
        -11    1    4    4    0    0 -0.40635560136E+01  0.80004561340E+01 -0.17649783731E+02  0.19799864945E+02  0.51100000000E-03 0.  1.
         12    1    4    4    0    0  0.11056823913E+02 -0.67568610732E+01  0.26046829706E+01  0.13217144169E+02  0.00000000000E+00 0. -1.
</event>
<event>
 8    1  0.2497772E-006  0.9118800E+02  0.7816164E-02  0.1184000E+00
        -11   -1    0    0    0    0  0.00000000000E+00  0.00000000000E+00  0.45593999997E+02  0.45594000000E+02  0.51100000000E-03 0.  1.
         11   -1    0    0    0    0 -0.00000000000E+00 -0.00000000000E+00 -0.45593999997E+02  0.45594000000E+02  0.51100000000E-03 0. -1.
         23    2    1    2    0    0 -0.22204460493E-14  0.88817841970E-15  0.00000000000E+00  0.91188000000E+02  0.91188000000E+02 0.  0.
    9900012    2    3    3    0    0 -0.24381631160E+01  0.69318660330E+01  0.36080241510E+02  0.54367092441E+02  0.40000018837E+02 0.  0.
         12    1    3    3    0    0  0.24381631160E+01 -0.69318660330E+01 -0.36080241510E+02  0.36820907559E+02  0.00000000000E+00 0. -1.
         11    1    4    4    0    0  0.13125276423E+02  0.14597727520E+01  0.16831973146E+02  0.21394371641E+02  0.51100000000E-03 0. -1.
        -11    1    4    4    0    0 -0.73610069004E+01  0.52358659788E+01  0.22423007954E+02  0.24174159781E+02  0.51100000000E-03 0.  1.
         12    1    4    4    0    0 -0.82024326390E+01  0.23622730225E+00 -0.31747395902E+01  0.87985610188E+01  0.00000000000E+00 0. -1.
</event>
<event>
 8    1  0.2497772E-006  0.9118800E+02  0.7816164E-02  0.1184000E+00
        -11   -1    0    0    0    0  0.00000000000E+00  0.00000000000E+00  0.45593999997E+02  0.45594000000E+02  0.51100000000E-03 0.  1.
         11   -1    0    0    0    0 -0.00000000000E+00 -0.00000000000E+00 -0.45593999997E+02  0.45594000000E+02  0.51100000000E-03 0. -1.
         23    2    1    2    0    0  0.17763568394E-14  0.17763568394E-14  0.00000000000E+00  0.91188000000E+02  0.91188000000E+02 0.  0.
    9900012    2    3    3    0    0 -0.11306729408E+02 -0.59635506132E+01  0.34530780494E+02  0.54367070254E+02  0.39999968259E+02 0.  0.
         12    1    3    3    0    0  0.11306729408E+02  0.59635506132E+01 -0.34530780494E+02  0.36820929746E+02  0.00000000000E+00 0. -1.
         11    1    4    4    0    0 -0.13301585178E+02 -0.48172416761E+01  0.10168725879E+02  0.17422427267E+02  0.51100000000E-03 0. -1.
        -11    1    4    4    0    0 -0.47384105079E+01  0.12052770688E+02  0.11745048263E+02  0.17483362787E+02  0.51100000000E-03 0.  1.
         12    1    4    4    0    0  0.67332662784E+01 -0.13199079625E+02  0.12617006352E+02  0.19461280200E+02  0.00000000000E+00 0. -1.
</event>
<event>
 8    1  0.2497772E-006  0.9118800E+02  0.7816164E-02  0.1184000E+00
        -11   -1    0    0    0    0  0.00000000000E+00  0.00000000000E+00  0.45593999997E+02  0.45594000000E+02  0.51100000000E-03 0.  1.
         11   -1    0    0    0    0 -0.00000000000E+00 -0.00000000000E+00 -0.45593999997E+02  0.45594000000E+02  0.51100000000E-03 0. -1.
         23    2    1    2    0    0  0.00000000000E+00 -0.17763568394E-14 -0.35527136788E-14  0.91188000000E+02  0.91188000000E+02 0.  0.
    9900012    2    3    3    0    0  0.23786175937E+02  0.12100453564E+02  0.25369098086E+02  0.54366888123E+02  0.39999553051E+02 0.  0.
         12    1    3    3    0    0 -0.23786175937E+02 -0.12100453564E+02 -0.25369098086E+02  0.36821111877E+02  0.00000000000E+00 0. -1.
         11    1    4    4    0    0  0.67720453900E+01 -0.13541886595E+02  0.21644817779E+01  0.15294713889E+02  0.51100000000E-03 0. -1.
        -11    1    4    4    0    0  0.38061366296E+01  0.71367984707E+01  0.29085671835E+01  0.85953668786E+01  0.51100000000E-03 0.  1.
         12    1    4    4    0    0  0.13207993917E+02  0.18505541688E+02  0.20296049125E+02  0.30476807355E+02  0.00000000000E+00 0. -1.
</event>
<event>
 8    1  0.2497772E-006  0.9118800E+02  0.7816164E-02  0.1184000E+00
        -11   -1    0    0    0    0  0.00000000000E+00  0.00000000000E+00  0.45593999997E+02  0.45594000000E+02  0.51100000000E-03 0.  1.
         11   -1    0    0    0    0 -0.00000000000E+00 -0.00000000000E+00 -0.45593999997E+02  0.45594000000E+02  0.51100000000E-03 0. -1.
         23    2    1    2    0    0 -0.88817841970E-15  0.00000000000E+00  0.88817841970E-15  0.91188000000E+02  0.91188000000E+02 0.  0.
    9900012    2    3    3    0    0  0.61159671422E+01 -0.35930700494E+02 -0.52306631186E+01  0.54367080284E+02  0.39999991122E+02 0.  0.
        -12    1    3    3    0    0 -0.61159671422E+01  0.35930700494E+02  0.52306631186E+01  0.36820919716E+02  0.00000000000E+00 0.  1.
         11    1    4    4    0    0 -0.15909024434E+02 -0.14008797301E+02 -0.26258330570E+01  0.21359739225E+02  0.51100000000E-03 0. -1.
        -11    1    4    4    0    0  0.74473310010E+01 -0.12778509330E+02  0.26268907036E+01  0.15021770693E+02  0.51100000000E-03 0.  1.
         12    1    4    4    0    0  0.14577660575E+02 -0.91433938635E+01 -0.52317207652E+01  0.17985570365E+02  0.00000000000E+00 0. -1.
</event>
<event>
 8    1  0.2497772E-006  0.9118800E+02  0.7816164E-02  0.1184000E+00
        -11   -1    0    0    0    0  0.00000000000E+00  0.00000000000E+00  0.45593999997E+02  0.45594000000E+02  0.51100000000E-03 0.  1.
         11   -1    0    0    0    0 -0.00000000000E+00 -0.00000000000E+00 -0.45593999997E+02  0.45594000000E+02  0.51100000000E-03 0. -1.
         23    2    1    2    0    0  0.88817841970E-15 -0.17763568394E-14  0.00000000000E+00  0.91188000000E+02  0.91188000000E+02 0.  0.
    9900012    2    3    3    0    0 -0.72220446408E+01  0.67424585392E+01 -0.35470541299E+02  0.54367109516E+02  0.40000057764E+02 0.  0.
        -12    1    3    3    0    0  0.72220446408E+01 -0.67424585392E+01  0.35470541299E+02  0.36820890484E+02  0.00000000000E+00 0.  1.
         11    1    4    4    0    0 -0.16923321716E+01 -0.12108806943E+02 -0.24130916581E+02  0.27051586442E+02  0.51100000000E-03 0. -1.
        -11    1    4    4    0    0  0.43076801216E+01  0.56080199213E+01  0.37610766914E+00  0.70814866170E+01  0.51100000000E-03 0.  1.
         12    1    4    4    0    0 -0.98373925908E+01  0.13243245561E+02 -0.11715732388E+02  0.20234036457E+02  0.00000000000E+00 0. -1.
</event>
<event>
 8    1  0.2497772E-006  0.9118800E+02  0.7816164E-02  0.1184000E+00
        -11   -1    0    0    0    0  0.00000000000E+00  0.00000000000E+00  0.45593999997E+02  0.45594000000E+02  0.51100000000E-03 0.  1.
         11   -1    0    0    0    0 -0.00000000000E+00 -0.00000000000E+00 -0.45593999997E+02  0.45594000000E+02  0.51100000000E-03 0. -1.
         23    2    1    2    0    0 -0.35527136788E-14 -0.44408920985E-15  0.00000000000E+00  0.91188000000E+02  0.91188000000E+02 0.  0.
    9900012    2    3    3    0    0 -0.18913752429E+02  0.22708679650E+01  0.31510238416E+02  0.54367054910E+02  0.39999933278E+02 0.  0.
         12    1    3    3    0    0  0.18913752429E+02 -0.22708679650E+01 -0.31510238416E+02  0.36820945090E+02  0.00000000000E+00 0. -1.
         11    1    4    4    0    0 -0.82070784213E+01  0.29347748191E+01  0.27608942183E+01  0.91428429166E+01  0.51100000000E-03 0. -1.
        -11    1    4    4    0    0  0.71597859816E+01  0.11280475636E+02  0.97678763052E+01  0.16550621549E+02  0.51100000000E-03 0.  1.
         12    1    4    4    0    0 -0.17866459990E+02 -0.11944382490E+02  0.18981467893E+02  0.28673590445E+02  0.00000000000E+00 0. -1.
</event>
<event>
 8    1  0.2497772E-006  0.9118800E+02  0.7816164E-02  0.1184000E+00
        -11   -1    0    0    0    0  0.00000000000E+00  0.00000000000E+00  0.45593999997E+02  0.45594000000E+02  0.51100000000E-03 0.  1.
         11   -1    0    0    0    0 -0.00000000000E+00 -0.00000000000E+00 -0.45593999997E+02  0.45594000000E+02  0.51100000000E-03 0. -1.
         23    2    1    2    0    0 -0.35527136788E-14  0.17763568394E-14 -0.35527136788E-14  0.91188000000E+02  0.91188000000E+02 0.  0.
    9900012    2    3    3    0    0  0.28696258604E+02 -0.10365382292E+02  0.20612214396E+02  0.54367084880E+02  0.40000001602E+02 0.  0.
         12    1    3    3    0    0 -0.28696258604E+02  0.10365382292E+02 -0.20612214396E+02  0.36820915120E+02  0.00000000000E+00 0. -1.
         11    1    4    4    0    0 -0.67969270218E+00 -0.52894237897E+01 -0.18927936562E+01  0.56588562698E+01  0.51100000000E-03 0. -1.
        -11    1    4    4    0    0 -0.13962634780E+00  0.96128122616E+01  0.87001711867E+01  0.12966056996E+02  0.51100000000E-03 0.  1.
         12    1    4    4    0    0  0.29515577654E+02 -0.14688770764E+02  0.13804836865E+02  0.35742171614E+02  0.00000000000E+00 0. -1.
</event>
<event>
 8    1  0.2497772E-006  0.9118800E+02  0.7816164E-02  0.1184000E+00
        -11   -1    0    0    0    0  0.00000000000E+00  0.00000000000E+00  0.45593999997E+02  0.45594000000E+02  0.51100000000E-03 0. -1.
         11   -1    0    0    0    0 -0.00000000000E+00 -0.00000000000E+00 -0.45593999997E+02  0.45594000000E+02  0.51100000000E-03 0.  1.
         23    2    1    2    0    0  0.00000000000E+00  0.00000000000E+00  0.35527136788E-14  0.91188000000E+02  0.91188000000E+02 0.  0.
    9900012    2    3    3    0    0  0.74715406367E+01 -0.22831705069E+02 -0.27904640675E+02  0.54367086825E+02  0.40000006034E+02 0.  0.
         12    1    3    3    0    0 -0.74715406367E+01  0.22831705069E+02  0.27904640675E+02  0.36820913175E+02  0.00000000000E+00 0. -1.
         11    1    4    4    0    0 -0.76697039750E+01 -0.82039634453E+01 -0.43415967647E+01  0.12040715843E+02  0.51100000000E-03 0. -1.
        -11    1    4    4    0    0  0.10056623055E+00 -0.89153561350E+01 -0.24637963251E+02  0.26201582433E+02  0.51100000000E-03 0.  1.
         12    1    4    4    0    0  0.15040678381E+02 -0.57123854892E+01  0.10749193410E+01  0.16124788548E+02  0.00000000000E+00 0. -1.
</event>
<event>
 8    1  0.2497772E-006  0.9118800E+02  0.7816164E-02  0.1184000E+00
        -11   -1    0    0    0    0  0.00000000000E+00  0.00000000000E+00  0.45593999997E+02  0.45594000000E+02  0.51100000000E-03 0. -1.
         11   -1    0    0    0    0 -0.00000000000E+00 -0.00000000000E+00 -0.45593999997E+02  0.45594000000E+02  0.51100000000E-03 0.  1.
         23    2    1    2    0    0  0.00000000000E+00 -0.35527136788E-14 -0.35527136788E-14  0.91188000000E+02  0.91188000000E+02 0.  0.
    9900012    2    3    3    0    0 -0.12888339315E+02 -0.24010089265E+02 -0.24762596891E+02  0.54367083640E+02  0.39999998773E+02 0.  0.
         12    1    3    3    0    0  0.12888339315E+02  0.24010089265E+02  0.24762596891E+02  0.36820916360E+02  0.00000000000E+00 0. -1.
         11    1    4    4    0    0 -0.75396599051E+01 -0.74789108185E+01 -0.12083852316E+02  0.16087264080E+02  0.51100000000E-03 0. -1.
        -11    1    4    4    0    0  0.31550788106E+01 -0.93188943817E+01 -0.21771953980E+02  0.23891720222E+02  0.51100000000E-03 0.  1.
         12    1    4    4    0    0 -0.85037582207E+01 -0.72122840646E+01  0.90932094040E+01  0.14388099338E+02  0.00000000000E+00 0. -1.
</event>
<event>
 8    1  0.2497772E-006  0.9118800E+02  0.7816164E-02  0.1184000E+00
        -11   -1    0    0    0    0  0.00000000000E+00  0.00000000000E+00  0.45593999997E+02  0.45594000000E+02  0.51100000000E-03 0.  1.
         11   -1    0    0    0    0 -0.00000000000E+00 -0.00000000000E+00 -0.45593999997E+02  0.45594000000E+02  0.51100000000E-03 0. -1.
         23    2    1    2    0    0  0.35527136788E-14  0.00000000000E+00  0.00000000000E+00  0.91188000000E+02  0.91188000000E+02 0.  0.
    9900012    2    3    3    0    0 -0.26753918938E+02  0.52976333603E+01 -0.24737458622E+02  0.54367096198E+02  0.40000027402E+02 0.  0.
        -12    1    3    3    0    0  0.26753918938E+02 -0.52976333603E+01  0.24737458622E+02  0.36820903802E+02  0.00000000000E+00 0.  1.
         11    1    4    4    0    0 -0.39074024571E+01 -0.13950726895E+02 -0.15268987444E+02  0.21048338478E+02  0.51100000000E-03 0. -1.
        -11    1    4    4    0    0 -0.13782465051E+02  0.53874390645E+01 -0.13072969545E+01  0.14855634222E+02  0.51100000000E-03 0.  1.
        -12    1    4    4    0    0 -0.90640514298E+01  0.13860921191E+02 -0.81611742232E+01  0.18463123497E+02  0.00000000000E+00 0.  1.
</event>
<event>
 8    1  0.2497772E-006  0.9118800E+02  0.7816164E-02  0.1184000E+00
        -11   -1    0    0    0    0  0.00000000000E+00  0.00000000000E+00  0.45593999997E+02  0.45594000000E+02  0.51100000000E-03 0.  1.
         11   -1    0    0    0    0 -0.00000000000E+00 -0.00000000000E+00 -0.45593999997E+02  0.45594000000E+02  0.51100000000E-03 0. -1.
         23    2    1    2    0    0 -0.35527136788E-14  0.00000000000E+00  0.17763568394E-14  0.91188000000E+02  0.91188000000E+02 0.  0.
    9900012    2    3    3    0    0 -0.26939791063E+02 -0.23198259640E+02  0.95848199032E+01  0.54367077070E+02  0.39999983797E+02 0.  0.
         12    1    3    3    0    0  0.26939791063E+02  0.23198259640E+02 -0.95848199032E+01  0.36820922930E+02  0.00000000000E+00 0. -1.
         11    1    4    4    0    0  0.49652923508E+00 -0.58035670818E+01 -0.32368088878E+01  0.66636974865E+01  0.51100000000E-03 0. -1.
        -11    1    4    4    0    0 -0.55104928164E+01 -0.43651723224E+01 -0.10835287539E+02  0.12916025581E+02  0.51100000000E-03 0.  1.
        -12    1    4    4    0    0 -0.21925827481E+02 -0.13029520235E+02  0.23656916330E+02  0.34787354003E+02  0.00000000000E+00 0.  1.
</event>
<event>
 8    1  0.2497772E-006  0.9118800E+02  0.7816164E-02  0.1184000E+00
        -11   -1    0    0    0    0  0.00000000000E+00  0.00000000000E+00  0.45593999997E+02  0.45594000000E+02  0.51100000000E-03 0. -1.
         11   -1    0    0    0    0 -0.00000000000E+00 -0.00000000000E+00 -0.45593999997E+02  0.45594000000E+02  0.51100000000E-03 0.  1.
         23    2    1    2    0    0 -0.22204460493E-15  0.00000000000E+00  0.00000000000E+00  0.91188000000E+02  0.91188000000E+02 0.  0.
    9900012    2    3    3    0    0  0.11778828507E+01 -0.15327699478E+02 -0.33458251332E+02  0.54367077123E+02  0.39999983918E+02 0.  0.
         12    1    3    3    0    0 -0.11778828507E+01  0.15327699478E+02  0.33458251332E+02  0.36820922877E+02  0.00000000000E+00 0. -1.
         11    1    4    4    0    0  0.60842168888E+00  0.17569269552E+01 -0.12523420999E+01  0.22417248434E+01  0.51100000000E-03 0. -1.
        -11    1    4    4    0    0  0.43847432884E+01 -0.19417246448E+02 -0.30086270925E+00  0.19908439214E+02  0.51100000000E-03 0.  1.
        -12    1    4    4    0    0 -0.38152821266E+01  0.23326200145E+01 -0.31905046523E+02  0.32216913066E+02  0.00000000000E+00 0.  1.
</event>
<event>
 8    1  0.2497772E-006  0.9118800E+02  0.7816164E-02  0.1184000E+00
        -11   -1    0    0    0    0  0.00000000000E+00  0.00000000000E+00  0.45593999997E+02  0.45594000000E+02  0.51100000000E-03 0.  1.
         11   -1    0    0    0    0 -0.00000000000E+00 -0.00000000000E+00 -0.45593999997E+02  0.45594000000E+02  0.51100000000E-03 0. -1.
         23    2    1    2    0    0  0.35527136788E-14 -0.35527136788E-14  0.17763568394E-14  0.91188000000E+02  0.91188000000E+02 0.  0.
    9900012    2    3    3    0    0 -0.25105453602E+02  0.26050668216E+02  0.68453617903E+01  0.54367080767E+02  0.39999992225E+02 0.  0.
         12    1    3    3    0    0  0.25105453602E+02 -0.26050668216E+02 -0.68453617903E+01  0.36820919233E+02  0.00000000000E+00 0. -1.
         11    1    4    4    0    0  0.31688504777E+01  0.84666882313E+01 -0.96486572971E+01  0.13222065302E+02  0.51100000000E-03 0. -1.
        -11    1    4    4    0    0 -0.19289302269E+02  0.35224488563E+01  0.33264419993E+01  0.19888439974E+02  0.51100000000E-03 0.  1.
         12    1    4    4    0    0 -0.89850018113E+01  0.14061531129E+02  0.13167577088E+02  0.21256575491E+02  0.00000000000E+00 0. -1.
</event>
<event>
 8    1  0.2497772E-006  0.9118800E+02  0.7816164E-02  0.1184000E+00
        -11   -1    0    0    0    0  0.00000000000E+00  0.00000000000E+00  0.45593999997E+02  0.45594000000E+02  0.51100000000E-03 0. -1.
         11   -1    0    0    0    0 -0.00000000000E+00 -0.00000000000E+00 -0.45593999997E+02  0.45594000000E+02  0.51100000000E-03 0.  1.
         23    2    1    2    0    0 -0.17763568394E-14  0.35527136788E-14  0.35527136788E-14  0.91188000000E+02  0.91188000000E+02 0.  0.
    9900012    2    3    3    0    0  0.42953905674E+01 -0.24659319409E+02 -0.27004603122E+02  0.54367068404E+02  0.39999964040E+02 0.  0.
         12    1    3    3    0    0 -0.42953905674E+01  0.24659319409E+02  0.27004603122E+02  0.36820931596E+02  0.00000000000E+00 0. -1.
         11    1    4    4    0    0 -0.10620353473E+02 -0.86132532586E+01 -0.49472313781E+01  0.14541497108E+02  0.51100000000E-03 0. -1.
        -11    1    4    4    0    0 -0.24360199375E+01 -0.43224727268E+01 -0.17770632391E+02  0.18450293749E+02  0.51100000000E-03 0.  1.
        -12    1    4    4    0    0  0.17351763977E+02 -0.11723593424E+02 -0.42867393533E+01  0.21375277546E+02  0.00000000000E+00 0.  1.
</event>
<event>
 8    1  0.2497772E-006  0.9118800E+02  0.7816164E-02  0.1184000E+00
        -11   -1    0    0    0    0  0.00000000000E+00  0.00000000000E+00  0.45593999997E+02  0.45594000000E+02  0.51100000000E-03 0.  1.
         11   -1    0    0    0    0 -0.00000000000E+00 -0.00000000000E+00 -0.45593999997E+02  0.45594000000E+02  0.51100000000E-03 0. -1.
         23    2    1    2    0    0 -0.53290705182E-14  0.00000000000E+00  0.00000000000E+00  0.91188000000E+02  0.91188000000E+02 0.  0.
    9900012    2    3    3    0    0 -0.14744922147E+02  0.12371538543E+02 -0.31389638141E+02  0.54367121715E+02  0.40000085575E+02 0.  0.
        -12    1    3    3    0    0  0.14744922147E+02 -0.12371538543E+02  0.31389638141E+02  0.36820878285E+02  0.00000000000E+00 0.  1.
         11    1    4    4    0    0 -0.55898989036E+01 -0.53640528231E+01 -0.17911562045E+02  0.19515227070E+02  0.51100000000E-03 0. -1.
        -11    1    4    4    0    0  0.83937222489E+01  0.21556720644E+01 -0.39662406301E+01  0.95306117452E+01  0.51100000000E-03 0.  1.
        -12    1    4    4    0    0 -0.17548745492E+02  0.15579919301E+02 -0.95118354660E+01  0.25321282900E+02  0.00000000000E+00 0.  1.
</event>
<event>
 8    1  0.2497772E-006  0.9118800E+02  0.7816164E-02  0.1184000E+00
        -11   -1    0    0    0    0  0.00000000000E+00  0.00000000000E+00  0.45593999997E+02  0.45594000000E+02  0.51100000000E-03 0.  1.
         11   -1    0    0    0    0 -0.00000000000E+00 -0.00000000000E+00 -0.45593999997E+02  0.45594000000E+02  0.51100000000E-03 0. -1.
         23    2    1    2    0    0 -0.35527136788E-14  0.00000000000E+00  0.00000000000E+00  0.91188000000E+02  0.91188000000E+02 0.  0.
    9900012    2    3    3    0    0  0.15123069399E+02  0.21892025831E+02  0.25452143877E+02  0.54367086772E+02  0.40000005913E+02 0.  0.
         12    1    3    3    0    0 -0.15123069399E+02 -0.21892025831E+02 -0.25452143877E+02  0.36820913228E+02  0.00000000000E+00 0. -1.
         11    1    4    4    0    0 -0.66869779487E+01 -0.11684481505E+01  0.86277286232E+00  0.68429030711E+01  0.51100000000E-03 0. -1.
        -11    1    4    4    0    0  0.77542263915E+00  0.18299907561E+02  0.15963496287E+02  0.24296524669E+02  0.51100000000E-03 0.  1.
         12    1    4    4    0    0  0.21034624708E+02  0.47605664204E+01  0.86258747280E+01  0.23227659032E+02  0.00000000000E+00 0. -1.
</event>
<event>
 8    1  0.2497772E-006  0.9118800E+02  0.7816164E-02  0.1184000E+00
        -11   -1    0    0    0    0  0.00000000000E+00  0.00000000000E+00  0.45593999997E+02  0.45594000000E+02  0.51100000000E-03 0.  1.
         11   -1    0    0    0    0 -0.00000000000E+00 -0.00000000000E+00 -0.45593999997E+02  0.45594000000E+02  0.51100000000E-03 0. -1.
         23    2    1    2    0    0  0.00000000000E+00  0.35527136788E-14  0.35527136788E-14  0.91188000000E+02  0.91188000000E+02 0.  0.
    9900012    2    3    3    0    0 -0.72018189387E+01 -0.26454828030E+02 -0.24577540960E+02  0.54367086896E+02  0.40000006198E+02 0.  0.
        -12    1    3    3    0    0  0.72018189387E+01  0.26454828030E+02  0.24577540960E+02  0.36820913104E+02  0.00000000000E+00 0.  1.
         11    1    4    4    0    0  0.28064706802E+01 -0.28413649061E+02 -0.81278720321E+01  0.29686260032E+02  0.51100000000E-03 0. -1.
        -11    1    4    4    0    0 -0.13294284898E+02  0.21672200558E+01 -0.81295968818E+01  0.15732933593E+02  0.51100000000E-03 0.  1.
        -12    1    4    4    0    0  0.32859952795E+01 -0.20839902455E+00 -0.83200720464E+01  0.89478932710E+01  0.00000000000E+00 0.  1.
</event>
<event>
 8    1  0.2497772E-006  0.9118800E+02  0.7816164E-02  0.1184000E+00
        -11   -1    0    0    0    0  0.00000000000E+00  0.00000000000E+00  0.45593999997E+02  0.45594000000E+02  0.51100000000E-03 0. -1.
         11   -1    0    0    0    0 -0.00000000000E+00 -0.00000000000E+00 -0.45593999997E+02  0.45594000000E+02  0.51100000000E-03 0.  1.
         23    2    1    2    0    0  0.00000000000E+00 -0.71054273576E-14 -0.88817841970E-15  0.91188000000E+02  0.91188000000E+02 0.  0.
    9900012    2    3    3    0    0 -0.21622053233E+02  0.29428631735E+02  0.47141778763E+01  0.54367068115E+02  0.39999963382E+02 0.  0.
        -12    1    3    3    0    0  0.21622053233E+02 -0.29428631735E+02 -0.47141778763E+01  0.36820931885E+02  0.00000000000E+00 0.  1.
         11    1    4    4    0    0 -0.14629394682E+02  0.66851264732E+01  0.11411933989E+02  0.19721621190E+02  0.51100000000E-03 0. -1.
        -11    1    4    4    0    0  0.20980127130E+00  0.64257984540E+00  0.74189738963E+01  0.74497046496E+01  0.51100000000E-03 0.  1.
        -12    1    4    4    0    0 -0.72024598218E+01  0.22100925417E+02 -0.14116730009E+02  0.27195742275E+02  0.00000000000E+00 0.  1.
</event>
<event>
 8    1  0.2497772E-006  0.9118800E+02  0.7816164E-02  0.1184000E+00
        -11   -1    0    0    0    0  0.00000000000E+00  0.00000000000E+00  0.45593999997E+02  0.45594000000E+02  0.51100000000E-03 0.  1.
         11   -1    0    0    0    0 -0.00000000000E+00 -0.00000000000E+00 -0.45593999997E+02  0.45594000000E+02  0.51100000000E-03 0. -1.
         23    2    1    2    0    0  0.00000000000E+00 -0.35527136788E-14 -0.35527136788E-14  0.91188000000E+02  0.91188000000E+02 0.  0.
    9900012    2    3    3    0    0  0.19206481289E+02 -0.19263416995E+02 -0.24815551386E+02  0.54367085448E+02  0.40000002896E+02 0.  0.
        -12    1    3    3    0    0 -0.19206481289E+02  0.19263416995E+02  0.24815551386E+02  0.36820914552E+02  0.00000000000E+00 0.  1.
         11    1    4    4    0    0  0.24389123773E+02 -0.12195325838E+01 -0.59413097584E+01  0.25131967293E+02  0.51100000000E-03 0. -1.
        -11    1    4    4    0    0  0.71174138882E+00 -0.59462473956E+01 -0.13455258597E+02  0.14727811041E+02  0.51100000000E-03 0.  1.
         12    1    4    4    0    0 -0.58943838723E+01 -0.12097637016E+02 -0.54189830306E+01  0.14507307113E+02  0.00000000000E+00 0. -1.
</event>
<event>
 8    1  0.2497772E-006  0.9118800E+02  0.7816164E-02  0.1184000E+00
        -11   -1    0    0    0    0  0.00000000000E+00  0.00000000000E+00  0.45593999997E+02  0.45594000000E+02  0.51100000000E-03 0.  1.
         11   -1    0    0    0    0 -0.00000000000E+00 -0.00000000000E+00 -0.45593999997E+02  0.45594000000E+02  0.51100000000E-03 0. -1.
         23    2    1    2    0    0  0.00000000000E+00  0.00000000000E+00  0.00000000000E+00  0.91188000000E+02  0.91188000000E+02 0.  0.
    9900012    2    3    3    0    0 -0.17018856513E+02  0.11511983002E+02 -0.30555068217E+02  0.54367089862E+02  0.40000012957E+02 0.  0.
        -12    1    3    3    0    0  0.17018856513E+02 -0.11511983002E+02  0.30555068217E+02  0.36820910138E+02  0.00000000000E+00 0.  1.
         11    1    4    4    0    0 -0.19258404994E+02  0.16309293322E+02 -0.20471129183E+02  0.32495328000E+02  0.51100000000E-03 0. -1.
        -11    1    4    4    0    0  0.95863783050E+01 -0.62726260179E+01 -0.83609461545E+01  0.14182732707E+02  0.51100000000E-03 0.  1.
         12    1    4    4    0    0 -0.73468298247E+01  0.14753156981E+01 -0.17229928802E+01  0.76890291551E+01  0.00000000000E+00 0. -1.
</event>
<event>
 8    1  0.2497772E-006  0.9118800E+02  0.7816164E-02  0.1184000E+00
        -11   -1    0    0    0    0  0.00000000000E+00  0.00000000000E+00  0.45593999997E+02  0.45594000000E+02  0.51100000000E-03 0.  1.
         11   -1    0    0    0    0 -0.00000000000E+00 -0.00000000000E+00 -0.45593999997E+02  0.45594000000E+02  0.51100000000E-03 0. -1.
         23    2    1    2    0    0 -0.88817841970E-15  0.00000000000E+00  0.00000000000E+00  0.91188000000E+02  0.91188000000E+02 0.  0.
    9900012    2    3    3    0    0 -0.47465122163E+01 -0.36241345251E+02  0.44513005543E+01  0.54367101580E+02  0.40000039672E+02 0.  0.
         12    1    3    3    0    0  0.47465122163E+01  0.36241345251E+02 -0.44513005543E+01  0.36820898420E+02  0.00000000000E+00 0. -1.
         11    1    4    4    0    0 -0.46816183866E+01 -0.30656103813E+01  0.79702533178E+01  0.97386064680E+01  0.51100000000E-03 0. -1.
        -11    1    4    4    0    0  0.12154747142E+02 -0.75039536433E+01  0.46912519149E+01  0.15035126975E+02  0.51100000000E-03 0.  1.
        -12    1    4    4    0    0 -0.12219640972E+02 -0.25671781227E+02 -0.82102046785E+01  0.29593368137E+02  0.00000000000E+00 0.  1.
</event>
<event>
 8    1  0.2497772E-006  0.9118800E+02  0.7816164E-02  0.1184000E+00
        -11   -1    0    0    0    0  0.00000000000E+00  0.00000000000E+00  0.45593999997E+02  0.45594000000E+02  0.51100000000E-03 0.  1.
         11   -1    0    0    0    0 -0.00000000000E+00 -0.00000000000E+00 -0.45593999997E+02  0.45594000000E+02  0.51100000000E-03 0. -1.
         23    2    1    2    0    0  0.00000000000E+00 -0.17763568394E-14  0.17763568394E-14  0.91188000000E+02  0.91188000000E+02 0.  0.
    9900012    2    3    3    0    0 -0.34493500645E+02 -0.10875540504E+02  0.69066066786E+01  0.54367079536E+02  0.39999989419E+02 0.  0.
        -12    1    3    3    0    0  0.34493500645E+02  0.10875540504E+02 -0.69066066786E+01  0.36820920464E+02  0.00000000000E+00 0.  1.
         11    1    4    4    0    0 -0.34008160263E+02 -0.86605552842E+01 -0.34627074455E+01  0.35264011760E+02  0.51100000000E-03 0. -1.
        -11    1    4    4    0    0  0.36278298238E+00 -0.42718860375E+01 -0.32017263409E+01  0.53508572802E+01  0.51100000000E-03 0.  1.
        -12    1    4    4    0    0 -0.84812336401E+00  0.20569008178E+01  0.13571040465E+02  0.13752210496E+02  0.00000000000E+00 0.  1.
</event>
<event>
 8    1  0.2497772E-006  0.9118800E+02  0.7816164E-02  0.1184000E+00
        -11   -1    0    0    0    0  0.00000000000E+00  0.00000000000E+00  0.45593999997E+02  0.45594000000E+02  0.51100000000E-03 0.  1.
         11   -1    0    0    0    0 -0.00000000000E+00 -0.00000000000E+00 -0.45593999997E+02  0.45594000000E+02  0.51100000000E-03 0. -1.
         23    2    1    2    0    0 -0.71054273576E-14  0.35527136788E-14  0.17763568394E-14  0.91188000000E+02  0.91188000000E+02 0.  0.
    9900012    2    3    3    0    0 -0.17865116787E+02  0.30848596197E+02  0.92185352957E+01  0.54367086403E+02  0.40000005073E+02 0.  0.
         12    1    3    3    0    0  0.17865116787E+02 -0.30848596197E+02 -0.92185352957E+01  0.36820913597E+02  0.00000000000E+00 0. -1.
         11    1    4    4    0    0 -0.99501638260E+01  0.64961971844E+01 -0.12165959903E+02  0.17006378763E+02  0.51100000000E-03 0. -1.
        -11    1    4    4    0    0  0.45368338701E+01  0.19221534456E+01  0.26583722113E+01  0.55986139810E+01  0.51100000000E-03 0.  1.
        -12    1    4    4    0    0 -0.12451786831E+02  0.22430245567E+02  0.18726122987E+02  0.31762093659E+02  0.00000000000E+00 0.  1.
</event>
<event>
 8    1  0.2497772E-006  0.9118800E+02  0.7816164E-02  0.1184000E+00
        -11   -1    0    0    0    0  0.00000000000E+00  0.00000000000E+00  0.45593999997E+02  0.45594000000E+02  0.51100000000E-03 0. -1.
         11   -1    0    0    0    0 -0.00000000000E+00 -0.00000000000E+00 -0.45593999997E+02  0.45594000000E+02  0.51100000000E-03 0.  1.
         23    2    1    2    0    0  0.00000000000E+00  0.00000000000E+00  0.00000000000E+00  0.91188000000E+02  0.91188000000E+02 0.  0.
    9900012    2    3    3    0    0  0.32000955752E+02  0.42544124581E+01  0.17709254479E+02  0.54367097124E+02  0.40000029514E+02 0.  0.
        -12    1    3    3    0    0 -0.32000955752E+02 -0.42544124581E+01 -0.17709254479E+02  0.36820902876E+02  0.00000000000E+00 0.  1.
         11    1    4    4    0    0 -0.26073880139E+01  0.10840013122E+01  0.17341963134E+01  0.33137543986E+01  0.51100000000E-03 0. -1.
        -11    1    4    4    0    0  0.19427230558E+02 -0.55804294829E+01 -0.76735181716E+01  0.21620392267E+02  0.51100000000E-03 0.  1.
         12    1    4    4    0    0  0.15181113207E+02  0.87508406289E+01  0.23648576337E+02  0.29432950459E+02  0.00000000000E+00 0. -1.
</event>
<event>
 8    1  0.2497772E-006  0.9118800E+02  0.7816164E-02  0.1184000E+00
        -11   -1    0    0    0    0  0.00000000000E+00  0.00000000000E+00  0.45593999997E+02  0.45594000000E+02  0.51100000000E-03 0. -1.
         11   -1    0    0    0    0 -0.00000000000E+00 -0.00000000000E+00 -0.45593999997E+02  0.45594000000E+02  0.51100000000E-03 0.  1.
         23    2    1    2    0    0 -0.88817841970E-15 -0.35527136788E-14  0.00000000000E+00  0.91188000000E+02  0.91188000000E+02 0.  0.
    9900012    2    3    3    0    0 -0.53690924799E+01 -0.31940415200E+02 -0.17514669256E+02  0.54367069589E+02  0.39999966741E+02 0.  0.
        -12    1    3    3    0    0  0.53690924799E+01  0.31940415200E+02  0.17514669256E+02  0.36820930411E+02  0.00000000000E+00 0.  1.
         11    1    4    4    0    0 -0.51095225645E+01 -0.22810329740E+02  0.34400605609E+01  0.23627365080E+02  0.51100000000E-03 0. -1.
        -11    1    4    4    0    0  0.19834034319E+01  0.63225190113E+01 -0.84305886254E+01  0.10723010802E+02  0.51100000000E-03 0.  1.
         12    1    4    4    0    0 -0.22429733473E+01 -0.15452604472E+02 -0.12524141191E+02  0.20016693707E+02  0.00000000000E+00 0. -1.
</event>
<event>
 8    1  0.2497772E-006  0.9118800E+02  0.7816164E-02  0.1184000E+00
        -11   -1    0    0    0    0  0.00000000000E+00  0.00000000000E+00  0.45593999997E+02  0.45594000000E+02  0.51100000000E-03 0.  1.
         11   -1    0    0    0    0 -0.00000000000E+00 -0.00000000000E+00 -0.45593999997E+02  0.45594000000E+02  0.51100000000E-03 0. -1.
         23    2    1    2    0    0  0.00000000000E+00  0.00000000000E+00  0.35527136788E-14  0.91188000000E+02  0.91188000000E+02 0.  0.
    9900012    2    3    3    0    0 -0.32948823338E+02  0.41967399459E+00 -0.16430679322E+02  0.54367240793E+02  0.40000357034E+02 0.  0.
        -12    1    3    3    0    0  0.32948823338E+02 -0.41967399459E+00  0.16430679322E+02  0.36820759207E+02  0.00000000000E+00 0.  1.
         11    1    4    4    0    0 -0.34971370646E+02  0.15549470902E+01 -0.70301598945E+01  0.35704870448E+02  0.51100000000E-03 0. -1.
        -11    1    4    4    0    0  0.31596251408E+01 -0.77815524362E+01 -0.19661224662E+01  0.86256261894E+01  0.51100000000E-03 0.  1.
         12    1    4    4    0    0 -0.11370778329E+01  0.66462793405E+01 -0.74343969611E+01  0.10036744156E+02  0.00000000000E+00 0. -1.
</event>
<event>
 8    1  0.2497772E-006  0.9118800E+02  0.7816164E-02  0.1184000E+00
        -11   -1    0    0    0    0  0.00000000000E+00  0.00000000000E+00  0.45593999997E+02  0.45594000000E+02  0.51100000000E-03 0.  1.
         11   -1    0    0    0    0 -0.00000000000E+00 -0.00000000000E+00 -0.45593999997E+02  0.45594000000E+02  0.51100000000E-03 0. -1.
         23    2    1    2    0    0 -0.35527136788E-14 -0.35527136788E-14  0.00000000000E+00  0.91188000000E+02  0.91188000000E+02 0.  0.
    9900012    2    3    3    0    0 -0.12899979266E+02 -0.19216304816E+02  0.28637476022E+02  0.54367070235E+02  0.39999968215E+02 0.  0.
         12    1    3    3    0    0  0.12899979266E+02  0.19216304816E+02 -0.28637476022E+02  0.36820929765E+02  0.00000000000E+00 0. -1.
         11    1    4    4    0    0  0.60531368098E+01  0.66730371093E+01 -0.19973335253E+01  0.92281759287E+01  0.51100000000E-03 0. -1.
        -11    1    4    4    0    0 -0.10405870325E+01 -0.28646511294E+01  0.68578759900E+01  0.75046326239E+01  0.51100000000E-03 0.  1.
        -12    1    4    4    0    0 -0.17912529044E+02 -0.23024690795E+02  0.23776933558E+02  0.37634261682E+02  0.00000000000E+00 0.  1.
</event>
<event>
 8    1  0.2497772E-006  0.9118800E+02  0.7816164E-02  0.1184000E+00
        -11   -1    0    0    0    0  0.00000000000E+00  0.00000000000E+00  0.45593999997E+02  0.45594000000E+02  0.51100000000E-03 0.  1.
         11   -1    0    0    0    0 -0.00000000000E+00 -0.00000000000E+00 -0.45593999997E+02  0.45594000000E+02  0.51100000000E-03 0. -1.
         23    2    1    2    0    0  0.00000000000E+00  0.00000000000E+00 -0.26645352591E-14  0.91188000000E+02  0.91188000000E+02 0.  0.
    9900012    2    3    3    0    0 -0.24476799223E+02 -0.26654377161E+02 -0.67982850402E+01  0.54366997820E+02  0.39999803130E+02 0.  0.
         12    1    3    3    0    0  0.24476799223E+02  0.26654377161E+02  0.67982850402E+01  0.36821002180E+02  0.00000000000E+00 0. -1.
         11    1    4    4    0    0 -0.21627213186E+02 -0.15040688634E+02 -0.18660024486E+02  0.32282428330E+02  0.51100000000E-03 0. -1.
        -11    1    4    4    0    0 -0.75610180732E+01 -0.19491724441E+01  0.40617135252E+01  0.88014649089E+01  0.51100000000E-03 0.  1.
         12    1    4    4    0    0  0.47114320362E+01 -0.96645160832E+01  0.78000259208E+01  0.13283104581E+02  0.00000000000E+00 0. -1.
</event>
<event>
 8    1  0.2497772E-006  0.9118800E+02  0.7816164E-02  0.1184000E+00
        -11   -1    0    0    0    0  0.00000000000E+00  0.00000000000E+00  0.45593999997E+02  0.45594000000E+02  0.51100000000E-03 0.  1.
         11   -1    0    0    0    0 -0.00000000000E+00 -0.00000000000E+00 -0.45593999997E+02  0.45594000000E+02  0.51100000000E-03 0. -1.
         23    2    1    2    0    0  0.00000000000E+00  0.00000000000E+00 -0.35527136788E-14  0.91188000000E+02  0.91188000000E+02 0.  0.
    9900012    2    3    3    0    0  0.18759280526E+02  0.22089291978E+02 -0.22714087683E+02  0.54367119983E+02  0.40000081625E+02 0.  0.
        -12    1    3    3    0    0 -0.18759280526E+02 -0.22089291978E+02  0.22714087683E+02  0.36820880017E+02  0.00000000000E+00 0.  1.
         11    1    4    4    0    0 -0.38837501270E+01 -0.90833077816E+00 -0.17008107977E+02  0.17469525382E+02  0.51100000000E-03 0. -1.
        -11    1    4    4    0    0  0.26193415956E+01  0.21249804015E+01  0.50205879564E+01  0.60483713337E+01  0.51100000000E-03 0.  1.
        -12    1    4    4    0    0  0.20023689058E+02  0.20872642355E+02 -0.10726567662E+02  0.30849223267E+02  0.00000000000E+00 0.  1.
</event>
<event>
 8    1  0.2497772E-006  0.9118800E+02  0.7816164E-02  0.1184000E+00
        -11   -1    0    0    0    0  0.00000000000E+00  0.00000000000E+00  0.45593999997E+02  0.45594000000E+02  0.51100000000E-03 0.  1.
         11   -1    0    0    0    0 -0.00000000000E+00 -0.00000000000E+00 -0.45593999997E+02  0.45594000000E+02  0.51100000000E-03 0. -1.
         23    2    1    2    0    0 -0.17763568394E-14  0.00000000000E+00  0.35527136788E-14  0.91188000000E+02  0.91188000000E+02 0.  0.
    9900012    2    3    3    0    0  0.10374865549E+02 -0.20510588913E+02  0.28765575283E+02  0.54367076409E+02  0.39999982290E+02 0.  0.
         12    1    3    3    0    0 -0.10374865549E+02  0.20510588913E+02 -0.28765575283E+02  0.36820923591E+02  0.00000000000E+00 0. -1.
         11    1    4    4    0    0 -0.19201481074E+01 -0.53336655781E+01 -0.78054014727E+01  0.96467222239E+01  0.51100000000E-03 0. -1.
        -11    1    4    4    0    0 -0.24619183631E+01 -0.20676603932E+01  0.15572802807E+02  0.15901209044E+02  0.51100000000E-03 0.  1.
         12    1    4    4    0    0  0.14756932020E+02 -0.13109262942E+02  0.20998173948E+02  0.28819145141E+02  0.00000000000E+00 0. -1.
</event>
<event>
 8    1  0.2497772E-006  0.9118800E+02  0.7816164E-02  0.1184000E+00
        -11   -1    0    0    0    0  0.00000000000E+00  0.00000000000E+00  0.45593999997E+02  0.45594000000E+02  0.51100000000E-03 0. -1.
         11   -1    0    0    0    0 -0.00000000000E+00 -0.00000000000E+00 -0.45593999997E+02  0.45594000000E+02  0.51100000000E-03 0.  1.
         23    2    1    2    0    0 -0.35527136788E-14  0.35527136788E-14  0.00000000000E+00  0.91188000000E+02  0.91188000000E+02 0.  0.
    9900012    2    3    3    0    0 -0.16174676795E+02  0.31729185481E+02  0.93497395682E+01  0.54367095466E+02  0.40000025733E+02 0.  0.
        -12    1    3    3    0    0  0.16174676795E+02 -0.31729185481E+02 -0.93497395682E+01  0.36820904534E+02  0.00000000000E+00 0.  1.
         11    1    4    4    0    0 -0.49777693465E+01  0.18700161905E+02  0.13706638179E+02  0.23713839280E+02  0.51100000000E-03 0. -1.
        -11    1    4    4    0    0  0.46138820998E+00 -0.13895229739E+01 -0.10894443045E+02  0.10992385669E+02  0.51100000000E-03 0.  1.
        -12    1    4    4    0    0 -0.11658295658E+02  0.14418546550E+02  0.65375444339E+01  0.19660870517E+02  0.00000000000E+00 0.  1.
</event>
<event>
 8    1  0.2497772E-006  0.9118800E+02  0.7816164E-02  0.1184000E+00
        -11   -1    0    0    0    0  0.00000000000E+00  0.00000000000E+00  0.45593999997E+02  0.45594000000E+02  0.51100000000E-03 0.  1.
         11   -1    0    0    0    0 -0.00000000000E+00 -0.00000000000E+00 -0.45593999997E+02  0.45594000000E+02  0.51100000000E-03 0. -1.
         23    2    1    2    0    0 -0.71054273576E-14  0.17763568394E-14 -0.11102230246E-14  0.91188000000E+02  0.91188000000E+02 0.  0.
    9900012    2    3    3    0    0 -0.35509354235E+02  0.97059970670E+01  0.81447706753E+00  0.54367027849E+02  0.39999871588E+02 0.  0.
        -12    1    3    3    0    0  0.35509354235E+02 -0.97059970670E+01 -0.81447706753E+00  0.36820972151E+02  0.00000000000E+00 0.  1.
         11    1    4    4    0    0 -0.17181599121E+02 -0.72423654499E+01  0.94594137049E+01  0.20907886397E+02  0.51100000000E-03 0. -1.
        -11    1    4    4    0    0 -0.90819754827E-01  0.13632263041E+02 -0.20550045655E+01  0.13786583619E+02  0.51100000000E-03 0.  1.
         12    1    4    4    0    0 -0.18236935359E+02  0.33160994756E+01 -0.65899320720E+01  0.19672557834E+02  0.00000000000E+00 0. -1.
</event>
<event>
 8    1  0.2497772E-006  0.9118800E+02  0.7816164E-02  0.1184000E+00
        -11   -1    0    0    0    0  0.00000000000E+00  0.00000000000E+00  0.45593999997E+02  0.45594000000E+02  0.51100000000E-03 0. -1.
         11   -1    0    0    0    0 -0.00000000000E+00 -0.00000000000E+00 -0.45593999997E+02  0.45594000000E+02  0.51100000000E-03 0.  1.
         23    2    1    2    0    0 -0.17763568394E-14 -0.35527136788E-14 -0.35527136788E-14  0.91188000000E+02  0.91188000000E+02 0.  0.
    9900012    2    3    3    0    0  0.11357898613E+02  0.20713518444E+02  0.28244302410E+02  0.54366914657E+02  0.39999613541E+02 0.  0.
        -12    1    3    3    0    0 -0.11357898613E+02 -0.20713518444E+02 -0.28244302410E+02  0.36821085343E+02  0.00000000000E+00 0.  1.
         11    1    4    4    0    0  0.46738150414E+01 -0.19526866151E+01  0.19041593930E+02  0.19703802468E+02  0.51100000000E-03 0.  1.
        -11    1    4    4    0    0 -0.20648567333E+01 -0.43677723962E+01  0.26207776476E+01  0.54963210217E+01  0.51100000000E-03 0. -1.
         12    1    4    4    0    0  0.87489403045E+01  0.27033977455E+02  0.65819308328E+01  0.29166791167E+02  0.00000000000E+00 0. -1.
</event>
<event>
 8    1  0.2497772E-006  0.9118800E+02  0.7816164E-02  0.1184000E+00
        -11   -1    0    0    0    0  0.00000000000E+00  0.00000000000E+00  0.45593999997E+02  0.45594000000E+02  0.51100000000E-03 0.  1.
         11   -1    0    0    0    0 -0.00000000000E+00 -0.00000000000E+00 -0.45593999997E+02  0.45594000000E+02  0.51100000000E-03 0. -1.
         23    2    1    2    0    0  0.35527136788E-14  0.00000000000E+00 -0.88817841970E-15  0.91188000000E+02  0.91188000000E+02 0.  0.
    9900012    2    3    3    0    0 -0.22282435581E+02 -0.28772069694E+02  0.56071860397E+01  0.54367089295E+02  0.40000011666E+02 0.  0.
         12    1    3    3    0    0  0.22282435581E+02  0.28772069694E+02 -0.56071860397E+01  0.36820910705E+02  0.00000000000E+00 0. -1.
         11    1    4    4    0    0  0.10557096001E+02 -0.11562333968E+02  0.38058499817E+01  0.16112862474E+02  0.51100000000E-03 0. -1.
        -11    1    4    4    0    0 -0.12537707710E+02 -0.21731792104E+01  0.25572397500E+01  0.12979071534E+02  0.51100000000E-03 0.  1.
         12    1    4    4    0    0 -0.20301823872E+02 -0.15036556516E+02 -0.75590369200E+00  0.25275155287E+02  0.00000000000E+00 0. -1.
</event>
<event>
 8    1  0.2497772E-006  0.9118800E+02  0.7816164E-02  0.1184000E+00
        -11   -1    0    0    0    0  0.00000000000E+00  0.00000000000E+00  0.45593999997E+02  0.45594000000E+02  0.51100000000E-03 0.  1.
         11   -1    0    0    0    0 -0.00000000000E+00 -0.00000000000E+00 -0.45593999997E+02  0.45594000000E+02  0.51100000000E-03 0. -1.
         23    2    1    2    0    0  0.00000000000E+00  0.71054273576E-14  0.17763568394E-14  0.91188000000E+02  0.91188000000E+02 0.  0.
    9900012    2    3    3    0    0 -0.10894450370E+02  0.33221200896E+02  0.11551315686E+02  0.54367216034E+02  0.40000300591E+02 0.  0.
         12    1    3    3    0    0  0.10894450370E+02 -0.33221200896E+02 -0.11551315686E+02  0.36820783966E+02  0.00000000000E+00 0. -1.
         11    1    4    4    0    0 -0.14347857258E+02  0.20969164533E+01  0.49511569846E+01  0.15322272099E+02  0.51100000000E-03 0. -1.
        -11    1    4    4    0    0 -0.84967622679E-01  0.27796980934E+02 -0.33248013174E+01  0.27995243750E+02  0.51100000000E-03 0.  1.
        -12    1    4    4    0    0  0.35383745106E+01  0.33273035083E+01  0.99249600189E+01  0.11049700186E+02  0.00000000000E+00 0.  1.
</event>
<event>
 8    1  0.2497772E-006  0.9118800E+02  0.7816164E-02  0.1184000E+00
        -11   -1    0    0    0    0  0.00000000000E+00  0.00000000000E+00  0.45593999997E+02  0.45594000000E+02  0.51100000000E-03 0.  1.
         11   -1    0    0    0    0 -0.00000000000E+00 -0.00000000000E+00 -0.45593999997E+02  0.45594000000E+02  0.51100000000E-03 0. -1.
         23    2    1    2    0    0  0.00000000000E+00  0.00000000000E+00  0.71054273576E-14  0.91188000000E+02  0.91188000000E+02 0.  0.
    9900012    2    3    3    0    0  0.15411720384E+02 -0.55846611500E+01 -0.32970755726E+02  0.54367077979E+02  0.39999985868E+02 0.  0.
        -12    1    3    3    0    0 -0.15411720384E+02  0.55846611500E+01  0.32970755726E+02  0.36820922021E+02  0.00000000000E+00 0.  1.
         11    1    4    4    0    0  0.90800714018E+01 -0.14439589245E+02 -0.11671860491E+02  0.20668375887E+02  0.51100000000E-03 0. -1.
        -11    1    4    4    0    0  0.14274906028E+02  0.41891699624E+01 -0.19131403161E+02  0.24234947375E+02  0.51100000000E-03 0.  1.
        -12    1    4    4    0    0 -0.79432570461E+01  0.46657581325E+01 -0.21674920745E+01  0.94637547171E+01  0.00000000000E+00 0.  1.
</event>
<event>
 8    1  0.2497772E-006  0.9118800E+02  0.7816164E-02  0.1184000E+00
        -11   -1    0    0    0    0  0.00000000000E+00  0.00000000000E+00  0.45593999997E+02  0.45594000000E+02  0.51100000000E-03 0.  1.
         11   -1    0    0    0    0 -0.00000000000E+00 -0.00000000000E+00 -0.45593999997E+02  0.45594000000E+02  0.51100000000E-03 0. -1.
         23    2    1    2    0    0  0.00000000000E+00  0.44408920985E-15 -0.17763568394E-14  0.91188000000E+02  0.91188000000E+02 0.  0.
    9900012    2    3    3    0    0 -0.36617596437E+02  0.35877195372E+01  0.14352596218E+01  0.54367081075E+02  0.39999992926E+02 0.  0.
         12    1    3    3    0    0  0.36617596437E+02 -0.35877195372E+01 -0.14352596218E+01  0.36820918925E+02  0.00000000000E+00 0. -1.
         11    1    4    4    0    0 -0.61469622243E+01  0.55969152697E+01 -0.92280616482E+01  0.12420455997E+02  0.51100000000E-03 0. -1.
        -11    1    4    4    0    0 -0.23058626150E+02  0.10477541882E+02  0.10519130823E+02  0.27425011164E+02  0.51100000000E-03 0.  1.
         12    1    4    4    0    0 -0.74120080627E+01 -0.12486737614E+02  0.14419044665E+00  0.14521613913E+02  0.00000000000E+00 0. -1.
</event>
<event>
 8    1  0.2497772E-006  0.9118800E+02  0.7816164E-02  0.1184000E+00
        -11   -1    0    0    0    0  0.00000000000E+00  0.00000000000E+00  0.45593999997E+02  0.45594000000E+02  0.51100000000E-03 0.  1.
         11   -1    0    0    0    0 -0.00000000000E+00 -0.00000000000E+00 -0.45593999997E+02  0.45594000000E+02  0.51100000000E-03 0. -1.
         23    2    1    2    0    0  0.00000000000E+00  0.00000000000E+00 -0.77715611724E-15  0.91188000000E+02  0.91188000000E+02 0.  0.
    9900012    2    3    3    0    0 -0.16167633036E+02 -0.33078924497E+02  0.41964471693E+00  0.54367031713E+02  0.39999880397E+02 0.  0.
        -12    1    3    3    0    0  0.16167633036E+02  0.33078924497E+02 -0.41964471693E+00  0.36820968287E+02  0.00000000000E+00 0.  1.
         11    1    4    4    0    0 -0.11412132653E+02 -0.12746672318E+02 -0.34486131629E+00  0.17112374366E+02  0.51100000000E-03 0. -1.
        -11    1    4    4    0    0 -0.91010890644E+01 -0.13983100416E+02  0.14109714359E+02  0.21850422398E+02  0.51100000000E-03 0.  1.
         12    1    4    4    0    0  0.43455886814E+01 -0.63491517635E+01 -0.13345208326E+02  0.15404234949E+02  0.00000000000E+00 0. -1.
</event>
<event>
 8    1  0.2497772E-006  0.9118800E+02  0.7816164E-02  0.1184000E+00
        -11   -1    0    0    0    0  0.00000000000E+00  0.00000000000E+00  0.45593999997E+02  0.45594000000E+02  0.51100000000E-03 0.  1.
         11   -1    0    0    0    0 -0.00000000000E+00 -0.00000000000E+00 -0.45593999997E+02  0.45594000000E+02  0.51100000000E-03 0. -1.
         23    2    1    2    0    0  0.88817841970E-15  0.88817841970E-15  0.71054273576E-14  0.91188000000E+02  0.91188000000E+02 0.  0.
    9900012    2    3    3    0    0 -0.48672932550E+01  0.60620782366E+01  0.35990846607E+02  0.54367076931E+02  0.39999983479E+02 0.  0.
         12    1    3    3    0    0  0.48672932550E+01 -0.60620782366E+01 -0.35990846607E+02  0.36820923069E+02  0.00000000000E+00 0. -1.
         11    1    4    4    0    0  0.42695247948E+01  0.13667975617E+01  0.31243786403E+00  0.44938396977E+01  0.51100000000E-03 0. -1.
        -11    1    4    4    0    0 -0.19145400169E+02  0.38916612167E+01  0.92783026799E+01  0.21628182437E+02  0.51100000000E-03 0.  1.
        -12    1    4    4    0    0  0.10008582119E+02  0.80361945819E+00  0.26400106063E+02  0.28245054796E+02  0.00000000000E+00 0.  1.
</event>
<event>
 8    1  0.2497772E-006  0.9118800E+02  0.7816164E-02  0.1184000E+00
        -11   -1    0    0    0    0  0.00000000000E+00  0.00000000000E+00  0.45593999997E+02  0.45594000000E+02  0.51100000000E-03 0. -1.
         11   -1    0    0    0    0 -0.00000000000E+00 -0.00000000000E+00 -0.45593999997E+02  0.45594000000E+02  0.51100000000E-03 0.  1.
         23    2    1    2    0    0  0.00000000000E+00  0.00000000000E+00  0.00000000000E+00  0.91188000000E+02  0.91188000000E+02 0.  0.
    9900012    2    3    3    0    0  0.17563194206E+02 -0.10877309185E+02 -0.30479437685E+02  0.54367112349E+02  0.40000064222E+02 0.  0.
         12    1    3    3    0    0 -0.17563194206E+02  0.10877309185E+02  0.30479437685E+02  0.36820887651E+02  0.00000000000E+00 0. -1.
         11    1    4    4    0    0 -0.47390759382E+01  0.14535421568E+01  0.41091660305E+01  0.64387010551E+01  0.51100000000E-03 0. -1.
        -11    1    4    4    0    0  0.19900936509E+02 -0.17911494726E+02 -0.25350509837E+02  0.36871632273E+02  0.51100000000E-03 0.  1.
        -12    1    4    4    0    0  0.24013336355E+01  0.55806433839E+01 -0.92380938784E+01  0.11056779021E+02  0.00000000000E+00 0.  1.
</event>
<event>
 8    1  0.2497772E-006  0.9118800E+02  0.7816164E-02  0.1184000E+00
        -11   -1    0    0    0    0  0.00000000000E+00  0.00000000000E+00  0.45593999997E+02  0.45594000000E+02  0.51100000000E-03 0. -1.
         11   -1    0    0    0    0 -0.00000000000E+00 -0.00000000000E+00 -0.45593999997E+02  0.45594000000E+02  0.51100000000E-03 0.  1.
         23    2    1    2    0    0 -0.35527136788E-14  0.00000000000E+00  0.00000000000E+00  0.91188000000E+02  0.91188000000E+02 0.  0.
    9900012    2    3    3    0    0  0.21275590625E+02  0.84682425632E+01 -0.28834302978E+02  0.54367096741E+02  0.40000028642E+02 0.  0.
        -12    1    3    3    0    0 -0.21275590625E+02 -0.84682425632E+01  0.28834302978E+02  0.36820903259E+02  0.00000000000E+00 0.  1.
         11    1    4    4    0    0  0.74152554146E+01  0.48120856718E+01  0.83995446556E+00  0.88796230293E+01  0.51100000000E-03 0. -1.
        -11    1    4    4    0    0 -0.24716855522E+01 -0.11579581886E+02 -0.13209964370E+02  0.17739760569E+02  0.51100000000E-03 0.  1.
         12    1    4    4    0    0  0.16332020763E+02  0.15235738777E+02 -0.16464293073E+02  0.27747713143E+02  0.00000000000E+00 0. -1.
</event>
<event>
 8    1  0.2497772E-006  0.9118800E+02  0.7816164E-02  0.1184000E+00
        -11   -1    0    0    0    0  0.00000000000E+00  0.00000000000E+00  0.45593999997E+02  0.45594000000E+02  0.51100000000E-03 0.  1.
         11   -1    0    0    0    0 -0.00000000000E+00 -0.00000000000E+00 -0.45593999997E+02  0.45594000000E+02  0.51100000000E-03 0. -1.
         23    2    1    2    0    0  0.00000000000E+00  0.00000000000E+00  0.00000000000E+00  0.91188000000E+02  0.91188000000E+02 0.  0.
    9900012    2    3    3    0    0  0.27951644933E+02  0.21814055260E+02 -0.99313503266E+01  0.54367093158E+02  0.40000020472E+02 0.  0.
        -12    1    3    3    0    0 -0.27951644933E+02 -0.21814055260E+02  0.99313503266E+01  0.36820906842E+02  0.00000000000E+00 0.  1.
         11    1    4    4    0    0  0.78846321215E+01  0.16807314414E+02 -0.33612362104E+01  0.18866667714E+02  0.51100000000E-03 0. -1.
        -11    1    4    4    0    0  0.24725328546E+02  0.11192082594E+02 -0.53179306862E+01  0.27656553863E+02  0.51100000000E-03 0.  1.
        -12    1    4    4    0    0 -0.46583157345E+01 -0.61853417488E+01 -0.12521834300E+01  0.78438715807E+01  0.00000000000E+00 0.  1.
</event>
<event>
 8    1  0.2497772E-006  0.9118800E+02  0.7816164E-02  0.1184000E+00
        -11   -1    0    0    0    0  0.00000000000E+00  0.00000000000E+00  0.45593999997E+02  0.45594000000E+02  0.51100000000E-03 0.  1.
         11   -1    0    0    0    0 -0.00000000000E+00 -0.00000000000E+00 -0.45593999997E+02  0.45594000000E+02  0.51100000000E-03 0. -1.
         23    2    1    2    0    0  0.00000000000E+00  0.35527136788E-14 -0.72164496601E-15  0.91188000000E+02  0.91188000000E+02 0.  0.
    9900012    2    3    3    0    0 -0.22236865310E+02  0.29345490858E+02  0.37880332571E+00  0.54367088761E+02  0.40000010448E+02 0.  0.
        -12    1    3    3    0    0  0.22236865310E+02 -0.29345490858E+02 -0.37880332571E+00  0.36820911239E+02  0.00000000000E+00 0.  1.
         11    1    4    4    0    0 -0.10839241553E+02  0.93682656790E+01 -0.12601790172E+02  0.19080321671E+02  0.51100000000E-03 0. -1.
        -11    1    4    4    0    0 -0.84458454528E+01  0.25167212778E+02  0.86840661049E+01  0.27930877336E+02  0.51100000000E-03 0.  1.
        -12    1    4    4    0    0 -0.29517783042E+01 -0.51899875983E+01  0.42965273925E+01  0.73558897532E+01  0.00000000000E+00 0.  1.
</event>
<event>
 8    1  0.2497772E-006  0.9118800E+02  0.7816164E-02  0.1184000E+00
        -11   -1    0    0    0    0  0.00000000000E+00  0.00000000000E+00  0.45593999997E+02  0.45594000000E+02  0.51100000000E-03 0. -1.
         11   -1    0    0    0    0 -0.00000000000E+00 -0.00000000000E+00 -0.45593999997E+02  0.45594000000E+02  0.51100000000E-03 0.  1.
         23    2    1    2    0    0  0.00000000000E+00  0.00000000000E+00  0.00000000000E+00  0.91188000000E+02  0.91188000000E+02 0.  0.
    9900012    2    3    3    0    0 -0.34943190789E+02 -0.11025795021E+02 -0.36310417315E+01  0.54367092863E+02  0.40000019799E+02 0.  0.
        -12    1    3    3    0    0  0.34943190789E+02  0.11025795021E+02  0.36310417315E+01  0.36820907137E+02  0.00000000000E+00 0.  1.
         11    1    4    4    0    0 -0.85042997150E+01 -0.51408805766E+01 -0.38208352175E+01  0.10646621472E+02  0.51100000000E-03 0. -1.
        -11    1    4    4    0    0 -0.29974076247E+02 -0.12883703087E+02 -0.66721376517E+01  0.33300938023E+02  0.51100000000E-03 0.  1.
        -12    1    4    4    0    0  0.35351851732E+01  0.69987886424E+01  0.68619311377E+01  0.10419533368E+02  0.00000000000E+00 0.  1.
</event>
<event>
 8    1  0.2497772E-006  0.9118800E+02  0.7816164E-02  0.1184000E+00
        -11   -1    0    0    0    0  0.00000000000E+00  0.00000000000E+00  0.45593999997E+02  0.45594000000E+02  0.51100000000E-03 0.  1.
         11   -1    0    0    0    0 -0.00000000000E+00 -0.00000000000E+00 -0.45593999997E+02  0.45594000000E+02  0.51100000000E-03 0. -1.
         23    2    1    2    0    0  0.00000000000E+00  0.00000000000E+00  0.35527136788E-14  0.91188000000E+02  0.91188000000E+02 0.  0.
    9900012    2    3    3    0    0  0.16215357555E+02  0.18193601524E+02 -0.27601348210E+02  0.54367090450E+02  0.40000014299E+02 0.  0.
        -12    1    3    3    0    0 -0.16215357555E+02 -0.18193601524E+02  0.27601348210E+02  0.36820909550E+02  0.00000000000E+00 0.  1.
         11    1    4    4    0    0  0.12808678999E+02 -0.24562673175E+01 -0.42490886962E+01  0.13716787592E+02  0.51100000000E-03 0. -1.
        -11    1    4    4    0    0  0.12018769514E+02  0.13780449989E+02 -0.23320048461E+02  0.29634039263E+02  0.51100000000E-03 0.  1.
        -12    1    4    4    0    0 -0.86120909579E+01  0.68694188530E+01 -0.32211052831E-01  0.11016263595E+02  0.00000000000E+00 0.  1.
</event>
<event>
 8    1  0.2497772E-006  0.9118800E+02  0.7816164E-02  0.1184000E+00
        -11   -1    0    0    0    0  0.00000000000E+00  0.00000000000E+00  0.45593999997E+02  0.45594000000E+02  0.51100000000E-03 0.  1.
         11   -1    0    0    0    0 -0.00000000000E+00 -0.00000000000E+00 -0.45593999997E+02  0.45594000000E+02  0.51100000000E-03 0. -1.
         23    2    1    2    0    0 -0.71054273576E-14 -0.17763568394E-14  0.35527136788E-14  0.91188000000E+02  0.91188000000E+02 0.  0.
    9900012    2    3    3    0    0  0.32888087709E+02  0.10309648870E+02 -0.12955929507E+02  0.54367200411E+02  0.40000264976E+02 0.  0.
         12    1    3    3    0    0 -0.32888087709E+02 -0.10309648870E+02  0.12955929507E+02  0.36820799589E+02  0.00000000000E+00 0. -1.
         11    1    4    4    0    0  0.23602112207E+02  0.64480866420E+01 -0.21492151989E+02  0.32566088487E+02  0.51100000000E-03 0. -1.
        -11    1    4    4    0    0  0.12619766406E+02 -0.17832972320E+01  0.27090396398E+01  0.13029871419E+02  0.51100000000E-03 0.  1.
        -12    1    4    4    0    0 -0.33337909035E+01  0.56448594600E+01  0.58271828427E+01  0.87712405048E+01  0.00000000000E+00 0.  1.
</event>
<event>
 8    1  0.2497772E-006  0.9118800E+02  0.7816164E-02  0.1184000E+00
        -11   -1    0    0    0    0  0.00000000000E+00  0.00000000000E+00  0.45593999997E+02  0.45594000000E+02  0.51100000000E-03 0.  1.
         11   -1    0    0    0    0 -0.00000000000E+00 -0.00000000000E+00 -0.45593999997E+02  0.45594000000E+02  0.51100000000E-03 0. -1.
         23    2    1    2    0    0  0.00000000000E+00  0.17763568394E-14  0.00000000000E+00  0.91188000000E+02  0.91188000000E+02 0.  0.
    9900012    2    3    3    0    0 -0.27184327671E+02 -0.13896023144E+02  0.20583788663E+02  0.54367089013E+02  0.40000011024E+02 0.  0.
         12    1    3    3    0    0  0.27184327671E+02  0.13896023144E+02 -0.20583788663E+02  0.36820910987E+02  0.00000000000E+00 0. -1.
         11    1    4    4    0    0 -0.16618497843E+02 -0.38631713228E+01 -0.22044571999E+01  0.17203435559E+02  0.51100000000E-03 0. -1.
        -11    1    4    4    0    0 -0.41435206295E+01  0.77836956775E+01  0.19996433202E+01  0.90417506754E+01  0.51100000000E-03 0.  1.
        -12    1    4    4    0    0 -0.64223091989E+01 -0.17816547499E+02  0.20788602543E+02  0.28121902779E+02  0.00000000000E+00 0.  1.
</event>
<event>
 8    1  0.2497772E-006  0.9118800E+02  0.7816164E-02  0.1184000E+00
        -11   -1    0    0    0    0  0.00000000000E+00  0.00000000000E+00  0.45593999997E+02  0.45594000000E+02  0.51100000000E-03 0.  1.
         11   -1    0    0    0    0 -0.00000000000E+00 -0.00000000000E+00 -0.45593999997E+02  0.45594000000E+02  0.51100000000E-03 0. -1.
         23    2    1    2    0    0  0.88817841970E-15  0.00000000000E+00  0.00000000000E+00  0.91188000000E+02  0.91188000000E+02 0.  0.
    9900012    2    3    3    0    0 -0.29129282799E+01  0.30469707922E+02  0.20466866367E+02  0.54367070206E+02  0.39999968148E+02 0.  0.
         12    1    3    3    0    0  0.29129282799E+01 -0.30469707922E+02 -0.20466866367E+02  0.36820929794E+02  0.00000000000E+00 0. -1.
         11    1    4    4    0    0  0.11187973088E-01 -0.69274564504E+01 -0.49919727294E+00  0.69454284404E+01  0.51100000000E-03 0. -1.
        -11    1    4    4    0    0 -0.95293462622E+01  0.26864360805E+02  0.83341707876E+01  0.29697823568E+02  0.51100000000E-03 0.  1.
         12    1    4    4    0    0  0.66052300092E+01  0.10532803567E+02  0.12631892853E+02  0.17723818198E+02  0.00000000000E+00 0. -1.
</event>
<event>
 8    1  0.2497772E-006  0.9118800E+02  0.7816164E-02  0.1184000E+00
        -11   -1    0    0    0    0  0.00000000000E+00  0.00000000000E+00  0.45593999997E+02  0.45594000000E+02  0.51100000000E-03 0. -1.
         11   -1    0    0    0    0 -0.00000000000E+00 -0.00000000000E+00 -0.45593999997E+02  0.45594000000E+02  0.51100000000E-03 0.  1.
         23    2    1    2    0    0  0.31086244690E-14  0.26645352591E-14  0.00000000000E+00  0.91188000000E+02  0.91188000000E+02 0.  0.
    9900012    2    3    3    0    0  0.34465700696E+01  0.66339324388E+01 -0.36054010082E+02  0.54367088172E+02  0.40000009106E+02 0.  0.
         12    1    3    3    0    0 -0.34465700696E+01 -0.66339324388E+01  0.36054010082E+02  0.36820911828E+02  0.00000000000E+00 0. -1.
         11    1    4    4    0    0 -0.90346952342E+01 -0.12077752060E+02 -0.23781146459E+02  0.28160979030E+02  0.51100000000E-03 0. -1.
        -11    1    4    4    0    0  0.31462365972E+01  0.14005015570E+01 -0.12750875716E+01  0.36723368463E+01  0.51100000000E-03 0.  1.
         12    1    4    4    0    0  0.93350287067E+01  0.17311182942E+02 -0.10997776051E+02  0.22533772296E+02  0.00000000000E+00 0. -1.
</event>
<event>
 8    1  0.2497772E-006  0.9118800E+02  0.7816164E-02  0.1184000E+00
        -11   -1    0    0    0    0  0.00000000000E+00  0.00000000000E+00  0.45593999997E+02  0.45594000000E+02  0.51100000000E-03 0. -1.
         11   -1    0    0    0    0 -0.00000000000E+00 -0.00000000000E+00 -0.45593999997E+02  0.45594000000E+02  0.51100000000E-03 0.  1.
         23    2    1    2    0    0 -0.44408920985E-15  0.00000000000E+00  0.00000000000E+00  0.91188000000E+02  0.91188000000E+02 0.  0.
    9900012    2    3    3    0    0 -0.28285217167E+01  0.80589702908E+01 -0.35816636293E+02  0.54367095983E+02  0.40000026913E+02 0.  0.
         12    1    3    3    0    0  0.28285217167E+01 -0.80589702908E+01  0.35816636293E+02  0.36820904017E+02  0.00000000000E+00 0. -1.
         11    1    4    4    0    0  0.42736855104E+01  0.16941340826E+02 -0.20559125639E+02  0.26980568269E+02  0.51100000000E-03 0. -1.
        -11    1    4    4    0    0 -0.11370032241E+02 -0.75640850662E+01 -0.17652451125E+02  0.22318199905E+02  0.51100000000E-03 0.  1.
         12    1    4    4    0    0  0.42678250138E+01 -0.13182854690E+01  0.23949404701E+01  0.50683278092E+01  0.00000000000E+00 0. -1.
</event>
<event>
 8    1  0.2497772E-006  0.9118800E+02  0.7816164E-02  0.1184000E+00
        -11   -1    0    0    0    0  0.00000000000E+00  0.00000000000E+00  0.45593999997E+02  0.45594000000E+02  0.51100000000E-03 0.  1.
         11   -1    0    0    0    0 -0.00000000000E+00 -0.00000000000E+00 -0.45593999997E+02  0.45594000000E+02  0.51100000000E-03 0. -1.
         23    2    1    2    0    0 -0.44408920985E-15  0.00000000000E+00  0.71054273576E-14  0.91188000000E+02  0.91188000000E+02 0.  0.
    9900012    2    3    3    0    0 -0.32066988872E+01 -0.17448677207E+02  0.32265154830E+02  0.54367089226E+02  0.40000011508E+02 0.  0.
         12    1    3    3    0    0  0.32066988872E+01  0.17448677207E+02 -0.32265154830E+02  0.36820910774E+02  0.00000000000E+00 0. -1.
         11    1    4    4    0    0  0.73164574150E+00  0.10468667802E+01  0.26381529985E+02  0.26412428138E+02  0.51100000000E-03 0.  1.
        -11    1    4    4    0    0 -0.59078201746E+01 -0.34945003202E+01  0.10133482948E+02  0.12239336118E+02  0.51100000000E-03 0. -1.
        -12    1    4    4    0    0  0.19694755458E+01 -0.15001043667E+02 -0.42498581021E+01  0.15715324970E+02  0.00000000000E+00 0.  1.
</event>
<event>
 8    1  0.2497772E-006  0.9118800E+02  0.7816164E-02  0.1184000E+00
        -11   -1    0    0    0    0  0.00000000000E+00  0.00000000000E+00  0.45593999997E+02  0.45594000000E+02  0.51100000000E-03 0.  1.
         11   -1    0    0    0    0 -0.00000000000E+00 -0.00000000000E+00 -0.45593999997E+02  0.45594000000E+02  0.51100000000E-03 0. -1.
         23    2    1    2    0    0 -0.35527136788E-14  0.00000000000E+00  0.00000000000E+00  0.91188000000E+02  0.91188000000E+02 0.  0.
    9900012    2    3    3    0    0 -0.18002431895E+02 -0.26219987477E+02 -0.18552869144E+02  0.54367024308E+02  0.39999863516E+02 0.  0.
        -12    1    3    3    0    0  0.18002431895E+02  0.26219987477E+02  0.18552869144E+02  0.36820975692E+02  0.00000000000E+00 0.  1.
         11    1    4    4    0    0 -0.15011312789E+02  0.58699655018E+00 -0.16184703738E+02  0.22082316726E+02  0.51100000000E-03 0. -1.
        -11    1    4    4    0    0  0.44857324032E+01 -0.23409490262E+01  0.33527757646E+01  0.60698388056E+01  0.51100000000E-03 0.  1.
         12    1    4    4    0    0 -0.74768515091E+01 -0.24466035000E+02 -0.57209411700E+01  0.26214868777E+02  0.00000000000E+00 0. -1.
</event>
<event>
 8    1  0.2497772E-006  0.9118800E+02  0.7816164E-02  0.1184000E+00
        -11   -1    0    0    0    0  0.00000000000E+00  0.00000000000E+00  0.45593999997E+02  0.45594000000E+02  0.51100000000E-03 0.  1.
         11   -1    0    0    0    0 -0.00000000000E+00 -0.00000000000E+00 -0.45593999997E+02  0.45594000000E+02  0.51100000000E-03 0. -1.
         23    2    1    2    0    0  0.00000000000E+00  0.00000000000E+00  0.00000000000E+00  0.91188000000E+02  0.91188000000E+02 0.  0.
    9900012    2    3    3    0    0  0.19750983576E+02 -0.27832174417E+02  0.13822016108E+02  0.54367089985E+02  0.40000013240E+02 0.  0.
         12    1    3    3    0    0 -0.19750983576E+02  0.27832174417E+02 -0.13822016108E+02  0.36820910015E+02  0.00000000000E+00 0. -1.
         11    1    4    4    0    0  0.15583655403E+02 -0.27973383739E+02  0.16029498412E+02  0.35809291156E+02  0.51100000000E-03 0. -1.
        -11    1    4    4    0    0  0.43956777393E+01 -0.84704436538E+01  0.41706891958E+00  0.95521905982E+01  0.51100000000E-03 0.  1.
         12    1    4    4    0    0 -0.22834956617E+00  0.86116529751E+01 -0.26245512233E+01  0.90056082311E+01  0.00000000000E+00 0. -1.
</event>
<event>
 8    1  0.2497772E-006  0.9118800E+02  0.7816164E-02  0.1184000E+00
        -11   -1    0    0    0    0  0.00000000000E+00  0.00000000000E+00  0.45593999997E+02  0.45594000000E+02  0.51100000000E-03 0.  1.
         11   -1    0    0    0    0 -0.00000000000E+00 -0.00000000000E+00 -0.45593999997E+02  0.45594000000E+02  0.51100000000E-03 0. -1.
         23    2    1    2    0    0  0.26645352591E-14  0.00000000000E+00  0.00000000000E+00  0.91188000000E+02  0.91188000000E+02 0.  0.
    9900012    2    3    3    0    0 -0.77779717948E+01  0.25165653089E+01 -0.35901947263E+02  0.54367085244E+02  0.40000002430E+02 0.  0.
        -12    1    3    3    0    0  0.77779717948E+01 -0.25165653089E+01  0.35901947263E+02  0.36820914756E+02  0.00000000000E+00 0.  1.
         11    1    4    4    0    0  0.65730448565E+01  0.10240641261E+01 -0.26282148844E+02  0.27110975161E+02  0.51100000000E-03 0. -1.
        -11    1    4    4    0    0 -0.18224646371E+02  0.45777634294E+01 -0.30621546715E+01  0.19038656593E+02  0.51100000000E-03 0.  1.
        -12    1    4    4    0    0  0.38736297200E+01 -0.30852622466E+01 -0.65576437476E+01  0.82174534899E+01  0.00000000000E+00 0.  1.
</event>
<event>
 8    1  0.2497772E-006  0.9118800E+02  0.7816164E-02  0.1184000E+00
        -11   -1    0    0    0    0  0.00000000000E+00  0.00000000000E+00  0.45593999997E+02  0.45594000000E+02  0.51100000000E-03 0.  1.
         11   -1    0    0    0    0 -0.00000000000E+00 -0.00000000000E+00 -0.45593999997E+02  0.45594000000E+02  0.51100000000E-03 0. -1.
         23    2    1    2    0    0  0.35527136788E-14 -0.35527136788E-14  0.26645352591E-14  0.91188000000E+02  0.91188000000E+02 0.  0.
    9900012    2    3    3    0    0  0.28928405190E+02 -0.22620705985E+02  0.26890960504E+01  0.54367079266E+02  0.39999988803E+02 0.  0.
        -12    1    3    3    0    0 -0.28928405190E+02  0.22620705985E+02 -0.26890960504E+01  0.36820920734E+02  0.00000000000E+00 0.  1.
         11    1    4    4    0    0  0.24846352759E+02 -0.16360629553E+02  0.12000140806E+02  0.32078260932E+02  0.51100000000E-03 0.  1.
        -11    1    4    4    0    0  0.65552777738E+01  0.17749699505E+01 -0.11718181517E+02  0.13543927176E+02  0.51100000000E-03 0. -1.
         12    1    4    4    0    0 -0.24732253427E+01 -0.80350463828E+01  0.24071367620E+01  0.87448911577E+01  0.00000000000E+00 0. -1.
</event>
<event>
 8    1  0.2497772E-006  0.9118800E+02  0.7816164E-02  0.1184000E+00
        -11   -1    0    0    0    0  0.00000000000E+00  0.00000000000E+00  0.45593999997E+02  0.45594000000E+02  0.51100000000E-03 0. -1.
         11   -1    0    0    0    0 -0.00000000000E+00 -0.00000000000E+00 -0.45593999997E+02  0.45594000000E+02  0.51100000000E-03 0.  1.
         23    2    1    2    0    0  0.00000000000E+00 -0.10658141036E-13  0.17763568394E-14  0.91188000000E+02  0.91188000000E+02 0.  0.
    9900012    2    3    3    0    0 -0.17772247736E+02 -0.30070950181E+02  0.11647541215E+02  0.54367081343E+02  0.39999993537E+02 0.  0.
        -12    1    3    3    0    0  0.17772247736E+02  0.30070950181E+02 -0.11647541215E+02  0.36820918657E+02  0.00000000000E+00 0.  1.
         11    1    4    4    0    0 -0.10683509831E+02 -0.30697255101E+02  0.31934111003E+00  0.32504781680E+02  0.51100000000E-03 0. -1.
        -11    1    4    4    0    0 -0.81320103734E+00 -0.27962478120E+01 -0.40008931602E+01  0.49484789676E+01  0.51100000000E-03 0.  1.
        -12    1    4    4    0    0 -0.62755368669E+01  0.34225527316E+01  0.15329093266E+02  0.16913820695E+02  0.00000000000E+00 0.  1.
</event>
<event>
 8    1  0.2497772E-006  0.9118800E+02  0.7816164E-02  0.1184000E+00
        -11   -1    0    0    0    0  0.00000000000E+00  0.00000000000E+00  0.45593999997E+02  0.45594000000E+02  0.51100000000E-03 0. -1.
         11   -1    0    0    0    0 -0.00000000000E+00 -0.00000000000E+00 -0.45593999997E+02  0.45594000000E+02  0.51100000000E-03 0.  1.
         23    2    1    2    0    0  0.00000000000E+00  0.00000000000E+00  0.44408920985E-15  0.91188000000E+02  0.91188000000E+02 0.  0.
    9900012    2    3    3    0    0  0.33058017135E+02 -0.16018303420E+02 -0.25222621894E+01  0.54367077308E+02  0.39999984339E+02 0.  0.
         12    1    3    3    0    0 -0.33058017135E+02  0.16018303420E+02  0.25222621894E+01  0.36820922692E+02  0.00000000000E+00 0. -1.
         11    1    4    4    0    0  0.20620870923E+02 -0.10495150361E+02 -0.10541553419E+01  0.23162032347E+02  0.51100000000E-03 0. -1.
        -11    1    4    4    0    0  0.20172293401E+02  0.13344518564E+01 -0.38914737387E+01  0.20587514443E+02  0.51100000000E-03 0.  1.
        -12    1    4    4    0    0 -0.77351471886E+01 -0.68576049155E+01  0.24233668912E+01  0.10617530518E+02  0.00000000000E+00 0.  1.
</event>
<event>
 8    1  0.2497772E-006  0.9118800E+02  0.7816164E-02  0.1184000E+00
        -11   -1    0    0    0    0  0.00000000000E+00  0.00000000000E+00  0.45593999997E+02  0.45594000000E+02  0.51100000000E-03 0. -1.
         11   -1    0    0    0    0 -0.00000000000E+00 -0.00000000000E+00 -0.45593999997E+02  0.45594000000E+02  0.51100000000E-03 0.  1.
         23    2    1    2    0    0  0.00000000000E+00  0.00000000000E+00 -0.35527136788E-14  0.91188000000E+02  0.91188000000E+02 0.  0.
    9900012    2    3    3    0    0  0.39813235729E+01 -0.21951707405E+02 -0.29292516048E+02  0.54367083501E+02  0.39999998458E+02 0.  0.
         12    1    3    3    0    0 -0.39813235729E+01  0.21951707405E+02  0.29292516048E+02  0.36820916499E+02  0.00000000000E+00 0. -1.
         11    1    4    4    0    0  0.42237762262E+01 -0.13207756343E+02  0.47899041130E+01  0.14670661024E+02  0.51100000000E-03 0. -1.
        -11    1    4    4    0    0 -0.97860817803E+00  0.56825125236E+01 -0.11929024621E+02  0.13249537774E+02  0.51100000000E-03 0.  1.
         12    1    4    4    0    0  0.73615552477E+00 -0.14426463586E+02 -0.22153395540E+02  0.26446884703E+02  0.00000000000E+00 0. -1.
</event>
<event>
 8    1  0.2497772E-006  0.9118800E+02  0.7816164E-02  0.1184000E+00
        -11   -1    0    0    0    0  0.00000000000E+00  0.00000000000E+00  0.45593999997E+02  0.45594000000E+02  0.51100000000E-03 0.  1.
         11   -1    0    0    0    0 -0.00000000000E+00 -0.00000000000E+00 -0.45593999997E+02  0.45594000000E+02  0.51100000000E-03 0. -1.
         23    2    1    2    0    0  0.00000000000E+00 -0.35527136788E-14  0.00000000000E+00  0.91188000000E+02  0.91188000000E+02 0.  0.
    9900012    2    3    3    0    0 -0.18312957713E+02 -0.29626178070E+02  0.11945906894E+02  0.54367088296E+02  0.40000009388E+02 0.  0.
         12    1    3    3    0    0  0.18312957713E+02  0.29626178070E+02 -0.11945906894E+02  0.36820911704E+02  0.00000000000E+00 0. -1.
         11    1    4    4    0    0  0.28743407732E+01 -0.10689699813E+02  0.13849107054E+02  0.17729333982E+02  0.51100000000E-03 0.  1.
        -11    1    4    4    0    0 -0.11618000660E+02 -0.42083995283E+01  0.95953567156E+01  0.15644789442E+02  0.51100000000E-03 0. -1.
         12    1    4    4    0    0 -0.95692978259E+01 -0.14728078728E+02 -0.11498556875E+02  0.20992964872E+02  0.00000000000E+00 0. -1.
</event>
<event>
 8    1  0.2497772E-006  0.9118800E+02  0.7816164E-02  0.1184000E+00
        -11   -1    0    0    0    0  0.00000000000E+00  0.00000000000E+00  0.45593999997E+02  0.45594000000E+02  0.51100000000E-03 0.  1.
         11   -1    0    0    0    0 -0.00000000000E+00 -0.00000000000E+00 -0.45593999997E+02  0.45594000000E+02  0.51100000000E-03 0. -1.
         23    2    1    2    0    0  0.35527136788E-14  0.35527136788E-14  0.35527136788E-14  0.91188000000E+02  0.91188000000E+02 0.  0.
    9900012    2    3    3    0    0  0.16258133668E+02  0.15444556127E+02  0.29204795515E+02  0.54367064306E+02  0.39999954698E+02 0.  0.
         12    1    3    3    0    0 -0.16258133668E+02 -0.15444556127E+02 -0.29204795515E+02  0.36820935694E+02  0.00000000000E+00 0. -1.
         11    1    4    4    0    0 -0.16980379085E+01  0.10448761351E+02  0.18452154266E+02  0.21273033254E+02  0.51100000000E-03 0. -1.
        -11    1    4    4    0    0 -0.47150574265E-01 -0.86860836769E+01  0.29604550214E+01  0.91768495146E+01  0.51100000000E-03 0.  1.
        -12    1    4    4    0    0  0.18003322151E+02  0.13681878453E+02  0.77921862269E+01  0.23917181537E+02  0.00000000000E+00 0.  1.
</event>
<event>
 8    1  0.2497772E-006  0.9118800E+02  0.7816164E-02  0.1184000E+00
        -11   -1    0    0    0    0  0.00000000000E+00  0.00000000000E+00  0.45593999997E+02  0.45594000000E+02  0.51100000000E-03 0.  1.
         11   -1    0    0    0    0 -0.00000000000E+00 -0.00000000000E+00 -0.45593999997E+02  0.45594000000E+02  0.51100000000E-03 0. -1.
         23    2    1    2    0    0  0.17763568394E-14  0.00000000000E+00  0.00000000000E+00  0.91188000000E+02  0.91188000000E+02 0.  0.
    9900012    2    3    3    0    0 -0.74842031778E+01 -0.20698358883E+02 -0.29518559767E+02  0.54367072142E+02  0.39999972561E+02 0.  0.
        -12    1    3    3    0    0  0.74842031778E+01  0.20698358883E+02  0.29518559767E+02  0.36820927858E+02  0.00000000000E+00 0.  1.
         11    1    4    4    0    0 -0.13357464469E+02 -0.30216794448E+02 -0.22573076629E+02  0.40012751874E+02  0.51100000000E-03 0.  1.
        -11    1    4    4    0    0  0.66981793353E+01  0.91457159041E+01 -0.53848279443E+01  0.12550143348E+02  0.51100000000E-03 0. -1.
         12    1    4    4    0    0 -0.82491804395E+00  0.37271966114E+00 -0.15606551934E+01  0.18041769197E+01  0.00000000000E+00 0. -1.
</event>
<event>
 8    1  0.2497772E-006  0.9118800E+02  0.7816164E-02  0.1184000E+00
        -11   -1    0    0    0    0  0.00000000000E+00  0.00000000000E+00  0.45593999997E+02  0.45594000000E+02  0.51100000000E-03 0. -1.
         11   -1    0    0    0    0 -0.00000000000E+00 -0.00000000000E+00 -0.45593999997E+02  0.45594000000E+02  0.51100000000E-03 0.  1.
         23    2    1    2    0    0  0.00000000000E+00  0.00000000000E+00  0.00000000000E+00  0.91188000000E+02  0.91188000000E+02 0.  0.
    9900012    2    3    3    0    0  0.46868343264E+01 -0.20076472040E+02 -0.30508080803E+02  0.54367161608E+02  0.40000176517E+02 0.  0.
         12    1    3    3    0    0 -0.46868343264E+01  0.20076472040E+02  0.30508080803E+02  0.36820838392E+02  0.00000000000E+00 0. -1.
         11    1    4    4    0    0  0.41733679169E+01 -0.13354468583E+02  0.58841065150E+01  0.15178324699E+02  0.51100000000E-03 0. -1.
        -11    1    4    4    0    0 -0.79344846318E+00 -0.74523563119E+01 -0.88117930263E+01  0.11567837813E+02  0.51100000000E-03 0.  1.
        -12    1    4    4    0    0  0.13069148727E+01  0.73035285486E+00 -0.27580394292E+02  0.27620999096E+02  0.00000000000E+00 0.  1.
</event>
<event>
 8    1  0.2497772E-006  0.9118800E+02  0.7816164E-02  0.1184000E+00
        -11   -1    0    0    0    0  0.00000000000E+00  0.00000000000E+00  0.45593999997E+02  0.45594000000E+02  0.51100000000E-03 0. -1.
         11   -1    0    0    0    0 -0.00000000000E+00 -0.00000000000E+00 -0.45593999997E+02  0.45594000000E+02  0.51100000000E-03 0.  1.
         23    2    1    2    0    0  0.00000000000E+00  0.17763568394E-14  0.88817841970E-15  0.91188000000E+02  0.91188000000E+02 0.  0.
    9900012    2    3    3    0    0 -0.34267928388E+02 -0.10961201297E+02  0.78321016840E+01  0.54367072979E+02  0.39999974471E+02 0.  0.
        -12    1    3    3    0    0  0.34267928388E+02  0.10961201297E+02 -0.78321016840E+01  0.36820927021E+02  0.00000000000E+00 0.  1.
         11    1    4    4    0    0  0.66691642884E-01 -0.52439216209E+01  0.26007561988E+01  0.58538102812E+01  0.51100000000E-03 0. -1.
        -11    1    4    4    0    0 -0.27635529192E+02 -0.18810819370E+02  0.22449594108E+01  0.33505361394E+02  0.51100000000E-03 0.  1.
        -12    1    4    4    0    0 -0.66990908385E+01  0.13093539694E+02  0.29863860743E+01  0.15007901304E+02  0.00000000000E+00 0.  1.
</event>
<event>
 8    1  0.2497772E-006  0.9118800E+02  0.7816164E-02  0.1184000E+00
        -11   -1    0    0    0    0  0.00000000000E+00  0.00000000000E+00  0.45593999997E+02  0.45594000000E+02  0.51100000000E-03 0.  1.
         11   -1    0    0    0    0 -0.00000000000E+00 -0.00000000000E+00 -0.45593999997E+02  0.45594000000E+02  0.51100000000E-03 0. -1.
         23    2    1    2    0    0  0.44408920985E-15  0.00000000000E+00  0.00000000000E+00  0.91188000000E+02  0.91188000000E+02 0.  0.
    9900012    2    3    3    0    0  0.22972252345E+01  0.15383013570E+02 -0.33374619952E+02  0.54367087366E+02  0.40000007268E+02 0.  0.
        -12    1    3    3    0    0 -0.22972252345E+01 -0.15383013570E+02  0.33374619952E+02  0.36820912634E+02  0.00000000000E+00 0.  1.
         11    1    4    4    0    0  0.28765553070E+01  0.24104522432E+02 -0.17365692288E+02  0.29847442788E+02  0.51100000000E-03 0. -1.
        -11    1    4    4    0    0  0.33988326662E+01 -0.16458695264E+01  0.23488933252E+01  0.44472744581E+01  0.51100000000E-03 0.  1.
        -12    1    4    4    0    0 -0.39781627387E+01 -0.70756393350E+01 -0.18357820989E+02  0.20072370120E+02  0.00000000000E+00 0.  1.
</event>
<event>
 8    1  0.2497772E-006  0.9118800E+02  0.7816164E-02  0.1184000E+00
        -11   -1    0    0    0    0  0.00000000000E+00  0.00000000000E+00  0.45593999997E+02  0.45594000000E+02  0.51100000000E-03 0. -1.
         11   -1    0    0    0    0 -0.00000000000E+00 -0.00000000000E+00 -0.45593999997E+02  0.45594000000E+02  0.51100000000E-03 0.  1.
         23    2    1    2    0    0  0.00000000000E+00  0.00000000000E+00  0.00000000000E+00  0.91188000000E+02  0.91188000000E+02 0.  0.
    9900012    2    3    3    0    0  0.18214002354E+02  0.30056854999E+02 -0.10982502502E+02  0.54367085082E+02  0.40000002062E+02 0.  0.
         12    1    3    3    0    0 -0.18214002354E+02 -0.30056854999E+02  0.10982502502E+02  0.36820914918E+02  0.00000000000E+00 0. -1.
         11    1    4    4    0    0  0.16929088113E+01  0.18826325814E+01  0.50129567104E+01  0.56160467342E+01  0.51100000000E-03 0. -1.
        -11    1    4    4    0    0 -0.81130092724E+01  0.17256666794E+02 -0.76142421314E+01  0.20532660611E+02  0.51100000000E-03 0.  1.
        -12    1    4    4    0    0  0.24634102816E+02  0.10917555624E+02 -0.83812170811E+01  0.28218377737E+02  0.00000000000E+00 0.  1.
</event>
<event>
 8    1  0.2497772E-006  0.9118800E+02  0.7816164E-02  0.1184000E+00
        -11   -1    0    0    0    0  0.00000000000E+00  0.00000000000E+00  0.45593999997E+02  0.45594000000E+02  0.51100000000E-03 0.  1.
         11   -1    0    0    0    0 -0.00000000000E+00 -0.00000000000E+00 -0.45593999997E+02  0.45594000000E+02  0.51100000000E-03 0. -1.
         23    2    1    2    0    0  0.17763568394E-14  0.71054273576E-14  0.00000000000E+00  0.91188000000E+02  0.91188000000E+02 0.  0.
    9900012    2    3    3    0    0  0.85647440722E+01  0.34630736682E+02 -0.91180083781E+01  0.54367070613E+02  0.39999969076E+02 0.  0.
        -12    1    3    3    0    0 -0.85647440722E+01 -0.34630736682E+02  0.91180083781E+01  0.36820929387E+02  0.00000000000E+00 0.  1.
         11    1    4    4    0    0  0.27884959785E+01  0.10215669231E+02 -0.75517564458E+01  0.13006330510E+02  0.51100000000E-03 0. -1.
        -11    1    4    4    0    0  0.18216272778E+02  0.11075907481E+02 -0.68130493846E+01  0.22381375351E+02  0.51100000000E-03 0.  1.
        -12    1    4    4    0    0 -0.12440024684E+02  0.13339159970E+02  0.52467974523E+01  0.18979364751E+02  0.00000000000E+00 0.  1.
</event>
<event>
 8    1  0.2497772E-006  0.9118800E+02  0.7816164E-02  0.1184000E+00
        -11   -1    0    0    0    0  0.00000000000E+00  0.00000000000E+00  0.45593999997E+02  0.45594000000E+02  0.51100000000E-03 0. -1.
         11   -1    0    0    0    0 -0.00000000000E+00 -0.00000000000E+00 -0.45593999997E+02  0.45594000000E+02  0.51100000000E-03 0.  1.
         23    2    1    2    0    0 -0.35527136788E-14  0.71054273576E-14  0.00000000000E+00  0.91188000000E+02  0.91188000000E+02 0.  0.
    9900012    2    3    3    0    0 -0.13348026302E+02  0.34086739759E+02 -0.39628500403E+01  0.54367084558E+02  0.40000000866E+02 0.  0.
        -12    1    3    3    0    0  0.13348026302E+02 -0.34086739759E+02  0.39628500403E+01  0.36820915442E+02  0.00000000000E+00 0.  1.
         11    1    4    4    0    0  0.17727803480E+01  0.29456257832E+02 -0.28060479258E+01  0.29642668248E+02  0.51100000000E-03 0. -1.
        -11    1    4    4    0    0 -0.18571001527E+02  0.73273816000E+01  0.67945544690E+00  0.19975842380E+02  0.51100000000E-03 0.  1.
         12    1    4    4    0    0  0.34501948772E+01 -0.26968996727E+01 -0.18362575615E+01  0.47485739298E+01  0.00000000000E+00 0. -1.
</event>
<event>
 8    1  0.2497772E-006  0.9118800E+02  0.7816164E-02  0.1184000E+00
        -11   -1    0    0    0    0  0.00000000000E+00  0.00000000000E+00  0.45593999997E+02  0.45594000000E+02  0.51100000000E-03 0. -1.
         11   -1    0    0    0    0 -0.00000000000E+00 -0.00000000000E+00 -0.45593999997E+02  0.45594000000E+02  0.51100000000E-03 0.  1.
         23    2    1    2    0    0 -0.17763568394E-14 -0.71054273576E-14  0.17763568394E-14  0.91188000000E+02  0.91188000000E+02 0.  0.
    9900012    2    3    3    0    0  0.11491556969E+02  0.34232621303E+02 -0.72008230901E+01  0.54367080729E+02  0.39999992137E+02 0.  0.
         12    1    3    3    0    0 -0.11491556969E+02 -0.34232621303E+02  0.72008230901E+01  0.36820919271E+02  0.00000000000E+00 0. -1.
         11    1    4    4    0    0 -0.32901093334E+01  0.23787748454E+01 -0.66771119350E+00  0.41145142714E+01  0.51100000000E-03 0. -1.
        -11    1    4    4    0    0 -0.19759854125E+01  0.24458109195E+02  0.91003924633E+01  0.26170990944E+02  0.51100000000E-03 0.  1.
        -12    1    4    4    0    0  0.16757651714E+02  0.73957372625E+01 -0.15633504360E+02  0.24081575513E+02  0.00000000000E+00 0.  1.
</event>
<event>
 8    1  0.2497772E-006  0.9118800E+02  0.7816164E-02  0.1184000E+00
        -11   -1    0    0    0    0  0.00000000000E+00  0.00000000000E+00  0.45593999997E+02  0.45594000000E+02  0.51100000000E-03 0.  1.
         11   -1    0    0    0    0 -0.00000000000E+00 -0.00000000000E+00 -0.45593999997E+02  0.45594000000E+02  0.51100000000E-03 0. -1.
         23    2    1    2    0    0 -0.17763568394E-14  0.10658141036E-13  0.00000000000E+00  0.91188000000E+02  0.91188000000E+02 0.  0.
    9900012    2    3    3    0    0  0.11969167903E+02 -0.31135593298E+02  0.15591492510E+02  0.54367071318E+02  0.39999970684E+02 0.  0.
         12    1    3    3    0    0 -0.11969167903E+02  0.31135593298E+02 -0.15591492510E+02  0.36820928682E+02  0.00000000000E+00 0. -1.
         11    1    4    4    0    0  0.12138690415E+01  0.39911329380E+01 -0.15633276440E+01  0.44549538451E+01  0.51100000000E-03 0. -1.
        -11    1    4    4    0    0 -0.84212423564E+01 -0.10966067807E+02  0.12647548642E+02  0.18738528568E+02  0.51100000000E-03 0.  1.
         12    1    4    4    0    0  0.19176541217E+02 -0.24160658428E+02  0.45072715127E+01  0.31173588905E+02  0.00000000000E+00 0. -1.
</event>
<event>
 8    1  0.2497772E-006  0.9118800E+02  0.7816164E-02  0.1184000E+00
        -11   -1    0    0    0    0  0.00000000000E+00  0.00000000000E+00  0.45593999997E+02  0.45594000000E+02  0.51100000000E-03 0. -1.
         11   -1    0    0    0    0 -0.00000000000E+00 -0.00000000000E+00 -0.45593999997E+02  0.45594000000E+02  0.51100000000E-03 0.  1.
         23    2    1    2    0    0 -0.41633363423E-15  0.00000000000E+00  0.00000000000E+00  0.91188000000E+02  0.91188000000E+02 0.  0.
    9900012    2    3    3    0    0 -0.13773789203E+00 -0.17577449082E+02 -0.32354168873E+02  0.54367110122E+02  0.40000059144E+02 0.  0.
         12    1    3    3    0    0  0.13773789203E+00  0.17577449082E+02  0.32354168873E+02  0.36820889878E+02  0.00000000000E+00 0. -1.
         11    1    4    4    0    0  0.61162871045E+01  0.33488244457E+01 -0.57959437474E+01  0.90673346302E+01  0.51100000000E-03 0. -1.
        -11    1    4    4    0    0  0.25368949568E+01 -0.21176341434E+02 -0.29161149912E+02  0.36128187569E+02  0.51100000000E-03 0.  1.
         12    1    4    4    0    0 -0.87909199534E+01  0.25006790639E+00  0.26029247860E+01  0.91715879228E+01  0.00000000000E+00 0. -1.
</event>
<event>
 8    1  0.2497772E-006  0.9118800E+02  0.7816164E-02  0.1184000E+00
        -11   -1    0    0    0    0  0.00000000000E+00  0.00000000000E+00  0.45593999997E+02  0.45594000000E+02  0.51100000000E-03 0.  1.
         11   -1    0    0    0    0 -0.00000000000E+00 -0.00000000000E+00 -0.45593999997E+02  0.45594000000E+02  0.51100000000E-03 0. -1.
         23    2    1    2    0    0 -0.17763568394E-14 -0.35527136788E-14 -0.35527136788E-14  0.91188000000E+02  0.91188000000E+02 0.  0.
    9900012    2    3    3    0    0 -0.91597871193E+01  0.24606731691E+02  0.25814460086E+02  0.54367091617E+02  0.40000016960E+02 0.  0.
         12    1    3    3    0    0  0.91597871193E+01 -0.24606731691E+02 -0.25814460086E+02  0.36820908383E+02  0.00000000000E+00 0. -1.
         11    1    4    4    0    0  0.10252380275E+01  0.18047094632E+02  0.14128976618E+01  0.18131326971E+02  0.51100000000E-03 0. -1.
        -11    1    4    4    0    0 -0.29477757961E+01  0.14909587183E+02  0.17627593109E+02  0.23274819251E+02  0.51100000000E-03 0.  1.
         12    1    4    4    0    0 -0.72372493507E+01 -0.83499501243E+01  0.67739693161E+01  0.12960945395E+02  0.00000000000E+00 0. -1.
</event>
<event>
 8    1  0.2497772E-006  0.9118800E+02  0.7816164E-02  0.1184000E+00
        -11   -1    0    0    0    0  0.00000000000E+00  0.00000000000E+00  0.45593999997E+02  0.45594000000E+02  0.51100000000E-03 0. -1.
         11   -1    0    0    0    0 -0.00000000000E+00 -0.00000000000E+00 -0.45593999997E+02  0.45594000000E+02  0.51100000000E-03 0.  1.
         23    2    1    2    0    0  0.00000000000E+00 -0.88817841970E-15  0.44408920985E-15  0.91188000000E+02  0.91188000000E+02 0.  0.
    9900012    2    3    3    0    0  0.35856627522E+02 -0.78246811849E+01 -0.29762315638E+01  0.54367064010E+02  0.39999954023E+02 0.  0.
        -12    1    3    3    0    0 -0.35856627522E+02  0.78246811849E+01  0.29762315638E+01  0.36820935990E+02  0.00000000000E+00 0.  1.
         11    1    4    4    0    0  0.74452793068E+01 -0.14274454761E+02  0.54455730787E+00  0.16108655612E+02  0.51100000000E-03 0. -1.
        -11    1    4    4    0    0  0.16207920650E+02 -0.82131598363E+01 -0.57345878198E+01  0.19053560927E+02  0.51100000000E-03 0.  1.
         12    1    4    4    0    0  0.12203427565E+02  0.14662933413E+02  0.22137989482E+01  0.19204847471E+02  0.00000000000E+00 0. -1.
</event>
<event>
 8    1  0.2497772E-006  0.9118800E+02  0.7816164E-02  0.1184000E+00
        -11   -1    0    0    0    0  0.00000000000E+00  0.00000000000E+00  0.45593999997E+02  0.45594000000E+02  0.51100000000E-03 0.  1.
         11   -1    0    0    0    0 -0.00000000000E+00 -0.00000000000E+00 -0.45593999997E+02  0.45594000000E+02  0.51100000000E-03 0. -1.
         23    2    1    2    0    0  0.00000000000E+00  0.00000000000E+00  0.44408920985E-15  0.91188000000E+02  0.91188000000E+02 0.  0.
    9900012    2    3    3    0    0 -0.31434229752E+02 -0.18987074084E+02 -0.26760281026E+01  0.54367069691E+02  0.39999966976E+02 0.  0.
        -12    1    3    3    0    0  0.31434229752E+02  0.18987074084E+02  0.26760281026E+01  0.36820930309E+02  0.00000000000E+00 0.  1.
         11    1    4    4    0    0 -0.37894089967E+01 -0.10243773918E+02 -0.10442251638E+02  0.15110762528E+02  0.51100000000E-03 0. -1.
        -11    1    4    4    0    0 -0.18324748336E+02  0.64167394609E+01  0.90356786897E+01  0.21415285114E+02  0.51100000000E-03 0.  1.
        -12    1    4    4    0    0 -0.93200724199E+01 -0.15160039627E+02 -0.12694551541E+01  0.17841022050E+02  0.00000000000E+00 0.  1.
</event>
<event>
 8    1  0.2497772E-006  0.9118800E+02  0.7816164E-02  0.1184000E+00
        -11   -1    0    0    0    0  0.00000000000E+00  0.00000000000E+00  0.45593999997E+02  0.45594000000E+02  0.51100000000E-03 0.  1.
         11   -1    0    0    0    0 -0.00000000000E+00 -0.00000000000E+00 -0.45593999997E+02  0.45594000000E+02  0.51100000000E-03 0. -1.
         23    2    1    2    0    0  0.35527136788E-14  0.35527136788E-14  0.35527136788E-14  0.91188000000E+02  0.91188000000E+02 0.  0.
    9900012    2    3    3    0    0  0.18388037737E+02 -0.20968845327E+02 -0.24040970033E+02  0.54367073256E+02  0.39999975101E+02 0.  0.
        -12    1    3    3    0    0 -0.18388037737E+02  0.20968845327E+02  0.24040970033E+02  0.36820926744E+02  0.00000000000E+00 0.  1.
         11    1    4    4    0    0  0.21146343081E+02 -0.13620806525E+02 -0.30009019260E+02  0.39156550325E+02  0.51100000000E-03 0. -1.
        -11    1    4    4    0    0 -0.40933821825E+01 -0.10513172549E+01 -0.22371972271E+01  0.47818508296E+01  0.51100000000E-03 0.  1.
        -12    1    4    4    0    0  0.13350768384E+01 -0.62967215475E+01  0.82052464546E+01  0.10428672101E+02  0.00000000000E+00 0.  1.
</event>
<event>
 8    1  0.2497772E-006  0.9118800E+02  0.7816164E-02  0.1184000E+00
        -11   -1    0    0    0    0  0.00000000000E+00  0.00000000000E+00  0.45593999997E+02  0.45594000000E+02  0.51100000000E-03 0.  1.
         11   -1    0    0    0    0 -0.00000000000E+00 -0.00000000000E+00 -0.45593999997E+02  0.45594000000E+02  0.51100000000E-03 0. -1.
         23    2    1    2    0    0  0.00000000000E+00  0.00000000000E+00  0.35527136788E-14  0.91188000000E+02  0.91188000000E+02 0.  0.
    9900012    2    3    3    0    0 -0.70477560134E+01 -0.25992702839E+02  0.25109529004E+02  0.54367083220E+02  0.39999997816E+02 0.  0.
         12    1    3    3    0    0  0.70477560134E+01  0.25992702839E+02 -0.25109529004E+02  0.36820916780E+02  0.00000000000E+00 0. -1.
         11    1    4    4    0    0 -0.26371566898E+01 -0.91555702845E+01  0.19815699190E+02  0.21987291723E+02  0.51100000000E-03 0. -1.
        -11    1    4    4    0    0 -0.20762784046E+01 -0.62871989657E+01  0.15909582146E+02  0.17232370909E+02  0.51100000000E-03 0.  1.
         12    1    4    4    0    0 -0.23343209191E+01 -0.10549933589E+02 -0.10615752332E+02  0.15147420588E+02  0.00000000000E+00 0. -1.
</event>
<event>
 8    1  0.2497772E-006  0.9118800E+02  0.7816164E-02  0.1184000E+00
        -11   -1    0    0    0    0  0.00000000000E+00  0.00000000000E+00  0.45593999997E+02  0.45594000000E+02  0.51100000000E-03 0.  1.
         11   -1    0    0    0    0 -0.00000000000E+00 -0.00000000000E+00 -0.45593999997E+02  0.45594000000E+02  0.51100000000E-03 0. -1.
         23    2    1    2    0    0  0.00000000000E+00  0.00000000000E+00  0.00000000000E+00  0.91188000000E+02  0.91188000000E+02 0.  0.
    9900012    2    3    3    0    0  0.27705493221E+02  0.23062335879E+02  0.75042566122E+01  0.54367088033E+02  0.40000008788E+02 0.  0.
         12    1    3    3    0    0 -0.27705493221E+02 -0.23062335879E+02 -0.75042566122E+01  0.36820911967E+02  0.00000000000E+00 0. -1.
         11    1    4    4    0    0  0.70325722379E+01 -0.58870165387E+01 -0.50039069619E+01  0.10447637109E+02  0.51100000000E-03 0. -1.
        -11    1    4    4    0    0  0.11274024846E+02  0.29497748544E+02  0.13713154386E+02  0.34427770896E+02  0.51100000000E-03 0.  1.
        -12    1    4    4    0    0  0.93988961370E+01 -0.54839612544E+00 -0.12049908120E+01  0.94916800284E+01  0.00000000000E+00 0.  1.
</event>
<event>
 8    1  0.2497772E-006  0.9118800E+02  0.7816164E-02  0.1184000E+00
        -11   -1    0    0    0    0  0.00000000000E+00  0.00000000000E+00  0.45593999997E+02  0.45594000000E+02  0.51100000000E-03 0. -1.
         11   -1    0    0    0    0 -0.00000000000E+00 -0.00000000000E+00 -0.45593999997E+02  0.45594000000E+02  0.51100000000E-03 0.  1.
         23    2    1    2    0    0 -0.35527136788E-14  0.35527136788E-14  0.00000000000E+00  0.91188000000E+02  0.91188000000E+02 0.  0.
    9900012    2    3    3    0    0 -0.27747278378E+02  0.20186266243E+02 -0.13355947030E+02  0.54367107517E+02  0.40000053207E+02 0.  0.
         12    1    3    3    0    0  0.27747278378E+02 -0.20186266243E+02  0.13355947030E+02  0.36820892483E+02  0.00000000000E+00 0. -1.
         11    1    4    4    0    0 -0.22424789987E+02  0.12596843571E+02 -0.33355698492E+01  0.25936030930E+02  0.51100000000E-03 0. -1.
        -11    1    4    4    0    0 -0.10495464043E+02 -0.13821542864E+01  0.37238851229E+01  0.11221962244E+02  0.51100000000E-03 0.  1.
         12    1    4    4    0    0  0.51729756519E+01  0.89715769582E+01 -0.13744262303E+02  0.17209114343E+02  0.00000000000E+00 0. -1.
</event>
<event>
 8    1  0.2497772E-006  0.9118800E+02  0.7816164E-02  0.1184000E+00
        -11   -1    0    0    0    0  0.00000000000E+00  0.00000000000E+00  0.45593999997E+02  0.45594000000E+02  0.51100000000E-03 0.  1.
         11   -1    0    0    0    0 -0.00000000000E+00 -0.00000000000E+00 -0.45593999997E+02  0.45594000000E+02  0.51100000000E-03 0. -1.
         23    2    1    2    0    0  0.00000000000E+00  0.00000000000E+00  0.00000000000E+00  0.91188000000E+02  0.91188000000E+02 0.  0.
    9900012    2    3    3    0    0  0.17537295466E+02  0.20371939535E+02 -0.25163616817E+02  0.54367078447E+02  0.39999986936E+02 0.  0.
        -12    1    3    3    0    0 -0.17537295466E+02 -0.20371939535E+02  0.25163616817E+02  0.36820921553E+02  0.00000000000E+00 0.  1.
         11    1    4    4    0    0 -0.27117992521E+01  0.12870429771E+02 -0.18606887984E+02  0.22786357725E+02  0.51100000000E-03 0. -1.
        -11    1    4    4    0    0  0.10350965550E+02  0.11631432114E+02 -0.11901173353E+02  0.19597719976E+02  0.51100000000E-03 0.  1.
        -12    1    4    4    0    0  0.98981291681E+01 -0.41299223497E+01  0.53444445202E+01  0.11983000746E+02  0.00000000000E+00 0.  1.
</event>
<event>
 8    1  0.2497772E-006  0.9118800E+02  0.7816164E-02  0.1184000E+00
        -11   -1    0    0    0    0  0.00000000000E+00  0.00000000000E+00  0.45593999997E+02  0.45594000000E+02  0.51100000000E-03 0.  1.
         11   -1    0    0    0    0 -0.00000000000E+00 -0.00000000000E+00 -0.45593999997E+02  0.45594000000E+02  0.51100000000E-03 0. -1.
         23    2    1    2    0    0  0.44408920985E-15 -0.88817841970E-15  0.71054273576E-14  0.91188000000E+02  0.91188000000E+02 0.  0.
    9900012    2    3    3    0    0  0.13182468771E+01 -0.33639222233E+01  0.36643259222E+02  0.54367052240E+02  0.39999927191E+02 0.  0.
         12    1    3    3    0    0 -0.13182468771E+01  0.33639222233E+01 -0.36643259222E+02  0.36820947760E+02  0.00000000000E+00 0. -1.
         11    1    4    4    0    0 -0.17457079420E+01 -0.29713052692E+01  0.39578339008E+01  0.52479139350E+01  0.51100000000E-03 0. -1.
        -11    1    4    4    0    0  0.19243852879E+01 -0.13910558810E+02  0.32662289553E+02  0.35553228605E+02  0.51100000000E-03 0.  1.
         12    1    4    4    0    0  0.11395695312E+01  0.13517941856E+02  0.23135768076E-01  0.13565909700E+02  0.00000000000E+00 0. -1.
</event>
<event>
 8    1  0.2497772E-006  0.9118800E+02  0.7816164E-02  0.1184000E+00
        -11   -1    0    0    0    0  0.00000000000E+00  0.00000000000E+00  0.45593999997E+02  0.45594000000E+02  0.51100000000E-03 0.  1.
         11   -1    0    0    0    0 -0.00000000000E+00 -0.00000000000E+00 -0.45593999997E+02  0.45594000000E+02  0.51100000000E-03 0. -1.
         23    2    1    2    0    0  0.00000000000E+00  0.00000000000E+00  0.00000000000E+00  0.91188000000E+02  0.91188000000E+02 0.  0.
    9900012    2    3    3    0    0  0.35423264467E+02  0.86764464591E+01 -0.50679008561E+01  0.54367190561E+02  0.40000242521E+02 0.  0.
        -12    1    3    3    0    0 -0.35423264467E+02 -0.86764464591E+01  0.50679008561E+01  0.36820809439E+02  0.00000000000E+00 0.  1.
         11    1    4    4    0    0  0.11328216585E+02  0.76432265079E+01 -0.94603015829E+00  0.13698261779E+02  0.51100000000E-03 0. -1.
        -11    1    4    4    0    0 -0.49185726349E+01  0.39712743118E+01  0.70236675018E+01  0.94496180802E+01  0.51100000000E-03 0.  1.
         12    1    4    4    0    0  0.29013620517E+02 -0.29380543606E+01 -0.11145538200E+02  0.31219310701E+02  0.00000000000E+00 0. -1.
</event>
<event>
 8    1  0.2497772E-006  0.9118800E+02  0.7816164E-02  0.1184000E+00
        -11   -1    0    0    0    0  0.00000000000E+00  0.00000000000E+00  0.45593999997E+02  0.45594000000E+02  0.51100000000E-03 0. -1.
         11   -1    0    0    0    0 -0.00000000000E+00 -0.00000000000E+00 -0.45593999997E+02  0.45594000000E+02  0.51100000000E-03 0.  1.
         23    2    1    2    0    0  0.00000000000E+00  0.00000000000E+00  0.22204460493E-14  0.91188000000E+02  0.91188000000E+02 0.  0.
    9900012    2    3    3    0    0  0.26530875471E+01  0.36539290637E+02 -0.36913574669E+01  0.54367017480E+02  0.39999847948E+02 0.  0.
        -12    1    3    3    0    0 -0.26530875471E+01 -0.36539290637E+02  0.36913574669E+01  0.36820982520E+02  0.00000000000E+00 0.  1.
         11    1    4    4    0    0 -0.44464954043E+01  0.86298138671E+01  0.41990767707E-01  0.97080776803E+01  0.51100000000E-03 0. -1.
        -11    1    4    4    0    0  0.64266776134E+01  0.17024193108E+02 -0.18731324910E+02  0.26114897458E+02  0.51100000000E-03 0.  1.
        -12    1    4    4    0    0  0.67290533804E+00  0.10885283663E+02  0.14997976675E+02  0.18544042341E+02  0.00000000000E+00 0.  1.
</event>
<event>
 8    1  0.2497772E-006  0.9118800E+02  0.7816164E-02  0.1184000E+00
        -11   -1    0    0    0    0  0.00000000000E+00  0.00000000000E+00  0.45593999997E+02  0.45594000000E+02  0.51100000000E-03 0. -1.
         11   -1    0    0    0    0 -0.00000000000E+00 -0.00000000000E+00 -0.45593999997E+02  0.45594000000E+02  0.51100000000E-03 0.  1.
         23    2    1    2    0    0  0.00000000000E+00  0.00000000000E+00  0.88817841970E-15  0.91188000000E+02  0.91188000000E+02 0.  0.
    9900012    2    3    3    0    0 -0.21226281968E+02  0.29278109872E+02 -0.69294153826E+01  0.54367087988E+02  0.40000008687E+02 0.  0.
         12    1    3    3    0    0  0.21226281968E+02 -0.29278109872E+02  0.69294153826E+01  0.36820912012E+02  0.00000000000E+00 0. -1.
         11    1    4    4    0    0 -0.49638688836E+01  0.91185953808E+01 -0.48469486228E+01  0.11457822098E+02  0.51100000000E-03 0. -1.
        -11    1    4    4    0    0 -0.34097117502E+01 -0.99315700297E-01 -0.15191365139E+02  0.15569636247E+02  0.51100000000E-03 0.  1.
         12    1    4    4    0    0 -0.12852701334E+02  0.20258830191E+02  0.13108898379E+02  0.27339629643E+02  0.00000000000E+00 0. -1.
</event>
<event>
 8    1  0.2497772E-006  0.9118800E+02  0.7816164E-02  0.1184000E+00
        -11   -1    0    0    0    0  0.00000000000E+00  0.00000000000E+00  0.45593999997E+02  0.45594000000E+02  0.51100000000E-03 0. -1.
         11   -1    0    0    0    0 -0.00000000000E+00 -0.00000000000E+00 -0.45593999997E+02  0.45594000000E+02  0.51100000000E-03 0.  1.
         23    2    1    2    0    0  0.71054273576E-14  0.22204460493E-14 -0.35527136788E-14  0.91188000000E+02  0.91188000000E+02 0.  0.
    9900012    2    3    3    0    0 -0.26333961740E+02 -0.33800617540E+01  0.25512288823E+02  0.54367092361E+02  0.40000018654E+02 0.  0.
        -12    1    3    3    0    0  0.26333961740E+02  0.33800617540E+01 -0.25512288823E+02  0.36820907639E+02  0.00000000000E+00 0.  1.
         11    1    4    4    0    0 -0.80220382804E+01  0.97930780305E+01  0.82268358835E+01  0.15097625787E+02  0.51100000000E-03 0. -1.
        -11    1    4    4    0    0  0.62579412681E+01 -0.79902074504E+01  0.48564617975E+01  0.11251242841E+02  0.51100000000E-03 0.  1.
         12    1    4    4    0    0 -0.24569864728E+02 -0.51829323342E+01  0.12428991142E+02  0.28018223733E+02  0.00000000000E+00 0. -1.
</event>
<event>
 8    1  0.2497772E-006  0.9118800E+02  0.7816164E-02  0.1184000E+00
        -11   -1    0    0    0    0  0.00000000000E+00  0.00000000000E+00  0.45593999997E+02  0.45594000000E+02  0.51100000000E-03 0.  1.
         11   -1    0    0    0    0 -0.00000000000E+00 -0.00000000000E+00 -0.45593999997E+02  0.45594000000E+02  0.51100000000E-03 0. -1.
         23    2    1    2    0    0  0.00000000000E+00 -0.44408920985E-15 -0.35527136788E-14  0.91188000000E+02  0.91188000000E+02 0.  0.
    9900012    2    3    3    0    0 -0.21975595215E+02  0.37099039366E+01 -0.29310219142E+02  0.54367094004E+02  0.40000022400E+02 0.  0.
        -12    1    3    3    0    0  0.21975595215E+02 -0.37099039366E+01  0.29310219142E+02  0.36820905996E+02  0.00000000000E+00 0.  1.
         11    1    4    4    0    0 -0.21242214533E+02 -0.16948649917E+01 -0.14041569347E+02  0.25519990509E+02  0.51100000000E-03 0.  1.
        -11    1    4    4    0    0 -0.75212692157E+01 -0.27667257749E+01  0.22813927655E+01  0.83324075356E+01  0.51100000000E-03 0. -1.
         12    1    4    4    0    0  0.67878885335E+01  0.81714947032E+01 -0.17550042560E+02  0.20514695959E+02  0.00000000000E+00 0. -1.
</event>
<event>
 8    1  0.2497772E-006  0.9118800E+02  0.7816164E-02  0.1184000E+00
        -11   -1    0    0    0    0  0.00000000000E+00  0.00000000000E+00  0.45593999997E+02  0.45594000000E+02  0.51100000000E-03 0. -1.
         11   -1    0    0    0    0 -0.00000000000E+00 -0.00000000000E+00 -0.45593999997E+02  0.45594000000E+02  0.51100000000E-03 0.  1.
         23    2    1    2    0    0  0.88817841970E-15  0.17763568394E-14  0.00000000000E+00  0.91188000000E+02  0.91188000000E+02 0.  0.
    9900012    2    3    3    0    0  0.61278532885E+01  0.13616263060E+02  0.33657555138E+02  0.54367024680E+02  0.39999864362E+02 0.  0.
        -12    1    3    3    0    0 -0.61278532885E+01 -0.13616263060E+02 -0.33657555138E+02  0.36820975320E+02  0.00000000000E+00 0.  1.
         11    1    4    4    0    0  0.26055189852E+01  0.15273360219E+02  0.16832822963E+02  0.22878115978E+02  0.51100000000E-03 0. -1.
        -11    1    4    4    0    0 -0.11132975075E+02  0.51084933730E+00  0.10726501246E+02  0.15468093945E+02  0.51100000000E-03 0.  1.
        -12    1    4    4    0    0  0.14655309378E+02 -0.21679464961E+01  0.60982309293E+01  0.16020814756E+02  0.00000000000E+00 0.  1.
</event>
<event>
 8    1  0.2497772E-006  0.9118800E+02  0.7816164E-02  0.1184000E+00
        -11   -1    0    0    0    0  0.00000000000E+00  0.00000000000E+00  0.45593999997E+02  0.45594000000E+02  0.51100000000E-03 0. -1.
         11   -1    0    0    0    0 -0.00000000000E+00 -0.00000000000E+00 -0.45593999997E+02  0.45594000000E+02  0.51100000000E-03 0.  1.
         23    2    1    2    0    0  0.17763568394E-14 -0.88817841970E-15  0.71054273576E-14  0.91188000000E+02  0.91188000000E+02 0.  0.
    9900012    2    3    3    0    0 -0.15646568664E+02  0.48762127022E+01  0.32972524898E+02  0.54367082584E+02  0.39999996366E+02 0.  0.
         12    1    3    3    0    0  0.15646568664E+02 -0.48762127022E+01 -0.32972524898E+02  0.36820917416E+02  0.00000000000E+00 0. -1.
         11    1    4    4    0    0 -0.59775708633E+01 -0.28633821115E+01  0.12039787142E+02  0.13743608887E+02  0.51100000000E-03 0. -1.
        -11    1    4    4    0    0 -0.40180213835E+01  0.20088413569E+02  0.16603365376E+02  0.26369690890E+02  0.51100000000E-03 0.  1.
        -12    1    4    4    0    0 -0.56509764168E+01 -0.12348818755E+02  0.43293723794E+01  0.14253782807E+02  0.00000000000E+00 0.  1.
</event>
<event>
 8    1  0.2497772E-006  0.9118800E+02  0.7816164E-02  0.1184000E+00
        -11   -1    0    0    0    0  0.00000000000E+00  0.00000000000E+00  0.45593999997E+02  0.45594000000E+02  0.51100000000E-03 0.  1.
         11   -1    0    0    0    0 -0.00000000000E+00 -0.00000000000E+00 -0.45593999997E+02  0.45594000000E+02  0.51100000000E-03 0. -1.
         23    2    1    2    0    0  0.00000000000E+00  0.10658141036E-13  0.35527136788E-14  0.91188000000E+02  0.91188000000E+02 0.  0.
    9900012    2    3    3    0    0 -0.30961461703E+01 -0.31055605692E+02 -0.19538250496E+02  0.54367082053E+02  0.39999995156E+02 0.  0.
        -12    1    3    3    0    0  0.30961461703E+01  0.31055605692E+02  0.19538250496E+02  0.36820917947E+02  0.00000000000E+00 0.  1.
         11    1    4    4    0    0  0.35590772826E+01 -0.23252829519E+02 -0.12205764261E+02  0.26501731890E+02  0.51100000000E-03 0. -1.
        -11    1    4    4    0    0  0.62771576528E+01  0.53356800893E+01 -0.68050955610E+00  0.82665158157E+01  0.51100000000E-03 0.  1.
        -12    1    4    4    0    0 -0.12932381106E+02 -0.13138456262E+02 -0.66519766793E+01  0.19598834347E+02  0.00000000000E+00 0.  1.
</event>
<event>
 8    1  0.2497772E-006  0.9118800E+02  0.7816164E-02  0.1184000E+00
        -11   -1    0    0    0    0  0.00000000000E+00  0.00000000000E+00  0.45593999997E+02  0.45594000000E+02  0.51100000000E-03 0. -1.
         11   -1    0    0    0    0 -0.00000000000E+00 -0.00000000000E+00 -0.45593999997E+02  0.45594000000E+02  0.51100000000E-03 0.  1.
         23    2    1    2    0    0  0.00000000000E+00  0.88817841970E-15 -0.88817841970E-15  0.91188000000E+02  0.91188000000E+02 0.  0.
    9900012    2    3    3    0    0  0.36174919466E+02  0.50724976528E+01 -0.46286367540E+01  0.54367091416E+02  0.40000016500E+02 0.  0.
        -12    1    3    3    0    0 -0.36174919466E+02 -0.50724976528E+01  0.46286367540E+01  0.36820908584E+02  0.00000000000E+00 0.  1.
         11    1    4    4    0    0  0.55218464466E+01 -0.95467566805E+01  0.60125315250E+01  0.12561126020E+02  0.51100000000E-03 0. -1.
        -11    1    4    4    0    0  0.22046682544E+02  0.13855826388E+01  0.11227054787E+01  0.22118691605E+02  0.51100000000E-03 0.  1.
        -12    1    4    4    0    0  0.86063904750E+01  0.13233671695E+02 -0.11763873758E+02  0.19687273791E+02  0.00000000000E+00 0.  1.
</event>
<event>
 8    1  0.2497772E-006  0.9118800E+02  0.7816164E-02  0.1184000E+00
        -11   -1    0    0    0    0  0.00000000000E+00  0.00000000000E+00  0.45593999997E+02  0.45594000000E+02  0.51100000000E-03 0.  1.
         11   -1    0    0    0    0 -0.00000000000E+00 -0.00000000000E+00 -0.45593999997E+02  0.45594000000E+02  0.51100000000E-03 0. -1.
         23    2    1    2    0    0 -0.17763568394E-14  0.00000000000E+00  0.35527136788E-14  0.91188000000E+02  0.91188000000E+02 0.  0.
    9900012    2    3    3    0    0 -0.73671327922E+01 -0.23212821506E+02 -0.27616449432E+02  0.54367109094E+02  0.40000056802E+02 0.  0.
        -12    1    3    3    0    0  0.73671327922E+01  0.23212821506E+02  0.27616449432E+02  0.36820890906E+02  0.00000000000E+00 0.  1.
         11    1    4    4    0    0 -0.24202699585E+01  0.39574049760E+01 -0.81292549122E+01  0.93596766239E+01  0.51100000000E-03 0. -1.
        -11    1    4    4    0    0 -0.15401356395E+02 -0.78381348777E+01 -0.30158401218E+01  0.17542332486E+02  0.51100000000E-03 0.  1.
         12    1    4    4    0    0  0.10454493561E+02 -0.19332091604E+02 -0.16471354398E+02  0.27465099984E+02  0.00000000000E+00 0. -1.
</event>
<event>
 8    1  0.2497772E-006  0.9118800E+02  0.7816164E-02  0.1184000E+00
        -11   -1    0    0    0    0  0.00000000000E+00  0.00000000000E+00  0.45593999997E+02  0.45594000000E+02  0.51100000000E-03 0.  1.
         11   -1    0    0    0    0 -0.00000000000E+00 -0.00000000000E+00 -0.45593999997E+02  0.45594000000E+02  0.51100000000E-03 0. -1.
         23    2    1    2    0    0 -0.35527136788E-14  0.00000000000E+00  0.00000000000E+00  0.91188000000E+02  0.91188000000E+02 0.  0.
    9900012    2    3    3    0    0  0.30726621387E+02 -0.10324902867E+02 -0.17465698066E+02  0.54367088957E+02  0.40000010895E+02 0.  0.
         12    1    3    3    0    0 -0.30726621387E+02  0.10324902867E+02  0.17465698066E+02  0.36820911043E+02  0.00000000000E+00 0. -1.
         11    1    4    4    0    0 -0.69251229722E+01  0.47035315856E+00 -0.33080390127E+01  0.76890625335E+01  0.51100000000E-03 0. -1.
        -11    1    4    4    0    0  0.24241258405E+01 -0.37285803698E+01  0.43853382797E+01  0.62457897622E+01  0.51100000000E-03 0.  1.
        -12    1    4    4    0    0  0.35227618519E+02 -0.70666756558E+01 -0.18542997333E+02  0.40432236661E+02  0.00000000000E+00 0.  1.
</event>
<event>
 8    1  0.2497772E-006  0.9118800E+02  0.7816164E-02  0.1184000E+00
        -11   -1    0    0    0    0  0.00000000000E+00  0.00000000000E+00  0.45593999997E+02  0.45594000000E+02  0.51100000000E-03 0.  1.
         11   -1    0    0    0    0 -0.00000000000E+00 -0.00000000000E+00 -0.45593999997E+02  0.45594000000E+02  0.51100000000E-03 0. -1.
         23    2    1    2    0    0  0.17763568394E-14  0.44408920985E-15  0.00000000000E+00  0.91188000000E+02  0.91188000000E+02 0.  0.
    9900012    2    3    3    0    0  0.10411858056E+02  0.24827129963E+01 -0.35230805255E+02  0.54367078082E+02  0.39999986104E+02 0.  0.
        -12    1    3    3    0    0 -0.10411858056E+02 -0.24827129963E+01  0.35230805255E+02  0.36820921918E+02  0.00000000000E+00 0.  1.
         11    1    4    4    0    0  0.68840417629E+01 -0.75861222446E+01 -0.10970230505E+02  0.15009504965E+02  0.51100000000E-03 0. -1.
        -11    1    4    4    0    0 -0.69346273264E+01  0.13498492112E+01 -0.24740962090E+02  0.25729872803E+02  0.51100000000E-03 0.  1.
         12    1    4    4    0    0  0.10462443619E+02  0.87189860297E+01  0.48038733986E+00  0.13627700315E+02  0.00000000000E+00 0. -1.
</event>
<event>
 8    1  0.2497772E-006  0.9118800E+02  0.7816164E-02  0.1184000E+00
        -11   -1    0    0    0    0  0.00000000000E+00  0.00000000000E+00  0.45593999997E+02  0.45594000000E+02  0.51100000000E-03 0. -1.
         11   -1    0    0    0    0 -0.00000000000E+00 -0.00000000000E+00 -0.45593999997E+02  0.45594000000E+02  0.51100000000E-03 0.  1.
         23    2    1    2    0    0 -0.35527136788E-14  0.44408920985E-15  0.00000000000E+00  0.91188000000E+02  0.91188000000E+02 0.  0.
    9900012    2    3    3    0    0  0.16556646054E+02  0.21595648718E+01 -0.32817561588E+02  0.54367101076E+02  0.40000038523E+02 0.  0.
         12    1    3    3    0    0 -0.16556646054E+02 -0.21595648718E+01  0.32817561588E+02  0.36820898924E+02  0.00000000000E+00 0. -1.
         11    1    4    4    0    0 -0.17975120408E+01 -0.19099351713E+01 -0.77749005575E+01  0.82053629313E+01  0.51100000000E-03 0. -1.
        -11    1    4    4    0    0  0.12846879205E+02  0.73516296056E+00 -0.33295044385E+02  0.35695136233E+02  0.51100000000E-03 0.  1.
         12    1    4    4    0    0  0.55072788897E+01  0.33343370826E+01  0.82523833543E+01  0.10466601912E+02  0.00000000000E+00 0. -1.
</event>
<event>
 8    1  0.2497772E-006  0.9118800E+02  0.7816164E-02  0.1184000E+00
        -11   -1    0    0    0    0  0.00000000000E+00  0.00000000000E+00  0.45593999997E+02  0.45594000000E+02  0.51100000000E-03 0. -1.
         11   -1    0    0    0    0 -0.00000000000E+00 -0.00000000000E+00 -0.45593999997E+02  0.45594000000E+02  0.51100000000E-03 0.  1.
         23    2    1    2    0    0  0.00000000000E+00  0.00000000000E+00  0.00000000000E+00  0.91188000000E+02  0.91188000000E+02 0.  0.
    9900012    2    3    3    0    0  0.29859425964E+01  0.90384812845E+01 -0.35569225981E+02  0.54367084286E+02  0.40000000246E+02 0.  0.
         12    1    3    3    0    0 -0.29859425964E+01 -0.90384812845E+01  0.35569225981E+02  0.36820915714E+02  0.00000000000E+00 0. -1.
         11    1    4    4    0    0 -0.15853989897E+02  0.98523555730E+01 -0.85942704835E+01  0.20549437739E+02  0.51100000000E-03 0. -1.
        -11    1    4    4    0    0  0.95645989261E+01 -0.78968418403E+00 -0.20095287240E+02  0.22269389827E+02  0.51100000000E-03 0.  1.
         12    1    4    4    0    0  0.92753335670E+01 -0.24190104424E-01 -0.68796682575E+01  0.11548256720E+02  0.00000000000E+00 0. -1.
</event>
<event>
 8    1  0.2497772E-006  0.9118800E+02  0.7816164E-02  0.1184000E+00
        -11   -1    0    0    0    0  0.00000000000E+00  0.00000000000E+00  0.45593999997E+02  0.45594000000E+02  0.51100000000E-03 0. -1.
         11   -1    0    0    0    0 -0.00000000000E+00 -0.00000000000E+00 -0.45593999997E+02  0.45594000000E+02  0.51100000000E-03 0.  1.
         23    2    1    2    0    0  0.35527136788E-14 -0.88817841970E-15 -0.71054273576E-14  0.91188000000E+02  0.91188000000E+02 0.  0.
    9900012    2    3    3    0    0  0.24222128393E+02  0.52630234823E+01 -0.27227961811E+02  0.54367179471E+02  0.40000217239E+02 0.  0.
         12    1    3    3    0    0 -0.24222128393E+02 -0.52630234823E+01  0.27227961811E+02  0.36820820529E+02  0.00000000000E+00 0. -1.
         11    1    4    4    0    0 -0.88289463203E+00 -0.91532214874E+00 -0.15447233492E+01  0.20008718235E+01  0.51100000000E-03 0. -1.
        -11    1    4    4    0    0 -0.19545498762E+01  0.82398507065E+01  0.62013582592E+01  0.10496296938E+02  0.51100000000E-03 0.  1.
        -12    1    4    4    0    0  0.27059572901E+02 -0.20615050755E+01 -0.31884596721E+02  0.41870010710E+02  0.00000000000E+00 0.  1.
</event>
<event>
 8    1  0.2497772E-006  0.9118800E+02  0.7816164E-02  0.1184000E+00
        -11   -1    0    0    0    0  0.00000000000E+00  0.00000000000E+00  0.45593999997E+02  0.45594000000E+02  0.51100000000E-03 0.  1.
         11   -1    0    0    0    0 -0.00000000000E+00 -0.00000000000E+00 -0.45593999997E+02  0.45594000000E+02  0.51100000000E-03 0. -1.
         23    2    1    2    0    0 -0.88817841970E-15 -0.17763568394E-14  0.00000000000E+00  0.91188000000E+02  0.91188000000E+02 0.  0.
    9900012    2    3    3    0    0 -0.40951206065E+01 -0.15425403647E+02 -0.33182314774E+02  0.54367094196E+02  0.40000022840E+02 0.  0.
        -12    1    3    3    0    0  0.40951206065E+01  0.15425403647E+02  0.33182314774E+02  0.36820905804E+02  0.00000000000E+00 0.  1.
         11    1    4    4    0    0  0.13709542082E+02 -0.59126005645E+01 -0.25633963494E+01  0.15148643195E+02  0.51100000000E-03 0. -1.
        -11    1    4    4    0    0 -0.20055410966E+01  0.32941990482E+01 -0.28365319658E+01  0.47874686749E+01  0.51100000000E-03 0.  1.
        -12    1    4    4    0    0 -0.15799121592E+02 -0.12807002131E+02 -0.27782386459E+02  0.34430982327E+02  0.00000000000E+00 0.  1.
</event>
<event>
 8    1  0.2497772E-006  0.9118800E+02  0.7816164E-02  0.1184000E+00
        -11   -1    0    0    0    0  0.00000000000E+00  0.00000000000E+00  0.45593999997E+02  0.45594000000E+02  0.51100000000E-03 0. -1.
         11   -1    0    0    0    0 -0.00000000000E+00 -0.00000000000E+00 -0.45593999997E+02  0.45594000000E+02  0.51100000000E-03 0.  1.
         23    2    1    2    0    0  0.00000000000E+00  0.88817841970E-15 -0.35527136788E-14  0.91188000000E+02  0.91188000000E+02 0.  0.
    9900012    2    3    3    0    0  0.24727001505E+02 -0.46971644680E+01  0.26875489427E+02  0.54367083534E+02  0.39999998533E+02 0.  0.
        -12    1    3    3    0    0 -0.24727001505E+02  0.46971644680E+01 -0.26875489427E+02  0.36820916466E+02  0.00000000000E+00 0.  1.
         11    1    4    4    0    0  0.11559383672E+02 -0.76415664211E+01  0.60801300418E+01  0.15132113859E+02  0.51100000000E-03 0. -1.
        -11    1    4    4    0    0 -0.59249252178E+01  0.84083796264E+00  0.19026740497E+02  0.19945641166E+02  0.51100000000E-03 0.  1.
        -12    1    4    4    0    0  0.19092543051E+02  0.21035639904E+01  0.17686188884E+01  0.19289328510E+02  0.00000000000E+00 0.  1.
</event>
<event>
 8    1  0.2497772E-006  0.9118800E+02  0.7816164E-02  0.1184000E+00
        -11   -1    0    0    0    0  0.00000000000E+00  0.00000000000E+00  0.45593999997E+02  0.45594000000E+02  0.51100000000E-03 0. -1.
         11   -1    0    0    0    0 -0.00000000000E+00 -0.00000000000E+00 -0.45593999997E+02  0.45594000000E+02  0.51100000000E-03 0.  1.
         23    2    1    2    0    0  0.00000000000E+00  0.17763568394E-14 -0.88817841970E-15  0.91188000000E+02  0.91188000000E+02 0.  0.
    9900012    2    3    3    0    0 -0.34251949009E+02  0.10982691094E+02 -0.78717440765E+01  0.54367083806E+02  0.39999999152E+02 0.  0.
        -12    1    3    3    0    0  0.34251949009E+02 -0.10982691094E+02  0.78717440765E+01  0.36820916194E+02  0.00000000000E+00 0.  1.
         11    1    4    4    0    0  0.32381236905E+01  0.10068270841E+02  0.69898611471E+01  0.12677290005E+02  0.51100000000E-03 0. -1.
        -11    1    4    4    0    0 -0.21848824017E+02  0.14906682370E+00 -0.30207461214E+01  0.22057158458E+02  0.51100000000E-03 0.  1.
         12    1    4    4    0    0 -0.15641248682E+02  0.76535342945E+00 -0.11840859102E+02  0.19632635343E+02  0.00000000000E+00 0. -1.
</event>
<event>
 8    1  0.2497772E-006  0.9118800E+02  0.7816164E-02  0.1184000E+00
        -11   -1    0    0    0    0  0.00000000000E+00  0.00000000000E+00  0.45593999997E+02  0.45594000000E+02  0.51100000000E-03 0.  1.
         11   -1    0    0    0    0 -0.00000000000E+00 -0.00000000000E+00 -0.45593999997E+02  0.45594000000E+02  0.51100000000E-03 0. -1.
         23    2    1    2    0    0 -0.17763568394E-14 -0.13322676296E-14  0.71054273576E-14  0.91188000000E+02  0.91188000000E+02 0.  0.
    9900012    2    3    3    0    0 -0.15209870263E+02  0.11215149395E+01  0.33513898839E+02  0.54367090661E+02  0.40000014780E+02 0.  0.
         12    1    3    3    0    0  0.15209870263E+02 -0.11215149395E+01 -0.33513898839E+02  0.36820909339E+02  0.00000000000E+00 0. -1.
         11    1    4    4    0    0 -0.15134050667E+02  0.13166808897E+02  0.23595509673E+02  0.30970186036E+02  0.51100000000E-03 0. -1.
        -11    1    4    4    0    0 -0.47393520118E+01 -0.46895570689E+00  0.98224671079E+01  0.10916145716E+02  0.51100000000E-03 0.  1.
        -12    1    4    4    0    0  0.46635324166E+01 -0.11576338251E+02  0.95922058149E-01  0.12480758909E+02  0.00000000000E+00 0.  1.
</event>
<event>
 8    1  0.2497772E-006  0.9118800E+02  0.7816164E-02  0.1184000E+00
        -11   -1    0    0    0    0  0.00000000000E+00  0.00000000000E+00  0.45593999997E+02  0.45594000000E+02  0.51100000000E-03 0. -1.
         11   -1    0    0    0    0 -0.00000000000E+00 -0.00000000000E+00 -0.45593999997E+02  0.45594000000E+02  0.51100000000E-03 0.  1.
         23    2    1    2    0    0  0.00000000000E+00  0.00000000000E+00  0.17763568394E-14  0.91188000000E+02  0.91188000000E+02 0.  0.
    9900012    2    3    3    0    0  0.33360906950E+02 -0.12797891707E+02 -0.88907038306E+01  0.54367071721E+02  0.39999971603E+02 0.  0.
         12    1    3    3    0    0 -0.33360906950E+02  0.12797891707E+02  0.88907038306E+01  0.36820928279E+02  0.00000000000E+00 0. -1.
         11    1    4    4    0    0  0.14998034878E+02 -0.64250347591E+01 -0.12932490912E+02  0.20819977025E+02  0.51100000000E-03 0. -1.
        -11    1    4    4    0    0  0.20691729531E+02  0.10684740122E+01  0.10677227100E+02  0.23308635449E+02  0.51100000000E-03 0.  1.
         12    1    4    4    0    0 -0.23288574580E+01 -0.74413309605E+01 -0.66354400189E+01  0.10238459248E+02  0.00000000000E+00 0. -1.
</event>
<event>
 8    1  0.2497772E-006  0.9118800E+02  0.7816164E-02  0.1184000E+00
        -11   -1    0    0    0    0  0.00000000000E+00  0.00000000000E+00  0.45593999997E+02  0.45594000000E+02  0.51100000000E-03 0.  1.
         11   -1    0    0    0    0 -0.00000000000E+00 -0.00000000000E+00 -0.45593999997E+02  0.45594000000E+02  0.51100000000E-03 0. -1.
         23    2    1    2    0    0  0.35527136788E-14  0.00000000000E+00 -0.44408920985E-15  0.91188000000E+02  0.91188000000E+02 0.  0.
    9900012    2    3    3    0    0 -0.28098776586E+02 -0.23669752523E+02  0.24458397751E+01  0.54367074396E+02  0.39999977701E+02 0.  0.
         12    1    3    3    0    0  0.28098776586E+02  0.23669752523E+02 -0.24458397751E+01  0.36820925604E+02  0.00000000000E+00 0. -1.
         11    1    4    4    0    0  0.39669738905E+00  0.25893926032E+01  0.66968533300E+01  0.71909782127E+01  0.51100000000E-03 0. -1.
        -11    1    4    4    0    0 -0.22449312596E+02 -0.26749333306E+01 -0.12164006850E+01  0.22640815693E+02  0.51100000000E-03 0.  1.
         12    1    4    4    0    0 -0.60461613783E+01 -0.23584211796E+02 -0.30346128698E+01  0.24535280490E+02  0.00000000000E+00 0. -1.
</event>
<event>
 8    1  0.2497772E-006  0.9118800E+02  0.7816164E-02  0.1184000E+00
        -11   -1    0    0    0    0  0.00000000000E+00  0.00000000000E+00  0.45593999997E+02  0.45594000000E+02  0.51100000000E-03 0. -1.
         11   -1    0    0    0    0 -0.00000000000E+00 -0.00000000000E+00 -0.45593999997E+02  0.45594000000E+02  0.51100000000E-03 0.  1.
         23    2    1    2    0    0  0.00000000000E+00 -0.88817841970E-15 -0.71054273576E-14  0.91188000000E+02  0.91188000000E+02 0.  0.
    9900012    2    3    3    0    0  0.94834449718E+01  0.43673378703E+01  0.35309640822E+02  0.54367080625E+02  0.39999991901E+02 0.  0.
        -12    1    3    3    0    0 -0.94834449718E+01 -0.43673378703E+01 -0.35309640822E+02  0.36820919375E+02  0.00000000000E+00 0.  1.
         11    1    4    4    0    0  0.80576471116E+01  0.18499421555E+01  0.28743808751E+01  0.87527155003E+01  0.51100000000E-03 0. -1.
        -11    1    4    4    0    0  0.12557099206E+02 -0.47196245548E+01  0.36311092095E+01  0.13897501601E+02  0.51100000000E-03 0.  1.
        -12    1    4    4    0    0 -0.11131301346E+02  0.72370202696E+01  0.28804150738E+02  0.31716863523E+02  0.00000000000E+00 0.  1.
</event>
<event>
 8    1  0.2497772E-006  0.9118800E+02  0.7816164E-02  0.1184000E+00
        -11   -1    0    0    0    0  0.00000000000E+00  0.00000000000E+00  0.45593999997E+02  0.45594000000E+02  0.51100000000E-03 0. -1.
         11   -1    0    0    0    0 -0.00000000000E+00 -0.00000000000E+00 -0.45593999997E+02  0.45594000000E+02  0.51100000000E-03 0.  1.
         23    2    1    2    0    0  0.35527136788E-14  0.00000000000E+00  0.00000000000E+00  0.91188000000E+02  0.91188000000E+02 0.  0.
    9900012    2    3    3    0    0  0.21566060827E+02  0.22884709223E+02  0.19156716749E+02  0.54367018313E+02  0.39999849848E+02 0.  0.
        -12    1    3    3    0    0 -0.21566060827E+02 -0.22884709223E+02 -0.19156716749E+02  0.36820981687E+02  0.00000000000E+00 0.  1.
         11    1    4    4    0    0  0.20774026387E+02  0.60340328821E+01  0.18659513568E+02  0.28568289624E+02  0.51100000000E-03 0.  1.
        -11    1    4    4    0    0 -0.63270856141E+01  0.28017412802E+00  0.39108152627E+01  0.74434525719E+01  0.51100000000E-03 0. -1.
        -12    1    4    4    0    0  0.71191200537E+01  0.16570502212E+02 -0.34136120821E+01  0.18355276118E+02  0.00000000000E+00 0.  1.
</event>
<event>
 8    1  0.2497772E-006  0.9118800E+02  0.7816164E-02  0.1184000E+00
        -11   -1    0    0    0    0  0.00000000000E+00  0.00000000000E+00  0.45593999997E+02  0.45594000000E+02  0.51100000000E-03 0. -1.
         11   -1    0    0    0    0 -0.00000000000E+00 -0.00000000000E+00 -0.45593999997E+02  0.45594000000E+02  0.51100000000E-03 0.  1.
         23    2    1    2    0    0  0.88817841970E-15 -0.44408920985E-15  0.00000000000E+00  0.91188000000E+02  0.91188000000E+02 0.  0.
    9900012    2    3    3    0    0 -0.36187857372E+01  0.25077530386E+01 -0.36556764756E+02  0.54367061867E+02  0.39999949139E+02 0.  0.
         12    1    3    3    0    0  0.36187857372E+01 -0.25077530386E+01  0.36556764756E+02  0.36820938133E+02  0.00000000000E+00 0. -1.
         11    1    4    4    0    0 -0.26559817321E+01  0.12204150039E+01  0.58450951935E+01  0.65351962346E+01  0.51100000000E-03 0. -1.
        -11    1    4    4    0    0  0.87816348110E+01 -0.37168742411E+01 -0.10914234822E+02  0.14493197925E+02  0.51100000000E-03 0.  1.
         12    1    4    4    0    0 -0.97444388161E+01  0.50042122758E+01 -0.31487625128E+02  0.33338667708E+02  0.00000000000E+00 0. -1.
</event>
<event>
 8    1  0.2497772E-006  0.9118800E+02  0.7816164E-02  0.1184000E+00
        -11   -1    0    0    0    0  0.00000000000E+00  0.00000000000E+00  0.45593999997E+02  0.45594000000E+02  0.51100000000E-03 0.  1.
         11   -1    0    0    0    0 -0.00000000000E+00 -0.00000000000E+00 -0.45593999997E+02  0.45594000000E+02  0.51100000000E-03 0. -1.
         23    2    1    2    0    0  0.00000000000E+00  0.00000000000E+00  0.00000000000E+00  0.91188000000E+02  0.91188000000E+02 0.  0.
    9900012    2    3    3    0    0 -0.24752551994E+02 -0.60023592955E+01 -0.26590664817E+02  0.54367073848E+02  0.39999976451E+02 0.  0.
        -12    1    3    3    0    0  0.24752551994E+02  0.60023592955E+01  0.26590664817E+02  0.36820926152E+02  0.00000000000E+00 0.  1.
         11    1    4    4    0    0 -0.35400556513E+01  0.10041148385E+02 -0.60182665572E+01  0.12230134403E+02  0.51100000000E-03 0. -1.
        -11    1    4    4    0    0 -0.75257208658E+01 -0.88911147686E+01  0.46663588148E+01  0.12548438199E+02  0.51100000000E-03 0.  1.
        -12    1    4    4    0    0 -0.13686775477E+02 -0.71523929121E+01 -0.25238757074E+02  0.29588501246E+02  0.00000000000E+00 0.  1.
</event>
<event>
 8    1  0.2497772E-006  0.9118800E+02  0.7816164E-02  0.1184000E+00
        -11   -1    0    0    0    0  0.00000000000E+00  0.00000000000E+00  0.45593999997E+02  0.45594000000E+02  0.51100000000E-03 0.  1.
         11   -1    0    0    0    0 -0.00000000000E+00 -0.00000000000E+00 -0.45593999997E+02  0.45594000000E+02  0.51100000000E-03 0. -1.
         23    2    1    2    0    0 -0.71054273576E-14  0.00000000000E+00 -0.35527136788E-14  0.91188000000E+02  0.91188000000E+02 0.  0.
    9900012    2    3    3    0    0 -0.26181879779E+02 -0.12234773818E+02  0.22816646361E+02  0.54367083793E+02  0.39999999123E+02 0.  0.
         12    1    3    3    0    0  0.26181879779E+02  0.12234773818E+02 -0.22816646361E+02  0.36820916207E+02  0.00000000000E+00 0. -1.
         11    1    4    4    0    0 -0.21235200535E+02  0.27898094668E+01  0.61144721339E+01  0.22273382059E+02  0.51100000000E-03 0. -1.
        -11    1    4    4    0    0 -0.11476203507E+01 -0.80198043987E+01 -0.46234130265E+01  0.93279281375E+01  0.51100000000E-03 0.  1.
        -12    1    4    4    0    0 -0.37990588934E+01 -0.70047788857E+01  0.21325587254E+02  0.22765773596E+02  0.00000000000E+00 0.  1.
</event>
<event>
 8    1  0.2497772E-006  0.9118800E+02  0.7816164E-02  0.1184000E+00
        -11   -1    0    0    0    0  0.00000000000E+00  0.00000000000E+00  0.45593999997E+02  0.45594000000E+02  0.51100000000E-03 0. -1.
         11   -1    0    0    0    0 -0.00000000000E+00 -0.00000000000E+00 -0.45593999997E+02  0.45594000000E+02  0.51100000000E-03 0.  1.
         23    2    1    2    0    0 -0.17763568394E-14  0.35527136788E-14 -0.35527136788E-14  0.91188000000E+02  0.91188000000E+02 0.  0.
    9900012    2    3    3    0    0  0.70465714133E+01 -0.18218870262E+02  0.31212142567E+02  0.54367092272E+02  0.40000018451E+02 0.  0.
        -12    1    3    3    0    0 -0.70465714133E+01  0.18218870262E+02 -0.31212142567E+02  0.36820907728E+02  0.00000000000E+00 0.  1.
         11    1    4    4    0    0  0.17967811438E+02 -0.42256185538E+01  0.63983873536E+01  0.19535543530E+02  0.51100000000E-03 0. -1.
        -11    1    4    4    0    0  0.11926624472E+01  0.25663306991E+01  0.27188393263E+00  0.28429593919E+01  0.51100000000E-03 0.  1.
         12    1    4    4    0    0 -0.12113902472E+02 -0.16559582407E+02  0.24541871281E+02  0.31988589350E+02  0.00000000000E+00 0. -1.
</event>
<event>
 8    1  0.2497772E-006  0.9118800E+02  0.7816164E-02  0.1184000E+00
        -11   -1    0    0    0    0  0.00000000000E+00  0.00000000000E+00  0.45593999997E+02  0.45594000000E+02  0.51100000000E-03 0. -1.
         11   -1    0    0    0    0 -0.00000000000E+00 -0.00000000000E+00 -0.45593999997E+02  0.45594000000E+02  0.51100000000E-03 0.  1.
         23    2    1    2    0    0  0.35527136788E-14 -0.35527136788E-14 -0.35527136788E-14  0.91188000000E+02  0.91188000000E+02 0.  0.
    9900012    2    3    3    0    0  0.12808322002E+02 -0.18536114401E+02 -0.29122825909E+02  0.54367086940E+02  0.40000006298E+02 0.  0.
         12    1    3    3    0    0 -0.12808322002E+02  0.18536114401E+02  0.29122825909E+02  0.36820913060E+02  0.00000000000E+00 0. -1.
         11    1    4    4    0    0  0.16367617421E+02 -0.67223634312E+01 -0.11471306780E+02  0.21087435824E+02  0.51100000000E-03 0. -1.
        -11    1    4    4    0    0 -0.60986289198E+01 -0.18479252199E+02 -0.17459842295E+02  0.26144256153E+02  0.51100000000E-03 0.  1.
        -12    1    4    4    0    0  0.25393335012E+01  0.66655012298E+01 -0.19167683404E+00  0.71353949634E+01  0.00000000000E+00 0.  1.
</event>
<event>
 8    1  0.2497772E-006  0.9118800E+02  0.7816164E-02  0.1184000E+00
        -11   -1    0    0    0    0  0.00000000000E+00  0.00000000000E+00  0.45593999997E+02  0.45594000000E+02  0.51100000000E-03 0. -1.
         11   -1    0    0    0    0 -0.00000000000E+00 -0.00000000000E+00 -0.45593999997E+02  0.45594000000E+02  0.51100000000E-03 0.  1.
         23    2    1    2    0    0 -0.35527136788E-14  0.00000000000E+00 -0.17763568394E-14  0.91188000000E+02  0.91188000000E+02 0.  0.
    9900012    2    3    3    0    0 -0.16207848004E+02  0.29137737153E+02 -0.15622836867E+02  0.54367148637E+02  0.40000146948E+02 0.  0.
         12    1    3    3    0    0  0.16207848004E+02 -0.29137737153E+02  0.15622836867E+02  0.36820851363E+02  0.00000000000E+00 0. -1.
         11    1    4    4    0    0 -0.63757052914E+01  0.10976160314E+02  0.47736969465E+00  0.12702503505E+02  0.51100000000E-03 0. -1.
        -11    1    4    4    0    0 -0.11189641683E+02  0.16247923628E+02 -0.25349931991E+02  0.32121988659E+02  0.51100000000E-03 0.  1.
         12    1    4    4    0    0  0.13574989708E+01  0.19136532103E+01  0.92497254286E+01  0.95426564734E+01  0.00000000000E+00 0. -1.
</event>
<event>
 8    1  0.2497772E-006  0.9118800E+02  0.7816164E-02  0.1184000E+00
        -11   -1    0    0    0    0  0.00000000000E+00  0.00000000000E+00  0.45593999997E+02  0.45594000000E+02  0.51100000000E-03 0.  1.
         11   -1    0    0    0    0 -0.00000000000E+00 -0.00000000000E+00 -0.45593999997E+02  0.45594000000E+02  0.51100000000E-03 0. -1.
         23    2    1    2    0    0  0.00000000000E+00  0.00000000000E+00  0.00000000000E+00  0.91188000000E+02  0.91188000000E+02 0.  0.
    9900012    2    3    3    0    0  0.32922893003E+02  0.10887581852E+02  0.12382339117E+02  0.54367100441E+02  0.40000037076E+02 0.  0.
         12    1    3    3    0    0 -0.32922893003E+02 -0.10887581852E+02 -0.12382339117E+02  0.36820899559E+02  0.00000000000E+00 0. -1.
         11    1    4    4    0    0  0.12616945404E+02  0.10792639865E+02  0.24221508194E+02  0.29365793809E+02  0.51100000000E-03 0. -1.
        -11    1    4    4    0    0  0.20043962375E+02  0.18414814959E+01 -0.10090552428E+02  0.22516010533E+02  0.51100000000E-03 0.  1.
         12    1    4    4    0    0  0.26198522487E+00 -0.17465395095E+01 -0.17486166490E+01  0.24852960994E+01  0.00000000000E+00 0. -1.
</event>
<event>
 8    1  0.2497772E-006  0.9118800E+02  0.7816164E-02  0.1184000E+00
        -11   -1    0    0    0    0  0.00000000000E+00  0.00000000000E+00  0.45593999997E+02  0.45594000000E+02  0.51100000000E-03 0.  1.
         11   -1    0    0    0    0 -0.00000000000E+00 -0.00000000000E+00 -0.45593999997E+02  0.45594000000E+02  0.51100000000E-03 0. -1.
         23    2    1    2    0    0 -0.35527136788E-14 -0.35527136788E-14  0.00000000000E+00  0.91188000000E+02  0.91188000000E+02 0.  0.
    9900012    2    3    3    0    0  0.20147737986E+02  0.25224435047E+02  0.17708086972E+02  0.54367084564E+02  0.40000000880E+02 0.  0.
         12    1    3    3    0    0 -0.20147737986E+02 -0.25224435047E+02 -0.17708086972E+02  0.36820915436E+02  0.00000000000E+00 0. -1.
         11    1    4    4    0    0 -0.31200552657E+01 -0.49123356908E+01  0.50759298952E+01  0.77221014861E+01  0.51100000000E-03 0. -1.
        -11    1    4    4    0    0  0.17564710812E+02  0.15219699506E+02 -0.40044245180E+01  0.23583759984E+02  0.51100000000E-03 0.  1.
        -12    1    4    4    0    0  0.57030824392E+01  0.14917071231E+02  0.16636581594E+02  0.23061223094E+02  0.00000000000E+00 0.  1.
</event>
<event>
 8    1  0.2497772E-006  0.9118800E+02  0.7816164E-02  0.1184000E+00
        -11   -1    0    0    0    0  0.00000000000E+00  0.00000000000E+00  0.45593999997E+02  0.45594000000E+02  0.51100000000E-03 0. -1.
         11   -1    0    0    0    0 -0.00000000000E+00 -0.00000000000E+00 -0.45593999997E+02  0.45594000000E+02  0.51100000000E-03 0.  1.
         23    2    1    2    0    0 -0.17763568394E-14  0.17763568394E-14  0.00000000000E+00  0.91188000000E+02  0.91188000000E+02 0.  0.
    9900012    2    3    3    0    0  0.10739965584E+02 -0.68434356147E+01 -0.34548518311E+02  0.54367087610E+02  0.40000007824E+02 0.  0.
         12    1    3    3    0    0 -0.10739965584E+02  0.68434356147E+01  0.34548518311E+02  0.36820912390E+02  0.00000000000E+00 0. -1.
         11    1    4    4    0    0  0.86147186773E+00  0.43685177147E+00  0.33221110951E+01  0.34596814360E+01  0.51100000000E-03 0. -1.
        -11    1    4    4    0    0  0.11470819824E+02 -0.18722011605E+02 -0.28826524976E+02  0.36236196937E+02  0.51100000000E-03 0.  1.
        -12    1    4    4    0    0 -0.15923261078E+01  0.11441724219E+02 -0.90441044301E+01  0.14671209237E+02  0.00000000000E+00 0.  1.
</event>
<event>
 8    1  0.2497772E-006  0.9118800E+02  0.7816164E-02  0.1184000E+00
        -11   -1    0    0    0    0  0.00000000000E+00  0.00000000000E+00  0.45593999997E+02  0.45594000000E+02  0.51100000000E-03 0.  1.
         11   -1    0    0    0    0 -0.00000000000E+00 -0.00000000000E+00 -0.45593999997E+02  0.45594000000E+02  0.51100000000E-03 0. -1.
         23    2    1    2    0    0  0.00000000000E+00 -0.22204460493E-15  0.00000000000E+00  0.91188000000E+02  0.91188000000E+02 0.  0.
    9900012    2    3    3    0    0  0.11344862989E+02 -0.36247636290E+00  0.35027730236E+02  0.54367093020E+02  0.40000020157E+02 0.  0.
         12    1    3    3    0    0 -0.11344862989E+02  0.36247636290E+00 -0.35027730236E+02  0.36820906980E+02  0.00000000000E+00 0. -1.
         11    1    4    4    0    0  0.17633725576E+02 -0.87394630589E-01  0.23185558725E+02  0.29129470458E+02  0.51100000000E-03 0. -1.
        -11    1    4    4    0    0 -0.95730417340E+01 -0.67501823203E+01  0.13414566251E+02  0.17808949362E+02  0.51100000000E-03 0.  1.
        -12    1    4    4    0    0  0.32841791476E+01  0.64751005880E+01 -0.15723947399E+01  0.74286732003E+01  0.00000000000E+00 0.  1.
</event>
<event>
 8    1  0.2497772E-006  0.9118800E+02  0.7816164E-02  0.1184000E+00
        -11   -1    0    0    0    0  0.00000000000E+00  0.00000000000E+00  0.45593999997E+02  0.45594000000E+02  0.51100000000E-03 0. -1.
         11   -1    0    0    0    0 -0.00000000000E+00 -0.00000000000E+00 -0.45593999997E+02  0.45594000000E+02  0.51100000000E-03 0.  1.
         23    2    1    2    0    0 -0.22204460493E-14 -0.17763568394E-14  0.00000000000E+00  0.91188000000E+02  0.91188000000E+02 0.  0.
    9900012    2    3    3    0    0 -0.94114923275E+00  0.94022888007E+01 -0.35587789645E+02  0.54367087893E+02  0.40000008469E+02 0.  0.
         12    1    3    3    0    0  0.94114923275E+00 -0.94022888007E+01  0.35587789645E+02  0.36820912107E+02  0.00000000000E+00 0. -1.
         11    1    4    4    0    0  0.17332015096E+02 -0.34386895627E+00 -0.12822814745E+02  0.21562503829E+02  0.51100000000E-03 0. -1.
        -11    1    4    4    0    0 -0.14475816740E+02  0.19474931732E+01 -0.16882547210E+02  0.22324031905E+02  0.51100000000E-03 0.  1.
         12    1    4    4    0    0 -0.37973475890E+01  0.77986645838E+01 -0.58824276904E+01  0.10480552158E+02  0.00000000000E+00 0. -1.
</event>
<event>
 8    1  0.2497772E-006  0.9118800E+02  0.7816164E-02  0.1184000E+00
        -11   -1    0    0    0    0  0.00000000000E+00  0.00000000000E+00  0.45593999997E+02  0.45594000000E+02  0.51100000000E-03 0. -1.
         11   -1    0    0    0    0 -0.00000000000E+00 -0.00000000000E+00 -0.45593999997E+02  0.45594000000E+02  0.51100000000E-03 0.  1.
         23    2    1    2    0    0 -0.77715611724E-15 -0.88817841970E-15  0.71054273576E-14  0.91188000000E+02  0.91188000000E+02 0.  0.
    9900012    2    3    3    0    0 -0.99638388560E+00 -0.58669076996E+01  0.36336858418E+02  0.54367072981E+02  0.39999974475E+02 0.  0.
        -12    1    3    3    0    0  0.99638388560E+00  0.58669076996E+01 -0.36336858418E+02  0.36820927019E+02  0.00000000000E+00 0.  1.
         11    1    4    4    0    0 -0.15877984867E+02 -0.46028603784E+01  0.23381217937E+02  0.28635259377E+02  0.51100000000E-03 0. -1.
        -11    1    4    4    0    0  0.17998683330E+02 -0.27057184102E+01  0.84506860065E+01  0.20067077713E+02  0.51100000000E-03 0.  1.
        -12    1    4    4    0    0 -0.31170823482E+01  0.14416710890E+01  0.45049544750E+01  0.56647358911E+01  0.00000000000E+00 0.  1.
</event>
<event>
 8    1  0.2497772E-006  0.9118800E+02  0.7816164E-02  0.1184000E+00
        -11   -1    0    0    0    0  0.00000000000E+00  0.00000000000E+00  0.45593999997E+02  0.45594000000E+02  0.51100000000E-03 0.  1.
         11   -1    0    0    0    0 -0.00000000000E+00 -0.00000000000E+00 -0.45593999997E+02  0.45594000000E+02  0.51100000000E-03 0. -1.
         23    2    1    2    0    0  0.71054273576E-14  0.62796989830E-15  0.35527136788E-14  0.91188000000E+02  0.91188000000E+02 0.  0.
    9900012    2    3    3    0    0  0.31254599927E+02  0.16178124052E-01  0.19466090800E+02  0.54367096028E+02  0.40000027015E+02 0.  0.
         12    1    3    3    0    0 -0.31254599927E+02 -0.16178124052E-01 -0.19466090800E+02  0.36820903972E+02  0.00000000000E+00 0. -1.
         11    1    4    4    0    0  0.61142403043E+01 -0.66927222541E+01 -0.90920348078E+01  0.12839063941E+02  0.51100000000E-03 0. -1.
        -11    1    4    4    0    0 -0.14526576615E+00  0.40334526684E+01  0.12733040625E+01  0.42321561961E+01  0.51100000000E-03 0.  1.
         12    1    4    4    0    0  0.25285625388E+02  0.26754477097E+01  0.27284821545E+02  0.37295875891E+02  0.00000000000E+00 0. -1.
</event>
<event>
 8    1  0.2497772E-006  0.9118800E+02  0.7816164E-02  0.1184000E+00
        -11   -1    0    0    0    0  0.00000000000E+00  0.00000000000E+00  0.45593999997E+02  0.45594000000E+02  0.51100000000E-03 0. -1.
         11   -1    0    0    0    0 -0.00000000000E+00 -0.00000000000E+00 -0.45593999997E+02  0.45594000000E+02  0.51100000000E-03 0.  1.
         23    2    1    2    0    0  0.35527136788E-14  0.00000000000E+00  0.00000000000E+00  0.91188000000E+02  0.91188000000E+02 0.  0.
    9900012    2    3    3    0    0 -0.24286979005E+02  0.10849689166E+02 -0.25459903031E+02  0.54367085202E+02  0.40000002336E+02 0.  0.
         12    1    3    3    0    0  0.24286979005E+02 -0.10849689166E+02  0.25459903031E+02  0.36820914798E+02  0.00000000000E+00 0. -1.
         11    1    4    4    0    0 -0.36986793449E+01  0.71921400210E+01  0.76693533056E+01  0.11145675725E+02  0.51100000000E-03 0. -1.
        -11    1    4    4    0    0 -0.21598700338E+02  0.81377940520E+01 -0.28823881681E+02  0.36926192651E+02  0.51100000000E-03 0.  1.
        -12    1    4    4    0    0  0.10104006777E+01 -0.44802449072E+01 -0.43053746561E+01  0.62952168261E+01  0.00000000000E+00 0.  1.
</event>
<event>
 8    1  0.2497772E-006  0.9118800E+02  0.7816164E-02  0.1184000E+00
        -11   -1    0    0    0    0  0.00000000000E+00  0.00000000000E+00  0.45593999997E+02  0.45594000000E+02  0.51100000000E-03 0.  1.
         11   -1    0    0    0    0 -0.00000000000E+00 -0.00000000000E+00 -0.45593999997E+02  0.45594000000E+02  0.51100000000E-03 0. -1.
         23    2    1    2    0    0 -0.71054273576E-14  0.17763568394E-14 -0.42188474936E-14  0.91188000000E+02  0.91188000000E+02 0.  0.
    9900012    2    3    3    0    0 -0.36771984994E+02 -0.10287996707E+01  0.15945090127E+01  0.54367085180E+02  0.40000002285E+02 0.  0.
         12    1    3    3    0    0  0.36771984994E+02  0.10287996707E+01 -0.15945090127E+01  0.36820914820E+02  0.00000000000E+00 0. -1.
         11    1    4    4    0    0 -0.21097142946E+02 -0.10150738213E+02  0.17779992396E+02  0.29398215194E+02  0.51100000000E-03 0. -1.
        -11    1    4    4    0    0 -0.34426112326E+01 -0.40721378914E+00 -0.23525334121E+01  0.41894879025E+01  0.51100000000E-03 0.  1.
         12    1    4    4    0    0 -0.12232230816E+02  0.95291523315E+01 -0.13832949971E+02  0.20779382084E+02  0.00000000000E+00 0. -1.
</event>
<event>
 8    1  0.2497772E-006  0.9118800E+02  0.7816164E-02  0.1184000E+00
        -11   -1    0    0    0    0  0.00000000000E+00  0.00000000000E+00  0.45593999997E+02  0.45594000000E+02  0.51100000000E-03 0.  1.
         11   -1    0    0    0    0 -0.00000000000E+00 -0.00000000000E+00 -0.45593999997E+02  0.45594000000E+02  0.51100000000E-03 0. -1.
         23    2    1    2    0    0  0.00000000000E+00  0.00000000000E+00  0.00000000000E+00  0.91188000000E+02  0.91188000000E+02 0.  0.
    9900012    2    3    3    0    0  0.23914135608E+02  0.11455729316E+02 -0.25547205249E+02  0.54367091374E+02  0.40000016406E+02 0.  0.
        -12    1    3    3    0    0 -0.23914135608E+02 -0.11455729316E+02  0.25547205249E+02  0.36820908626E+02  0.00000000000E+00 0.  1.
         11    1    4    4    0    0  0.91390009956E+00 -0.40776506721E+01 -0.15877520601E+01  0.44702802217E+01  0.51100000000E-03 0. -1.
        -11    1    4    4    0    0  0.25910476059E+02  0.41028101612E+01 -0.27072635855E+02  0.37697658193E+02  0.51100000000E-03 0.  1.
        -12    1    4    4    0    0 -0.29102405503E+01  0.11430569826E+02  0.31131826667E+01  0.12199152960E+02  0.00000000000E+00 0.  1.
</event>
<event>
 8    1  0.2497772E-006  0.9118800E+02  0.7816164E-02  0.1184000E+00
        -11   -1    0    0    0    0  0.00000000000E+00  0.00000000000E+00  0.45593999997E+02  0.45594000000E+02  0.51100000000E-03 0.  1.
         11   -1    0    0    0    0 -0.00000000000E+00 -0.00000000000E+00 -0.45593999997E+02  0.45594000000E+02  0.51100000000E-03 0. -1.
         23    2    1    2    0    0  0.17763568394E-14 -0.17763568394E-14  0.71054273576E-14  0.91188000000E+02  0.91188000000E+02 0.  0.
    9900012    2    3    3    0    0  0.57203347602E+01 -0.97533288414E+01  0.35041829314E+02  0.54367089434E+02  0.40000011982E+02 0.  0.
         12    1    3    3    0    0 -0.57203347602E+01  0.97533288414E+01 -0.35041829314E+02  0.36820910566E+02  0.00000000000E+00 0. -1.
         11    1    4    4    0    0  0.38747556986E+01 -0.12471836203E+02  0.91132370687E+01  0.15925185089E+02  0.51100000000E-03 0. -1.
        -11    1    4    4    0    0 -0.11121834491E+02 -0.59269604413E+01  0.93834758548E+01  0.15712214418E+02  0.51100000000E-03 0.  1.
         12    1    4    4    0    0  0.12967413553E+02  0.86454678030E+01  0.16545116390E+02  0.22729689927E+02  0.00000000000E+00 0. -1.
</event>
<event>
 8    1  0.2497772E-006  0.9118800E+02  0.7816164E-02  0.1184000E+00
        -11   -1    0    0    0    0  0.00000000000E+00  0.00000000000E+00  0.45593999997E+02  0.45594000000E+02  0.51100000000E-03 0.  1.
         11   -1    0    0    0    0 -0.00000000000E+00 -0.00000000000E+00 -0.45593999997E+02  0.45594000000E+02  0.51100000000E-03 0. -1.
         23    2    1    2    0    0  0.00000000000E+00  0.88817841970E-15 -0.88817841970E-15  0.91188000000E+02  0.91188000000E+02 0.  0.
    9900012    2    3    3    0    0  0.36568384708E+02 -0.37850227536E+01  0.20514844924E+01  0.54367058323E+02  0.39999941059E+02 0.  0.
         12    1    3    3    0    0 -0.36568384708E+02  0.37850227536E+01 -0.20514844924E+01  0.36820941677E+02  0.00000000000E+00 0. -1.
         11    1    4    4    0    0 -0.54787032452E+01 -0.41950612073E+01  0.19437833706E+01  0.71688926505E+01  0.51100000000E-03 0. -1.
        -11    1    4    4    0    0  0.13955237025E+02 -0.80746006647E+01 -0.60378197170E+01  0.17216360926E+02  0.51100000000E-03 0.  1.
        -12    1    4    4    0    0  0.28091850927E+02  0.84846391184E+01  0.61455208388E+01  0.29981804747E+02  0.00000000000E+00 0.  1.
</event>
<event>
 8    1  0.2497772E-006  0.9118800E+02  0.7816164E-02  0.1184000E+00
        -11   -1    0    0    0    0  0.00000000000E+00  0.00000000000E+00  0.45593999997E+02  0.45594000000E+02  0.51100000000E-03 0.  1.
         11   -1    0    0    0    0 -0.00000000000E+00 -0.00000000000E+00 -0.45593999997E+02  0.45594000000E+02  0.51100000000E-03 0. -1.
         23    2    1    2    0    0 -0.99920072216E-15  0.00000000000E+00 -0.35527136788E-14  0.91188000000E+02  0.91188000000E+02 0.  0.
    9900012    2    3    3    0    0  0.85323941241E+00  0.31358365089E+02  0.19279649809E+02  0.54367082367E+02  0.39999995872E+02 0.  0.
        -12    1    3    3    0    0 -0.85323941241E+00 -0.31358365089E+02 -0.19279649809E+02  0.36820917633E+02  0.00000000000E+00 0.  1.
         11    1    4    4    0    0 -0.18189945841E+01  0.12698687823E+02 -0.52269759542E+01  0.13852317193E+02  0.51100000000E-03 0. -1.
        -11    1    4    4    0    0 -0.73253199409E+01  0.10561397459E+01  0.17653027162E+02  0.19141711304E+02  0.51100000000E-03 0.  1.
        -12    1    4    4    0    0  0.99975539374E+01  0.17603537521E+02  0.68535986012E+01  0.21373053871E+02  0.00000000000E+00 0.  1.
</event>
<event>
 8    1  0.2497772E-006  0.9118800E+02  0.7816164E-02  0.1184000E+00
        -11   -1    0    0    0    0  0.00000000000E+00  0.00000000000E+00  0.45593999997E+02  0.45594000000E+02  0.51100000000E-03 0. -1.
         11   -1    0    0    0    0 -0.00000000000E+00 -0.00000000000E+00 -0.45593999997E+02  0.45594000000E+02  0.51100000000E-03 0.  1.
         23    2    1    2    0    0  0.00000000000E+00  0.00000000000E+00  0.88817841970E-15  0.91188000000E+02  0.91188000000E+02 0.  0.
    9900012    2    3    3    0    0  0.35667505972E+02 -0.87916515536E+01 -0.25130285631E+01  0.54367089747E+02  0.40000012696E+02 0.  0.
        -12    1    3    3    0    0 -0.35667505972E+02  0.87916515536E+01  0.25130285631E+01  0.36820910253E+02  0.00000000000E+00 0.  1.
         11    1    4    4    0    0  0.77179525731E+01  0.84987518822E+01  0.12141907809E+01  0.11544255497E+02  0.51100000000E-03 0. -1.
        -11    1    4    4    0    0  0.15095024303E+02 -0.19784324437E+02 -0.11693458831E+02  0.27495749341E+02  0.51100000000E-03 0.  1.
         12    1    4    4    0    0  0.12854529096E+02  0.24939210010E+01  0.79662394871E+01  0.15327084909E+02  0.00000000000E+00 0. -1.
</event>
<event>
 8    1  0.2497772E-006  0.9118800E+02  0.7816164E-02  0.1184000E+00
        -11   -1    0    0    0    0  0.00000000000E+00  0.00000000000E+00  0.45593999997E+02  0.45594000000E+02  0.51100000000E-03 0.  1.
         11   -1    0    0    0    0 -0.00000000000E+00 -0.00000000000E+00 -0.45593999997E+02  0.45594000000E+02  0.51100000000E-03 0. -1.
         23    2    1    2    0    0  0.00000000000E+00  0.00000000000E+00  0.00000000000E+00  0.91188000000E+02  0.91188000000E+02 0.  0.
    9900012    2    3    3    0    0 -0.31717143414E+02  0.16031978301E+02  0.96321177783E+01  0.54367092794E+02  0.40000019643E+02 0.  0.
         12    1    3    3    0    0  0.31717143414E+02 -0.16031978301E+02 -0.96321177783E+01  0.36820907206E+02  0.00000000000E+00 0. -1.
         11    1    4    4    0    0 -0.87157624656E+01 -0.14284757570E+01 -0.77418502030E+01  0.11744841556E+02  0.51100000000E-03 0. -1.
        -11    1    4    4    0    0 -0.85713445190E+01  0.12845106973E+02  0.21912279967E+02  0.26806953083E+02  0.51100000000E-03 0.  1.
        -12    1    4    4    0    0 -0.14430036429E+02  0.46153470854E+01 -0.45383119852E+01  0.15815298155E+02  0.00000000000E+00 0.  1.
</event>
<event>
 8    1  0.2497772E-006  0.9118800E+02  0.7816164E-02  0.1184000E+00
        -11   -1    0    0    0    0  0.00000000000E+00  0.00000000000E+00  0.45593999997E+02  0.45594000000E+02  0.51100000000E-03 0.  1.
         11   -1    0    0    0    0 -0.00000000000E+00 -0.00000000000E+00 -0.45593999997E+02  0.45594000000E+02  0.51100000000E-03 0. -1.
         23    2    1    2    0    0  0.17763568394E-14 -0.77715611724E-15  0.00000000000E+00  0.91188000000E+02  0.91188000000E+02 0.  0.
    9900012    2    3    3    0    0  0.90045076479E+01 -0.31441262827E+00 -0.35701543517E+02  0.54367079007E+02  0.39999988212E+02 0.  0.
        -12    1    3    3    0    0 -0.90045076479E+01  0.31441262827E+00  0.35701543517E+02  0.36820920993E+02  0.00000000000E+00 0.  1.
         11    1    4    4    0    0  0.26237266421E+01 -0.60441598823E+01 -0.11883197862E+02  0.13587722468E+02  0.51100000000E-03 0. -1.
        -11    1    4    4    0    0  0.18963680111E+02 -0.35983102064E+00 -0.15640085632E+02  0.24583793860E+02  0.51100000000E-03 0.  1.
         12    1    4    4    0    0 -0.12582899106E+02  0.60895782747E+01 -0.81782600236E+01  0.16195562679E+02  0.00000000000E+00 0. -1.
</event>
<event>
 8    1  0.2497772E-006  0.9118800E+02  0.7816164E-02  0.1184000E+00
        -11   -1    0    0    0    0  0.00000000000E+00  0.00000000000E+00  0.45593999997E+02  0.45594000000E+02  0.51100000000E-03 0.  1.
         11   -1    0    0    0    0 -0.00000000000E+00 -0.00000000000E+00 -0.45593999997E+02  0.45594000000E+02  0.51100000000E-03 0. -1.
         23    2    1    2    0    0  0.17763568394E-14 -0.35527136788E-14  0.35527136788E-14  0.91188000000E+02  0.91188000000E+02 0.  0.
    9900012    2    3    3    0    0 -0.10235775333E+02 -0.18059219300E+02  0.30411647967E+02  0.54367152231E+02  0.40000155140E+02 0.  0.
         12    1    3    3    0    0  0.10235775333E+02  0.18059219300E+02 -0.30411647967E+02  0.36820847769E+02  0.00000000000E+00 0. -1.
         11    1    4    4    0    0  0.52915019248E+01 -0.12212675103E+02  0.95569605689E+01  0.16385509494E+02  0.51100000000E-03 0. -1.
        -11    1    4    4    0    0 -0.22430424582E+02 -0.86456652409E+01  0.13780471855E+02  0.27708714860E+02  0.51100000000E-03 0.  1.
         12    1    4    4    0    0  0.69031473242E+01  0.27991210447E+01  0.70742155434E+01  0.10272927877E+02  0.00000000000E+00 0. -1.
</event>
<event>
 8    1  0.2497772E-006  0.9118800E+02  0.7816164E-02  0.1184000E+00
        -11   -1    0    0    0    0  0.00000000000E+00  0.00000000000E+00  0.45593999997E+02  0.45594000000E+02  0.51100000000E-03 0. -1.
         11   -1    0    0    0    0 -0.00000000000E+00 -0.00000000000E+00 -0.45593999997E+02  0.45594000000E+02  0.51100000000E-03 0.  1.
         23    2    1    2    0    0 -0.44408920985E-15  0.88817841970E-15  0.71054273576E-14  0.91188000000E+02  0.91188000000E+02 0.  0.
    9900012    2    3    3    0    0 -0.11989554098E+01 -0.59003886521E+01 -0.36325291690E+02  0.54367097014E+02  0.40000029264E+02 0.  0.
         12    1    3    3    0    0  0.11989554098E+01  0.59003886521E+01  0.36325291690E+02  0.36820902986E+02  0.00000000000E+00 0. -1.
         11    1    4    4    0    0 -0.12454498772E+02  0.12997804625E+01 -0.79769000733E+01  0.14847050345E+02  0.51100000000E-03 0. -1.
        -11    1    4    4    0    0  0.77626470415E+00 -0.70176475540E+01 -0.28166148437E+02  0.29037594289E+02  0.51100000000E-03 0.  1.
         12    1    4    4    0    0  0.10479278658E+02 -0.18252156069E+00 -0.18224317963E+00  0.10482452380E+02  0.00000000000E+00 0. -1.
</event>
<event>
 8    1  0.2497772E-006  0.9118800E+02  0.7816164E-02  0.1184000E+00
        -11   -1    0    0    0    0  0.00000000000E+00  0.00000000000E+00  0.45593999997E+02  0.45594000000E+02  0.51100000000E-03 0. -1.
         11   -1    0    0    0    0 -0.00000000000E+00 -0.00000000000E+00 -0.45593999997E+02  0.45594000000E+02  0.51100000000E-03 0.  1.
         23    2    1    2    0    0  0.00000000000E+00 -0.22204460493E-15  0.00000000000E+00  0.91188000000E+02  0.91188000000E+02 0.  0.
    9900012    2    3    3    0    0 -0.35738729409E+02 -0.34501490327E+00 -0.88545856875E+01  0.54367088785E+02  0.40000010503E+02 0.  0.
         12    1    3    3    0    0  0.35738729409E+02  0.34501490327E+00  0.88545856875E+01  0.36820911215E+02  0.00000000000E+00 0. -1.
         11    1    4    4    0    0 -0.35884277040E+00 -0.94735189872E+01 -0.38074947964E+01  0.10216327472E+02  0.51100000000E-03 0. -1.
        -11    1    4    4    0    0 -0.27536880551E+02  0.47609791889E+01 -0.14186351415E+02  0.31340058712E+02  0.51100000000E-03 0.  1.
         12    1    4    4    0    0 -0.78430060875E+01  0.43675248950E+01  0.91392605243E+01  0.12810702601E+02  0.00000000000E+00 0. -1.
</event>
<event>
 8    1  0.2497772E-006  0.9118800E+02  0.7816164E-02  0.1184000E+00
        -11   -1    0    0    0    0  0.00000000000E+00  0.00000000000E+00  0.45593999997E+02  0.45594000000E+02  0.51100000000E-03 0. -1.
         11   -1    0    0    0    0 -0.00000000000E+00 -0.00000000000E+00 -0.45593999997E+02  0.45594000000E+02  0.51100000000E-03 0.  1.
         23    2    1    2    0    0 -0.35527136788E-14  0.35527136788E-14  0.35527136788E-14  0.91188000000E+02  0.91188000000E+02 0.  0.
    9900012    2    3    3    0    0  0.18637935189E+02 -0.21319219622E+02 -0.23535139509E+02  0.54367020313E+02  0.39999854407E+02 0.  0.
         12    1    3    3    0    0 -0.18637935189E+02  0.21319219622E+02  0.23535139509E+02  0.36820979687E+02  0.00000000000E+00 0. -1.
         11    1    4    4    0    0  0.11504041204E+02 -0.39858460465E+01  0.90997763116E+01  0.15199863878E+02  0.51100000000E-03 0. -1.
        -11    1    4    4    0    0 -0.29088020732E+01 -0.42038923961E+01 -0.71015747472E+01  0.87502117077E+01  0.51100000000E-03 0.  1.
        -12    1    4    4    0    0  0.10042696058E+02 -0.13129481179E+02 -0.25533341074E+02  0.30416944727E+02  0.00000000000E+00 0.  1.
</event>
<event>
 8    1  0.2497772E-006  0.9118800E+02  0.7816164E-02  0.1184000E+00
        -11   -1    0    0    0    0  0.00000000000E+00  0.00000000000E+00  0.45593999997E+02  0.45594000000E+02  0.51100000000E-03 0.  1.
         11   -1    0    0    0    0 -0.00000000000E+00 -0.00000000000E+00 -0.45593999997E+02  0.45594000000E+02  0.51100000000E-03 0. -1.
         23    2    1    2    0    0  0.17763568394E-14  0.00000000000E+00  0.00000000000E+00  0.91188000000E+02  0.91188000000E+02 0.  0.
    9900012    2    3    3    0    0  0.93112135767E+01  0.70509366970E+01  0.34919437488E+02  0.54367061377E+02  0.39999948021E+02 0.  0.
         12    1    3    3    0    0 -0.93112135767E+01 -0.70509366970E+01 -0.34919437488E+02  0.36820938623E+02  0.00000000000E+00 0. -1.
         11    1    4    4    0    0  0.37406903395E+01 -0.15500852176E+01 -0.53829962584E+01  0.67358872746E+01  0.51100000000E-03 0. -1.
        -11    1    4    4    0    0 -0.43440128857E+01  0.40247185629E+01  0.48150931869E-01  0.59220879962E+01  0.51100000000E-03 0.  1.
        -12    1    4    4    0    0  0.99145361228E+01  0.45763033517E+01  0.40254282815E+02  0.41709086106E+02  0.00000000000E+00 0.  1.
</event>
<event>
 8    1  0.2497772E-006  0.9118800E+02  0.7816164E-02  0.1184000E+00
        -11   -1    0    0    0    0  0.00000000000E+00  0.00000000000E+00  0.45593999997E+02  0.45594000000E+02  0.51100000000E-03 0.  1.
         11   -1    0    0    0    0 -0.00000000000E+00 -0.00000000000E+00 -0.45593999997E+02  0.45594000000E+02  0.51100000000E-03 0. -1.
         23    2    1    2    0    0 -0.35527136788E-14 -0.13322676296E-14  0.00000000000E+00  0.91188000000E+02  0.91188000000E+02 0.  0.
    9900012    2    3    3    0    0  0.16400431994E+02  0.21193590177E+01 -0.32898538769E+02  0.54367086033E+02  0.40000004230E+02 0.  0.
        -12    1    3    3    0    0 -0.16400431994E+02 -0.21193590177E+01  0.32898538769E+02  0.36820913967E+02  0.00000000000E+00 0.  1.
         11    1    4    4    0    0  0.12039771133E+02  0.13419092070E+02 -0.12214212332E+02  0.21776480525E+02  0.51100000000E-03 0. -1.
        -11    1    4    4    0    0  0.63507044514E+01 -0.28214588588E+01  0.28391388248E+01  0.75068493157E+01  0.51100000000E-03 0.  1.
         12    1    4    4    0    0 -0.19900435910E+01 -0.84782741931E+01 -0.23523465262E+02  0.25083756192E+02  0.00000000000E+00 0. -1.
</event>
<event>
 8    1  0.2497772E-006  0.9118800E+02  0.7816164E-02  0.1184000E+00
        -11   -1    0    0    0    0  0.00000000000E+00  0.00000000000E+00  0.45593999997E+02  0.45594000000E+02  0.51100000000E-03 0. -1.
         11   -1    0    0    0    0 -0.00000000000E+00 -0.00000000000E+00 -0.45593999997E+02  0.45594000000E+02  0.51100000000E-03 0.  1.
         23    2    1    2    0    0  0.35527136788E-14 -0.10658141036E-13  0.35527136788E-14  0.91188000000E+02  0.91188000000E+02 0.  0.
    9900012    2    3    3    0    0 -0.26326295653E+02  0.19959442004E+02 -0.16258136627E+02  0.54367079663E+02  0.39999989708E+02 0.  0.
         12    1    3    3    0    0  0.26326295653E+02 -0.19959442004E+02  0.16258136627E+02  0.36820920337E+02  0.00000000000E+00 0. -1.
         11    1    4    4    0    0 -0.82788307221E+01 -0.20450999789E+01 -0.13268469507E+02  0.15772563373E+02  0.51100000000E-03 0. -1.
        -11    1    4    4    0    0 -0.20030793553E+01 -0.58537418383E+01 -0.17184905520E+01  0.64212016361E+01  0.51100000000E-03 0.  1.
        -12    1    4    4    0    0 -0.16044385575E+02  0.27858283821E+02 -0.12711765676E+01  0.32173314654E+02  0.00000000000E+00 0.  1.
</event>
<event>
 8    1  0.2497772E-006  0.9118800E+02  0.7816164E-02  0.1184000E+00
        -11   -1    0    0    0    0  0.00000000000E+00  0.00000000000E+00  0.45593999997E+02  0.45594000000E+02  0.51100000000E-03 0. -1.
         11   -1    0    0    0    0 -0.00000000000E+00 -0.00000000000E+00 -0.45593999997E+02  0.45594000000E+02  0.51100000000E-03 0.  1.
         23    2    1    2    0    0  0.71054273576E-14  0.44408920985E-15  0.12212453271E-14  0.91188000000E+02  0.91188000000E+02 0.  0.
    9900012    2    3    3    0    0 -0.36780098055E+02  0.16480899630E+01 -0.54161890947E+00  0.54367011902E+02  0.39999835233E+02 0.  0.
         12    1    3    3    0    0  0.36780098055E+02 -0.16480899630E+01  0.54161890947E+00  0.36820988098E+02  0.00000000000E+00 0. -1.
         11    1    4    4    0    0 -0.55630603077E+01 -0.54926685965E+01  0.93315388315E+00  0.78732347055E+01  0.51100000000E-03 0. -1.
        -11    1    4    4    0    0 -0.12440339521E+02 -0.77054130653E+01 -0.13318751060E+02  0.19786979758E+02  0.51100000000E-03 0.  1.
         12    1    4    4    0    0 -0.18776698227E+02  0.14846171625E+02  0.11843978267E+02  0.26706797438E+02  0.00000000000E+00 0. -1.
</event>
<event>
 8    1  0.2497772E-006  0.9118800E+02  0.7816164E-02  0.1184000E+00
        -11   -1    0    0    0    0  0.00000000000E+00  0.00000000000E+00  0.45593999997E+02  0.45594000000E+02  0.51100000000E-03 0.  1.
         11   -1    0    0    0    0 -0.00000000000E+00 -0.00000000000E+00 -0.45593999997E+02  0.45594000000E+02  0.51100000000E-03 0. -1.
         23    2    1    2    0    0 -0.26645352591E-14 -0.35527136788E-14 -0.35527136788E-14  0.91188000000E+02  0.91188000000E+02 0.  0.
    9900012    2    3    3    0    0 -0.51552385818E+01 -0.19128301745E+02 -0.31037265700E+02  0.54367078303E+02  0.39999986608E+02 0.  0.
        -12    1    3    3    0    0  0.51552385818E+01  0.19128301745E+02  0.31037265700E+02  0.36820921697E+02  0.00000000000E+00 0.  1.
         11    1    4    4    0    0  0.80709648031E+01  0.74123948707E+01 -0.26748380576E+01  0.11280019037E+02  0.51100000000E-03 0.  1.
        -11    1    4    4    0    0 -0.84248208117E+01 -0.73568814155E+01 -0.44023227190E+01  0.12020056383E+02  0.51100000000E-03 0. -1.
         12    1    4    4    0    0 -0.48013825732E+01 -0.19183815200E+02 -0.23960104923E+02  0.31067002884E+02  0.00000000000E+00 0. -1.
</event>
<event>
 8    1  0.2497772E-006  0.9118800E+02  0.7816164E-02  0.1184000E+00
        -11   -1    0    0    0    0  0.00000000000E+00  0.00000000000E+00  0.45593999997E+02  0.45594000000E+02  0.51100000000E-03 0. -1.
         11   -1    0    0    0    0 -0.00000000000E+00 -0.00000000000E+00 -0.45593999997E+02  0.45594000000E+02  0.51100000000E-03 0.  1.
         23    2    1    2    0    0  0.00000000000E+00  0.00000000000E+00 -0.35527136788E-14  0.91188000000E+02  0.91188000000E+02 0.  0.
    9900012    2    3    3    0    0 -0.11554633640E+02  0.32010071566E+02  0.14057992565E+02  0.54367063087E+02  0.39999951919E+02 0.  0.
        -12    1    3    3    0    0  0.11554633640E+02 -0.32010071566E+02 -0.14057992565E+02  0.36820936913E+02  0.00000000000E+00 0.  1.
         11    1    4    4    0    0 -0.11983688580E+02  0.11735662133E+02 -0.65024099154E+01  0.17989327187E+02  0.51100000000E-03 0. -1.
        -11    1    4    4    0    0  0.25868240182E+01  0.18424997540E+01 -0.43055854860E+01  0.53501897614E+01  0.51100000000E-03 0.  1.
         12    1    4    4    0    0 -0.21577690778E+01  0.18431909680E+02  0.24865987966E+02  0.31027546138E+02  0.00000000000E+00 0. -1.
</event>
<event>
 8    1  0.2497772E-006  0.9118800E+02  0.7816164E-02  0.1184000E+00
        -11   -1    0    0    0    0  0.00000000000E+00  0.00000000000E+00  0.45593999997E+02  0.45594000000E+02  0.51100000000E-03 0.  1.
         11   -1    0    0    0    0 -0.00000000000E+00 -0.00000000000E+00 -0.45593999997E+02  0.45594000000E+02  0.51100000000E-03 0. -1.
         23    2    1    2    0    0  0.00000000000E+00 -0.35527136788E-14  0.00000000000E+00  0.91188000000E+02  0.91188000000E+02 0.  0.
    9900012    2    3    3    0    0 -0.21703606065E+02  0.22382179092E+02 -0.19590086022E+02  0.54367083017E+02  0.39999997354E+02 0.  0.
        -12    1    3    3    0    0  0.21703606065E+02 -0.22382179092E+02  0.19590086022E+02  0.36820916983E+02  0.00000000000E+00 0.  1.
         11    1    4    4    0    0 -0.15550951005E+02  0.84100592339E+01 -0.70987492307E+01  0.19051336289E+02  0.51100000000E-03 0. -1.
        -11    1    4    4    0    0 -0.66021445778E+01 -0.66155502262E+01  0.26972183038E+01  0.97277337885E+01  0.51100000000E-03 0.  1.
         12    1    4    4    0    0  0.44948951818E+00  0.20587670084E+02 -0.15188555095E+02  0.25588012940E+02  0.00000000000E+00 0. -1.
</event>
<event>
 8    1  0.2497772E-006  0.9118800E+02  0.7816164E-02  0.1184000E+00
        -11   -1    0    0    0    0  0.00000000000E+00  0.00000000000E+00  0.45593999997E+02  0.45594000000E+02  0.51100000000E-03 0.  1.
         11   -1    0    0    0    0 -0.00000000000E+00 -0.00000000000E+00 -0.45593999997E+02  0.45594000000E+02  0.51100000000E-03 0. -1.
         23    2    1    2    0    0  0.00000000000E+00  0.00000000000E+00  0.00000000000E+00  0.91188000000E+02  0.91188000000E+02 0.  0.
    9900012    2    3    3    0    0  0.33466448906E+02 -0.12224480913E+02 -0.92918689689E+01  0.54367082508E+02  0.39999996194E+02 0.  0.
        -12    1    3    3    0    0 -0.33466448906E+02  0.12224480913E+02  0.92918689689E+01  0.36820917492E+02  0.00000000000E+00 0.  1.
         11    1    4    4    0    0  0.22583351983E+02  0.16196335595E+00  0.12457624777E+01  0.22618265701E+02  0.51100000000E-03 0. -1.
        -11    1    4    4    0    0  0.61625580237E+01 -0.23419324101E+01 -0.17463643195E+02  0.18666563763E+02  0.51100000000E-03 0.  1.
        -12    1    4    4    0    0  0.47205388995E+01 -0.10044511858E+02  0.69260117483E+01  0.13082253044E+02  0.00000000000E+00 0.  1.
</event>
<event>
 8    1  0.2497772E-006  0.9118800E+02  0.7816164E-02  0.1184000E+00
        -11   -1    0    0    0    0  0.00000000000E+00  0.00000000000E+00  0.45593999997E+02  0.45594000000E+02  0.51100000000E-03 0. -1.
         11   -1    0    0    0    0 -0.00000000000E+00 -0.00000000000E+00 -0.45593999997E+02  0.45594000000E+02  0.51100000000E-03 0.  1.
         23    2    1    2    0    0  0.35527136788E-14  0.00000000000E+00  0.35527136788E-14  0.91188000000E+02  0.91188000000E+02 0.  0.
    9900012    2    3    3    0    0 -0.17019868034E+02  0.24344713761E+02 -0.21758684132E+02  0.54367063956E+02  0.39999953900E+02 0.  0.
         12    1    3    3    0    0  0.17019868034E+02 -0.24344713761E+02  0.21758684132E+02  0.36820936044E+02  0.00000000000E+00 0. -1.
         11    1    4    4    0    0 -0.89866757273E+01 -0.12942538850E+01 -0.48038202941E+00  0.90920955177E+01  0.51100000000E-03 0. -1.
        -11    1    4    4    0    0  0.86443223822E+01  0.10967145544E+02  0.75944352831E+00  0.13984968558E+02  0.51100000000E-03 0.  1.
         12    1    4    4    0    0 -0.16677514689E+02  0.14671822102E+02 -0.22037745631E+02  0.31289999880E+02  0.00000000000E+00 0. -1.
</event>
<event>
 8    1  0.2497772E-006  0.9118800E+02  0.7816164E-02  0.1184000E+00
        -11   -1    0    0    0    0  0.00000000000E+00  0.00000000000E+00  0.45593999997E+02  0.45594000000E+02  0.51100000000E-03 0.  1.
         11   -1    0    0    0    0 -0.00000000000E+00 -0.00000000000E+00 -0.45593999997E+02  0.45594000000E+02  0.51100000000E-03 0. -1.
         23    2    1    2    0    0  0.00000000000E+00  0.00000000000E+00  0.00000000000E+00  0.91188000000E+02  0.91188000000E+02 0.  0.
    9900012    2    3    3    0    0  0.87823099251E+01 -0.21653141632E+02  0.28456853373E+02  0.54367081841E+02  0.39999994673E+02 0.  0.
         12    1    3    3    0    0 -0.87823099251E+01  0.21653141632E+02 -0.28456853373E+02  0.36820918159E+02  0.00000000000E+00 0. -1.
         11    1    4    4    0    0  0.11548111799E+02 -0.35712416409E+01 -0.61873952276E+01  0.13579267761E+02  0.51100000000E-03 0. -1.
        -11    1    4    4    0    0  0.26795961162E+01 -0.89987314628E+01  0.24006108265E+02  0.25776940035E+02  0.51100000000E-03 0.  1.
        -12    1    4    4    0    0 -0.54453979896E+01 -0.90831685283E+01  0.10638140335E+02  0.15010874044E+02  0.00000000000E+00 0.  1.
</event>
<event>
 8    1  0.2497772E-006  0.9118800E+02  0.7816164E-02  0.1184000E+00
        -11   -1    0    0    0    0  0.00000000000E+00  0.00000000000E+00  0.45593999997E+02  0.45594000000E+02  0.51100000000E-03 0.  1.
         11   -1    0    0    0    0 -0.00000000000E+00 -0.00000000000E+00 -0.45593999997E+02  0.45594000000E+02  0.51100000000E-03 0. -1.
         23    2    1    2    0    0  0.00000000000E+00  0.00000000000E+00  0.00000000000E+00  0.91188000000E+02  0.91188000000E+02 0.  0.
    9900012    2    3    3    0    0  0.10202622638E+02  0.33734069689E+02  0.10663035553E+02  0.54367064465E+02  0.39999955060E+02 0.  0.
         12    1    3    3    0    0 -0.10202622638E+02 -0.33734069689E+02 -0.10663035553E+02  0.36820935535E+02  0.00000000000E+00 0. -1.
         11    1    4    4    0    0  0.97003983187E+00  0.31662956652E+02  0.27247510399E+01  0.31794780542E+02  0.51100000000E-03 0. -1.
        -11    1    4    4    0    0  0.68246514345E+00  0.92329618329E+01  0.65323294338E+01  0.11330695962E+02  0.51100000000E-03 0.  1.
         12    1    4    4    0    0  0.85501176625E+01 -0.71618487955E+01  0.14059550796E+01  0.11241587962E+02  0.00000000000E+00 0. -1.
</event>
<event>
 8    1  0.2497772E-006  0.9118800E+02  0.7816164E-02  0.1184000E+00
        -11   -1    0    0    0    0  0.00000000000E+00  0.00000000000E+00  0.45593999997E+02  0.45594000000E+02  0.51100000000E-03 0.  1.
         11   -1    0    0    0    0 -0.00000000000E+00 -0.00000000000E+00 -0.45593999997E+02  0.45594000000E+02  0.51100000000E-03 0. -1.
         23    2    1    2    0    0  0.00000000000E+00  0.88817841970E-15  0.00000000000E+00  0.91188000000E+02  0.91188000000E+02 0.  0.
    9900012    2    3    3    0    0  0.23874614272E+02 -0.59078044987E+01  0.27402173872E+02  0.54367102488E+02  0.40000041743E+02 0.  0.
         12    1    3    3    0    0 -0.23874614272E+02  0.59078044987E+01 -0.27402173872E+02  0.36820897512E+02  0.00000000000E+00 0. -1.
         11    1    4    4    0    0  0.21861629825E+02 -0.85153941272E+01  0.14950321358E+02  0.27820045016E+02  0.51100000000E-03 0. -1.
        -11    1    4    4    0    0  0.64173897281E+01 -0.75299398464E+01  0.11906609595E+02  0.15480640727E+02  0.51100000000E-03 0.  1.
         12    1    4    4    0    0 -0.44044052813E+01  0.10137529475E+02  0.54524291961E+00  0.11066416745E+02  0.00000000000E+00 0. -1.
</event>
<event>
 8    1  0.2497772E-006  0.9118800E+02  0.7816164E-02  0.1184000E+00
        -11   -1    0    0    0    0  0.00000000000E+00  0.00000000000E+00  0.45593999997E+02  0.45594000000E+02  0.51100000000E-03 0.  1.
         11   -1    0    0    0    0 -0.00000000000E+00 -0.00000000000E+00 -0.45593999997E+02  0.45594000000E+02  0.51100000000E-03 0. -1.
         23    2    1    2    0    0 -0.35527136788E-14  0.35527136788E-14 -0.35527136788E-14  0.91188000000E+02  0.91188000000E+02 0.  0.
    9900012    2    3    3    0    0 -0.14830107047E+02 -0.21279002660E+02  0.26135230102E+02  0.54367105365E+02  0.40000048302E+02 0.  0.
         12    1    3    3    0    0  0.14830107047E+02  0.21279002660E+02 -0.26135230102E+02  0.36820894635E+02  0.00000000000E+00 0. -1.
         11    1    4    4    0    0 -0.83268260347E+01 -0.25237992160E+02  0.15671496283E+02  0.30852683451E+02  0.51100000000E-03 0. -1.
        -11    1    4    4    0    0  0.35101151295E+01 -0.59028448191E+01  0.47119103813E+01  0.83286604495E+01  0.51100000000E-03 0.  1.
        -12    1    4    4    0    0 -0.10013396141E+02  0.98618343193E+01  0.57518234372E+01  0.15185761465E+02  0.00000000000E+00 0.  1.
</event>
<event>
 8    1  0.2497772E-006  0.9118800E+02  0.7816164E-02  0.1184000E+00
        -11   -1    0    0    0    0  0.00000000000E+00  0.00000000000E+00  0.45593999997E+02  0.45594000000E+02  0.51100000000E-03 0.  1.
         11   -1    0    0    0    0 -0.00000000000E+00 -0.00000000000E+00 -0.45593999997E+02  0.45594000000E+02  0.51100000000E-03 0. -1.
         23    2    1    2    0    0  0.00000000000E+00 -0.35527136788E-14 -0.17763568394E-14  0.91188000000E+02  0.91188000000E+02 0.  0.
    9900012    2    3    3    0    0  0.13775026911E+02 -0.30356221367E+02 -0.15637374437E+02  0.54367095321E+02  0.40000025404E+02 0.  0.
        -12    1    3    3    0    0 -0.13775026911E+02  0.30356221367E+02  0.15637374437E+02  0.36820904679E+02  0.00000000000E+00 0.  1.
         11    1    4    4    0    0 -0.25432539895E+00  0.44010615095E+01 -0.75427399280E+01  0.87365296143E+01  0.51100000000E-03 0.  1.
        -11    1    4    4    0    0  0.99496218859E+01 -0.34429895498E+02 -0.13974174389E+02  0.38466741866E+02  0.51100000000E-03 0. -1.
        -12    1    4    4    0    0  0.40797304237E+01 -0.32738737818E+00  0.58795398798E+01  0.71638238409E+01  0.00000000000E+00 0.  1.
</event>
<event>
 8    1  0.2497772E-006  0.9118800E+02  0.7816164E-02  0.1184000E+00
        -11   -1    0    0    0    0  0.00000000000E+00  0.00000000000E+00  0.45593999997E+02  0.45594000000E+02  0.51100000000E-03 0. -1.
         11   -1    0    0    0    0 -0.00000000000E+00 -0.00000000000E+00 -0.45593999997E+02  0.45594000000E+02  0.51100000000E-03 0.  1.
         23    2    1    2    0    0  0.88817841970E-15  0.00000000000E+00  0.00000000000E+00  0.91188000000E+02  0.91188000000E+02 0.  0.
    9900012    2    3    3    0    0  0.51352494062E+01  0.31678419446E+02 -0.18052389952E+02  0.54367057209E+02  0.39999938518E+02 0.  0.
        -12    1    3    3    0    0 -0.51352494062E+01 -0.31678419446E+02  0.18052389952E+02  0.36820942791E+02  0.00000000000E+00 0.  1.
         11    1    4    4    0    0  0.15289902078E+02  0.23337871646E+02 -0.89824124706E+01  0.29310767519E+02  0.51100000000E-03 0. -1.
        -11    1    4    4    0    0 -0.69452841459E+01  0.12974625364E+02 -0.40871548039E+00  0.14722259467E+02  0.51100000000E-03 0.  1.
        -12    1    4    4    0    0 -0.32093685254E+01 -0.46340775636E+01 -0.86612620012E+01  0.10334030223E+02  0.00000000000E+00 0.  1.
</event>
<event>
 8    1  0.2497772E-006  0.9118800E+02  0.7816164E-02  0.1184000E+00
        -11   -1    0    0    0    0  0.00000000000E+00  0.00000000000E+00  0.45593999997E+02  0.45594000000E+02  0.51100000000E-03 0.  1.
         11   -1    0    0    0    0 -0.00000000000E+00 -0.00000000000E+00 -0.45593999997E+02  0.45594000000E+02  0.51100000000E-03 0. -1.
         23    2    1    2    0    0 -0.88817841970E-15  0.00000000000E+00  0.00000000000E+00  0.91188000000E+02  0.91188000000E+02 0.  0.
    9900012    2    3    3    0    0  0.51821947634E+01 -0.24969049974E+02  0.26560692930E+02  0.54367095502E+02  0.40000025815E+02 0.  0.
         12    1    3    3    0    0 -0.51821947634E+01  0.24969049974E+02 -0.26560692930E+02  0.36820904498E+02  0.00000000000E+00 0. -1.
         11    1    4    4    0    0  0.18488500497E+02 -0.11852338758E+02  0.10995777066E+02  0.24560327730E+02  0.51100000000E-03 0. -1.
        -11    1    4    4    0    0  0.13666937201E+01 -0.10346015419E+02  0.54726181960E+01  0.11783778552E+02  0.51100000000E-03 0.  1.
        -12    1    4    4    0    0 -0.14672999454E+02 -0.27706957972E+01  0.10092297668E+02  0.18022989219E+02  0.00000000000E+00 0.  1.
</event>
<event>
 8    1  0.2497772E-006  0.9118800E+02  0.7816164E-02  0.1184000E+00
        -11   -1    0    0    0    0  0.00000000000E+00  0.00000000000E+00  0.45593999997E+02  0.45594000000E+02  0.51100000000E-03 0.  1.
         11   -1    0    0    0    0 -0.00000000000E+00 -0.00000000000E+00 -0.45593999997E+02  0.45594000000E+02  0.51100000000E-03 0. -1.
         23    2    1    2    0    0  0.00000000000E+00  0.00000000000E+00  0.00000000000E+00  0.91188000000E+02  0.91188000000E+02 0.  0.
    9900012    2    3    3    0    0  0.10959254765E+02  0.23511798481E+02  0.26131791506E+02  0.54367075784E+02  0.39999980864E+02 0.  0.
         12    1    3    3    0    0 -0.10959254765E+02 -0.23511798481E+02 -0.26131791506E+02  0.36820924216E+02  0.00000000000E+00 0. -1.
         11    1    4    4    0    0  0.16961391145E+02  0.19907025589E+01  0.12327144955E+02  0.21062055675E+02  0.51100000000E-03 0.  1.
        -11    1    4    4    0    0 -0.68987358869E+01 -0.11704014120E+01  0.62214302293E+01  0.93631506802E+01  0.51100000000E-03 0. -1.
         12    1    4    4    0    0  0.89659950716E+00  0.22691497335E+02  0.75832163221E+01  0.23941869429E+02  0.00000000000E+00 0. -1.
</event>
<event>
 8    1  0.2497772E-006  0.9118800E+02  0.7816164E-02  0.1184000E+00
        -11   -1    0    0    0    0  0.00000000000E+00  0.00000000000E+00  0.45593999997E+02  0.45594000000E+02  0.51100000000E-03 0. -1.
         11   -1    0    0    0    0 -0.00000000000E+00 -0.00000000000E+00 -0.45593999997E+02  0.45594000000E+02  0.51100000000E-03 0.  1.
         23    2    1    2    0    0  0.00000000000E+00  0.26645352591E-14  0.00000000000E+00  0.91188000000E+02  0.91188000000E+02 0.  0.
    9900012    2    3    3    0    0  0.34683544618E+02  0.49491974890E+01  0.11328570396E+02  0.54367091126E+02  0.40000015840E+02 0.  0.
        -12    1    3    3    0    0 -0.34683544618E+02 -0.49491974890E+01 -0.11328570396E+02  0.36820908874E+02  0.00000000000E+00 0.  1.
         11    1    4    4    0    0  0.17446959194E+01 -0.53213566569E+01  0.12005262786E+02  0.13247155746E+02  0.51100000000E-03 0. -1.
        -11    1    4    4    0    0  0.14987460593E+02  0.15150895436E+02 -0.52804379685E+01  0.21955788141E+02  0.51100000000E-03 0.  1.
         12    1    4    4    0    0  0.17951388106E+02 -0.48803412897E+01  0.46037455784E+01  0.19164147239E+02  0.00000000000E+00 0. -1.
</event>
<event>
 8    1  0.2497772E-006  0.9118800E+02  0.7816164E-02  0.1184000E+00
        -11   -1    0    0    0    0  0.00000000000E+00  0.00000000000E+00  0.45593999997E+02  0.45594000000E+02  0.51100000000E-03 0.  1.
         11   -1    0    0    0    0 -0.00000000000E+00 -0.00000000000E+00 -0.45593999997E+02  0.45594000000E+02  0.51100000000E-03 0. -1.
         23    2    1    2    0    0  0.00000000000E+00  0.00000000000E+00  0.00000000000E+00  0.91188000000E+02  0.91188000000E+02 0.  0.
    9900012    2    3    3    0    0  0.11380614151E+02 -0.17269455146E+02  0.30463515537E+02  0.54367105954E+02  0.40000049643E+02 0.  0.
         12    1    3    3    0    0 -0.11380614151E+02  0.17269455146E+02 -0.30463515537E+02  0.36820894046E+02  0.00000000000E+00 0. -1.
         11    1    4    4    0    0  0.88073531539E+01  0.25965999698E+01  0.12500761089E+02  0.15510668234E+02  0.51100000000E-03 0. -1.
        -11    1    4    4    0    0  0.96270359992E+01 -0.18851208146E+02  0.22111873593E+02  0.30610175183E+02  0.51100000000E-03 0.  1.
         12    1    4    4    0    0 -0.70537750021E+01 -0.10148469693E+01 -0.41491191448E+01  0.82462625370E+01  0.00000000000E+00 0. -1.
</event>
<event>
 8    1  0.2497772E-006  0.9118800E+02  0.7816164E-02  0.1184000E+00
        -11   -1    0    0    0    0  0.00000000000E+00  0.00000000000E+00  0.45593999997E+02  0.45594000000E+02  0.51100000000E-03 0. -1.
         11   -1    0    0    0    0 -0.00000000000E+00 -0.00000000000E+00 -0.45593999997E+02  0.45594000000E+02  0.51100000000E-03 0.  1.
         23    2    1    2    0    0  0.00000000000E+00  0.13322676296E-14  0.71054273576E-14  0.91188000000E+02  0.91188000000E+02 0.  0.
    9900012    2    3    3    0    0  0.11783539886E+02 -0.35047922149E+01 -0.34707988599E+02  0.54367084024E+02  0.39999999649E+02 0.  0.
         12    1    3    3    0    0 -0.11783539886E+02  0.35047922149E+01  0.34707988599E+02  0.36820915976E+02  0.00000000000E+00 0. -1.
         11    1    4    4    0    0  0.10487927234E+02  0.43657223788E+01 -0.54909317284E+01  0.12617705063E+02  0.51100000000E-03 0. -1.
        -11    1    4    4    0    0  0.92463772867E+01 -0.12353562907E+02 -0.55756123098E+01  0.16407116209E+02  0.51100000000E-03 0.  1.
        -12    1    4    4    0    0 -0.79507646340E+01  0.44830483130E+01 -0.23641444561E+02  0.25342262752E+02  0.00000000000E+00 0.  1.
</event>
<event>
 8    1  0.2497772E-006  0.9118800E+02  0.7816164E-02  0.1184000E+00
        -11   -1    0    0    0    0  0.00000000000E+00  0.00000000000E+00  0.45593999997E+02  0.45594000000E+02  0.51100000000E-03 0.  1.
         11   -1    0    0    0    0 -0.00000000000E+00 -0.00000000000E+00 -0.45593999997E+02  0.45594000000E+02  0.51100000000E-03 0. -1.
         23    2    1    2    0    0  0.00000000000E+00 -0.71054273576E-14  0.00000000000E+00  0.91188000000E+02  0.91188000000E+02 0.  0.
    9900012    2    3    3    0    0  0.10934328192E+02  0.33364283346E+02 -0.11092634121E+02  0.54367062099E+02  0.39999949666E+02 0.  0.
        -12    1    3    3    0    0 -0.10934328192E+02 -0.33364283346E+02  0.11092634121E+02  0.36820937901E+02  0.00000000000E+00 0.  1.
         11    1    4    4    0    0  0.79094313068E+01  0.80743387519E+01 -0.11450744087E+02  0.16089549101E+02  0.51100000000E-03 0. -1.
        -11    1    4    4    0    0 -0.83463659190E+01 -0.20625190814E+01 -0.78709155091E+00  0.86333841792E+01  0.51100000000E-03 0.  1.
         12    1    4    4    0    0  0.11371262804E+02  0.27352463675E+02  0.11452015168E+01  0.29644128818E+02  0.00000000000E+00 0. -1.
</event>
<event>
 8    1  0.2497772E-006  0.9118800E+02  0.7816164E-02  0.1184000E+00
        -11   -1    0    0    0    0  0.00000000000E+00  0.00000000000E+00  0.45593999997E+02  0.45594000000E+02  0.51100000000E-03 0. -1.
         11   -1    0    0    0    0 -0.00000000000E+00 -0.00000000000E+00 -0.45593999997E+02  0.45594000000E+02  0.51100000000E-03 0.  1.
         23    2    1    2    0    0  0.00000000000E+00  0.00000000000E+00  0.00000000000E+00  0.91188000000E+02  0.91188000000E+02 0.  0.
    9900012    2    3    3    0    0 -0.18321996536E+02 -0.19018561670E+02 -0.25658842353E+02  0.54367116850E+02  0.40000074483E+02 0.  0.
         12    1    3    3    0    0  0.18321996536E+02  0.19018561670E+02  0.25658842353E+02  0.36820883150E+02  0.00000000000E+00 0. -1.
         11    1    4    4    0    0  0.67369607359E+01  0.64816379429E+01 -0.15599317877E+01  0.94779564160E+01  0.51100000000E-03 0. -1.
        -11    1    4    4    0    0 -0.18424323000E+02 -0.23024354295E+02 -0.14230167373E+02  0.32742544685E+02  0.51100000000E-03 0.  1.
        -12    1    4    4    0    0 -0.66346342714E+01 -0.24758453172E+01 -0.98687431931E+01  0.12146615749E+02  0.00000000000E+00 0.  1.
</event>
<event>
 8    1  0.2497772E-006  0.9118800E+02  0.7816164E-02  0.1184000E+00
        -11   -1    0    0    0    0  0.00000000000E+00  0.00000000000E+00  0.45593999997E+02  0.45594000000E+02  0.51100000000E-03 0.  1.
         11   -1    0    0    0    0 -0.00000000000E+00 -0.00000000000E+00 -0.45593999997E+02  0.45594000000E+02  0.51100000000E-03 0. -1.
         23    2    1    2    0    0 -0.17763568394E-14  0.17763568394E-14  0.71054273576E-14  0.91188000000E+02  0.91188000000E+02 0.  0.
    9900012    2    3    3    0    0  0.10528921702E+02 -0.14233929006E+02 -0.32284805458E+02  0.54367196225E+02  0.40000255433E+02 0.  0.
        -12    1    3    3    0    0 -0.10528921702E+02  0.14233929006E+02  0.32284805458E+02  0.36820803775E+02  0.00000000000E+00 0.  1.
         11    1    4    4    0    0  0.12260934079E+01 -0.47023775076E+01  0.25609538882E+01  0.54930997031E+01  0.51100000000E-03 0. -1.
        -11    1    4    4    0    0 -0.21295277277E+01  0.36661557966E+01  0.42827955930E+01  0.60264355153E+01  0.51100000000E-03 0.  1.
         12    1    4    4    0    0  0.11432356022E+02 -0.13197707295E+02 -0.39128554940E+02  0.42847661006E+02  0.00000000000E+00 0. -1.
</event>
<event>
 8    1  0.2497772E-006  0.9118800E+02  0.7816164E-02  0.1184000E+00
        -11   -1    0    0    0    0  0.00000000000E+00  0.00000000000E+00  0.45593999997E+02  0.45594000000E+02  0.51100000000E-03 0.  1.
         11   -1    0    0    0    0 -0.00000000000E+00 -0.00000000000E+00 -0.45593999997E+02  0.45594000000E+02  0.51100000000E-03 0. -1.
         23    2    1    2    0    0  0.00000000000E+00  0.35527136788E-14  0.00000000000E+00  0.91188000000E+02  0.91188000000E+02 0.  0.
    9900012    2    3    3    0    0 -0.76383358807E+01 -0.12469517381E+02  0.33792705868E+02  0.54367081915E+02  0.39999994842E+02 0.  0.
         12    1    3    3    0    0  0.76383358807E+01  0.12469517381E+02 -0.33792705868E+02  0.36820918085E+02  0.00000000000E+00 0. -1.
         11    1    4    4    0    0  0.53548249465E+01 -0.14216104970E+01  0.11441896132E+02  0.12712675327E+02  0.51100000000E-03 0. -1.
        -11    1    4    4    0    0 -0.72445829814E+01 -0.15636344227E+02  0.27655803675E+02  0.32585621377E+02  0.51100000000E-03 0.  1.
         12    1    4    4    0    0 -0.57485778458E+01  0.45884373431E+01 -0.53049939397E+01  0.90687852109E+01  0.00000000000E+00 0. -1.
</event>
<event>
 8    1  0.2497772E-006  0.9118800E+02  0.7816164E-02  0.1184000E+00
        -11   -1    0    0    0    0  0.00000000000E+00  0.00000000000E+00  0.45593999997E+02  0.45594000000E+02  0.51100000000E-03 0. -1.
         11   -1    0    0    0    0 -0.00000000000E+00 -0.00000000000E+00 -0.45593999997E+02  0.45594000000E+02  0.51100000000E-03 0.  1.
         23    2    1    2    0    0 -0.35527136788E-14  0.00000000000E+00  0.00000000000E+00  0.91188000000E+02  0.91188000000E+02 0.  0.
    9900012    2    3    3    0    0  0.25064634717E+02 -0.17355133427E+02 -0.20648096630E+02  0.54367075728E+02  0.39999980738E+02 0.  0.
         12    1    3    3    0    0 -0.25064634717E+02  0.17355133427E+02  0.20648096630E+02  0.36820924272E+02  0.00000000000E+00 0. -1.
         11    1    4    4    0    0  0.19858805886E+02 -0.25057386227E+02 -0.11910568162E+02  0.34119003648E+02  0.51100000000E-03 0. -1.
        -11    1    4    4    0    0 -0.27293213814E+01  0.33929192766E+01 -0.10209294288E+02  0.11099134495E+02  0.51100000000E-03 0.  1.
        -12    1    4    4    0    0  0.79351502124E+01  0.43093335232E+01  0.14717658196E+01  0.91489375850E+01  0.00000000000E+00 0.  1.
</event>
<event>
 8    1  0.2497772E-006  0.9118800E+02  0.7816164E-02  0.1184000E+00
        -11   -1    0    0    0    0  0.00000000000E+00  0.00000000000E+00  0.45593999997E+02  0.45594000000E+02  0.51100000000E-03 0.  1.
         11   -1    0    0    0    0 -0.00000000000E+00 -0.00000000000E+00 -0.45593999997E+02  0.45594000000E+02  0.51100000000E-03 0. -1.
         23    2    1    2    0    0  0.88817841970E-15 -0.12767564783E-14  0.00000000000E+00  0.91188000000E+02  0.91188000000E+02 0.  0.
    9900012    2    3    3    0    0 -0.24373829205E+01  0.12365707169E+00  0.36739947008E+02  0.54367084304E+02  0.40000000287E+02 0.  0.
         12    1    3    3    0    0  0.24373829205E+01 -0.12365707169E+00 -0.36739947008E+02  0.36820915696E+02  0.00000000000E+00 0. -1.
         11    1    4    4    0    0 -0.14641976161E+02  0.44221783231E+01  0.65406549379E+01  0.16635002083E+02  0.51100000000E-03 0.  1.
        -11    1    4    4    0    0  0.59148654359E+01 -0.10773683819E+02  0.10907028845E+02  0.16432321037E+02  0.51100000000E-03 0. -1.
         12    1    4    4    0    0  0.62897278050E+01  0.64751625680E+01  0.19292263225E+02  0.21299761184E+02  0.00000000000E+00 0. -1.
</event>
<event>
 8    1  0.2497772E-006  0.9118800E+02  0.7816164E-02  0.1184000E+00
        -11   -1    0    0    0    0  0.00000000000E+00  0.00000000000E+00  0.45593999997E+02  0.45594000000E+02  0.51100000000E-03 0. -1.
         11   -1    0    0    0    0 -0.00000000000E+00 -0.00000000000E+00 -0.45593999997E+02  0.45594000000E+02  0.51100000000E-03 0.  1.
         23    2    1    2    0    0  0.00000000000E+00 -0.35527136788E-14  0.00000000000E+00  0.91188000000E+02  0.91188000000E+02 0.  0.
    9900012    2    3    3    0    0 -0.28303559636E+01  0.28668606096E+02 -0.22932072262E+02  0.54367084359E+02  0.40000000413E+02 0.  0.
         12    1    3    3    0    0  0.28303559636E+01 -0.28668606096E+02  0.22932072262E+02  0.36820915641E+02  0.00000000000E+00 0. -1.
         11    1    4    4    0    0  0.28781591082E+01  0.27916583347E+02 -0.23490595528E+02  0.36598189903E+02  0.51100000000E-03 0. -1.
        -11    1    4    4    0    0 -0.94476464794E+01  0.59030312679E+01 -0.10912408981E+01  0.11193507453E+02  0.51100000000E-03 0.  1.
         12    1    4    4    0    0  0.37391314076E+01 -0.51510085189E+01  0.16497641636E+01  0.65753870031E+01  0.00000000000E+00 0. -1.
</event>
<event>
 8    1  0.2497772E-006  0.9118800E+02  0.7816164E-02  0.1184000E+00
        -11   -1    0    0    0    0  0.00000000000E+00  0.00000000000E+00  0.45593999997E+02  0.45594000000E+02  0.51100000000E-03 0. -1.
         11   -1    0    0    0    0 -0.00000000000E+00 -0.00000000000E+00 -0.45593999997E+02  0.45594000000E+02  0.51100000000E-03 0.  1.
         23    2    1    2    0    0  0.35527136788E-14  0.35527136788E-14  0.71054273576E-14  0.91188000000E+02  0.91188000000E+02 0.  0.
    9900012    2    3    3    0    0 -0.17075215095E+02  0.27545688946E+02  0.17477166749E+02  0.54367091434E+02  0.40000016542E+02 0.  0.
        -12    1    3    3    0    0  0.17075215095E+02 -0.27545688946E+02 -0.17477166749E+02  0.36820908566E+02  0.00000000000E+00 0.  1.
         11    1    4    4    0    0 -0.56597727415E+01  0.18181432026E+02 -0.43947447387E+00  0.19047063713E+02  0.51100000000E-03 0. -1.
        -11    1    4    4    0    0 -0.15781098147E+02 -0.22509149630E+01  0.35402780124E+01  0.16329214481E+02  0.51100000000E-03 0.  1.
         12    1    4    4    0    0  0.43656557934E+01  0.11615171882E+02  0.14376363211E+02  0.18990813240E+02  0.00000000000E+00 0. -1.
</event>
<event>
 8    1  0.2497772E-006  0.9118800E+02  0.7816164E-02  0.1184000E+00
        -11   -1    0    0    0    0  0.00000000000E+00  0.00000000000E+00  0.45593999997E+02  0.45594000000E+02  0.51100000000E-03 0. -1.
         11   -1    0    0    0    0 -0.00000000000E+00 -0.00000000000E+00 -0.45593999997E+02  0.45594000000E+02  0.51100000000E-03 0.  1.
         23    2    1    2    0    0 -0.88817841970E-15  0.00000000000E+00  0.00000000000E+00  0.91188000000E+02  0.91188000000E+02 0.  0.
    9900012    2    3    3    0    0 -0.26634933039E+01  0.12360048617E+02 -0.34581999588E+02  0.54367086189E+02  0.40000004584E+02 0.  0.
         12    1    3    3    0    0  0.26634933039E+01 -0.12360048617E+02  0.34581999588E+02  0.36820913811E+02  0.00000000000E+00 0. -1.
         11    1    4    4    0    0 -0.81601016394E+01 -0.21547659355E+01 -0.14527107212E+02  0.16800807100E+02  0.51100000000E-03 0. -1.
        -11    1    4    4    0    0 -0.46612794579E+00  0.20790458267E+02 -0.70784307213E+01  0.21967353322E+02  0.51100000000E-03 0.  1.
        -12    1    4    4    0    0  0.59627362813E+01 -0.62756437149E+01 -0.12976461654E+02  0.15598925766E+02  0.00000000000E+00 0.  1.
</event>
<event>
 8    1  0.2497772E-006  0.9118800E+02  0.7816164E-02  0.1184000E+00
        -11   -1    0    0    0    0  0.00000000000E+00  0.00000000000E+00  0.45593999997E+02  0.45594000000E+02  0.51100000000E-03 0.  1.
         11   -1    0    0    0    0 -0.00000000000E+00 -0.00000000000E+00 -0.45593999997E+02  0.45594000000E+02  0.51100000000E-03 0. -1.
         23    2    1    2    0    0  0.88817841970E-15  0.00000000000E+00  0.88817841970E-15  0.91188000000E+02  0.91188000000E+02 0.  0.
    9900012    2    3    3    0    0 -0.63848867020E+01  0.36084970427E+02  0.35897707098E+01  0.54367104809E+02  0.40000047034E+02 0.  0.
        -12    1    3    3    0    0  0.63848867020E+01 -0.36084970427E+02 -0.35897707098E+01  0.36820895191E+02  0.00000000000E+00 0.  1.
         11    1    4    4    0    0 -0.40369571622E+01  0.81949488781E+00 -0.60336277542E+01  0.73057004550E+01  0.51100000000E-03 0. -1.
        -11    1    4    4    0    0  0.36054136968E+01  0.18566203376E+02 -0.93467312920E+01  0.21096547154E+02  0.51100000000E-03 0.  1.
        -12    1    4    4    0    0 -0.59533432366E+01  0.16699272163E+02  0.18970129756E+02  0.25964857200E+02  0.00000000000E+00 0.  1.
</event>
<event>
 8    1  0.2497772E-006  0.9118800E+02  0.7816164E-02  0.1184000E+00
        -11   -1    0    0    0    0  0.00000000000E+00  0.00000000000E+00  0.45593999997E+02  0.45594000000E+02  0.51100000000E-03 0.  1.
         11   -1    0    0    0    0 -0.00000000000E+00 -0.00000000000E+00 -0.45593999997E+02  0.45594000000E+02  0.51100000000E-03 0. -1.
         23    2    1    2    0    0 -0.71054273576E-14  0.35527136788E-14 -0.17763568394E-14  0.91188000000E+02  0.91188000000E+02 0.  0.
    9900012    2    3    3    0    0  0.24806306154E+02 -0.26295905472E+02  0.69966502696E+01  0.54367074094E+02  0.39999977012E+02 0.  0.
         12    1    3    3    0    0 -0.24806306154E+02  0.26295905472E+02 -0.69966502696E+01  0.36820925906E+02  0.00000000000E+00 0. -1.
         11    1    4    4    0    0  0.94210610874E+00 -0.76951468070E+01 -0.64622040286E+01  0.10092716655E+02  0.51100000000E-03 0. -1.
        -11    1    4    4    0    0  0.27596572819E+02 -0.23187585640E+02  0.13094200709E+02  0.38349616056E+02  0.51100000000E-03 0.  1.
         12    1    4    4    0    0 -0.37323727740E+01  0.45868269750E+01  0.36465358875E+00  0.59247413836E+01  0.00000000000E+00 0. -1.
</event>
<event>
 8    1  0.2497772E-006  0.9118800E+02  0.7816164E-02  0.1184000E+00
        -11   -1    0    0    0    0  0.00000000000E+00  0.00000000000E+00  0.45593999997E+02  0.45594000000E+02  0.51100000000E-03 0.  1.
         11   -1    0    0    0    0 -0.00000000000E+00 -0.00000000000E+00 -0.45593999997E+02  0.45594000000E+02  0.51100000000E-03 0. -1.
         23    2    1    2    0    0 -0.53290705182E-14  0.35527136788E-14  0.71054273576E-14  0.91188000000E+02  0.91188000000E+02 0.  0.
    9900012    2    3    3    0    0  0.13739605151E+02 -0.21179731296E+02 -0.26803386046E+02  0.54367091931E+02  0.40000017676E+02 0.  0.
        -12    1    3    3    0    0 -0.13739605151E+02  0.21179731296E+02  0.26803386046E+02  0.36820908069E+02  0.00000000000E+00 0.  1.
         11    1    4    4    0    0 -0.40522868351E+01 -0.12407254652E+02 -0.12072520880E+01  0.13107953862E+02  0.51100000000E-03 0. -1.
        -11    1    4    4    0    0  0.14069471019E+02 -0.80997976950E+00  0.10855869821E+00  0.14093185134E+02  0.51100000000E-03 0.  1.
         12    1    4    4    0    0  0.37224209674E+01 -0.79624968750E+01 -0.25704692656E+02  0.27165952935E+02  0.00000000000E+00 0. -1.
</event>
<event>
 8    1  0.2497772E-006  0.9118800E+02  0.7816164E-02  0.1184000E+00
        -11   -1    0    0    0    0  0.00000000000E+00  0.00000000000E+00  0.45593999997E+02  0.45594000000E+02  0.51100000000E-03 0.  1.
         11   -1    0    0    0    0 -0.00000000000E+00 -0.00000000000E+00 -0.45593999997E+02  0.45594000000E+02  0.51100000000E-03 0. -1.
         23    2    1    2    0    0  0.35527136788E-14  0.88817841970E-15  0.00000000000E+00  0.91188000000E+02  0.91188000000E+02 0.  0.
    9900012    2    3    3    0    0 -0.31154255228E+02  0.17772207874E+01 -0.19545845984E+02  0.54366997464E+02  0.39999802319E+02 0.  0.
         12    1    3    3    0    0  0.31154255228E+02 -0.17772207874E+01  0.19545845984E+02  0.36821002536E+02  0.00000000000E+00 0. -1.
         11    1    4    4    0    0  0.41500538534E+01  0.10229923015E+02 -0.27160751501E+01  0.11368875773E+02  0.51100000000E-03 0. -1.
        -11    1    4    4    0    0 -0.26407262635E+02  0.11542765792E+01 -0.12172119707E+02  0.29100453136E+02  0.51100000000E-03 0.  1.
         12    1    4    4    0    0 -0.88970464462E+01 -0.96069788064E+01 -0.46576511265E+01  0.13897668555E+02  0.00000000000E+00 0. -1.
</event>
<event>
 8    1  0.2497772E-006  0.9118800E+02  0.7816164E-02  0.1184000E+00
        -11   -1    0    0    0    0  0.00000000000E+00  0.00000000000E+00  0.45593999997E+02  0.45594000000E+02  0.51100000000E-03 0.  1.
         11   -1    0    0    0    0 -0.00000000000E+00 -0.00000000000E+00 -0.45593999997E+02  0.45594000000E+02  0.51100000000E-03 0. -1.
         23    2    1    2    0    0  0.00000000000E+00  0.00000000000E+00 -0.71054273576E-14  0.91188000000E+02  0.91188000000E+02 0.  0.
    9900012    2    3    3    0    0  0.95962925986E+01  0.24186224575E+02 -0.26052206702E+02  0.54367085225E+02  0.40000002387E+02 0.  0.
        -12    1    3    3    0    0 -0.95962925986E+01 -0.24186224575E+02  0.26052206702E+02  0.36820914775E+02  0.00000000000E+00 0.  1.
         11    1    4    4    0    0  0.15967153442E+02  0.96212327606E+00 -0.42207553496E+01  0.16543592301E+02  0.51100000000E-03 0. -1.
        -11    1    4    4    0    0  0.13372528708E+01 -0.24913984276E+01 -0.60610795215E+01  0.66881983069E+01  0.51100000000E-03 0.  1.
         12    1    4    4    0    0 -0.77081137140E+01  0.25715499727E+02 -0.15770371830E+02  0.31135294617E+02  0.00000000000E+00 0. -1.
</event>
<event>
 8    1  0.2497772E-006  0.9118800E+02  0.7816164E-02  0.1184000E+00
        -11   -1    0    0    0    0  0.00000000000E+00  0.00000000000E+00  0.45593999997E+02  0.45594000000E+02  0.51100000000E-03 0. -1.
         11   -1    0    0    0    0 -0.00000000000E+00 -0.00000000000E+00 -0.45593999997E+02  0.45594000000E+02  0.51100000000E-03 0.  1.
         23    2    1    2    0    0  0.35527136788E-14  0.00000000000E+00 -0.26645352591E-14  0.91188000000E+02  0.91188000000E+02 0.  0.
    9900012    2    3    3    0    0  0.30577824032E+02 -0.19214592318E+02  0.71818109329E+01  0.54367050953E+02  0.39999924257E+02 0.  0.
         12    1    3    3    0    0 -0.30577824032E+02  0.19214592318E+02 -0.71818109329E+01  0.36820949047E+02  0.00000000000E+00 0. -1.
         11    1    4    4    0    0 -0.65184063565E+01 -0.46482609277E+01 -0.34134241476E+01  0.87032991304E+01  0.51100000000E-03 0. -1.
        -11    1    4    4    0    0  0.30594525109E+02 -0.10826452150E+02  0.16226894165E+02  0.36284282097E+02  0.51100000000E-03 0.  1.
        -12    1    4    4    0    0  0.65017052801E+01 -0.37398792402E+01 -0.56316590848E+01  0.93794697253E+01  0.00000000000E+00 0.  1.
</event>
<event>
 8    1  0.2497772E-006  0.9118800E+02  0.7816164E-02  0.1184000E+00
        -11   -1    0    0    0    0  0.00000000000E+00  0.00000000000E+00  0.45593999997E+02  0.45594000000E+02  0.51100000000E-03 0.  1.
         11   -1    0    0    0    0 -0.00000000000E+00 -0.00000000000E+00 -0.45593999997E+02  0.45594000000E+02  0.51100000000E-03 0. -1.
         23    2    1    2    0    0  0.17763568394E-14  0.44408920985E-15  0.00000000000E+00  0.91188000000E+02  0.91188000000E+02 0.  0.
    9900012    2    3    3    0    0  0.12348480012E+02 -0.17274960781E+01  0.34645502761E+02  0.54367081178E+02  0.39999993162E+02 0.  0.
         12    1    3    3    0    0 -0.12348480012E+02  0.17274960781E+01 -0.34645502761E+02  0.36820918822E+02  0.00000000000E+00 0. -1.
         11    1    4    4    0    0 -0.52813999746E+01 -0.22474906063E+01  0.53183651669E+01  0.78249222378E+01  0.51100000000E-03 0.  1.
        -11    1    4    4    0    0 -0.72133423562E+01  0.67846482898E+01  0.45415036168E+01  0.10894448849E+02  0.51100000000E-03 0. -1.
         12    1    4    4    0    0  0.24843222342E+02 -0.62646537616E+01  0.24785633977E+02  0.35647710091E+02  0.00000000000E+00 0. -1.
</event>
<event>
 8    1  0.2497772E-006  0.9118800E+02  0.7816164E-02  0.1184000E+00
        -11   -1    0    0    0    0  0.00000000000E+00  0.00000000000E+00  0.45593999997E+02  0.45594000000E+02  0.51100000000E-03 0. -1.
         11   -1    0    0    0    0 -0.00000000000E+00 -0.00000000000E+00 -0.45593999997E+02  0.45594000000E+02  0.51100000000E-03 0.  1.
         23    2    1    2    0    0 -0.17763568394E-14 -0.35527136788E-14 -0.35527136788E-14  0.91188000000E+02  0.91188000000E+02 0.  0.
    9900012    2    3    3    0    0  0.10790603807E+02 -0.28144220363E+02 -0.21148182517E+02  0.54367083470E+02  0.39999998386E+02 0.  0.
         12    1    3    3    0    0 -0.10790603807E+02  0.28144220363E+02  0.21148182517E+02  0.36820916530E+02  0.00000000000E+00 0. -1.
         11    1    4    4    0    0  0.35618156671E+01  0.17315171860E+01 -0.16025097751E+02  0.16507223898E+02  0.51100000000E-03 0. -1.
        -11    1    4    4    0    0  0.13614794452E+02 -0.14258139813E+02  0.14139230010E+01  0.19765028647E+02  0.51100000000E-03 0.  1.
        -12    1    4    4    0    0 -0.63860063125E+01 -0.15617597736E+02 -0.65370077666E+01  0.18094830925E+02  0.00000000000E+00 0.  1.
</event>
<event>
 8    1  0.2497772E-006  0.9118800E+02  0.7816164E-02  0.1184000E+00
        -11   -1    0    0    0    0  0.00000000000E+00  0.00000000000E+00  0.45593999997E+02  0.45594000000E+02  0.51100000000E-03 0.  1.
         11   -1    0    0    0    0 -0.00000000000E+00 -0.00000000000E+00 -0.45593999997E+02  0.45594000000E+02  0.51100000000E-03 0. -1.
         23    2    1    2    0    0  0.00000000000E+00 -0.71054273576E-14  0.35527136788E-14  0.91188000000E+02  0.91188000000E+02 0.  0.
    9900012    2    3    3    0    0  0.83115549302E+01  0.34915175659E+02 -0.82236367175E+01  0.54367086954E+02  0.40000006330E+02 0.  0.
         12    1    3    3    0    0 -0.83115549302E+01 -0.34915175659E+02  0.82236367175E+01  0.36820913046E+02  0.00000000000E+00 0. -1.
         11    1    4    4    0    0  0.98733682749E+01  0.21548088968E+02 -0.50940954861E+01  0.24243624901E+02  0.51100000000E-03 0. -1.
        -11    1    4    4    0    0 -0.42989768681E+01  0.10343268308E+02  0.10829837518E+02  0.15580429465E+02  0.51100000000E-03 0.  1.
        -12    1    4    4    0    0  0.27371635234E+01  0.30238183836E+01 -0.13959378750E+02  0.14543032588E+02  0.00000000000E+00 0.  1.
</event>
<event>
 8    1  0.2497772E-006  0.9118800E+02  0.7816164E-02  0.1184000E+00
        -11   -1    0    0    0    0  0.00000000000E+00  0.00000000000E+00  0.45593999997E+02  0.45594000000E+02  0.51100000000E-03 0.  1.
         11   -1    0    0    0    0 -0.00000000000E+00 -0.00000000000E+00 -0.45593999997E+02  0.45594000000E+02  0.51100000000E-03 0. -1.
         23    2    1    2    0    0 -0.22204460493E-15 -0.11102230246E-14  0.71054273576E-14  0.91188000000E+02  0.91188000000E+02 0.  0.
    9900012    2    3    3    0    0 -0.13753932031E+01 -0.18806520672E+01  0.36747125087E+02  0.54367085280E+02  0.40000002512E+02 0.  0.
         12    1    3    3    0    0  0.13753932031E+01  0.18806520672E+01 -0.36747125087E+02  0.36820914720E+02  0.00000000000E+00 0. -1.
         11    1    4    4    0    0  0.40646210207E+01 -0.28497223590E+01  0.10209791086E+02  0.11352616256E+02  0.51100000000E-03 0. -1.
        -11    1    4    4    0    0 -0.48767561180E+01 -0.93068827853E+01 -0.36484245348E+01  0.11122581502E+02  0.51100000000E-03 0.  1.
         12    1    4    4    0    0 -0.56325810585E+00  0.10275953077E+02  0.30185758536E+02  0.31891887522E+02  0.00000000000E+00 0. -1.
</event>
<event>
 8    1  0.2497772E-006  0.9118800E+02  0.7816164E-02  0.1184000E+00
        -11   -1    0    0    0    0  0.00000000000E+00  0.00000000000E+00  0.45593999997E+02  0.45594000000E+02  0.51100000000E-03 0. -1.
         11   -1    0    0    0    0 -0.00000000000E+00 -0.00000000000E+00 -0.45593999997E+02  0.45594000000E+02  0.51100000000E-03 0.  1.
         23    2    1    2    0    0  0.00000000000E+00  0.35527136788E-14  0.00000000000E+00  0.91188000000E+02  0.91188000000E+02 0.  0.
    9900012    2    3    3    0    0 -0.22349574250E+02 -0.22086214187E+02 -0.19195730218E+02  0.54367076805E+02  0.39999983193E+02 0.  0.
        -12    1    3    3    0    0  0.22349574250E+02  0.22086214187E+02  0.19195730218E+02  0.36820923195E+02  0.00000000000E+00 0.  1.
         11    1    4    4    0    0 -0.93788741061E+01  0.58015319866E+01 -0.18341889989E+01  0.11179682573E+02  0.51100000000E-03 0. -1.
        -11    1    4    4    0    0 -0.18393582441E+02 -0.26962169499E+02 -0.18574597268E+02  0.37553936186E+02  0.51100000000E-03 0.  1.
        -12    1    4    4    0    0  0.54228822966E+01 -0.92557667487E+00  0.12130560492E+01  0.56334580465E+01  0.00000000000E+00 0.  1.
</event>
<event>
 8    1  0.2497772E-006  0.9118800E+02  0.7816164E-02  0.1184000E+00
        -11   -1    0    0    0    0  0.00000000000E+00  0.00000000000E+00  0.45593999997E+02  0.45594000000E+02  0.51100000000E-03 0.  1.
         11   -1    0    0    0    0 -0.00000000000E+00 -0.00000000000E+00 -0.45593999997E+02  0.45594000000E+02  0.51100000000E-03 0. -1.
         23    2    1    2    0    0  0.00000000000E+00  0.35527136788E-14  0.44408920985E-15  0.91188000000E+02  0.91188000000E+02 0.  0.
    9900012    2    3    3    0    0  0.30982438676E+02 -0.19627295333E+02 -0.32616262481E+01  0.54367076137E+02  0.39999981668E+02 0.  0.
         12    1    3    3    0    0 -0.30982438676E+02  0.19627295333E+02  0.32616262481E+01  0.36820923863E+02  0.00000000000E+00 0. -1.
         11    1    4    4    0    0  0.29337009139E+02 -0.41936000806E+01 -0.43412314159E+01  0.29951505427E+02  0.51100000000E-03 0.  1.
        -11    1    4    4    0    0 -0.29604085356E+01 -0.10382732176E+01 -0.67135759525E+01  0.74104070268E+01  0.51100000000E-03 0. -1.
         12    1    4    4    0    0  0.46058380720E+01 -0.14395422035E+02  0.77931811203E+01  0.17005163683E+02  0.00000000000E+00 0. -1.
</event>
<event>
 8    1  0.2497772E-006  0.9118800E+02  0.7816164E-02  0.1184000E+00
        -11   -1    0    0    0    0  0.00000000000E+00  0.00000000000E+00  0.45593999997E+02  0.45594000000E+02  0.51100000000E-03 0. -1.
         11   -1    0    0    0    0 -0.00000000000E+00 -0.00000000000E+00 -0.45593999997E+02  0.45594000000E+02  0.51100000000E-03 0.  1.
         23    2    1    2    0    0  0.00000000000E+00  0.00000000000E+00 -0.35527136788E-14  0.91188000000E+02  0.91188000000E+02 0.  0.
    9900012    2    3    3    0    0  0.23310465176E+02  0.21721044164E+02 -0.18455322881E+02  0.54367075393E+02  0.39999979974E+02 0.  0.
         12    1    3    3    0    0 -0.23310465176E+02 -0.21721044164E+02  0.18455322881E+02  0.36820924607E+02  0.00000000000E+00 0. -1.
         11    1    4    4    0    0 -0.49524641339E+01  0.11058135690E+02 -0.91203900624E+01  0.15165446946E+02  0.51100000000E-03 0. -1.
        -11    1    4    4    0    0  0.84192505861E+00 -0.59398704394E+01 -0.19273102334E+01  0.63012239793E+01  0.51100000000E-03 0.  1.
        -12    1    4    4    0    0  0.27421004251E+02  0.16602778913E+02 -0.74076225850E+01  0.32900404467E+02  0.00000000000E+00 0.  1.
</event>
<event>
 8    1  0.2497772E-006  0.9118800E+02  0.7816164E-02  0.1184000E+00
        -11   -1    0    0    0    0  0.00000000000E+00  0.00000000000E+00  0.45593999997E+02  0.45594000000E+02  0.51100000000E-03 0.  1.
         11   -1    0    0    0    0 -0.00000000000E+00 -0.00000000000E+00 -0.45593999997E+02  0.45594000000E+02  0.51100000000E-03 0. -1.
         23    2    1    2    0    0  0.00000000000E+00 -0.17763568394E-14  0.00000000000E+00  0.91188000000E+02  0.91188000000E+02 0.  0.
    9900012    2    3    3    0    0  0.45640119930E+01  0.87019631978E+01  0.35485587922E+02  0.54367064119E+02  0.39999954272E+02 0.  0.
         12    1    3    3    0    0 -0.45640119930E+01 -0.87019631978E+01 -0.35485587922E+02  0.36820935881E+02  0.00000000000E+00 0. -1.
         11    1    4    4    0    0  0.52551190062E+01 -0.96759834193E+01  0.14651596121E+02  0.18327853121E+02  0.51100000000E-03 0. -1.
        -11    1    4    4    0    0  0.10928279061E+02  0.11254619867E+02  0.97346815004E+01  0.18462333974E+02  0.51100000000E-03 0.  1.
        -12    1    4    4    0    0 -0.11619386074E+02  0.71233267497E+01  0.11099310301E+02  0.17576877023E+02  0.00000000000E+00 0.  1.
</event>
<event>
 8    1  0.2497772E-006  0.9118800E+02  0.7816164E-02  0.1184000E+00
        -11   -1    0    0    0    0  0.00000000000E+00  0.00000000000E+00  0.45593999997E+02  0.45594000000E+02  0.51100000000E-03 0.  1.
         11   -1    0    0    0    0 -0.00000000000E+00 -0.00000000000E+00 -0.45593999997E+02  0.45594000000E+02  0.51100000000E-03 0. -1.
         23    2    1    2    0    0  0.00000000000E+00  0.00000000000E+00  0.88817841970E-15  0.91188000000E+02  0.91188000000E+02 0.  0.
    9900012    2    3    3    0    0  0.34995981387E+02  0.89132679220E+01  0.71844686326E+01  0.54367059656E+02  0.39999944097E+02 0.  0.
         12    1    3    3    0    0 -0.34995981387E+02 -0.89132679220E+01 -0.71844686326E+01  0.36820940344E+02  0.00000000000E+00 0. -1.
         11    1    4    4    0    0 -0.14462280426E+01  0.51375594231E+01 -0.37232710167E+01  0.65075986126E+01  0.51100000000E-03 0. -1.
        -11    1    4    4    0    0  0.27738656308E+02  0.12852363843E+02 -0.93466565500E+00  0.30585779543E+02  0.51100000000E-03 0.  1.
        -12    1    4    4    0    0  0.87035531214E+01 -0.90766553437E+01  0.11842405304E+02  0.17273681500E+02  0.00000000000E+00 0.  1.
</event>
<event>
 8    1  0.2497772E-006  0.9118800E+02  0.7816164E-02  0.1184000E+00
        -11   -1    0    0    0    0  0.00000000000E+00  0.00000000000E+00  0.45593999997E+02  0.45594000000E+02  0.51100000000E-03 0. -1.
         11   -1    0    0    0    0 -0.00000000000E+00 -0.00000000000E+00 -0.45593999997E+02  0.45594000000E+02  0.51100000000E-03 0.  1.
         23    2    1    2    0    0  0.00000000000E+00 -0.26645352591E-14  0.88817841970E-15  0.91188000000E+02  0.91188000000E+02 0.  0.
    9900012    2    3    3    0    0  0.35772070212E+02  0.60554185369E+01 -0.62825880703E+01  0.54367081845E+02  0.39999994683E+02 0.  0.
         12    1    3    3    0    0 -0.35772070212E+02 -0.60554185369E+01  0.62825880703E+01  0.36820918155E+02  0.00000000000E+00 0. -1.
         11    1    4    4    0    0  0.37914338535E+01 -0.80032214929E+01  0.59056541651E+00  0.88755446426E+01  0.51100000000E-03 0. -1.
        -11    1    4    4    0    0  0.22403928603E+02 -0.39392485568E+01  0.28120263412E+01  0.22920758898E+02  0.51100000000E-03 0.  1.
        -12    1    4    4    0    0  0.95767077549E+01  0.17997888587E+02 -0.96851798279E+01  0.22570778305E+02  0.00000000000E+00 0.  1.
</event>
<event>
 8    1  0.2497772E-006  0.9118800E+02  0.7816164E-02  0.1184000E+00
        -11   -1    0    0    0    0  0.00000000000E+00  0.00000000000E+00  0.45593999997E+02  0.45594000000E+02  0.51100000000E-03 0.  1.
         11   -1    0    0    0    0 -0.00000000000E+00 -0.00000000000E+00 -0.45593999997E+02  0.45594000000E+02  0.51100000000E-03 0. -1.
         23    2    1    2    0    0  0.88817841970E-15  0.00000000000E+00 -0.35527136788E-14  0.91188000000E+02  0.91188000000E+02 0.  0.
    9900012    2    3    3    0    0 -0.51858992096E+01 -0.20045948604E+02  0.30447582141E+02  0.54366961662E+02  0.39999720700E+02 0.  0.
         12    1    3    3    0    0  0.51858992096E+01  0.20045948604E+02 -0.30447582141E+02  0.36821038338E+02  0.00000000000E+00 0. -1.
         11    1    4    4    0    0  0.55727027148E+01 -0.17379096720E+02 -0.54428241811E+00  0.18258813268E+02  0.51100000000E-03 0. -1.
        -11    1    4    4    0    0 -0.41756080799E+01 -0.85855226439E+01  0.13948768894E+02  0.16903107875E+02  0.51100000000E-03 0.  1.
         12    1    4    4    0    0 -0.65829938445E+01  0.59186707596E+01  0.17043095665E+02  0.19205040520E+02  0.00000000000E+00 0. -1.
</event>
<event>
 8    1  0.2497772E-006  0.9118800E+02  0.7816164E-02  0.1184000E+00
        -11   -1    0    0    0    0  0.00000000000E+00  0.00000000000E+00  0.45593999997E+02  0.45594000000E+02  0.51100000000E-03 0.  1.
         11   -1    0    0    0    0 -0.00000000000E+00 -0.00000000000E+00 -0.45593999997E+02  0.45594000000E+02  0.51100000000E-03 0. -1.
         23    2    1    2    0    0  0.17763568394E-14  0.00000000000E+00  0.00000000000E+00  0.91188000000E+02  0.91188000000E+02 0.  0.
    9900012    2    3    3    0    0 -0.10157839813E+02  0.23652150614E+02  0.26328168580E+02  0.54367103771E+02  0.40000044666E+02 0.  0.
         12    1    3    3    0    0  0.10157839813E+02 -0.23652150614E+02 -0.26328168580E+02  0.36820896229E+02  0.00000000000E+00 0. -1.
         11    1    4    4    0    0 -0.19439436370E+02  0.10430804725E+02  0.87338035102E+01  0.23727045699E+02  0.51100000000E-03 0. -1.
        -11    1    4    4    0    0 -0.21167997669E+01  0.13287661504E+02  0.11579475261E+02  0.17751817853E+02  0.51100000000E-03 0.  1.
         12    1    4    4    0    0  0.11398396324E+02 -0.66315615540E-01  0.60148898089E+01  0.12888240218E+02  0.00000000000E+00 0. -1.
</event>
<event>
 8    1  0.2497772E-006  0.9118800E+02  0.7816164E-02  0.1184000E+00
        -11   -1    0    0    0    0  0.00000000000E+00  0.00000000000E+00  0.45593999997E+02  0.45594000000E+02  0.51100000000E-03 0.  1.
         11   -1    0    0    0    0 -0.00000000000E+00 -0.00000000000E+00 -0.45593999997E+02  0.45594000000E+02  0.51100000000E-03 0. -1.
         23    2    1    2    0    0  0.71054273576E-14  0.88817841970E-15  0.22204460493E-14  0.91188000000E+02  0.91188000000E+02 0.  0.
    9900012    2    3    3    0    0  0.36424072499E+02 -0.47364596982E+01  0.25754981616E+01  0.54367077977E+02  0.39999985864E+02 0.  0.
        -12    1    3    3    0    0 -0.36424072499E+02  0.47364596982E+01 -0.25754981616E+01  0.36820922023E+02  0.00000000000E+00 0.  1.
         11    1    4    4    0    0 -0.12428118320E+01  0.19521486858E+01 -0.27130500221E+01  0.35659650061E+01  0.51100000000E-03 0.  1.
        -11    1    4    4    0    0  0.12431591028E+02 -0.74031833063E+01 -0.13139948301E+02  0.19545071506E+02  0.51100000000E-03 0. -1.
         12    1    4    4    0    0  0.25235293303E+02  0.71457492236E+00  0.18428496484E+02  0.31256041465E+02  0.00000000000E+00 0. -1.
</event>
<event>
 8    1  0.2497772E-006  0.9118800E+02  0.7816164E-02  0.1184000E+00
        -11   -1    0    0    0    0  0.00000000000E+00  0.00000000000E+00  0.45593999997E+02  0.45594000000E+02  0.51100000000E-03 0.  1.
         11   -1    0    0    0    0 -0.00000000000E+00 -0.00000000000E+00 -0.45593999997E+02  0.45594000000E+02  0.51100000000E-03 0. -1.
         23    2    1    2    0    0  0.00000000000E+00  0.00000000000E+00  0.44408920985E-15  0.91188000000E+02  0.91188000000E+02 0.  0.
    9900012    2    3    3    0    0  0.36373398117E+02  0.44241064584E+01  0.36308662680E+01  0.54367082054E+02  0.39999995157E+02 0.  0.
         12    1    3    3    0    0 -0.36373398117E+02 -0.44241064584E+01 -0.36308662680E+01  0.36820917946E+02  0.00000000000E+00 0. -1.
         11    1    4    4    0    0 -0.68673437857E+01  0.33172810759E+01  0.14242666992E+01  0.77584341397E+01  0.51100000000E-03 0. -1.
        -11    1    4    4    0    0  0.20644463824E+02  0.83626993074E+00  0.96670849850E+01  0.22811088671E+02  0.51100000000E-03 0.  1.
         12    1    4    4    0    0  0.22596278079E+02  0.27055545175E+00 -0.74604854162E+01  0.23797559243E+02  0.00000000000E+00 0. -1.
</event>
<event>
 8    1  0.2497772E-006  0.9118800E+02  0.7816164E-02  0.1184000E+00
        -11   -1    0    0    0    0  0.00000000000E+00  0.00000000000E+00  0.45593999997E+02  0.45594000000E+02  0.51100000000E-03 0. -1.
         11   -1    0    0    0    0 -0.00000000000E+00 -0.00000000000E+00 -0.45593999997E+02  0.45594000000E+02  0.51100000000E-03 0.  1.
         23    2    1    2    0    0  0.35527136788E-14  0.00000000000E+00  0.00000000000E+00  0.91188000000E+02  0.91188000000E+02 0.  0.
    9900012    2    3    3    0    0 -0.29039286712E+02  0.10178244923E+02 -0.20221343201E+02  0.54367087962E+02  0.40000008627E+02 0.  0.
         12    1    3    3    0    0  0.29039286712E+02 -0.10178244923E+02  0.20221343201E+02  0.36820912038E+02  0.00000000000E+00 0. -1.
         11    1    4    4    0    0  0.38662592205E+01  0.31303982706E+01 -0.28279742678E+01  0.57223065641E+01  0.51100000000E-03 0. -1.
        -11    1    4    4    0    0 -0.76780890140E+01  0.59917511484E+00 -0.20990620132E+02  0.22358850496E+02  0.51100000000E-03 0.  1.
        -12    1    4    4    0    0 -0.25227456919E+02  0.64486715377E+01  0.35972511988E+01  0.26285930902E+02  0.00000000000E+00 0.  1.
</event>
<event>
 8    1  0.2497772E-006  0.9118800E+02  0.7816164E-02  0.1184000E+00
        -11   -1    0    0    0    0  0.00000000000E+00  0.00000000000E+00  0.45593999997E+02  0.45594000000E+02  0.51100000000E-03 0. -1.
         11   -1    0    0    0    0 -0.00000000000E+00 -0.00000000000E+00 -0.45593999997E+02  0.45594000000E+02  0.51100000000E-03 0.  1.
         23    2    1    2    0    0  0.00000000000E+00 -0.44408920985E-15  0.17763568394E-14  0.91188000000E+02  0.91188000000E+02 0.  0.
    9900012    2    3    3    0    0 -0.34422690054E+02  0.23885570220E+01  0.12851174983E+02  0.54367088908E+02  0.40000010784E+02 0.  0.
        -12    1    3    3    0    0  0.34422690054E+02 -0.23885570220E+01 -0.12851174983E+02  0.36820911092E+02  0.00000000000E+00 0.  1.
         11    1    4    4    0    0 -0.14849417822E+02  0.96710210659E+01  0.10769789853E+02  0.20736977404E+02  0.51100000000E-03 0.  1.
        -11    1    4    4    0    0 -0.20116360141E+02  0.28625460415E+01  0.80402905526E+01  0.21851965303E+02  0.51100000000E-03 0. -1.
        -12    1    4    4    0    0  0.54308790892E+00 -0.10145010085E+02 -0.59589054227E+01  0.11778146202E+02  0.00000000000E+00 0.  1.
</event>
<event>
 8    1  0.2497772E-006  0.9118800E+02  0.7816164E-02  0.1184000E+00
        -11   -1    0    0    0    0  0.00000000000E+00  0.00000000000E+00  0.45593999997E+02  0.45594000000E+02  0.51100000000E-03 0.  1.
         11   -1    0    0    0    0 -0.00000000000E+00 -0.00000000000E+00 -0.45593999997E+02  0.45594000000E+02  0.51100000000E-03 0. -1.
         23    2    1    2    0    0  0.00000000000E+00  0.00000000000E+00  0.13322676296E-14  0.91188000000E+02  0.91188000000E+02 0.  0.
    9900012    2    3    3    0    0  0.18679048126E+02 -0.31551982101E+02  0.33680897559E+01  0.54367103189E+02  0.40000043339E+02 0.  0.
         12    1    3    3    0    0 -0.18679048126E+02  0.31551982101E+02 -0.33680897559E+01  0.36820896811E+02  0.00000000000E+00 0. -1.
         11    1    4    4    0    0  0.15417091712E+02  0.71673569259E-02 -0.11141738846E+02  0.19021701107E+02  0.51100000000E-03 0. -1.
        -11    1    4    4    0    0 -0.11771316872E+01 -0.16168343530E+02  0.71990602771E+01  0.17737740574E+02  0.51100000000E-03 0.  1.
         12    1    4    4    0    0  0.44390881004E+01 -0.15390805928E+02  0.73107683251E+01  0.17607661508E+02  0.00000000000E+00 0. -1.
</event>
<event>
 8    1  0.2497772E-006  0.9118800E+02  0.7816164E-02  0.1184000E+00
        -11   -1    0    0    0    0  0.00000000000E+00  0.00000000000E+00  0.45593999997E+02  0.45594000000E+02  0.51100000000E-03 0. -1.
         11   -1    0    0    0    0 -0.00000000000E+00 -0.00000000000E+00 -0.45593999997E+02  0.45594000000E+02  0.51100000000E-03 0.  1.
         23    2    1    2    0    0  0.00000000000E+00 -0.17763568394E-14 -0.17763568394E-14  0.91188000000E+02  0.91188000000E+02 0.  0.
    9900012    2    3    3    0    0 -0.32336050979E+02  0.13814833846E+02  0.10922926344E+02  0.54367080036E+02  0.39999990558E+02 0.  0.
        -12    1    3    3    0    0  0.32336050979E+02 -0.13814833846E+02 -0.10922926344E+02  0.36820919964E+02  0.00000000000E+00 0.  1.
         11    1    4    4    0    0 -0.78736609519E+01  0.18348817602E+01  0.15807277689E+02  0.17754755872E+02  0.51100000000E-03 0. -1.
        -11    1    4    4    0    0 -0.18399628671E+02  0.12018299312E+01  0.67479710813E+01  0.19634812054E+02  0.51100000000E-03 0.  1.
        -12    1    4    4    0    0 -0.60627613561E+01  0.10778122154E+02 -0.11632322427E+02  0.16977512111E+02  0.00000000000E+00 0.  1.
</event>
<event>
 8    1  0.2497772E-006  0.9118800E+02  0.7816164E-02  0.1184000E+00
        -11   -1    0    0    0    0  0.00000000000E+00  0.00000000000E+00  0.45593999997E+02  0.45594000000E+02  0.51100000000E-03 0. -1.
         11   -1    0    0    0    0 -0.00000000000E+00 -0.00000000000E+00 -0.45593999997E+02  0.45594000000E+02  0.51100000000E-03 0.  1.
         23    2    1    2    0    0  0.00000000000E+00 -0.71054273576E-14  0.55511151231E-16  0.91188000000E+02  0.91188000000E+02 0.  0.
    9900012    2    3    3    0    0  0.19348426788E+02 -0.31324186689E+02 -0.46155845143E+00  0.54367091169E+02  0.40000015939E+02 0.  0.
         12    1    3    3    0    0 -0.19348426788E+02  0.31324186689E+02  0.46155845143E+00  0.36820908831E+02  0.00000000000E+00 0. -1.
         11    1    4    4    0    0  0.51651673791E+01 -0.23586107604E+02 -0.10881563854E+01  0.24169557517E+02  0.51100000000E-03 0. -1.
        -11    1    4    4    0    0 -0.14096984230E+00 -0.11650782925E+02 -0.69088309977E+01  0.13545942613E+02  0.51100000000E-03 0.  1.
         12    1    4    4    0    0  0.14324229251E+02  0.39127038396E+01  0.75354289316E+01  0.16651591040E+02  0.00000000000E+00 0. -1.
</event>
<event>
 8    1  0.2497772E-006  0.9118800E+02  0.7816164E-02  0.1184000E+00
        -11   -1    0    0    0    0  0.00000000000E+00  0.00000000000E+00  0.45593999997E+02  0.45594000000E+02  0.51100000000E-03 0. -1.
         11   -1    0    0    0    0 -0.00000000000E+00 -0.00000000000E+00 -0.45593999997E+02  0.45594000000E+02  0.51100000000E-03 0.  1.
         23    2    1    2    0    0  0.00000000000E+00  0.00000000000E+00  0.00000000000E+00  0.91188000000E+02  0.91188000000E+02 0.  0.
    9900012    2    3    3    0    0  0.86284625933E+01 -0.34450951774E+02 -0.97191003263E+01  0.54367090777E+02  0.40000015044E+02 0.  0.
         12    1    3    3    0    0 -0.86284625933E+01  0.34450951774E+02  0.97191003263E+01  0.36820909223E+02  0.00000000000E+00 0. -1.
         11    1    4    4    0    0  0.78926434489E+01 -0.20271011506E+01  0.50352601113E+01  0.95789772072E+01  0.51100000000E-03 0. -1.
        -11    1    4    4    0    0  0.29827254278E+01  0.70875186095E+00 -0.10939549836E+02  0.11361018046E+02  0.51100000000E-03 0.  1.
        -12    1    4    4    0    0 -0.22469062834E+01 -0.33132602484E+02 -0.38148106021E+01  0.33427095524E+02  0.00000000000E+00 0.  1.
</event>
<event>
 8    1  0.2497772E-006  0.9118800E+02  0.7816164E-02  0.1184000E+00
        -11   -1    0    0    0    0  0.00000000000E+00  0.00000000000E+00  0.45593999997E+02  0.45594000000E+02  0.51100000000E-03 0. -1.
         11   -1    0    0    0    0 -0.00000000000E+00 -0.00000000000E+00 -0.45593999997E+02  0.45594000000E+02  0.51100000000E-03 0.  1.
         23    2    1    2    0    0  0.13322676296E-14  0.00000000000E+00  0.00000000000E+00  0.91188000000E+02  0.91188000000E+02 0.  0.
    9900012    2    3    3    0    0 -0.32442437675E+01 -0.35635442271E+02  0.86816244089E+01  0.54367075706E+02  0.39999980688E+02 0.  0.
         12    1    3    3    0    0  0.32442437675E+01  0.35635442271E+02 -0.86816244089E+01  0.36820924294E+02  0.00000000000E+00 0. -1.
         11    1    4    4    0    0  0.69947759215E+01 -0.25002447624E+02  0.57598771563E+00  0.25968847481E+02  0.51100000000E-03 0. -1.
        -11    1    4    4    0    0 -0.10810791708E+01  0.65252429352E+01 -0.13839122235E+01  0.67574211679E+01  0.51100000000E-03 0.  1.
        -12    1    4    4    0    0 -0.91579405183E+01 -0.17158237582E+02  0.94895489167E+01  0.21640807058E+02  0.00000000000E+00 0.  1.
</event>
<event>
 8    1  0.2497772E-006  0.9118800E+02  0.7816164E-02  0.1184000E+00
        -11   -1    0    0    0    0  0.00000000000E+00  0.00000000000E+00  0.45593999997E+02  0.45594000000E+02  0.51100000000E-03 0. -1.
         11   -1    0    0    0    0 -0.00000000000E+00 -0.00000000000E+00 -0.45593999997E+02  0.45594000000E+02  0.51100000000E-03 0.  1.
         23    2    1    2    0    0  0.35527136788E-14  0.00000000000E+00  0.00000000000E+00  0.91188000000E+02  0.91188000000E+02 0.  0.
    9900012    2    3    3    0    0  0.25280342138E+02 -0.22637511145E+02  0.14290848166E+02  0.54367069121E+02  0.39999965676E+02 0.  0.
        -12    1    3    3    0    0 -0.25280342138E+02  0.22637511145E+02 -0.14290848166E+02  0.36820930879E+02  0.00000000000E+00 0.  1.
         11    1    4    4    0    0  0.17275924395E+02 -0.13941659367E+02  0.67146319553E+01  0.23192966869E+02  0.51100000000E-03 0. -1.
        -11    1    4    4    0    0 -0.10255746251E+02 -0.14855980148E+01  0.45193420239E+01  0.11305387443E+02  0.51100000000E-03 0.  1.
         12    1    4    4    0    0  0.18260163994E+02 -0.72102537638E+01  0.30568741867E+01  0.19868714810E+02  0.00000000000E+00 0. -1.
</event>
<event>
 8    1  0.2497772E-006  0.9118800E+02  0.7816164E-02  0.1184000E+00
        -11   -1    0    0    0    0  0.00000000000E+00  0.00000000000E+00  0.45593999997E+02  0.45594000000E+02  0.51100000000E-03 0. -1.
         11   -1    0    0    0    0 -0.00000000000E+00 -0.00000000000E+00 -0.45593999997E+02  0.45594000000E+02  0.51100000000E-03 0.  1.
         23    2    1    2    0    0  0.00000000000E+00  0.00000000000E+00  0.26645352591E-14  0.91188000000E+02  0.91188000000E+02 0.  0.
    9900012    2    3    3    0    0 -0.36180736425E+02  0.59179169037E+01  0.34223426853E+01  0.54367083957E+02  0.39999999498E+02 0.  0.
        -12    1    3    3    0    0  0.36180736425E+02 -0.59179169037E+01 -0.34223426853E+01  0.36820916043E+02  0.00000000000E+00 0.  1.
         11    1    4    4    0    0 -0.23554822512E+02  0.32397014287E+01 -0.13739101808E+02  0.27460667283E+02  0.51100000000E-03 0. -1.
        -11    1    4    4    0    0 -0.23682111569E+01  0.46285025344E+00 -0.31951966196E+01  0.40039900274E+01  0.51100000000E-03 0.  1.
         12    1    4    4    0    0 -0.10257702757E+02  0.22153652216E+01  0.20356641113E+02  0.22902426647E+02  0.00000000000E+00 0. -1.
</event>
<event>
 8    1  0.2497772E-006  0.9118800E+02  0.7816164E-02  0.1184000E+00
        -11   -1    0    0    0    0  0.00000000000E+00  0.00000000000E+00  0.45593999997E+02  0.45594000000E+02  0.51100000000E-03 0.  1.
         11   -1    0    0    0    0 -0.00000000000E+00 -0.00000000000E+00 -0.45593999997E+02  0.45594000000E+02  0.51100000000E-03 0. -1.
         23    2    1    2    0    0 -0.17763568394E-14  0.00000000000E+00  0.17763568394E-14  0.91188000000E+02  0.91188000000E+02 0.  0.
    9900012    2    3    3    0    0  0.23800833361E+01  0.36156464127E+02 -0.65441689663E+01  0.54367070594E+02  0.39999969033E+02 0.  0.
        -12    1    3    3    0    0 -0.23800833361E+01 -0.36156464127E+02  0.65441689663E+01  0.36820929406E+02  0.00000000000E+00 0.  1.
         11    1    4    4    0    0 -0.12004829345E+02  0.21520252173E+02  0.21937014530E+00  0.24643159390E+02  0.51100000000E-03 0. -1.
        -11    1    4    4    0    0  0.17520232114E+01  0.11207701369E+02  0.47431666239E+01  0.12295518907E+02  0.51100000000E-03 0.  1.
        -12    1    4    4    0    0  0.12632889469E+02  0.34285105852E+01 -0.11506705736E+02  0.17428392297E+02  0.00000000000E+00 0.  1.
</event>
<event>
 8    1  0.2497772E-006  0.9118800E+02  0.7816164E-02  0.1184000E+00
        -11   -1    0    0    0    0  0.00000000000E+00  0.00000000000E+00  0.45593999997E+02  0.45594000000E+02  0.51100000000E-03 0. -1.
         11   -1    0    0    0    0 -0.00000000000E+00 -0.00000000000E+00 -0.45593999997E+02  0.45594000000E+02  0.51100000000E-03 0.  1.
         23    2    1    2    0    0  0.00000000000E+00 -0.13877787808E-15  0.00000000000E+00  0.91188000000E+02  0.91188000000E+02 0.  0.
    9900012    2    3    3    0    0  0.36447305072E+02 -0.15006286203E+00 -0.52299070468E+01  0.54367075329E+02  0.39999979828E+02 0.  0.
        -12    1    3    3    0    0 -0.36447305072E+02  0.15006286203E+00  0.52299070468E+01  0.36820924671E+02  0.00000000000E+00 0.  1.
         11    1    4    4    0    0  0.32016324170E+02  0.99532681853E+01 -0.72620404736E+01  0.34305244395E+02  0.51100000000E-03 0. -1.
        -11    1    4    4    0    0 -0.82004152110E+00 -0.21369576105E+01 -0.67294126277E+01  0.71080271876E+01  0.51100000000E-03 0.  1.
        -12    1    4    4    0    0  0.52510224238E+01 -0.79663734368E+01  0.87615460544E+01  0.12953803746E+02  0.00000000000E+00 0.  1.
</event>
<event>
 8    1  0.2497772E-006  0.9118800E+02  0.7816164E-02  0.1184000E+00
        -11   -1    0    0    0    0  0.00000000000E+00  0.00000000000E+00  0.45593999997E+02  0.45594000000E+02  0.51100000000E-03 0. -1.
         11   -1    0    0    0    0 -0.00000000000E+00 -0.00000000000E+00 -0.45593999997E+02  0.45594000000E+02  0.51100000000E-03 0.  1.
         23    2    1    2    0    0  0.00000000000E+00  0.27755575616E-16 -0.44408920985E-15  0.91188000000E+02  0.91188000000E+02 0.  0.
    9900012    2    3    3    0    0  0.36795985344E+02  0.14417513042E+00  0.13475516706E+01  0.54367065473E+02  0.39999957360E+02 0.  0.
         12    1    3    3    0    0 -0.36795985344E+02 -0.14417513042E+00 -0.13475516706E+01  0.36820934527E+02  0.00000000000E+00 0. -1.
         11    1    4    4    0    0  0.25826371702E+02  0.91167844719E+01  0.12848409495E+02  0.30252253820E+02  0.51100000000E-03 0. -1.
        -11    1    4    4    0    0  0.90336763097E+00  0.43724658679E+01 -0.20596478631E+01  0.49169787903E+01  0.51100000000E-03 0.  1.
        -12    1    4    4    0    0  0.10066246011E+02 -0.13345075209E+02 -0.94412099612E+01  0.19197832863E+02  0.00000000000E+00 0.  1.
</event>
<event>
 8    1  0.2497772E-006  0.9118800E+02  0.7816164E-02  0.1184000E+00
        -11   -1    0    0    0    0  0.00000000000E+00  0.00000000000E+00  0.45593999997E+02  0.45594000000E+02  0.51100000000E-03 0.  1.
         11   -1    0    0    0    0 -0.00000000000E+00 -0.00000000000E+00 -0.45593999997E+02  0.45594000000E+02  0.51100000000E-03 0. -1.
         23    2    1    2    0    0 -0.17763568394E-14  0.00000000000E+00 -0.35527136788E-14  0.91188000000E+02  0.91188000000E+02 0.  0.
    9900012    2    3    3    0    0 -0.10089039262E+02  0.21602764724E+02  0.28059069354E+02  0.54367088415E+02  0.40000009660E+02 0.  0.
         12    1    3    3    0    0  0.10089039262E+02 -0.21602764724E+02 -0.28059069354E+02  0.36820911585E+02  0.00000000000E+00 0. -1.
         11    1    4    4    0    0  0.33345849371E+01  0.15017931869E+02  0.26482602425E+02  0.30626556544E+02  0.51100000000E-03 0. -1.
        -11    1    4    4    0    0 -0.36646850017E+00  0.51347506766E+01  0.76870517083E+01  0.92515257066E+01  0.51100000000E-03 0.  1.
         12    1    4    4    0    0 -0.13057155699E+02  0.14500821786E+01 -0.61105847792E+01  0.14489006164E+02  0.00000000000E+00 0. -1.
</event>
<event>
 8    1  0.2497772E-006  0.9118800E+02  0.7816164E-02  0.1184000E+00
        -11   -1    0    0    0    0  0.00000000000E+00  0.00000000000E+00  0.45593999997E+02  0.45594000000E+02  0.51100000000E-03 0.  1.
         11   -1    0    0    0    0 -0.00000000000E+00 -0.00000000000E+00 -0.45593999997E+02  0.45594000000E+02  0.51100000000E-03 0. -1.
         23    2    1    2    0    0  0.00000000000E+00  0.00000000000E+00 -0.44408920985E-15  0.91188000000E+02  0.91188000000E+02 0.  0.
    9900012    2    3    3    0    0 -0.17913862901E+02  0.31986804850E+02  0.34230416838E+01  0.54367090412E+02  0.40000014211E+02 0.  0.
        -12    1    3    3    0    0  0.17913862901E+02 -0.31986804850E+02 -0.34230416838E+01  0.36820909588E+02  0.00000000000E+00 0.  1.
         11    1    4    4    0    0 -0.17307590345E+02  0.21440251523E+02 -0.89974238596E+01  0.28986043285E+02  0.51100000000E-03 0. -1.
        -11    1    4    4    0    0 -0.84932212179E+01  0.26954982708E+01  0.11009202628E+02  0.14163440978E+02  0.51100000000E-03 0.  1.
         12    1    4    4    0    0  0.78869486622E+01  0.78510550559E+01  0.14112629157E+01  0.11217606149E+02  0.00000000000E+00 0. -1.
</event>
<event>
 8    1  0.2497772E-006  0.9118800E+02  0.7816164E-02  0.1184000E+00
        -11   -1    0    0    0    0  0.00000000000E+00  0.00000000000E+00  0.45593999997E+02  0.45594000000E+02  0.51100000000E-03 0. -1.
         11   -1    0    0    0    0 -0.00000000000E+00 -0.00000000000E+00 -0.45593999997E+02  0.45594000000E+02  0.51100000000E-03 0.  1.
         23    2    1    2    0    0 -0.35527136788E-14  0.00000000000E+00 -0.35527136788E-14  0.91188000000E+02  0.91188000000E+02 0.  0.
    9900012    2    3    3    0    0 -0.19292475234E+02  0.24731563678E+02  0.19285507621E+02  0.54367073249E+02  0.39999975085E+02 0.  0.
        -12    1    3    3    0    0  0.19292475234E+02 -0.24731563678E+02 -0.19285507621E+02  0.36820926751E+02  0.00000000000E+00 0.  1.
         11    1    4    4    0    0 -0.52413069993E+01  0.31033086215E+01  0.87149055181E+01  0.10632563280E+02  0.51100000000E-03 0.  1.
        -11    1    4    4    0    0 -0.24236243395E+02  0.17893816188E+02  0.25314697743E+01  0.30232308730E+02  0.51100000000E-03 0. -1.
        -12    1    4    4    0    0  0.10185075160E+02  0.37344388690E+01  0.80391323286E+01  0.13502201238E+02  0.00000000000E+00 0.  1.
</event>
<event>
 8    1  0.2497772E-006  0.9118800E+02  0.7816164E-02  0.1184000E+00
        -11   -1    0    0    0    0  0.00000000000E+00  0.00000000000E+00  0.45593999997E+02  0.45594000000E+02  0.51100000000E-03 0.  1.
         11   -1    0    0    0    0 -0.00000000000E+00 -0.00000000000E+00 -0.45593999997E+02  0.45594000000E+02  0.51100000000E-03 0. -1.
         23    2    1    2    0    0  0.00000000000E+00  0.71054273576E-14  0.00000000000E+00  0.91188000000E+02  0.91188000000E+02 0.  0.
    9900012    2    3    3    0    0 -0.63585169376E+01  0.34824847049E+02  0.10128130200E+02  0.54367085686E+02  0.40000003437E+02 0.  0.
        -12    1    3    3    0    0  0.63585169376E+01 -0.34824847049E+02 -0.10128130200E+02  0.36820914314E+02  0.00000000000E+00 0.  1.
         11    1    4    4    0    0  0.57255515089E+01  0.24537627967E+02  0.19188196145E+01  0.25269724876E+02  0.51100000000E-03 0. -1.
        -11    1    4    4    0    0 -0.14216120334E+02  0.93895862685E+01  0.14514289410E+02  0.22381398638E+02  0.51100000000E-03 0.  1.
        -12    1    4    4    0    0  0.21320518878E+01  0.89763281301E+00 -0.63049788242E+01  0.67159621718E+01  0.00000000000E+00 0.  1.
</event>
<event>
 8    1  0.2497772E-006  0.9118800E+02  0.7816164E-02  0.1184000E+00
        -11   -1    0    0    0    0  0.00000000000E+00  0.00000000000E+00  0.45593999997E+02  0.45594000000E+02  0.51100000000E-03 0. -1.
         11   -1    0    0    0    0 -0.00000000000E+00 -0.00000000000E+00 -0.45593999997E+02  0.45594000000E+02  0.51100000000E-03 0.  1.
         23    2    1    2    0    0  0.35527136788E-14  0.11102230246E-15  0.00000000000E+00  0.91188000000E+02  0.91188000000E+02 0.  0.
    9900012    2    3    3    0    0 -0.23272930081E+02 -0.70972287848E+00 -0.28524500792E+02  0.54367080314E+02  0.39999991191E+02 0.  0.
         12    1    3    3    0    0  0.23272930081E+02  0.70972287848E+00  0.28524500792E+02  0.36820919686E+02  0.00000000000E+00 0. -1.
         11    1    4    4    0    0 -0.59309913287E+01 -0.28898352427E+01 -0.10982443945E+01  0.66883441062E+01  0.51100000000E-03 0. -1.
        -11    1    4    4    0    0 -0.13581390311E+02  0.83322179805E+01 -0.34235207702E+02  0.37761481247E+02  0.51100000000E-03 0.  1.
        -12    1    4    4    0    0 -0.37605484412E+01 -0.61521056163E+01  0.68089513045E+01  0.99172549608E+01  0.00000000000E+00 0.  1.
</event>
<event>
 8    1  0.2497772E-006  0.9118800E+02  0.7816164E-02  0.1184000E+00
        -11   -1    0    0    0    0  0.00000000000E+00  0.00000000000E+00  0.45593999997E+02  0.45594000000E+02  0.51100000000E-03 0.  1.
         11   -1    0    0    0    0 -0.00000000000E+00 -0.00000000000E+00 -0.45593999997E+02  0.45594000000E+02  0.51100000000E-03 0. -1.
         23    2    1    2    0    0  0.00000000000E+00  0.17763568394E-14  0.35527136788E-14  0.91188000000E+02  0.91188000000E+02 0.  0.
    9900012    2    3    3    0    0  0.26868636808E+02 -0.83555766664E+01 -0.23749543463E+02  0.54367080402E+02  0.39999991392E+02 0.  0.
        -12    1    3    3    0    0 -0.26868636808E+02  0.83555766664E+01  0.23749543463E+02  0.36820919598E+02  0.00000000000E+00 0.  1.
         11    1    4    4    0    0 -0.52488411687E+01 -0.64483244083E+01 -0.64073012082E+01  0.10496891460E+02  0.51100000000E-03 0. -1.
        -11    1    4    4    0    0  0.15768040176E+02  0.74331944431E+01  0.11611447513E+01  0.17470882290E+02  0.51100000000E-03 0.  1.
         12    1    4    4    0    0  0.16349437802E+02 -0.93404467012E+01 -0.18503387006E+02  0.26399306652E+02  0.00000000000E+00 0. -1.
</event>
<event>
 8    1  0.2497772E-006  0.9118800E+02  0.7816164E-02  0.1184000E+00
        -11   -1    0    0    0    0  0.00000000000E+00  0.00000000000E+00  0.45593999997E+02  0.45594000000E+02  0.51100000000E-03 0.  1.
         11   -1    0    0    0    0 -0.00000000000E+00 -0.00000000000E+00 -0.45593999997E+02  0.45594000000E+02  0.51100000000E-03 0. -1.
         23    2    1    2    0    0 -0.71054273576E-14  0.00000000000E+00  0.00000000000E+00  0.91188000000E+02  0.91188000000E+02 0.  0.
    9900012    2    3    3    0    0  0.34632238011E+02  0.35838670359E+01 -0.11980983274E+02  0.54367082402E+02  0.39999995952E+02 0.  0.
         12    1    3    3    0    0 -0.34632238011E+02 -0.35838670359E+01  0.11980983274E+02  0.36820917598E+02  0.00000000000E+00 0. -1.
         11    1    4    4    0    0 -0.19458682989E+01 -0.24496425598E+01 -0.67557715630E+00  0.32005557116E+01  0.51100000000E-03 0. -1.
        -11    1    4    4    0    0  0.16418714296E+02  0.45096221489E+01  0.11609559738E+02  0.20608074840E+02  0.51100000000E-03 0.  1.
         12    1    4    4    0    0  0.20159392014E+02  0.15238874468E+01 -0.22914965856E+02  0.30558451850E+02  0.00000000000E+00 0. -1.
</event>
<event>
 8    1  0.2497772E-006  0.9118800E+02  0.7816164E-02  0.1184000E+00
        -11   -1    0    0    0    0  0.00000000000E+00  0.00000000000E+00  0.45593999997E+02  0.45594000000E+02  0.51100000000E-03 0.  1.
         11   -1    0    0    0    0 -0.00000000000E+00 -0.00000000000E+00 -0.45593999997E+02  0.45594000000E+02  0.51100000000E-03 0. -1.
         23    2    1    2    0    0  0.88817841970E-15 -0.17763568394E-14  0.00000000000E+00  0.91188000000E+02  0.91188000000E+02 0.  0.
    9900012    2    3    3    0    0  0.66174182221E+01 -0.13325209018E+02 -0.33681284625E+02  0.54367077235E+02  0.39999984172E+02 0.  0.
        -12    1    3    3    0    0 -0.66174182221E+01  0.13325209018E+02  0.33681284625E+02  0.36820922765E+02  0.00000000000E+00 0.  1.
         11    1    4    4    0    0  0.21401835155E-01 -0.11519575870E+02 -0.19496833882E+02  0.22645697560E+02  0.51100000000E-03 0. -1.
        -11    1    4    4    0    0  0.67651496175E+01  0.11641078416E+02 -0.12120822570E+02  0.18116188784E+02  0.51100000000E-03 0.  1.
         12    1    4    4    0    0 -0.16913323053E+00 -0.13446711564E+02 -0.20636281729E+01  0.13605190891E+02  0.00000000000E+00 0. -1.
</event>
<event>
 8    1  0.2497772E-006  0.9118800E+02  0.7816164E-02  0.1184000E+00
        -11   -1    0    0    0    0  0.00000000000E+00  0.00000000000E+00  0.45593999997E+02  0.45594000000E+02  0.51100000000E-03 0.  1.
         11   -1    0    0    0    0 -0.00000000000E+00 -0.00000000000E+00 -0.45593999997E+02  0.45594000000E+02  0.51100000000E-03 0. -1.
         23    2    1    2    0    0 -0.66613381478E-15  0.00000000000E+00  0.88817841970E-15  0.91188000000E+02  0.91188000000E+02 0.  0.
    9900012    2    3    3    0    0 -0.16262928760E+01 -0.36529727321E+02 -0.43260169533E+01  0.54367078918E+02  0.39999988010E+02 0.  0.
         12    1    3    3    0    0  0.16262928760E+01  0.36529727321E+02  0.43260169533E+01  0.36820921082E+02  0.00000000000E+00 0. -1.
         11    1    4    4    0    0 -0.88042372626E+01 -0.33070962704E+01 -0.22202005479E+01  0.96633726127E+01  0.51100000000E-03 0. -1.
        -11    1    4    4    0    0 -0.70937996005E+01 -0.88574287158E+01  0.88751409371E+01  0.14406393134E+02  0.51100000000E-03 0.  1.
        -12    1    4    4    0    0  0.14271743987E+02 -0.24365202334E+02 -0.10980957342E+02  0.30297313171E+02  0.00000000000E+00 0.  1.
</event>
<event>
 8    1  0.2497772E-006  0.9118800E+02  0.7816164E-02  0.1184000E+00
        -11   -1    0    0    0    0  0.00000000000E+00  0.00000000000E+00  0.45593999997E+02  0.45594000000E+02  0.51100000000E-03 0.  1.
         11   -1    0    0    0    0 -0.00000000000E+00 -0.00000000000E+00 -0.45593999997E+02  0.45594000000E+02  0.51100000000E-03 0. -1.
         23    2    1    2    0    0  0.00000000000E+00 -0.71054273576E-14 -0.35527136788E-14  0.91188000000E+02  0.91188000000E+02 0.  0.
    9900012    2    3    3    0    0 -0.18895875640E+02  0.26492485203E+02  0.17230041906E+02  0.54367078875E+02  0.39999987911E+02 0.  0.
         12    1    3    3    0    0  0.18895875640E+02 -0.26492485203E+02 -0.17230041906E+02  0.36820921125E+02  0.00000000000E+00 0. -1.
         11    1    4    4    0    0 -0.86840398549E+01  0.22694398928E+02 -0.23428386540E+01  0.24411824678E+02  0.51100000000E-03 0. -1.
        -11    1    4    4    0    0  0.55555423693E+01  0.37755422935E+01  0.76967949291E+01  0.10215645994E+02  0.51100000000E-03 0.  1.
        -12    1    4    4    0    0 -0.15767378154E+02  0.22543981819E-01  0.11876085631E+02  0.19739608203E+02  0.00000000000E+00 0.  1.
</event>
<event>
 8    1  0.2497772E-006  0.9118800E+02  0.7816164E-02  0.1184000E+00
        -11   -1    0    0    0    0  0.00000000000E+00  0.00000000000E+00  0.45593999997E+02  0.45594000000E+02  0.51100000000E-03 0.  1.
         11   -1    0    0    0    0 -0.00000000000E+00 -0.00000000000E+00 -0.45593999997E+02  0.45594000000E+02  0.51100000000E-03 0. -1.
         23    2    1    2    0    0  0.00000000000E+00  0.00000000000E+00  0.17763568394E-14  0.91188000000E+02  0.91188000000E+02 0.  0.
    9900012    2    3    3    0    0 -0.22781387016E+02 -0.27648248550E+02 -0.85066367889E+01  0.54367080516E+02  0.39999991652E+02 0.  0.
        -12    1    3    3    0    0  0.22781387016E+02  0.27648248550E+02  0.85066367889E+01  0.36820919484E+02  0.00000000000E+00 0.  1.
         11    1    4    4    0    0 -0.19609762451E+02 -0.23408920314E+02 -0.16018083115E+02  0.34483319454E+02  0.51100000000E-03 0. -1.
        -11    1    4    4    0    0 -0.10134343981E+02 -0.38689900278E+01  0.69618266212E+01  0.12889571053E+02  0.51100000000E-03 0.  1.
         12    1    4    4    0    0  0.69627194163E+01 -0.37033820822E+00  0.54961970533E+00  0.69941900087E+01  0.00000000000E+00 0. -1.
</event>
<event>
 8    1  0.2497772E-006  0.9118800E+02  0.7816164E-02  0.1184000E+00
        -11   -1    0    0    0    0  0.00000000000E+00  0.00000000000E+00  0.45593999997E+02  0.45594000000E+02  0.51100000000E-03 0. -1.
         11   -1    0    0    0    0 -0.00000000000E+00 -0.00000000000E+00 -0.45593999997E+02  0.45594000000E+02  0.51100000000E-03 0.  1.
         23    2    1    2    0    0  0.71054273576E-14  0.88817841970E-15  0.35527136788E-14  0.91188000000E+02  0.91188000000E+02 0.  0.
    9900012    2    3    3    0    0 -0.29100660235E+02 -0.62168165606E+01 -0.21686118778E+02  0.54367014382E+02  0.39999840886E+02 0.  0.
         12    1    3    3    0    0  0.29100660235E+02  0.62168165606E+01  0.21686118778E+02  0.36820985618E+02  0.00000000000E+00 0. -1.
         11    1    4    4    0    0 -0.12912841267E+02  0.92369558719E+01 -0.94657644902E+00  0.15904679519E+02  0.51100000000E-03 0. -1.
        -11    1    4    4    0    0  0.39420616789E+01 -0.94704028832E+01 -0.22939798023E+01  0.10511456828E+02  0.51100000000E-03 0.  1.
         12    1    4    4    0    0 -0.20129880647E+02 -0.59833695493E+01 -0.18445562526E+02  0.27950878035E+02  0.00000000000E+00 0. -1.
</event>
<event>
 8    1  0.2497772E-006  0.9118800E+02  0.7816164E-02  0.1184000E+00
        -11   -1    0    0    0    0  0.00000000000E+00  0.00000000000E+00  0.45593999997E+02  0.45594000000E+02  0.51100000000E-03 0.  1.
         11   -1    0    0    0    0 -0.00000000000E+00 -0.00000000000E+00 -0.45593999997E+02  0.45594000000E+02  0.51100000000E-03 0. -1.
         23    2    1    2    0    0  0.35527136788E-14  0.35527136788E-14 -0.44408920985E-15  0.91188000000E+02  0.91188000000E+02 0.  0.
    9900012    2    3    3    0    0 -0.31307667433E+02 -0.19365568430E+02  0.76479286575E+00  0.54367079467E+02  0.39999989262E+02 0.  0.
        -12    1    3    3    0    0  0.31307667433E+02  0.19365568430E+02 -0.76479286575E+00  0.36820920533E+02  0.00000000000E+00 0.  1.
         11    1    4    4    0    0 -0.55776581110E+01  0.56558980397E+01 -0.36575258617E+01  0.87451099667E+01  0.51100000000E-03 0. -1.
        -11    1    4    4    0    0  0.29569814710E+01  0.35624127524E+01  0.20283795779E+01  0.50545868289E+01  0.51100000000E-03 0.  1.
         12    1    4    4    0    0 -0.28686990793E+02 -0.28583879222E+02  0.23939391496E+01  0.40567382672E+02  0.00000000000E+00 0. -1.
</event>
<event>
 8    1  0.2497772E-006  0.9118800E+02  0.7816164E-02  0.1184000E+00
        -11   -1    0    0    0    0  0.00000000000E+00  0.00000000000E+00  0.45593999997E+02  0.45594000000E+02  0.51100000000E-03 0.  1.
         11   -1    0    0    0    0 -0.00000000000E+00 -0.00000000000E+00 -0.45593999997E+02  0.45594000000E+02  0.51100000000E-03 0. -1.
         23    2    1    2    0    0  0.17763568394E-14 -0.66613381478E-15  0.00000000000E+00  0.91188000000E+02  0.91188000000E+02 0.  0.
    9900012    2    3    3    0    0  0.10612685773E+02  0.13904040325E+01 -0.35230923241E+02  0.54367078296E+02  0.39999986592E+02 0.  0.
        -12    1    3    3    0    0 -0.10612685773E+02 -0.13904040325E+01  0.35230923241E+02  0.36820921704E+02  0.00000000000E+00 0.  1.
         11    1    4    4    0    0 -0.28806348615E+01  0.47261296366E+01 -0.27704987854E+01  0.61895090539E+01  0.51100000000E-03 0. -1.
        -11    1    4    4    0    0 -0.67098049177E+01  0.39599680700E+01  0.15577219811E+01  0.79453966030E+01  0.51100000000E-03 0.  1.
         12    1    4    4    0    0  0.20203125552E+02 -0.72956936741E+01 -0.34018146437E+02  0.40232172639E+02  0.00000000000E+00 0. -1.
</event>
<event>
 8    1  0.2497772E-006  0.9118800E+02  0.7816164E-02  0.1184000E+00
        -11   -1    0    0    0    0  0.00000000000E+00  0.00000000000E+00  0.45593999997E+02  0.45594000000E+02  0.51100000000E-03 0. -1.
         11   -1    0    0    0    0 -0.00000000000E+00 -0.00000000000E+00 -0.45593999997E+02  0.45594000000E+02  0.51100000000E-03 0.  1.
         23    2    1    2    0    0 -0.71054273576E-14  0.17763568394E-14  0.35527136788E-14  0.91188000000E+02  0.91188000000E+02 0.  0.
    9900012    2    3    3    0    0  0.32781533243E+02 -0.72275505281E+01 -0.15129870725E+02  0.54367090226E+02  0.40000013788E+02 0.  0.
        -12    1    3    3    0    0 -0.32781533243E+02  0.72275505281E+01  0.15129870725E+02  0.36820909774E+02  0.00000000000E+00 0.  1.
         11    1    4    4    0    0  0.29513389167E+02  0.22090518738E+01  0.65136318322E+00  0.29603113427E+02  0.51100000000E-03 0. -1.
        -11    1    4    4    0    0 -0.57463262993E+01 -0.23954408431E+00 -0.25216276455E+01  0.62798291020E+01  0.51100000000E-03 0.  1.
        -12    1    4    4    0    0  0.90144703757E+01 -0.91970583175E+01 -0.13259606263E+02  0.18484147697E+02  0.00000000000E+00 0.  1.
</event>
<event>
 8    1  0.2497772E-006  0.9118800E+02  0.7816164E-02  0.1184000E+00
        -11   -1    0    0    0    0  0.00000000000E+00  0.00000000000E+00  0.45593999997E+02  0.45594000000E+02  0.51100000000E-03 0.  1.
         11   -1    0    0    0    0 -0.00000000000E+00 -0.00000000000E+00 -0.45593999997E+02  0.45594000000E+02  0.51100000000E-03 0. -1.
         23    2    1    2    0    0  0.00000000000E+00  0.00000000000E+00  0.00000000000E+00  0.91188000000E+02  0.91188000000E+02 0.  0.
    9900012    2    3    3    0    0 -0.57240737423E+00 -0.36579534959E+02 -0.41701330227E+01  0.54367081524E+02  0.39999993950E+02 0.  0.
         12    1    3    3    0    0  0.57240737423E+00  0.36579534959E+02  0.41701330227E+01  0.36820918476E+02  0.00000000000E+00 0. -1.
         11    1    4    4    0    0 -0.50589959599E+01 -0.74301084350E+01 -0.67406914327E+01  0.11235518356E+02  0.51100000000E-03 0. -1.
        -11    1    4    4    0    0 -0.71517747513E+01 -0.30509287448E+02  0.20045395869E+01  0.31400361174E+02  0.51100000000E-03 0.  1.
         12    1    4    4    0    0  0.11638363337E+02  0.13598609239E+01  0.56601882317E+00  0.11731201993E+02  0.00000000000E+00 0. -1.
</event>
<event>
 8    1  0.2497772E-006  0.9118800E+02  0.7816164E-02  0.1184000E+00
        -11   -1    0    0    0    0  0.00000000000E+00  0.00000000000E+00  0.45593999997E+02  0.45594000000E+02  0.51100000000E-03 0.  1.
         11   -1    0    0    0    0 -0.00000000000E+00 -0.00000000000E+00 -0.45593999997E+02  0.45594000000E+02  0.51100000000E-03 0. -1.
         23    2    1    2    0    0  0.00000000000E+00  0.00000000000E+00 -0.17763568394E-14  0.91188000000E+02  0.91188000000E+02 0.  0.
    9900012    2    3    3    0    0 -0.13236913037E+02 -0.30424972832E+02 -0.15965069123E+02  0.54367105514E+02  0.40000048641E+02 0.  0.
         12    1    3    3    0    0  0.13236913037E+02  0.30424972832E+02  0.15965069123E+02  0.36820894486E+02  0.00000000000E+00 0. -1.
         11    1    4    4    0    0 -0.81461033842E+01 -0.12386782401E+02 -0.23809165099E+02  0.28047597429E+02  0.51100000000E-03 0. -1.
        -11    1    4    4    0    0 -0.95129447623E+01 -0.12801859572E+02  0.10359743814E+02  0.19018622945E+02  0.51100000000E-03 0.  1.
         12    1    4    4    0    0  0.44221351091E+01 -0.52363308586E+01 -0.25156478389E+01  0.73008851404E+01  0.00000000000E+00 0. -1.
</event>
<event>
 8    1  0.2497772E-006  0.9118800E+02  0.7816164E-02  0.1184000E+00
        -11   -1    0    0    0    0  0.00000000000E+00  0.00000000000E+00  0.45593999997E+02  0.45594000000E+02  0.51100000000E-03 0.  1.
         11   -1    0    0    0    0 -0.00000000000E+00 -0.00000000000E+00 -0.45593999997E+02  0.45594000000E+02  0.51100000000E-03 0. -1.
         23    2    1    2    0    0  0.00000000000E+00  0.00000000000E+00  0.00000000000E+00  0.91188000000E+02  0.91188000000E+02 0.  0.
    9900012    2    3    3    0    0 -0.17549285135E+02  0.32119680576E+02 -0.40160319528E+01  0.54367084725E+02  0.40000001248E+02 0.  0.
        -12    1    3    3    0    0  0.17549285135E+02 -0.32119680576E+02  0.40160319528E+01  0.36820915275E+02  0.00000000000E+00 0.  1.
         11    1    4    4    0    0 -0.94544471706E+01  0.36264738616E+01  0.22582966738E+00  0.10128617046E+02  0.51100000000E-03 0. -1.
        -11    1    4    4    0    0 -0.13839616769E+02  0.33570564553E+02 -0.43479623774E+01  0.36570788531E+02  0.51100000000E-03 0.  1.
        -12    1    4    4    0    0  0.57447788045E+01 -0.50773578390E+01  0.10610075716E+00  0.76676791475E+01  0.00000000000E+00 0.  1.
</event>
<event>
 8    1  0.2497772E-006  0.9118800E+02  0.7816164E-02  0.1184000E+00
        -11   -1    0    0    0    0  0.00000000000E+00  0.00000000000E+00  0.45593999997E+02  0.45594000000E+02  0.51100000000E-03 0. -1.
         11   -1    0    0    0    0 -0.00000000000E+00 -0.00000000000E+00 -0.45593999997E+02  0.45594000000E+02  0.51100000000E-03 0.  1.
         23    2    1    2    0    0  0.00000000000E+00  0.00000000000E+00  0.00000000000E+00  0.91188000000E+02  0.91188000000E+02 0.  0.
    9900012    2    3    3    0    0 -0.15033518881E+02 -0.23607016203E+02  0.23926597459E+02  0.54367082440E+02  0.39999996039E+02 0.  0.
        -12    1    3    3    0    0  0.15033518881E+02  0.23607016203E+02 -0.23926597459E+02  0.36820917560E+02  0.00000000000E+00 0.  1.
         11    1    4    4    0    0 -0.33576476696E+01 -0.22774161636E+02  0.14647638110E+02  0.27285335596E+02  0.51100000000E-03 0. -1.
        -11    1    4    4    0    0  0.25672787053E+00  0.35263544470E+00  0.14136985266E+02  0.14143712866E+02  0.51100000000E-03 0.  1.
         12    1    4    4    0    0 -0.11932599082E+02 -0.11854900114E+01 -0.48580259171E+01  0.12938033978E+02  0.00000000000E+00 0. -1.
</event>
<event>
 8    1  0.2497772E-006  0.9118800E+02  0.7816164E-02  0.1184000E+00
        -11   -1    0    0    0    0  0.00000000000E+00  0.00000000000E+00  0.45593999997E+02  0.45594000000E+02  0.51100000000E-03 0. -1.
         11   -1    0    0    0    0 -0.00000000000E+00 -0.00000000000E+00 -0.45593999997E+02  0.45594000000E+02  0.51100000000E-03 0.  1.
         23    2    1    2    0    0  0.00000000000E+00  0.00000000000E+00  0.35527136788E-14  0.91188000000E+02  0.91188000000E+02 0.  0.
    9900012    2    3    3    0    0 -0.68106412025E+01 -0.25214014028E+02 -0.25954510410E+02  0.54367245694E+02  0.40000368208E+02 0.  0.
         12    1    3    3    0    0  0.68106412025E+01  0.25214014028E+02  0.25954510410E+02  0.36820754306E+02  0.00000000000E+00 0. -1.
         11    1    4    4    0    0  0.86923968455E+01 -0.85866968033E+01  0.14358169510E+01  0.12302467049E+02  0.51100000000E-03 0. -1.
        -11    1    4    4    0    0 -0.18256854624E+02 -0.19860907871E+02 -0.20154526287E+02  0.33674520521E+02  0.51100000000E-03 0.  1.
         12    1    4    4    0    0  0.27538165765E+01  0.32335906458E+01 -0.72358010745E+01  0.83902581242E+01  0.00000000000E+00 0. -1.
</event>
<event>
 8    1  0.2497772E-006  0.9118800E+02  0.7816164E-02  0.1184000E+00
        -11   -1    0    0    0    0  0.00000000000E+00  0.00000000000E+00  0.45593999997E+02  0.45594000000E+02  0.51100000000E-03 0.  1.
         11   -1    0    0    0    0 -0.00000000000E+00 -0.00000000000E+00 -0.45593999997E+02  0.45594000000E+02  0.51100000000E-03 0. -1.
         23    2    1    2    0    0 -0.71054273576E-14 -0.88817841970E-15  0.00000000000E+00  0.91188000000E+02  0.91188000000E+02 0.  0.
    9900012    2    3    3    0    0 -0.35296572040E+02 -0.50246379258E+01 -0.92023424539E+01  0.54367107959E+02  0.40000054215E+02 0.  0.
        -12    1    3    3    0    0  0.35296572040E+02  0.50246379258E+01  0.92023424539E+01  0.36820892041E+02  0.00000000000E+00 0.  1.
         11    1    4    4    0    0 -0.32327074409E+02 -0.18067610628E+01 -0.72658728425E+01  0.33182782190E+02  0.51100000000E-03 0. -1.
        -11    1    4    4    0    0 -0.69162595937E+01  0.34950736168E+01 -0.81321587570E+01  0.11233084735E+02  0.51100000000E-03 0.  1.
        -12    1    4    4    0    0  0.39467619635E+01 -0.67129504798E+01  0.61956891457E+01  0.99512410346E+01  0.00000000000E+00 0.  1.
</event>
<event>
 8    1  0.2497772E-006  0.9118800E+02  0.7816164E-02  0.1184000E+00
        -11   -1    0    0    0    0  0.00000000000E+00  0.00000000000E+00  0.45593999997E+02  0.45594000000E+02  0.51100000000E-03 0.  1.
         11   -1    0    0    0    0 -0.00000000000E+00 -0.00000000000E+00 -0.45593999997E+02  0.45594000000E+02  0.51100000000E-03 0. -1.
         23    2    1    2    0    0  0.00000000000E+00  0.00000000000E+00  0.88817841970E-15  0.91188000000E+02  0.91188000000E+02 0.  0.
    9900012    2    3    3    0    0 -0.18940632971E+02 -0.30763624101E+02  0.71155446316E+01  0.54367093974E+02  0.40000022333E+02 0.  0.
         12    1    3    3    0    0  0.18940632971E+02  0.30763624101E+02 -0.71155446316E+01  0.36820906026E+02  0.00000000000E+00 0. -1.
         11    1    4    4    0    0 -0.18357588089E+01  0.13584103266E+01  0.14091712420E+02  0.14275561222E+02  0.51100000000E-03 0. -1.
        -11    1    4    4    0    0 -0.15968948296E+02 -0.15312669979E+02 -0.71246121596E+01  0.23243176854E+02  0.51100000000E-03 0.  1.
        -12    1    4    4    0    0 -0.11359258656E+01 -0.16809364449E+02  0.14844437155E+00  0.16848355899E+02  0.00000000000E+00 0.  1.
</event>
<event>
 8    1  0.2497772E-006  0.9118800E+02  0.7816164E-02  0.1184000E+00
        -11   -1    0    0    0    0  0.00000000000E+00  0.00000000000E+00  0.45593999997E+02  0.45594000000E+02  0.51100000000E-03 0. -1.
         11   -1    0    0    0    0 -0.00000000000E+00 -0.00000000000E+00 -0.45593999997E+02  0.45594000000E+02  0.51100000000E-03 0.  1.
         23    2    1    2    0    0 -0.35527136788E-14  0.00000000000E+00 -0.35527136788E-14  0.91188000000E+02  0.91188000000E+02 0.  0.
    9900012    2    3    3    0    0  0.27301184763E+02  0.12729925179E+02  0.21174842268E+02  0.54367087062E+02  0.40000006574E+02 0.  0.
        -12    1    3    3    0    0 -0.27301184763E+02 -0.12729925179E+02 -0.21174842268E+02  0.36820912938E+02  0.00000000000E+00 0.  1.
         11    1    4    4    0    0  0.33727124375E+01  0.50352177706E+01  0.17669391292E+02  0.18679828588E+02  0.51100000000E-03 0. -1.
        -11    1    4    4    0    0  0.12141320924E+02 -0.29408043035E+00  0.13599531847E+02  0.18233085965E+02  0.51100000000E-03 0.  1.
        -12    1    4    4    0    0  0.11787151402E+02  0.79887878391E+01 -0.10094080872E+02  0.17454172508E+02  0.00000000000E+00 0.  1.
</event>
<event>
 8    1  0.2497772E-006  0.9118800E+02  0.7816164E-02  0.1184000E+00
        -11   -1    0    0    0    0  0.00000000000E+00  0.00000000000E+00  0.45593999997E+02  0.45594000000E+02  0.51100000000E-03 0. -1.
         11   -1    0    0    0    0 -0.00000000000E+00 -0.00000000000E+00 -0.45593999997E+02  0.45594000000E+02  0.51100000000E-03 0.  1.
         23    2    1    2    0    0  0.00000000000E+00  0.17763568394E-14 -0.35527136788E-14  0.91188000000E+02  0.91188000000E+02 0.  0.
    9900012    2    3    3    0    0  0.23682799139E+02 -0.11003047897E+02  0.25958353740E+02  0.54367106924E+02  0.40000051854E+02 0.  0.
        -12    1    3    3    0    0 -0.23682799139E+02  0.11003047897E+02 -0.25958353740E+02  0.36820893076E+02  0.00000000000E+00 0.  1.
         11    1    4    4    0    0  0.10213879689E+02 -0.11181776267E+02  0.33475537308E+02  0.36741897843E+02  0.51100000000E-03 0.  1.
        -11    1    4    4    0    0  0.33635758065E+01  0.38797437281E+01 -0.30562764210E+01  0.59755233599E+01  0.51100000000E-03 0. -1.
        -12    1    4    4    0    0  0.10105343643E+02 -0.37010153579E+01 -0.44609071472E+01  0.11649685721E+02  0.00000000000E+00 0.  1.
</event>
<event>
 8    1  0.2497772E-006  0.9118800E+02  0.7816164E-02  0.1184000E+00
        -11   -1    0    0    0    0  0.00000000000E+00  0.00000000000E+00  0.45593999997E+02  0.45594000000E+02  0.51100000000E-03 0.  1.
         11   -1    0    0    0    0 -0.00000000000E+00 -0.00000000000E+00 -0.45593999997E+02  0.45594000000E+02  0.51100000000E-03 0. -1.
         23    2    1    2    0    0 -0.44408920985E-15 -0.44408920985E-15  0.00000000000E+00  0.91188000000E+02  0.91188000000E+02 0.  0.
    9900012    2    3    3    0    0  0.20750760047E+01 -0.12647671602E+01  0.36740634165E+02  0.54367085084E+02  0.40000002066E+02 0.  0.
         12    1    3    3    0    0 -0.20750760047E+01  0.12647671602E+01 -0.36740634165E+02  0.36820914916E+02  0.00000000000E+00 0. -1.
         11    1    4    4    0    0  0.11156734996E+02  0.45048596200E+00  0.14093555834E+02  0.17980655985E+02  0.51100000000E-03 0. -1.
        -11    1    4    4    0    0 -0.49791053471E+01  0.81142940317E+00  0.28421560140E+02  0.28865810032E+02  0.51100000000E-03 0.  1.
        -12    1    4    4    0    0 -0.41025536437E+01 -0.25266825254E+01 -0.57744818088E+01  0.75206190666E+01  0.00000000000E+00 0.  1.
</event>
<event>
 8    1  0.2497772E-006  0.9118800E+02  0.7816164E-02  0.1184000E+00
        -11   -1    0    0    0    0  0.00000000000E+00  0.00000000000E+00  0.45593999997E+02  0.45594000000E+02  0.51100000000E-03 0. -1.
         11   -1    0    0    0    0 -0.00000000000E+00 -0.00000000000E+00 -0.45593999997E+02  0.45594000000E+02  0.51100000000E-03 0.  1.
         23    2    1    2    0    0 -0.35527136788E-14 -0.88817841970E-15  0.00000000000E+00  0.91188000000E+02  0.91188000000E+02 0.  0.
    9900012    2    3    3    0    0  0.26014250646E+02  0.76053323114E+01 -0.24923835784E+02  0.54367083302E+02  0.39999998004E+02 0.  0.
         12    1    3    3    0    0 -0.26014250646E+02 -0.76053323114E+01  0.24923835784E+02  0.36820916698E+02  0.00000000000E+00 0. -1.
         11    1    4    4    0    0 -0.30351651705E+00  0.45967980622E+01  0.32374448114E+01  0.56306059948E+01  0.51100000000E-03 0. -1.
        -11    1    4    4    0    0  0.32089599901E+02 -0.91984225392E+00 -0.19309431149E+02  0.37462550142E+02  0.51100000000E-03 0.  1.
        -12    1    4    4    0    0 -0.57718327378E+01  0.39283765031E+01 -0.88518494465E+01  0.11273927165E+02  0.00000000000E+00 0.  1.
</event>
<event>
 8    1  0.2497772E-006  0.9118800E+02  0.7816164E-02  0.1184000E+00
        -11   -1    0    0    0    0  0.00000000000E+00  0.00000000000E+00  0.45593999997E+02  0.45594000000E+02  0.51100000000E-03 0.  1.
         11   -1    0    0    0    0 -0.00000000000E+00 -0.00000000000E+00 -0.45593999997E+02  0.45594000000E+02  0.51100000000E-03 0. -1.
         23    2    1    2    0    0  0.00000000000E+00 -0.17763568394E-14  0.00000000000E+00  0.91188000000E+02  0.91188000000E+02 0.  0.
    9900012    2    3    3    0    0 -0.34942146972E+02 -0.94364619991E+01  0.67661407824E+01  0.54367066943E+02  0.39999960711E+02 0.  0.
         12    1    3    3    0    0  0.34942146972E+02  0.94364619991E+01 -0.67661407824E+01  0.36820933057E+02  0.00000000000E+00 0. -1.
         11    1    4    4    0    0 -0.90344287310E+00 -0.75172363671E+00  0.63138979657E+01  0.64223520017E+01  0.51100000000E-03 0. -1.
        -11    1    4    4    0    0 -0.30192108317E+02 -0.17796772356E+02  0.74485043809E+01  0.35829718512E+02  0.51100000000E-03 0.  1.
        -12    1    4    4    0    0 -0.38465957822E+01  0.91120339937E+01 -0.69962615642E+01  0.12114996430E+02  0.00000000000E+00 0.  1.
</event>
<event>
 8    1  0.2497772E-006  0.9118800E+02  0.7816164E-02  0.1184000E+00
        -11   -1    0    0    0    0  0.00000000000E+00  0.00000000000E+00  0.45593999997E+02  0.45594000000E+02  0.51100000000E-03 0.  1.
         11   -1    0    0    0    0 -0.00000000000E+00 -0.00000000000E+00 -0.45593999997E+02  0.45594000000E+02  0.51100000000E-03 0. -1.
         23    2    1    2    0    0  0.00000000000E+00  0.00000000000E+00  0.17763568394E-14  0.91188000000E+02  0.91188000000E+02 0.  0.
    9900012    2    3    3    0    0 -0.64679213434E+01 -0.34176417434E+02 -0.12079685594E+02  0.54367077698E+02  0.39999985228E+02 0.  0.
        -12    1    3    3    0    0  0.64679213434E+01  0.34176417434E+02  0.12079685594E+02  0.36820922302E+02  0.00000000000E+00 0.  1.
         11    1    4    4    0    0  0.42171938768E+01 -0.13844751272E+02  0.93961207765E+01  0.17255403440E+02  0.51100000000E-03 0. -1.
        -11    1    4    4    0    0 -0.32113323135E+01 -0.45787519188E+01  0.35401185445E+01  0.66189171268E+01  0.51100000000E-03 0.  1.
         12    1    4    4    0    0 -0.74737829067E+01 -0.15752914243E+02 -0.25015924915E+02  0.30492757131E+02  0.00000000000E+00 0. -1.
</event>
<event>
 8    1  0.2497772E-006  0.9118800E+02  0.7816164E-02  0.1184000E+00
        -11   -1    0    0    0    0  0.00000000000E+00  0.00000000000E+00  0.45593999997E+02  0.45594000000E+02  0.51100000000E-03 0. -1.
         11   -1    0    0    0    0 -0.00000000000E+00 -0.00000000000E+00 -0.45593999997E+02  0.45594000000E+02  0.51100000000E-03 0.  1.
         23    2    1    2    0    0  0.00000000000E+00  0.00000000000E+00 -0.35527136788E-14  0.91188000000E+02  0.91188000000E+02 0.  0.
    9900012    2    3    3    0    0  0.27219427844E+02  0.71766324661E+01  0.23735583725E+02  0.54367092346E+02  0.40000018620E+02 0.  0.
        -12    1    3    3    0    0 -0.27219427844E+02 -0.71766324661E+01 -0.23735583725E+02  0.36820907654E+02  0.00000000000E+00 0.  1.
         11    1    4    4    0    0 -0.13330984774E+00  0.38301853632E+01  0.13079345442E+02  0.13629283506E+02  0.51100000000E-03 0. -1.
        -11    1    4    4    0    0  0.26300948644E+02  0.14025844516E+01  0.18761053315E+02  0.32337041678E+02  0.51100000000E-03 0.  1.
        -12    1    4    4    0    0  0.10517890476E+01  0.19438626513E+01 -0.81048150316E+01  0.84007671617E+01  0.00000000000E+00 0.  1.
</event>
<event>
 8    1  0.2497772E-006  0.9118800E+02  0.7816164E-02  0.1184000E+00
        -11   -1    0    0    0    0  0.00000000000E+00  0.00000000000E+00  0.45593999997E+02  0.45594000000E+02  0.51100000000E-03 0. -1.
         11   -1    0    0    0    0 -0.00000000000E+00 -0.00000000000E+00 -0.45593999997E+02  0.45594000000E+02  0.51100000000E-03 0.  1.
         23    2    1    2    0    0  0.35527136788E-14  0.00000000000E+00  0.00000000000E+00  0.91188000000E+02  0.91188000000E+02 0.  0.
    9900012    2    3    3    0    0  0.31224409096E+02  0.15094236740E+02 -0.12368525706E+02  0.54367080209E+02  0.39999990952E+02 0.  0.
         12    1    3    3    0    0 -0.31224409096E+02 -0.15094236740E+02  0.12368525706E+02  0.36820919791E+02  0.00000000000E+00 0. -1.
         11    1    4    4    0    0 -0.97203535357E+00 -0.19960430430E+01  0.10184427538E+02  0.10423608066E+02  0.51100000000E-03 0. -1.
        -11    1    4    4    0    0  0.52894069374E+01  0.55155754317E+01 -0.85816629073E+01  0.11491054634E+02  0.51100000000E-03 0.  1.
         12    1    4    4    0    0  0.26907037512E+02  0.11574704351E+02 -0.13971290337E+02  0.32452417509E+02  0.00000000000E+00 0. -1.
</event>
<event>
 8    1  0.2497772E-006  0.9118800E+02  0.7816164E-02  0.1184000E+00
        -11   -1    0    0    0    0  0.00000000000E+00  0.00000000000E+00  0.45593999997E+02  0.45594000000E+02  0.51100000000E-03 0.  1.
         11   -1    0    0    0    0 -0.00000000000E+00 -0.00000000000E+00 -0.45593999997E+02  0.45594000000E+02  0.51100000000E-03 0. -1.
         23    2    1    2    0    0  0.17763568394E-14  0.00000000000E+00  0.00000000000E+00  0.91188000000E+02  0.91188000000E+02 0.  0.
    9900012    2    3    3    0    0 -0.12582628498E+02  0.71171774301E+01 -0.33864475749E+02  0.54367089199E+02  0.40000011446E+02 0.  0.
        -12    1    3    3    0    0  0.12582628498E+02 -0.71171774301E+01  0.33864475749E+02  0.36820910801E+02  0.00000000000E+00 0.  1.
         11    1    4    4    0    0 -0.38023530595E+01 -0.48688882701E+01 -0.86133668131E+01  0.10599719331E+02  0.51100000000E-03 0. -1.
        -11    1    4    4    0    0 -0.19140868775E+02  0.95288080521E+01 -0.67514198210E+01  0.22422147761E+02  0.51100000000E-03 0.  1.
        -12    1    4    4    0    0  0.10360593337E+02  0.24572576480E+01 -0.18499689115E+02  0.21345222107E+02  0.00000000000E+00 0.  1.
</event>
<event>
 8    1  0.2497772E-006  0.9118800E+02  0.7816164E-02  0.1184000E+00
        -11   -1    0    0    0    0  0.00000000000E+00  0.00000000000E+00  0.45593999997E+02  0.45594000000E+02  0.51100000000E-03 0. -1.
         11   -1    0    0    0    0 -0.00000000000E+00 -0.00000000000E+00 -0.45593999997E+02  0.45594000000E+02  0.51100000000E-03 0.  1.
         23    2    1    2    0    0  0.00000000000E+00  0.00000000000E+00  0.00000000000E+00  0.91188000000E+02  0.91188000000E+02 0.  0.
    9900012    2    3    3    0    0 -0.18726681591E+02 -0.17901314964E+02  0.26165486046E+02  0.54367104561E+02  0.40000046468E+02 0.  0.
        -12    1    3    3    0    0  0.18726681591E+02  0.17901314964E+02 -0.26165486046E+02  0.36820895439E+02  0.00000000000E+00 0.  1.
         11    1    4    4    0    0 -0.63167052661E+01 -0.10002002398E+02 -0.52335684234E+01  0.12935650587E+02  0.51100000000E-03 0.  1.
        -11    1    4    4    0    0 -0.73357651166E+01 -0.15607072367E+02  0.24257498830E+02  0.29762735215E+02  0.51100000000E-03 0. -1.
         12    1    4    4    0    0 -0.50742112085E+01  0.77077598012E+01  0.71415556394E+01  0.11668718760E+02  0.00000000000E+00 0. -1.
</event>
<event>
 8    1  0.2497772E-006  0.9118800E+02  0.7816164E-02  0.1184000E+00
        -11   -1    0    0    0    0  0.00000000000E+00  0.00000000000E+00  0.45593999997E+02  0.45594000000E+02  0.51100000000E-03 0. -1.
         11   -1    0    0    0    0 -0.00000000000E+00 -0.00000000000E+00 -0.45593999997E+02  0.45594000000E+02  0.51100000000E-03 0.  1.
         23    2    1    2    0    0  0.00000000000E+00  0.00000000000E+00  0.00000000000E+00  0.91188000000E+02  0.91188000000E+02 0.  0.
    9900012    2    3    3    0    0  0.22145519498E+02  0.18896182715E+02 -0.22545300362E+02  0.54367077640E+02  0.39999985097E+02 0.  0.
         12    1    3    3    0    0 -0.22145519498E+02 -0.18896182715E+02  0.22545300362E+02  0.36820922360E+02  0.00000000000E+00 0. -1.
         11    1    4    4    0    0  0.15698132696E+02  0.77569307787E+01 -0.15027502052E+02  0.23074383273E+02  0.51100000000E-03 0. -1.
        -11    1    4    4    0    0 -0.65470027559E+01  0.15314223700E+02 -0.52060680243E+01  0.17449694471E+02  0.51100000000E-03 0.  1.
         12    1    4    4    0    0  0.12994389558E+02 -0.41749717636E+01 -0.23117302856E+01  0.13842999896E+02  0.00000000000E+00 0. -1.
</event>
<event>
 8    1  0.2497772E-006  0.9118800E+02  0.7816164E-02  0.1184000E+00
        -11   -1    0    0    0    0  0.00000000000E+00  0.00000000000E+00  0.45593999997E+02  0.45594000000E+02  0.51100000000E-03 0. -1.
         11   -1    0    0    0    0 -0.00000000000E+00 -0.00000000000E+00 -0.45593999997E+02  0.45594000000E+02  0.51100000000E-03 0.  1.
         23    2    1    2    0    0  0.17763568394E-14  0.00000000000E+00  0.17763568394E-14  0.91188000000E+02  0.91188000000E+02 0.  0.
    9900012    2    3    3    0    0 -0.13416445349E+02  0.32903019253E+02  0.96524360624E+01  0.54367092845E+02  0.40000019759E+02 0.  0.
        -12    1    3    3    0    0  0.13416445349E+02 -0.32903019253E+02 -0.96524360624E+01  0.36820907155E+02  0.00000000000E+00 0.  1.
         11    1    4    4    0    0 -0.15673377201E+02  0.26085406338E+01  0.16366090325E+02  0.22810264135E+02  0.51100000000E-03 0. -1.
        -11    1    4    4    0    0  0.34523273753E+01  0.16799844710E+02 -0.52176846442E+01  0.17927006998E+02  0.51100000000E-03 0.  1.
         12    1    4    4    0    0 -0.11953955229E+01  0.13494633910E+02 -0.14959696183E+01  0.13629821712E+02  0.00000000000E+00 0. -1.
</event>
<event>
 8    1  0.2497772E-006  0.9118800E+02  0.7816164E-02  0.1184000E+00
        -11   -1    0    0    0    0  0.00000000000E+00  0.00000000000E+00  0.45593999997E+02  0.45594000000E+02  0.51100000000E-03 0.  1.
         11   -1    0    0    0    0 -0.00000000000E+00 -0.00000000000E+00 -0.45593999997E+02  0.45594000000E+02  0.51100000000E-03 0. -1.
         23    2    1    2    0    0  0.17763568394E-14  0.00000000000E+00  0.26645352591E-14  0.91188000000E+02  0.91188000000E+02 0.  0.
    9900012    2    3    3    0    0 -0.74019908427E+01 -0.36054317531E+02 -0.10373007239E+01  0.54367091893E+02  0.40000017589E+02 0.  0.
        -12    1    3    3    0    0  0.74019908427E+01  0.36054317531E+02  0.10373007239E+01  0.36820908107E+02  0.00000000000E+00 0.  1.
         11    1    4    4    0    0  0.19429419352E+01 -0.27176205632E+02 -0.15742286596E+02  0.31466502244E+02  0.51100000000E-03 0. -1.
        -11    1    4    4    0    0  0.23824172511E+01  0.46034874351E+00  0.31319239335E+01  0.39619162927E+01  0.51100000000E-03 0.  1.
         12    1    4    4    0    0 -0.11727350029E+02 -0.93384606422E+01  0.11573061939E+02  0.18938673357E+02  0.00000000000E+00 0. -1.
</event>
<event>
 8    1  0.2497772E-006  0.9118800E+02  0.7816164E-02  0.1184000E+00
        -11   -1    0    0    0    0  0.00000000000E+00  0.00000000000E+00  0.45593999997E+02  0.45594000000E+02  0.51100000000E-03 0. -1.
         11   -1    0    0    0    0 -0.00000000000E+00 -0.00000000000E+00 -0.45593999997E+02  0.45594000000E+02  0.51100000000E-03 0.  1.
         23    2    1    2    0    0  0.00000000000E+00 -0.88817841970E-15  0.00000000000E+00  0.91188000000E+02  0.91188000000E+02 0.  0.
    9900012    2    3    3    0    0  0.35982201591E+02 -0.75401577504E+01  0.20512822877E+01  0.54367074302E+02  0.39999977485E+02 0.  0.
        -12    1    3    3    0    0 -0.35982201591E+02  0.75401577504E+01 -0.20512822877E+01  0.36820925698E+02  0.00000000000E+00 0.  1.
         11    1    4    4    0    0  0.42548775850E+02 -0.60042302599E+01  0.67342278926E+01  0.43494815012E+02  0.51100000000E-03 0. -1.
        -11    1    4    4    0    0 -0.26315754911E+01  0.27936847355E+01 -0.10258476609E+01  0.39726851941E+01  0.51100000000E-03 0.  1.
         12    1    4    4    0    0 -0.39349987675E+01 -0.43296122260E+01 -0.36570979441E+01  0.68995740956E+01  0.00000000000E+00 0. -1.
</event>
<event>
 8    1  0.2497772E-006  0.9118800E+02  0.7816164E-02  0.1184000E+00
        -11   -1    0    0    0    0  0.00000000000E+00  0.00000000000E+00  0.45593999997E+02  0.45594000000E+02  0.51100000000E-03 0.  1.
         11   -1    0    0    0    0 -0.00000000000E+00 -0.00000000000E+00 -0.45593999997E+02  0.45594000000E+02  0.51100000000E-03 0. -1.
         23    2    1    2    0    0  0.00000000000E+00 -0.71054273576E-14  0.00000000000E+00  0.91188000000E+02  0.91188000000E+02 0.  0.
    9900012    2    3    3    0    0  0.14048794987E+01 -0.35696677069E+02 -0.89192953822E+01  0.54367078362E+02  0.39999986741E+02 0.  0.
         12    1    3    3    0    0 -0.14048794987E+01  0.35696677069E+02  0.89192953822E+01  0.36820921638E+02  0.00000000000E+00 0. -1.
         11    1    4    4    0    0  0.55070498474E+01  0.52140993773E+01  0.28268797569E+01  0.80935579172E+01  0.51100000000E-03 0. -1.
        -11    1    4    4    0    0 -0.99371677609E+01 -0.16556260084E+02 -0.20490994125E+01  0.19417926248E+02  0.51100000000E-03 0.  1.
        -12    1    4    4    0    0  0.58349974122E+01 -0.24354516362E+02 -0.96970757266E+01  0.26855594197E+02  0.00000000000E+00 0.  1.
</event>
<event>
 8    1  0.2497772E-006  0.9118800E+02  0.7816164E-02  0.1184000E+00
        -11   -1    0    0    0    0  0.00000000000E+00  0.00000000000E+00  0.45593999997E+02  0.45594000000E+02  0.51100000000E-03 0.  1.
         11   -1    0    0    0    0 -0.00000000000E+00 -0.00000000000E+00 -0.45593999997E+02  0.45594000000E+02  0.51100000000E-03 0. -1.
         23    2    1    2    0    0 -0.14432899320E-14  0.00000000000E+00  0.00000000000E+00  0.91188000000E+02  0.91188000000E+02 0.  0.
    9900012    2    3    3    0    0 -0.87275160159E+00 -0.85349878082E+01  0.35807438982E+02  0.54367076618E+02  0.39999982766E+02 0.  0.
         12    1    3    3    0    0  0.87275160159E+00  0.85349878082E+01 -0.35807438982E+02  0.36820923382E+02  0.00000000000E+00 0. -1.
         11    1    4    4    0    0  0.15328436250E+02  0.18416380985E+01  0.27792717721E+02  0.31792888314E+02  0.51100000000E-03 0. -1.
        -11    1    4    4    0    0 -0.11427276381E+02 -0.28989174360E+01  0.68272075201E+01  0.13623403781E+02  0.51100000000E-03 0.  1.
         12    1    4    4    0    0 -0.47739114705E+01 -0.74777084707E+01  0.11875137414E+01  0.89507845235E+01  0.00000000000E+00 0. -1.
</event>
<event>
 8    1  0.2497772E-006  0.9118800E+02  0.7816164E-02  0.1184000E+00
        -11   -1    0    0    0    0  0.00000000000E+00  0.00000000000E+00  0.45593999997E+02  0.45594000000E+02  0.51100000000E-03 0.  1.
         11   -1    0    0    0    0 -0.00000000000E+00 -0.00000000000E+00 -0.45593999997E+02  0.45594000000E+02  0.51100000000E-03 0. -1.
         23    2    1    2    0    0  0.00000000000E+00  0.00000000000E+00  0.00000000000E+00  0.91188000000E+02  0.91188000000E+02 0.  0.
    9900012    2    3    3    0    0  0.12869903621E+02 -0.31716882129E+02  0.13571474903E+02  0.54367082545E+02  0.39999996277E+02 0.  0.
         12    1    3    3    0    0 -0.12869903621E+02  0.31716882129E+02 -0.13571474903E+02  0.36820917455E+02  0.00000000000E+00 0. -1.
         11    1    4    4    0    0  0.21313616820E+02 -0.26908463832E+02  0.16586822522E+02  0.38124249100E+02  0.51100000000E-03 0. -1.
        -11    1    4    4    0    0 -0.85582204548E+01 -0.81166332716E+01 -0.44699404751E-01  0.11795120657E+02  0.51100000000E-03 0.  1.
         12    1    4    4    0    0  0.11450725581E+00  0.33082149749E+01 -0.29706482142E+01  0.44477127880E+01  0.00000000000E+00 0. -1.
</event>
<event>
 8    1  0.2497772E-006  0.9118800E+02  0.7816164E-02  0.1184000E+00
        -11   -1    0    0    0    0  0.00000000000E+00  0.00000000000E+00  0.45593999997E+02  0.45594000000E+02  0.51100000000E-03 0. -1.
         11   -1    0    0    0    0 -0.00000000000E+00 -0.00000000000E+00 -0.45593999997E+02  0.45594000000E+02  0.51100000000E-03 0.  1.
         23    2    1    2    0    0  0.00000000000E+00 -0.71054273576E-14 -0.17763568394E-14  0.91188000000E+02  0.91188000000E+02 0.  0.
    9900012    2    3    3    0    0  0.26883556664E+01  0.34447982056E+02  0.12723501563E+02  0.54367106258E+02  0.40000050337E+02 0.  0.
        -12    1    3    3    0    0 -0.26883556664E+01 -0.34447982056E+02 -0.12723501563E+02  0.36820893742E+02  0.00000000000E+00 0.  1.
         11    1    4    4    0    0 -0.25012584169E+01  0.16241932553E+02 -0.53694820659E+01  0.17288377733E+02  0.51100000000E-03 0. -1.
        -11    1    4    4    0    0  0.37445591894E+00 -0.67389991054E+01  0.55877569486E+01  0.87622687790E+01  0.51100000000E-03 0.  1.
         12    1    4    4    0    0  0.48151581643E+01  0.24945048609E+02  0.12505226681E+02  0.28316459747E+02  0.00000000000E+00 0. -1.
</event>
<event>
 8    1  0.2497772E-006  0.9118800E+02  0.7816164E-02  0.1184000E+00
        -11   -1    0    0    0    0  0.00000000000E+00  0.00000000000E+00  0.45593999997E+02  0.45594000000E+02  0.51100000000E-03 0.  1.
         11   -1    0    0    0    0 -0.00000000000E+00 -0.00000000000E+00 -0.45593999997E+02  0.45594000000E+02  0.51100000000E-03 0. -1.
         23    2    1    2    0    0  0.35527136788E-14  0.00000000000E+00  0.88817841970E-15  0.91188000000E+02  0.91188000000E+02 0.  0.
    9900012    2    3    3    0    0 -0.17939902920E+02  0.31445181118E+02 -0.67186242367E+01  0.54367089583E+02  0.40000012322E+02 0.  0.
        -12    1    3    3    0    0  0.17939902920E+02 -0.31445181118E+02  0.67186242367E+01  0.36820910417E+02  0.00000000000E+00 0.  1.
         11    1    4    4    0    0  0.12011863937E+01  0.70083557079E+01 -0.11158315048E+02  0.13231322437E+02  0.51100000000E-03 0. -1.
        -11    1    4    4    0    0  0.41767587748E+01  0.13145900192E+02 -0.31314871081E+01  0.14144476572E+02  0.51100000000E-03 0.  1.
         12    1    4    4    0    0 -0.23317848089E+02  0.11290925218E+02  0.75711779190E+01  0.26991290574E+02  0.00000000000E+00 0. -1.
</event>
<event>
 8    1  0.2497772E-006  0.9118800E+02  0.7816164E-02  0.1184000E+00
        -11   -1    0    0    0    0  0.00000000000E+00  0.00000000000E+00  0.45593999997E+02  0.45594000000E+02  0.51100000000E-03 0.  1.
         11   -1    0    0    0    0 -0.00000000000E+00 -0.00000000000E+00 -0.45593999997E+02  0.45594000000E+02  0.51100000000E-03 0. -1.
         23    2    1    2    0    0 -0.13322676296E-14  0.00000000000E+00  0.00000000000E+00  0.91188000000E+02  0.91188000000E+02 0.  0.
    9900012    2    3    3    0    0  0.25038391178E+01  0.36461473355E+02 -0.44800767790E+01  0.54367091028E+02  0.40000015618E+02 0.  0.
        -12    1    3    3    0    0 -0.25038391178E+01 -0.36461473355E+02  0.44800767790E+01  0.36820908972E+02  0.00000000000E+00 0.  1.
         11    1    4    4    0    0 -0.14204265244E+02  0.94920899103E+01 -0.16243706389E+01  0.17160987798E+02  0.51100000000E-03 0. -1.
        -11    1    4    4    0    0  0.61965755171E+01 -0.10723437409E+01  0.25300336367E+01  0.67785352180E+01  0.51100000000E-03 0.  1.
         12    1    4    4    0    0  0.10511528844E+02  0.28041727186E+02 -0.53857397767E+01  0.30427568012E+02  0.00000000000E+00 0. -1.
</event>
<event>
 8    1  0.2497772E-006  0.9118800E+02  0.7816164E-02  0.1184000E+00
        -11   -1    0    0    0    0  0.00000000000E+00  0.00000000000E+00  0.45593999997E+02  0.45594000000E+02  0.51100000000E-03 0. -1.
         11   -1    0    0    0    0 -0.00000000000E+00 -0.00000000000E+00 -0.45593999997E+02  0.45594000000E+02  0.51100000000E-03 0.  1.
         23    2    1    2    0    0  0.00000000000E+00 -0.17763568394E-14  0.12212453271E-14  0.91188000000E+02  0.91188000000E+02 0.  0.
    9900012    2    3    3    0    0 -0.35154672743E+02 -0.10919094709E+02  0.83771009975E+00  0.54367090137E+02  0.40000013585E+02 0.  0.
         12    1    3    3    0    0  0.35154672743E+02  0.10919094709E+02 -0.83771009975E+00  0.36820909863E+02  0.00000000000E+00 0. -1.
         11    1    4    4    0    0 -0.73456978846E+01 -0.12752061593E+02 -0.38713920350E+01  0.15217162312E+02  0.51100000000E-03 0. -1.
        -11    1    4    4    0    0 -0.32006663048E+02 -0.98698470596E+00  0.81383791772E+01  0.33039882478E+02  0.51100000000E-03 0.  1.
        -12    1    4    4    0    0  0.41976881894E+01  0.28199515901E+01 -0.34292770424E+01  0.61100453468E+01  0.00000000000E+00 0.  1.
</event>
<event>
 8    1  0.2497772E-006  0.9118800E+02  0.7816164E-02  0.1184000E+00
        -11   -1    0    0    0    0  0.00000000000E+00  0.00000000000E+00  0.45593999997E+02  0.45594000000E+02  0.51100000000E-03 0.  1.
         11   -1    0    0    0    0 -0.00000000000E+00 -0.00000000000E+00 -0.45593999997E+02  0.45594000000E+02  0.51100000000E-03 0. -1.
         23    2    1    2    0    0  0.00000000000E+00  0.00000000000E+00  0.00000000000E+00  0.91188000000E+02  0.91188000000E+02 0.  0.
    9900012    2    3    3    0    0 -0.68576951280E+01 -0.21260393023E+02  0.29270257412E+02  0.54367078462E+02  0.39999986970E+02 0.  0.
         12    1    3    3    0    0  0.68576951280E+01  0.21260393023E+02 -0.29270257412E+02  0.36820921538E+02  0.00000000000E+00 0. -1.
         11    1    4    4    0    0  0.18042438549E+01 -0.12862321113E+02  0.23451028549E+02  0.26807561257E+02  0.51100000000E-03 0.  1.
        -11    1    4    4    0    0 -0.14657771730E+02 -0.26396647206E+01  0.10307109266E+02  0.18112277703E+02  0.51100000000E-03 0. -1.
        -12    1    4    4    0    0  0.59958327467E+01 -0.57584071899E+01 -0.44878804033E+01  0.94472395019E+01  0.00000000000E+00 0.  1.
</event>
<event>
 8    1  0.2497772E-006  0.9118800E+02  0.7816164E-02  0.1184000E+00
        -11   -1    0    0    0    0  0.00000000000E+00  0.00000000000E+00  0.45593999997E+02  0.45594000000E+02  0.51100000000E-03 0.  1.
         11   -1    0    0    0    0 -0.00000000000E+00 -0.00000000000E+00 -0.45593999997E+02  0.45594000000E+02  0.51100000000E-03 0. -1.
         23    2    1    2    0    0  0.17763568394E-14 -0.71054273576E-14  0.35527136788E-14  0.91188000000E+02  0.91188000000E+02 0.  0.
    9900012    2    3    3    0    0 -0.15492050540E+02  0.24417043198E+02 -0.22794371502E+02  0.54367095602E+02  0.40000026045E+02 0.  0.
        -12    1    3    3    0    0  0.15492050540E+02 -0.24417043198E+02  0.22794371502E+02  0.36820904398E+02  0.00000000000E+00 0.  1.
         11    1    4    4    0    0  0.39175466229E+01  0.16800359438E+01  0.44016610664E+01  0.61273414071E+01  0.51100000000E-03 0. -1.
        -11    1    4    4    0    0  0.35564061368E+01  0.85404645966E+01  0.87367006889E+00  0.92925163323E+01  0.51100000000E-03 0.  1.
         12    1    4    4    0    0 -0.22966003299E+02  0.14196542658E+02 -0.28069702638E+02  0.38947237863E+02  0.00000000000E+00 0. -1.
</event>
<event>
 8    1  0.2497772E-006  0.9118800E+02  0.7816164E-02  0.1184000E+00
        -11   -1    0    0    0    0  0.00000000000E+00  0.00000000000E+00  0.45593999997E+02  0.45594000000E+02  0.51100000000E-03 0.  1.
         11   -1    0    0    0    0 -0.00000000000E+00 -0.00000000000E+00 -0.45593999997E+02  0.45594000000E+02  0.51100000000E-03 0. -1.
         23    2    1    2    0    0 -0.71054273576E-14  0.24424906542E-14  0.26645352591E-14  0.91188000000E+02  0.91188000000E+02 0.  0.
    9900012    2    3    3    0    0  0.36389500997E+02  0.49875999304E+00 -0.55974917420E+01  0.54367130128E+02  0.40000104753E+02 0.  0.
        -12    1    3    3    0    0 -0.36389500997E+02 -0.49875999304E+00  0.55974917420E+01  0.36820869872E+02  0.00000000000E+00 0.  1.
         11    1    4    4    0    0  0.55940155542E+01  0.87407796566E+01 -0.24938132382E+00  0.10380579480E+02  0.51100000000E-03 0. -1.
        -11    1    4    4    0    0  0.21189672302E+01  0.13626827354E+01 -0.12630958159E+02  0.12879752740E+02  0.51100000000E-03 0.  1.
         12    1    4    4    0    0  0.28676518212E+02 -0.96047023990E+01  0.72828477408E+01  0.31106797909E+02  0.00000000000E+00 0. -1.
</event>
<event>
 8    1  0.2497772E-006  0.9118800E+02  0.7816164E-02  0.1184000E+00
        -11   -1    0    0    0    0  0.00000000000E+00  0.00000000000E+00  0.45593999997E+02  0.45594000000E+02  0.51100000000E-03 0. -1.
         11   -1    0    0    0    0 -0.00000000000E+00 -0.00000000000E+00 -0.45593999997E+02  0.45594000000E+02  0.51100000000E-03 0.  1.
         23    2    1    2    0    0  0.88817841970E-15  0.00000000000E+00  0.00000000000E+00  0.91188000000E+02  0.91188000000E+02 0.  0.
    9900012    2    3    3    0    0 -0.17180789408E+01  0.29055030122E+02 -0.22552897155E+02  0.54367085553E+02  0.40000003135E+02 0.  0.
         12    1    3    3    0    0  0.17180789408E+01 -0.29055030122E+02  0.22552897155E+02  0.36820914447E+02  0.00000000000E+00 0. -1.
         11    1    4    4    0    0  0.27515278381E+01 -0.63353193264E+01 -0.54394105761E+01  0.87917213382E+01  0.51100000000E-03 0. -1.
        -11    1    4    4    0    0 -0.85307303847E+01  0.15788774175E+02 -0.18158599649E+02  0.25530246617E+02  0.51100000000E-03 0.  1.
        -12    1    4    4    0    0  0.40611236059E+01  0.19601575274E+02  0.10451130707E+01  0.20045117598E+02  0.00000000000E+00 0.  1.
</event>
<event>
 8    1  0.2497772E-006  0.9118800E+02  0.7816164E-02  0.1184000E+00
        -11   -1    0    0    0    0  0.00000000000E+00  0.00000000000E+00  0.45593999997E+02  0.45594000000E+02  0.51100000000E-03 0. -1.
         11   -1    0    0    0    0 -0.00000000000E+00 -0.00000000000E+00 -0.45593999997E+02  0.45594000000E+02  0.51100000000E-03 0.  1.
         23    2    1    2    0    0  0.00000000000E+00 -0.88817841970E-15  0.71054273576E-14  0.91188000000E+02  0.91188000000E+02 0.  0.
    9900012    2    3    3    0    0  0.84405279653E+01 -0.63319483871E+01  0.35276675293E+02  0.54367083357E+02  0.39999998128E+02 0.  0.
        -12    1    3    3    0    0 -0.84405279653E+01  0.63319483871E+01 -0.35276675293E+02  0.36820916643E+02  0.00000000000E+00 0.  1.
         11    1    4    4    0    0  0.10156585117E+02 -0.10656762912E+02  0.34039826897E+02  0.37086825591E+02  0.51100000000E-03 0. -1.
        -11    1    4    4    0    0 -0.45605583523E+01  0.22548455070E+01  0.81016172406E+01  0.95665679802E+01  0.51100000000E-03 0.  1.
        -12    1    4    4    0    0  0.28445012001E+01  0.20699690178E+01 -0.68647688443E+01  0.77136897849E+01  0.00000000000E+00 0.  1.
</event>
<event>
 8    1  0.2497772E-006  0.9118800E+02  0.7816164E-02  0.1184000E+00
        -11   -1    0    0    0    0  0.00000000000E+00  0.00000000000E+00  0.45593999997E+02  0.45594000000E+02  0.51100000000E-03 0. -1.
         11   -1    0    0    0    0 -0.00000000000E+00 -0.00000000000E+00 -0.45593999997E+02  0.45594000000E+02  0.51100000000E-03 0.  1.
         23    2    1    2    0    0  0.14016565686E-14  0.00000000000E+00  0.00000000000E+00  0.91188000000E+02  0.91188000000E+02 0.  0.
    9900012    2    3    3    0    0  0.80006915088E-01 -0.34907376201E+02  0.11715428450E+02  0.54367047023E+02  0.39999915299E+02 0.  0.
        -12    1    3    3    0    0 -0.80006915088E-01  0.34907376201E+02 -0.11715428450E+02  0.36820952977E+02  0.00000000000E+00 0.  1.
         11    1    4    4    0    0  0.10908057383E+02 -0.19300542371E+01  0.10160140618E+02  0.15031276821E+02  0.51100000000E-03 0. -1.
        -11    1    4    4    0    0 -0.12695261796E+02 -0.31738824857E+02 -0.29432305850E+01  0.34310133808E+02  0.51100000000E-03 0.  1.
        -12    1    4    4    0    0  0.18672113283E+01 -0.12384971071E+01  0.44985184166E+01  0.50256363949E+01  0.00000000000E+00 0.  1.
</event>
<event>
 8    1  0.2497772E-006  0.9118800E+02  0.7816164E-02  0.1184000E+00
        -11   -1    0    0    0    0  0.00000000000E+00  0.00000000000E+00  0.45593999997E+02  0.45594000000E+02  0.51100000000E-03 0.  1.
         11   -1    0    0    0    0 -0.00000000000E+00 -0.00000000000E+00 -0.45593999997E+02  0.45594000000E+02  0.51100000000E-03 0. -1.
         23    2    1    2    0    0  0.00000000000E+00  0.00000000000E+00 -0.26645352591E-14  0.91188000000E+02  0.91188000000E+02 0.  0.
    9900012    2    3    3    0    0  0.13616187750E+02  0.33451224712E+02  0.71690103976E+01  0.54367085920E+02  0.40000003972E+02 0.  0.
        -12    1    3    3    0    0 -0.13616187750E+02 -0.33451224712E+02 -0.71690103976E+01  0.36820914080E+02  0.00000000000E+00 0.  1.
         11    1    4    4    0    0  0.14303473331E+02  0.19788098240E+02  0.42389722570E+01  0.24781587264E+02  0.51100000000E-03 0. -1.
        -11    1    4    4    0    0 -0.16904961436E+01  0.17432214742E+02 -0.70428752980E+01  0.18877022561E+02  0.51100000000E-03 0.  1.
        -12    1    4    4    0    0  0.10032105628E+01 -0.37690882698E+01  0.99729134387E+01  0.10708476095E+02  0.00000000000E+00 0.  1.
</event>
<event>
 8    1  0.2497772E-006  0.9118800E+02  0.7816164E-02  0.1184000E+00
        -11   -1    0    0    0    0  0.00000000000E+00  0.00000000000E+00  0.45593999997E+02  0.45594000000E+02  0.51100000000E-03 0. -1.
         11   -1    0    0    0    0 -0.00000000000E+00 -0.00000000000E+00 -0.45593999997E+02  0.45594000000E+02  0.51100000000E-03 0.  1.
         23    2    1    2    0    0  0.00000000000E+00  0.44408920985E-15 -0.44408920985E-15  0.91188000000E+02  0.91188000000E+02 0.  0.
    9900012    2    3    3    0    0  0.36746555333E+02  0.13120988854E+00 -0.23356008769E+01  0.54367060627E+02  0.39999946312E+02 0.  0.
        -12    1    3    3    0    0 -0.36746555333E+02 -0.13120988854E+00  0.23356008769E+01  0.36820939373E+02  0.00000000000E+00 0.  1.
         11    1    4    4    0    0  0.26828665112E+02  0.25837900436E+01 -0.91895287351E+00  0.26968457822E+02  0.51100000000E-03 0. -1.
        -11    1    4    4    0    0  0.88856394781E+01  0.77697701910E+01 -0.88199527751E+01  0.14734839157E+02  0.51100000000E-03 0.  1.
         12    1    4    4    0    0  0.10322507427E+01 -0.10222350346E+02  0.74033047717E+01  0.12663763648E+02  0.00000000000E+00 0. -1.
</event>
<event>
 8    1  0.2497772E-006  0.9118800E+02  0.7816164E-02  0.1184000E+00
        -11   -1    0    0    0    0  0.00000000000E+00  0.00000000000E+00  0.45593999997E+02  0.45594000000E+02  0.51100000000E-03 0.  1.
         11   -1    0    0    0    0 -0.00000000000E+00 -0.00000000000E+00 -0.45593999997E+02  0.45594000000E+02  0.51100000000E-03 0. -1.
         23    2    1    2    0    0  0.00000000000E+00  0.00000000000E+00  0.00000000000E+00  0.91188000000E+02  0.91188000000E+02 0.  0.
    9900012    2    3    3    0    0 -0.35625445261E+01  0.13628705115E+02 -0.34019798460E+02  0.54367081844E+02  0.39999994680E+02 0.  0.
        -12    1    3    3    0    0  0.35625445261E+01 -0.13628705115E+02  0.34019798460E+02  0.36820918156E+02  0.00000000000E+00 0.  1.
         11    1    4    4    0    0  0.20738618138E+01  0.13615299083E+02 -0.38067389458E+02  0.40482136954E+02  0.51100000000E-03 0. -1.
        -11    1    4    4    0    0  0.11373841763E+01  0.48149555071E+01  0.10516057320E+01  0.50579950748E+01  0.51100000000E-03 0.  1.
         12    1    4    4    0    0 -0.67737905162E+01 -0.48015494761E+01  0.29959852663E+01  0.88269498154E+01  0.00000000000E+00 0. -1.
</event>
<event>
 8    1  0.2497772E-006  0.9118800E+02  0.7816164E-02  0.1184000E+00
        -11   -1    0    0    0    0  0.00000000000E+00  0.00000000000E+00  0.45593999997E+02  0.45594000000E+02  0.51100000000E-03 0. -1.
         11   -1    0    0    0    0 -0.00000000000E+00 -0.00000000000E+00 -0.45593999997E+02  0.45594000000E+02  0.51100000000E-03 0.  1.
         23    2    1    2    0    0  0.35527136788E-14  0.00000000000E+00  0.00000000000E+00  0.91188000000E+02  0.91188000000E+02 0.  0.
    9900012    2    3    3    0    0 -0.21473305467E+02 -0.50026936884E+01 -0.29489890021E+02  0.54367035791E+02  0.39999889692E+02 0.  0.
         12    1    3    3    0    0  0.21473305467E+02  0.50026936884E+01  0.29489890021E+02  0.36820964209E+02  0.00000000000E+00 0. -1.
         11    1    4    4    0    0 -0.11544365925E+02 -0.14515674946E+01  0.27436497383E+01  0.11954373549E+02  0.51100000000E-03 0. -1.
        -11    1    4    4    0    0 -0.14200162040E+02  0.16699160276E+01 -0.63146347107E+01  0.15630349749E+02  0.51100000000E-03 0.  1.
        -12    1    4    4    0    0  0.42712224975E+01 -0.52210422215E+01 -0.25918905049E+02  0.26782312492E+02  0.00000000000E+00 0.  1.
</event>
<event>
 8    1  0.2497772E-006  0.9118800E+02  0.7816164E-02  0.1184000E+00
        -11   -1    0    0    0    0  0.00000000000E+00  0.00000000000E+00  0.45593999997E+02  0.45594000000E+02  0.51100000000E-03 0.  1.
         11   -1    0    0    0    0 -0.00000000000E+00 -0.00000000000E+00 -0.45593999997E+02  0.45594000000E+02  0.51100000000E-03 0. -1.
         23    2    1    2    0    0  0.00000000000E+00 -0.88817841970E-15 -0.17763568394E-14  0.91188000000E+02  0.91188000000E+02 0.  0.
    9900012    2    3    3    0    0 -0.35025887089E+02  0.49123746566E+01  0.10238813442E+02  0.54367116091E+02  0.40000072753E+02 0.  0.
         12    1    3    3    0    0  0.35025887089E+02 -0.49123746566E+01 -0.10238813442E+02  0.36820883909E+02  0.00000000000E+00 0. -1.
         11    1    4    4    0    0 -0.14018164999E+02  0.14394732178E+02  0.14294612721E+02  0.24658735116E+02  0.51100000000E-03 0. -1.
        -11    1    4    4    0    0  0.24771059008E+01 -0.81043703579E+00  0.27258340683E+01  0.37713437210E+01  0.51100000000E-03 0.  1.
         12    1    4    4    0    0 -0.23484827991E+02 -0.86719204854E+01 -0.67816333475E+01  0.25937037254E+02  0.00000000000E+00 0. -1.
</event>
<event>
 8    1  0.2497772E-006  0.9118800E+02  0.7816164E-02  0.1184000E+00
        -11   -1    0    0    0    0  0.00000000000E+00  0.00000000000E+00  0.45593999997E+02  0.45594000000E+02  0.51100000000E-03 0. -1.
         11   -1    0    0    0    0 -0.00000000000E+00 -0.00000000000E+00 -0.45593999997E+02  0.45594000000E+02  0.51100000000E-03 0.  1.
         23    2    1    2    0    0 -0.35527136788E-14  0.00000000000E+00  0.00000000000E+00  0.91188000000E+02  0.91188000000E+02 0.  0.
    9900012    2    3    3    0    0 -0.22128465802E+02  0.23200296567E+02 -0.18106842887E+02  0.54367074986E+02  0.39999979045E+02 0.  0.
         12    1    3    3    0    0  0.22128465802E+02 -0.23200296567E+02  0.18106842887E+02  0.36820925014E+02  0.00000000000E+00 0. -1.
         11    1    4    4    0    0 -0.51092623866E+01 -0.34614221750E+01 -0.17631507335E+01  0.64183102432E+01  0.51100000000E-03 0. -1.
        -11    1    4    4    0    0 -0.24796358998E+02  0.12463456295E+02 -0.15385148543E+02  0.31731686976E+02  0.51100000000E-03 0.  1.
        -12    1    4    4    0    0  0.77771555823E+01  0.14198262446E+02 -0.95854361088E+00  0.16217077767E+02  0.00000000000E+00 0.  1.
</event>
<event>
 8    1  0.2497772E-006  0.9118800E+02  0.7816164E-02  0.1184000E+00
        -11   -1    0    0    0    0  0.00000000000E+00  0.00000000000E+00  0.45593999997E+02  0.45594000000E+02  0.51100000000E-03 0. -1.
         11   -1    0    0    0    0 -0.00000000000E+00 -0.00000000000E+00 -0.45593999997E+02  0.45594000000E+02  0.51100000000E-03 0.  1.
         23    2    1    2    0    0  0.00000000000E+00  0.00000000000E+00  0.00000000000E+00  0.91188000000E+02  0.91188000000E+02 0.  0.
    9900012    2    3    3    0    0 -0.14684888724E+02 -0.87073007686E+01  0.32623916494E+02  0.54367041689E+02  0.39999903139E+02 0.  0.
        -12    1    3    3    0    0  0.14684888724E+02  0.87073007686E+01 -0.32623916494E+02  0.36820958311E+02  0.00000000000E+00 0.  1.
         11    1    4    4    0    0 -0.91050337737E+01 -0.21509111180E+02  0.13270530748E+02  0.26863553197E+02  0.51100000000E-03 0. -1.
        -11    1    4    4    0    0  0.23169731857E+01  0.88796213031E+01  0.15203596997E+02  0.17758530377E+02  0.51100000000E-03 0.  1.
         12    1    4    4    0    0 -0.78968281364E+01  0.39221891082E+01  0.41497887487E+01  0.97449581156E+01  0.00000000000E+00 0. -1.
</event>
<event>
 8    1  0.2497772E-006  0.9118800E+02  0.7816164E-02  0.1184000E+00
        -11   -1    0    0    0    0  0.00000000000E+00  0.00000000000E+00  0.45593999997E+02  0.45594000000E+02  0.51100000000E-03 0.  1.
         11   -1    0    0    0    0 -0.00000000000E+00 -0.00000000000E+00 -0.45593999997E+02  0.45594000000E+02  0.51100000000E-03 0. -1.
         23    2    1    2    0    0 -0.44408920985E-15  0.00000000000E+00  0.17763568394E-14  0.91188000000E+02  0.91188000000E+02 0.  0.
    9900012    2    3    3    0    0 -0.37891350019E+01  0.34953553545E+02  0.10939442537E+02  0.54367084035E+02  0.39999999674E+02 0.  0.
         12    1    3    3    0    0  0.37891350019E+01 -0.34953553545E+02 -0.10939442537E+02  0.36820915965E+02  0.00000000000E+00 0. -1.
         11    1    4    4    0    0 -0.15126722618E+02  0.18173994082E+02  0.13504617154E+01  0.23684077883E+02  0.51100000000E-03 0. -1.
        -11    1    4    4    0    0  0.14898612670E+02  0.19429643124E+02  0.94416681456E+01  0.26241661324E+02  0.51100000000E-03 0.  1.
        -12    1    4    4    0    0 -0.35610250545E+01 -0.26500836614E+01  0.14731267645E+00  0.44413448274E+01  0.00000000000E+00 0.  1.
</event>
<event>
 8    1  0.2497772E-006  0.9118800E+02  0.7816164E-02  0.1184000E+00
        -11   -1    0    0    0    0  0.00000000000E+00  0.00000000000E+00  0.45593999997E+02  0.45594000000E+02  0.51100000000E-03 0.  1.
         11   -1    0    0    0    0 -0.00000000000E+00 -0.00000000000E+00 -0.45593999997E+02  0.45594000000E+02  0.51100000000E-03 0. -1.
         23    2    1    2    0    0  0.00000000000E+00  0.00000000000E+00  0.35527136788E-14  0.91188000000E+02  0.91188000000E+02 0.  0.
    9900012    2    3    3    0    0  0.20478516263E+02  0.29152076097E+01  0.30461639748E+02  0.54367088009E+02  0.40000008734E+02 0.  0.
         12    1    3    3    0    0 -0.20478516263E+02 -0.29152076097E+01 -0.30461639748E+02  0.36820911991E+02  0.00000000000E+00 0. -1.
         11    1    4    4    0    0  0.18810229842E+02  0.62499580077E+01  0.84300899286E+01  0.21539571450E+02  0.51100000000E-03 0. -1.
        -11    1    4    4    0    0  0.23387919619E+01 -0.32105707668E+01  0.27263489221E+02  0.27551325871E+02  0.51100000000E-03 0.  1.
         12    1    4    4    0    0 -0.67050554078E+00 -0.12417963127E+00 -0.52319394022E+01  0.52761906873E+01  0.00000000000E+00 0. -1.
</event>
<event>
 8    1  0.2497772E-006  0.9118800E+02  0.7816164E-02  0.1184000E+00
        -11   -1    0    0    0    0  0.00000000000E+00  0.00000000000E+00  0.45593999997E+02  0.45594000000E+02  0.51100000000E-03 0.  1.
         11   -1    0    0    0    0 -0.00000000000E+00 -0.00000000000E+00 -0.45593999997E+02  0.45594000000E+02  0.51100000000E-03 0. -1.
         23    2    1    2    0    0 -0.71054273576E-14  0.00000000000E+00 -0.44408920985E-15  0.91188000000E+02  0.91188000000E+02 0.  0.
    9900012    2    3    3    0    0  0.32969023233E+02 -0.16260693037E+02 -0.21007004385E+01  0.54367087826E+02  0.40000008318E+02 0.  0.
        -12    1    3    3    0    0 -0.32969023233E+02  0.16260693037E+02  0.21007004385E+01  0.36820912174E+02  0.00000000000E+00 0.  1.
         11    1    4    4    0    0  0.39868575431E+02 -0.17828829579E+02 -0.24369080637E+01  0.43741387635E+02  0.51100000000E-03 0. -1.
        -11    1    4    4    0    0 -0.12916044528E+01 -0.29405372177E+01 -0.87518083032E+00  0.33288050316E+01  0.51100000000E-03 0.  1.
        -12    1    4    4    0    0 -0.56079477452E+01  0.45086737596E+01  0.12113884555E+01  0.72968951599E+01  0.00000000000E+00 0.  1.
</event>
<event>
 8    1  0.2497772E-006  0.9118800E+02  0.7816164E-02  0.1184000E+00
        -11   -1    0    0    0    0  0.00000000000E+00  0.00000000000E+00  0.45593999997E+02  0.45594000000E+02  0.51100000000E-03 0. -1.
         11   -1    0    0    0    0 -0.00000000000E+00 -0.00000000000E+00 -0.45593999997E+02  0.45594000000E+02  0.51100000000E-03 0.  1.
         23    2    1    2    0    0  0.35527136788E-14 -0.88817841970E-15 -0.35527136788E-14  0.91188000000E+02  0.91188000000E+02 0.  0.
    9900012    2    3    3    0    0 -0.30117812458E+02 -0.49719349021E+01  0.20590712677E+02  0.54367079147E+02  0.39999988531E+02 0.  0.
        -12    1    3    3    0    0  0.30117812458E+02  0.49719349021E+01 -0.20590712677E+02  0.36820920853E+02  0.00000000000E+00 0.  1.
         11    1    4    4    0    0 -0.13052713783E+02 -0.13300167374E+02  0.16852323121E+02  0.25125058888E+02  0.51100000000E-03 0. -1.
        -11    1    4    4    0    0 -0.12692647282E+02 -0.31704890027E+01  0.89819161293E+01  0.15869156031E+02  0.51100000000E-03 0.  1.
        -12    1    4    4    0    0 -0.43724513935E+01  0.11498721474E+02 -0.52435265733E+01  0.13372864228E+02  0.00000000000E+00 0.  1.
</event>
<event>
 8    1  0.2497772E-006  0.9118800E+02  0.7816164E-02  0.1184000E+00
        -11   -1    0    0    0    0  0.00000000000E+00  0.00000000000E+00  0.45593999997E+02  0.45594000000E+02  0.51100000000E-03 0.  1.
         11   -1    0    0    0    0 -0.00000000000E+00 -0.00000000000E+00 -0.45593999997E+02  0.45594000000E+02  0.51100000000E-03 0. -1.
         23    2    1    2    0    0  0.00000000000E+00  0.00000000000E+00  0.00000000000E+00  0.91188000000E+02  0.91188000000E+02 0.  0.
    9900012    2    3    3    0    0  0.23359485509E+02 -0.13725439306E+02 -0.24934558803E+02  0.54367007753E+02  0.39999825773E+02 0.  0.
        -12    1    3    3    0    0 -0.23359485509E+02  0.13725439306E+02  0.24934558803E+02  0.36820992247E+02  0.00000000000E+00 0.  1.
         11    1    4    4    0    0  0.18454952945E+01 -0.10483019668E+02 -0.12974222905E+02  0.16781835849E+02  0.51100000000E-03 0. -1.
        -11    1    4    4    0    0  0.11989485908E+02  0.33882226056E+01 -0.19932145303E+02  0.23505706571E+02  0.51100000000E-03 0.  1.
        -12    1    4    4    0    0  0.95245043069E+01 -0.66306422436E+01  0.79718094049E+01  0.14079465332E+02  0.00000000000E+00 0.  1.
</event>
<event>
 8    1  0.2497772E-006  0.9118800E+02  0.7816164E-02  0.1184000E+00
        -11   -1    0    0    0    0  0.00000000000E+00  0.00000000000E+00  0.45593999997E+02  0.45594000000E+02  0.51100000000E-03 0. -1.
         11   -1    0    0    0    0 -0.00000000000E+00 -0.00000000000E+00 -0.45593999997E+02  0.45594000000E+02  0.51100000000E-03 0.  1.
         23    2    1    2    0    0 -0.71054273576E-14  0.44408920985E-15  0.44408920985E-14  0.91188000000E+02  0.91188000000E+02 0.  0.
    9900012    2    3    3    0    0 -0.36497037957E+02  0.10128605432E+01  0.47666946871E+01  0.54367067851E+02  0.39999962780E+02 0.  0.
        -12    1    3    3    0    0  0.36497037957E+02 -0.10128605432E+01 -0.47666946871E+01  0.36820932149E+02  0.00000000000E+00 0.  1.
         11    1    4    4    0    0 -0.10260875359E+02  0.10921094615E+01  0.19817417770E+02  0.22342970115E+02  0.51100000000E-03 0. -1.
        -11    1    4    4    0    0 -0.91692123044E+01 -0.73012758665E-01 -0.11295646228E+02  0.14548931546E+02  0.51100000000E-03 0.  1.
        -12    1    4    4    0    0 -0.17066950293E+02 -0.62361596449E-02 -0.37550768551E+01  0.17475166190E+02  0.00000000000E+00 0.  1.
</event>
<event>
 8    1  0.2497772E-006  0.9118800E+02  0.7816164E-02  0.1184000E+00
        -11   -1    0    0    0    0  0.00000000000E+00  0.00000000000E+00  0.45593999997E+02  0.45594000000E+02  0.51100000000E-03 0.  1.
         11   -1    0    0    0    0 -0.00000000000E+00 -0.00000000000E+00 -0.45593999997E+02  0.45594000000E+02  0.51100000000E-03 0. -1.
         23    2    1    2    0    0  0.35527136788E-14  0.00000000000E+00 -0.35527136788E-14  0.91188000000E+02  0.91188000000E+02 0.  0.
    9900012    2    3    3    0    0  0.30264956792E+02  0.95634603184E+01 -0.18664200817E+02  0.54367085087E+02  0.40000002073E+02 0.  0.
        -12    1    3    3    0    0 -0.30264956792E+02 -0.95634603184E+01  0.18664200817E+02  0.36820914913E+02  0.00000000000E+00 0.  1.
         11    1    4    4    0    0  0.82902328118E+00  0.48638978693E+01  0.35456821700E+00  0.49467667183E+01  0.51100000000E-03 0.  1.
        -11    1    4    4    0    0 -0.22617661654E+01 -0.10267875185E+02 -0.34597411646E+01  0.11068633890E+02  0.51100000000E-03 0. -1.
         12    1    4    4    0    0  0.31697699676E+02  0.14967437634E+02 -0.15559027869E+02  0.38351684479E+02  0.00000000000E+00 0. -1.
</event>
<event>
 8    1  0.2497772E-006  0.9118800E+02  0.7816164E-02  0.1184000E+00
        -11   -1    0    0    0    0  0.00000000000E+00  0.00000000000E+00  0.45593999997E+02  0.45594000000E+02  0.51100000000E-03 0.  1.
         11   -1    0    0    0    0 -0.00000000000E+00 -0.00000000000E+00 -0.45593999997E+02  0.45594000000E+02  0.51100000000E-03 0. -1.
         23    2    1    2    0    0  0.00000000000E+00  0.35527136788E-14  0.00000000000E+00  0.91188000000E+02  0.91188000000E+02 0.  0.
    9900012    2    3    3    0    0  0.98185648018E+01  0.31401750525E+02  0.16531951839E+02  0.54367087703E+02  0.40000008036E+02 0.  0.
         12    1    3    3    0    0 -0.98185648018E+01 -0.31401750525E+02 -0.16531951839E+02  0.36820912297E+02  0.00000000000E+00 0. -1.
         11    1    4    4    0    0 -0.91058295849E+01  0.65561956269E+01  0.92530396618E+01  0.14543678241E+02  0.51100000000E-03 0. -1.
        -11    1    4    4    0    0  0.13024665026E+02  0.26161565173E+02  0.12548122953E+02  0.31804477377E+02  0.51100000000E-03 0.  1.
         12    1    4    4    0    0  0.58997293608E+01 -0.13160102751E+01 -0.52692107763E+01  0.80189320848E+01  0.00000000000E+00 0. -1.
</event>
<event>
 8    1  0.2497772E-006  0.9118800E+02  0.7816164E-02  0.1184000E+00
        -11   -1    0    0    0    0  0.00000000000E+00  0.00000000000E+00  0.45593999997E+02  0.45594000000E+02  0.51100000000E-03 0.  1.
         11   -1    0    0    0    0 -0.00000000000E+00 -0.00000000000E+00 -0.45593999997E+02  0.45594000000E+02  0.51100000000E-03 0. -1.
         23    2    1    2    0    0  0.00000000000E+00  0.35527136788E-14  0.00000000000E+00  0.91188000000E+02  0.91188000000E+02 0.  0.
    9900012    2    3    3    0    0 -0.17643350132E+02  0.28241536457E+02  0.15713296286E+02  0.54367083858E+02  0.39999999272E+02 0.  0.
         12    1    3    3    0    0  0.17643350132E+02 -0.28241536457E+02 -0.15713296286E+02  0.36820916142E+02  0.00000000000E+00 0. -1.
         11    1    4    4    0    0  0.81439166946E+01 -0.11104814459E+01  0.86954634700E+01  0.11965267794E+02  0.51100000000E-03 0. -1.
        -11    1    4    4    0    0 -0.15031830388E+01  0.95129032254E+01  0.53096320440E+01  0.10997594270E+02  0.51100000000E-03 0.  1.
         12    1    4    4    0    0 -0.24284083788E+02  0.19839114678E+02  0.17082007720E+01  0.31404221794E+02  0.00000000000E+00 0. -1.
</event>
<event>
 8    1  0.2497772E-006  0.9118800E+02  0.7816164E-02  0.1184000E+00
        -11   -1    0    0    0    0  0.00000000000E+00  0.00000000000E+00  0.45593999997E+02  0.45594000000E+02  0.51100000000E-03 0.  1.
         11   -1    0    0    0    0 -0.00000000000E+00 -0.00000000000E+00 -0.45593999997E+02  0.45594000000E+02  0.51100000000E-03 0. -1.
         23    2    1    2    0    0 -0.35527136788E-14 -0.35527136788E-14  0.35527136788E-14  0.91188000000E+02  0.91188000000E+02 0.  0.
    9900012    2    3    3    0    0 -0.23733400594E+02 -0.18207687509E+02  0.21470579087E+02  0.54367082650E+02  0.39999996516E+02 0.  0.
         12    1    3    3    0    0  0.23733400594E+02  0.18207687509E+02 -0.21470579087E+02  0.36820917350E+02  0.00000000000E+00 0. -1.
         11    1    4    4    0    0 -0.10164576662E+02 -0.15618256300E+01  0.30094927087E+01  0.10715174503E+02  0.51100000000E-03 0. -1.
        -11    1    4    4    0    0 -0.22403961564E+01  0.46782833077E+01  0.18800610365E+02  0.19503042327E+02  0.51100000000E-03 0.  1.
         12    1    4    4    0    0 -0.11328427776E+02 -0.21324145187E+02 -0.33952398651E+00  0.24148865819E+02  0.00000000000E+00 0. -1.
</event>
<event>
 8    1  0.2497772E-006  0.9118800E+02  0.7816164E-02  0.1184000E+00
        -11   -1    0    0    0    0  0.00000000000E+00  0.00000000000E+00  0.45593999997E+02  0.45594000000E+02  0.51100000000E-03 0.  1.
         11   -1    0    0    0    0 -0.00000000000E+00 -0.00000000000E+00 -0.45593999997E+02  0.45594000000E+02  0.51100000000E-03 0. -1.
         23    2    1    2    0    0 -0.24424906542E-14  0.35527136788E-14  0.35527136788E-14  0.91188000000E+02  0.91188000000E+02 0.  0.
    9900012    2    3    3    0    0 -0.17530265901E+01 -0.21216215028E+02  0.30042934262E+02  0.54367098580E+02  0.40000032833E+02 0.  0.
         12    1    3    3    0    0  0.17530265901E+01  0.21216215028E+02 -0.30042934262E+02  0.36820901420E+02  0.00000000000E+00 0. -1.
         11    1    4    4    0    0  0.26162225039E+01 -0.17405420979E+02  0.40183304409E+01  0.18053816202E+02  0.51100000000E-03 0. -1.
        -11    1    4    4    0    0  0.75120979854E+01  0.55256269505E+01  0.55013837073E+01  0.10827252297E+02  0.51100000000E-03 0.  1.
        -12    1    4    4    0    0 -0.11881347079E+02 -0.93364209990E+01  0.20523220114E+02  0.25486030082E+02  0.00000000000E+00 0.  1.
</event>
<event>
 8    1  0.2497772E-006  0.9118800E+02  0.7816164E-02  0.1184000E+00
        -11   -1    0    0    0    0  0.00000000000E+00  0.00000000000E+00  0.45593999997E+02  0.45594000000E+02  0.51100000000E-03 0.  1.
         11   -1    0    0    0    0 -0.00000000000E+00 -0.00000000000E+00 -0.45593999997E+02  0.45594000000E+02  0.51100000000E-03 0. -1.
         23    2    1    2    0    0  0.00000000000E+00  0.35527136788E-14  0.00000000000E+00  0.91188000000E+02  0.91188000000E+02 0.  0.
    9900012    2    3    3    0    0  0.18782910522E+02  0.18401292584E+02  0.25775441287E+02  0.54367100093E+02  0.40000036282E+02 0.  0.
         12    1    3    3    0    0 -0.18782910522E+02 -0.18401292584E+02 -0.25775441287E+02  0.36820899907E+02  0.00000000000E+00 0. -1.
         11    1    4    4    0    0  0.10682894093E+02  0.97280536914E+00  0.13739012355E+02  0.17430749761E+02  0.51100000000E-03 0.  1.
        -11    1    4    4    0    0 -0.46306712526E+01  0.18405789517E+02  0.14560374249E+02  0.23921135059E+02  0.51100000000E-03 0. -1.
         12    1    4    4    0    0  0.12730687682E+02 -0.97730230207E+00 -0.25239453163E+01  0.13015215273E+02  0.00000000000E+00 0. -1.
</event>
<event>
 8    1  0.2497772E-006  0.9118800E+02  0.7816164E-02  0.1184000E+00
        -11   -1    0    0    0    0  0.00000000000E+00  0.00000000000E+00  0.45593999997E+02  0.45594000000E+02  0.51100000000E-03 0.  1.
         11   -1    0    0    0    0 -0.00000000000E+00 -0.00000000000E+00 -0.45593999997E+02  0.45594000000E+02  0.51100000000E-03 0. -1.
         23    2    1    2    0    0  0.00000000000E+00 -0.17763568394E-14  0.00000000000E+00  0.91188000000E+02  0.91188000000E+02 0.  0.
    9900012    2    3    3    0    0 -0.17574427110E+02 -0.92610187527E+01 -0.31002456785E+02  0.54367091765E+02  0.40000017296E+02 0.  0.
        -12    1    3    3    0    0  0.17574427110E+02  0.92610187527E+01  0.31002456785E+02  0.36820908235E+02  0.00000000000E+00 0.  1.
         11    1    4    4    0    0 -0.47759317575E+01 -0.75252371585E+01 -0.16355266015E+02  0.18626149498E+02  0.51100000000E-03 0. -1.
        -11    1    4    4    0    0 -0.93769378382E+01 -0.86609250254E+01  0.56980176427E+01  0.13978769289E+02  0.51100000000E-03 0.  1.
         12    1    4    4    0    0 -0.34215575145E+01  0.69251434312E+01 -0.20345208412E+02  0.21762172978E+02  0.00000000000E+00 0. -1.
</event>
<event>
 8    1  0.2497772E-006  0.9118800E+02  0.7816164E-02  0.1184000E+00
        -11   -1    0    0    0    0  0.00000000000E+00  0.00000000000E+00  0.45593999997E+02  0.45594000000E+02  0.51100000000E-03 0.  1.
         11   -1    0    0    0    0 -0.00000000000E+00 -0.00000000000E+00 -0.45593999997E+02  0.45594000000E+02  0.51100000000E-03 0. -1.
         23    2    1    2    0    0 -0.17763568394E-14  0.00000000000E+00  0.00000000000E+00  0.91188000000E+02  0.91188000000E+02 0.  0.
    9900012    2    3    3    0    0 -0.11693227235E+02  0.94863133483E+01 -0.33601473105E+02  0.54367072541E+02  0.39999973473E+02 0.  0.
        -12    1    3    3    0    0  0.11693227235E+02 -0.94863133483E+01  0.33601473105E+02  0.36820927459E+02  0.00000000000E+00 0.  1.
         11    1    4    4    0    0  0.80123377484E+01  0.70965819946E+01 -0.22616651397E+02  0.25021429873E+02  0.51100000000E-03 0. -1.
        -11    1    4    4    0    0 -0.10542763578E+02 -0.72978320473E+01 -0.94393764912E+01  0.15921998783E+02  0.51100000000E-03 0.  1.
         12    1    4    4    0    0 -0.91628014055E+01  0.96875634010E+01 -0.15454452162E+01  0.13423643885E+02  0.00000000000E+00 0. -1.
</event>
<event>
 8    1  0.2497772E-006  0.9118800E+02  0.7816164E-02  0.1184000E+00
        -11   -1    0    0    0    0  0.00000000000E+00  0.00000000000E+00  0.45593999997E+02  0.45594000000E+02  0.51100000000E-03 0.  1.
         11   -1    0    0    0    0 -0.00000000000E+00 -0.00000000000E+00 -0.45593999997E+02  0.45594000000E+02  0.51100000000E-03 0. -1.
         23    2    1    2    0    0  0.35527136788E-14  0.35527136788E-14 -0.88817841970E-15  0.91188000000E+02  0.91188000000E+02 0.  0.
    9900012    2    3    3    0    0 -0.29879326442E+02 -0.20453647687E+02  0.66823930175E+01  0.54367078926E+02  0.39999988027E+02 0.  0.
         12    1    3    3    0    0  0.29879326442E+02  0.20453647687E+02 -0.66823930175E+01  0.36820921074E+02  0.00000000000E+00 0. -1.
         11    1    4    4    0    0 -0.13223638205E+02  0.92039456192E+01  0.10202814837E+01  0.16143673588E+02  0.51100000000E-03 0. -1.
        -11    1    4    4    0    0  0.30800972634E+01 -0.20695948313E+01 -0.51081970188E+00  0.37458188620E+01  0.51100000000E-03 0.  1.
         12    1    4    4    0    0 -0.19735785500E+02 -0.27587998475E+02  0.61729312358E+01  0.34477586476E+02  0.00000000000E+00 0. -1.
</event>
<event>
 8    1  0.2497772E-006  0.9118800E+02  0.7816164E-02  0.1184000E+00
        -11   -1    0    0    0    0  0.00000000000E+00  0.00000000000E+00  0.45593999997E+02  0.45594000000E+02  0.51100000000E-03 0.  1.
         11   -1    0    0    0    0 -0.00000000000E+00 -0.00000000000E+00 -0.45593999997E+02  0.45594000000E+02  0.51100000000E-03 0. -1.
         23    2    1    2    0    0  0.35527136788E-14  0.00000000000E+00  0.35527136788E-14  0.91188000000E+02  0.91188000000E+02 0.  0.
    9900012    2    3    3    0    0  0.25985531698E+02  0.76580861837E+01  0.24937568403E+02  0.54367130110E+02  0.40000104711E+02 0.  0.
         12    1    3    3    0    0 -0.25985531698E+02 -0.76580861837E+01 -0.24937568403E+02  0.36820869890E+02  0.00000000000E+00 0. -1.
         11    1    4    4    0    0  0.18543201031E+01 -0.49822632043E+01  0.81847722159E+00  0.53787874939E+01  0.51100000000E-03 0. -1.
        -11    1    4    4    0    0  0.14075509348E+02  0.38933158376E+01  0.30794793084E+02  0.34082211679E+02  0.51100000000E-03 0.  1.
         12    1    4    4    0    0  0.10055702247E+02  0.87470335504E+01 -0.66757019020E+01  0.14906130936E+02  0.00000000000E+00 0. -1.
</event>
<event>
 8    1  0.2497772E-006  0.9118800E+02  0.7816164E-02  0.1184000E+00
        -11   -1    0    0    0    0  0.00000000000E+00  0.00000000000E+00  0.45593999997E+02  0.45594000000E+02  0.51100000000E-03 0.  1.
         11   -1    0    0    0    0 -0.00000000000E+00 -0.00000000000E+00 -0.45593999997E+02  0.45594000000E+02  0.51100000000E-03 0. -1.
         23    2    1    2    0    0 -0.35527136788E-14 -0.35527136788E-14  0.00000000000E+00  0.91188000000E+02  0.91188000000E+02 0.  0.
    9900012    2    3    3    0    0  0.20928594355E+02 -0.23724589364E+02  0.18839257529E+02  0.54367084390E+02  0.40000000483E+02 0.  0.
         12    1    3    3    0    0 -0.20928594355E+02  0.23724589364E+02 -0.18839257529E+02  0.36820915610E+02  0.00000000000E+00 0. -1.
         11    1    4    4    0    0  0.31770948897E+01 -0.44287147067E+01  0.15523646671E+02  0.16452691334E+02  0.51100000000E-03 0. -1.
        -11    1    4    4    0    0 -0.14446613809E+01 -0.17242826794E+01  0.10643231147E+02  0.10878353128E+02  0.51100000000E-03 0.  1.
         12    1    4    4    0    0  0.19196160846E+02 -0.17571591978E+02 -0.73276202897E+01  0.27036039928E+02  0.00000000000E+00 0. -1.
</event>
<event>
 8    1  0.2497772E-006  0.9118800E+02  0.7816164E-02  0.1184000E+00
        -11   -1    0    0    0    0  0.00000000000E+00  0.00000000000E+00  0.45593999997E+02  0.45594000000E+02  0.51100000000E-03 0.  1.
         11   -1    0    0    0    0 -0.00000000000E+00 -0.00000000000E+00 -0.45593999997E+02  0.45594000000E+02  0.51100000000E-03 0. -1.
         23    2    1    2    0    0  0.00000000000E+00 -0.35527136788E-14  0.17763568394E-14  0.91188000000E+02  0.91188000000E+02 0.  0.
    9900012    2    3    3    0    0 -0.15826217759E+02 -0.29854066026E+02  0.14630322940E+02  0.54367071492E+02  0.39999971081E+02 0.  0.
         12    1    3    3    0    0  0.15826217759E+02  0.29854066026E+02 -0.14630322940E+02  0.36820928508E+02  0.00000000000E+00 0. -1.
         11    1    4    4    0    0  0.22525150839E+01  0.15675140503E+01 -0.25917739945E+01  0.37746810727E+01  0.51100000000E-03 0. -1.
        -11    1    4    4    0    0 -0.20214944941E+02 -0.22244306042E+02  0.24426441658E+02  0.38731178689E+02  0.51100000000E-03 0.  1.
        -12    1    4    4    0    0  0.21362120986E+01 -0.91772740346E+01 -0.72043447234E+01  0.11861211731E+02  0.00000000000E+00 0.  1.
</event>
<event>
 8    1  0.2497772E-006  0.9118800E+02  0.7816164E-02  0.1184000E+00
        -11   -1    0    0    0    0  0.00000000000E+00  0.00000000000E+00  0.45593999997E+02  0.45594000000E+02  0.51100000000E-03 0.  1.
         11   -1    0    0    0    0 -0.00000000000E+00 -0.00000000000E+00 -0.45593999997E+02  0.45594000000E+02  0.51100000000E-03 0. -1.
         23    2    1    2    0    0  0.00000000000E+00  0.00000000000E+00  0.00000000000E+00  0.91188000000E+02  0.91188000000E+02 0.  0.
    9900012    2    3    3    0    0  0.29905762991E+02 -0.17799302876E+02  0.12025372160E+02  0.54367089928E+02  0.40000013108E+02 0.  0.
         12    1    3    3    0    0 -0.29905762991E+02  0.17799302876E+02 -0.12025372160E+02  0.36820910072E+02  0.00000000000E+00 0. -1.
         11    1    4    4    0    0 -0.24130805863E+01  0.68569188688E+01 -0.15774416513E+01  0.74383208262E+01  0.51100000000E-03 0. -1.
        -11    1    4    4    0    0  0.12424402772E+02 -0.15376746857E+02  0.15173070483E+02  0.24920517577E+02  0.51100000000E-03 0.  1.
         12    1    4    4    0    0  0.19894440806E+02 -0.92794748875E+01 -0.15702566720E+01  0.22008251525E+02  0.00000000000E+00 0. -1.
</event>
<event>
 8    1  0.2497772E-006  0.9118800E+02  0.7816164E-02  0.1184000E+00
        -11   -1    0    0    0    0  0.00000000000E+00  0.00000000000E+00  0.45593999997E+02  0.45594000000E+02  0.51100000000E-03 0. -1.
         11   -1    0    0    0    0 -0.00000000000E+00 -0.00000000000E+00 -0.45593999997E+02  0.45594000000E+02  0.51100000000E-03 0.  1.
         23    2    1    2    0    0 -0.66613381478E-15  0.00000000000E+00  0.00000000000E+00  0.91188000000E+02  0.91188000000E+02 0.  0.
    9900012    2    3    3    0    0 -0.57177631997E+00  0.36504467380E+02  0.47829863035E+01  0.54367081694E+02  0.39999994339E+02 0.  0.
         12    1    3    3    0    0  0.57177631997E+00 -0.36504467380E+02 -0.47829863035E+01  0.36820918306E+02  0.00000000000E+00 0. -1.
         11    1    4    4    0    0  0.17995261819E+01  0.20705031866E+01 -0.11205695953E+02  0.11536589617E+02  0.51100000000E-03 0. -1.
        -11    1    4    4    0    0 -0.94940466365E+01  0.23480882575E+02  0.51302292035E+01  0.25841981735E+02  0.51100000000E-03 0.  1.
         12    1    4    4    0    0  0.71227441346E+01  0.10953081619E+02  0.10858453053E+02  0.16988510343E+02  0.00000000000E+00 0. -1.
</event>
<event>
 8    1  0.2497772E-006  0.9118800E+02  0.7816164E-02  0.1184000E+00
        -11   -1    0    0    0    0  0.00000000000E+00  0.00000000000E+00  0.45593999997E+02  0.45594000000E+02  0.51100000000E-03 0. -1.
         11   -1    0    0    0    0 -0.00000000000E+00 -0.00000000000E+00 -0.45593999997E+02  0.45594000000E+02  0.51100000000E-03 0.  1.
         23    2    1    2    0    0 -0.35527136788E-14  0.00000000000E+00 -0.17763568394E-14  0.91188000000E+02  0.91188000000E+02 0.  0.
    9900012    2    3    3    0    0  0.29738392605E+02  0.18176187757E+02 -0.11875794796E+02  0.54367077984E+02  0.39999985879E+02 0.  0.
         12    1    3    3    0    0 -0.29738392605E+02 -0.18176187757E+02  0.11875794796E+02  0.36820922016E+02  0.00000000000E+00 0. -1.
         11    1    4    4    0    0  0.24857847616E+02  0.10601813106E+02 -0.20726417532E+01  0.27103632106E+02  0.51100000000E-03 0.  1.
        -11    1    4    4    0    0  0.66037687526E+00 -0.67292316491E+01 -0.10324041713E+02  0.12341170680E+02  0.51100000000E-03 0. -1.
         12    1    4    4    0    0  0.42201681140E+01  0.14303606299E+02  0.52088866922E+00  0.14922275198E+02  0.00000000000E+00 0. -1.
</event>
<event>
 8    1  0.2497772E-006  0.9118800E+02  0.7816164E-02  0.1184000E+00
        -11   -1    0    0    0    0  0.00000000000E+00  0.00000000000E+00  0.45593999997E+02  0.45594000000E+02  0.51100000000E-03 0.  1.
         11   -1    0    0    0    0 -0.00000000000E+00 -0.00000000000E+00 -0.45593999997E+02  0.45594000000E+02  0.51100000000E-03 0. -1.
         23    2    1    2    0    0  0.00000000000E+00 -0.66613381478E-15  0.17763568394E-14  0.91188000000E+02  0.91188000000E+02 0.  0.
    9900012    2    3    3    0    0 -0.33942178138E+02 -0.75901895555E+00  0.14252435939E+02  0.54367088866E+02  0.40000010689E+02 0.  0.
         12    1    3    3    0    0  0.33942178138E+02  0.75901895555E+00 -0.14252435939E+02  0.36820911134E+02  0.00000000000E+00 0. -1.
         11    1    4    4    0    0 -0.88154096507E+01 -0.64987681739E+01 -0.60767295224E+01  0.12524858364E+02  0.51100000000E-03 0. -1.
        -11    1    4    4    0    0 -0.21336376532E+01  0.80454208158E+01  0.16414893642E+02  0.18404617336E+02  0.51100000000E-03 0.  1.
        -12    1    4    4    0    0 -0.22993130834E+02 -0.23056715975E+01  0.39142718190E+01  0.23437613166E+02  0.00000000000E+00 0.  1.
</event>
<event>
 8    1  0.2497772E-006  0.9118800E+02  0.7816164E-02  0.1184000E+00
        -11   -1    0    0    0    0  0.00000000000E+00  0.00000000000E+00  0.45593999997E+02  0.45594000000E+02  0.51100000000E-03 0.  1.
         11   -1    0    0    0    0 -0.00000000000E+00 -0.00000000000E+00 -0.45593999997E+02  0.45594000000E+02  0.51100000000E-03 0. -1.
         23    2    1    2    0    0  0.35527136788E-14 -0.17763568394E-14  0.00000000000E+00  0.91188000000E+02  0.91188000000E+02 0.  0.
    9900012    2    3    3    0    0 -0.18574207439E+02  0.14411147727E+02  0.28338962165E+02  0.54367093745E+02  0.40000021811E+02 0.  0.
         12    1    3    3    0    0  0.18574207439E+02 -0.14411147727E+02 -0.28338962165E+02  0.36820906255E+02  0.00000000000E+00 0. -1.
         11    1    4    4    0    0  0.65724512651E+00  0.46221247248E+01  0.10929984278E+01  0.47948570315E+01  0.51100000000E-03 0. -1.
        -11    1    4    4    0    0 -0.15364366556E+02 -0.11630849409E+02  0.94787034295E+01  0.21475247067E+02  0.51100000000E-03 0.  1.
        -12    1    4    4    0    0 -0.38670860097E+01  0.21419872411E+02  0.17767260308E+02  0.28096989646E+02  0.00000000000E+00 0.  1.
</event>
<event>
 8    1  0.2497772E-006  0.9118800E+02  0.7816164E-02  0.1184000E+00
        -11   -1    0    0    0    0  0.00000000000E+00  0.00000000000E+00  0.45593999997E+02  0.45594000000E+02  0.51100000000E-03 0.  1.
         11   -1    0    0    0    0 -0.00000000000E+00 -0.00000000000E+00 -0.45593999997E+02  0.45594000000E+02  0.51100000000E-03 0. -1.
         23    2    1    2    0    0  0.00000000000E+00  0.00000000000E+00  0.17763568394E-14  0.91188000000E+02  0.91188000000E+02 0.  0.
    9900012    2    3    3    0    0  0.14255999456E+02 -0.31255316170E+02 -0.13253434744E+02  0.54367057021E+02  0.39999938091E+02 0.  0.
        -12    1    3    3    0    0 -0.14255999456E+02  0.31255316170E+02  0.13253434744E+02  0.36820942979E+02  0.00000000000E+00 0.  1.
         11    1    4    4    0    0  0.14633795087E+02 -0.16161817537E+02  0.26066815419E+01  0.21957848111E+02  0.51100000000E-03 0. -1.
        -11    1    4    4    0    0 -0.23098574749E+01 -0.49965648285E+01  0.60668958251E+01  0.81919672151E+01  0.51100000000E-03 0.  1.
         12    1    4    4    0    0  0.19320618435E+01 -0.10096933804E+02 -0.21927012111E+02  0.24217241695E+02  0.00000000000E+00 0. -1.
</event>
<event>
 8    1  0.2497772E-006  0.9118800E+02  0.7816164E-02  0.1184000E+00
        -11   -1    0    0    0    0  0.00000000000E+00  0.00000000000E+00  0.45593999997E+02  0.45594000000E+02  0.51100000000E-03 0. -1.
         11   -1    0    0    0    0 -0.00000000000E+00 -0.00000000000E+00 -0.45593999997E+02  0.45594000000E+02  0.51100000000E-03 0.  1.
         23    2    1    2    0    0  0.35527136788E-14  0.00000000000E+00 -0.35527136788E-14  0.91188000000E+02  0.91188000000E+02 0.  0.
    9900012    2    3    3    0    0 -0.22202027428E+02 -0.46813797697E+01 -0.28998810665E+02  0.54367131482E+02  0.40000107839E+02 0.  0.
         12    1    3    3    0    0  0.22202027428E+02  0.46813797697E+01  0.28998810665E+02  0.36820868518E+02  0.00000000000E+00 0. -1.
         11    1    4    4    0    0  0.67937713729E+01 -0.90056783328E+00  0.12952094089E+01  0.69745193070E+01  0.51100000000E-03 0. -1.
        -11    1    4    4    0    0 -0.34486907162E+01 -0.38960334289E+01 -0.18567006142E+02  0.19282278430E+02  0.51100000000E-03 0.  1.
        -12    1    4    4    0    0 -0.25547108085E+02  0.11522149253E+00 -0.11727013932E+02  0.28110333745E+02  0.00000000000E+00 0.  1.
</event>
<event>
 8    1  0.2497772E-006  0.9118800E+02  0.7816164E-02  0.1184000E+00
        -11   -1    0    0    0    0  0.00000000000E+00  0.00000000000E+00  0.45593999997E+02  0.45594000000E+02  0.51100000000E-03 0. -1.
         11   -1    0    0    0    0 -0.00000000000E+00 -0.00000000000E+00 -0.45593999997E+02  0.45594000000E+02  0.51100000000E-03 0.  1.
         23    2    1    2    0    0  0.00000000000E+00  0.00000000000E+00  0.00000000000E+00  0.91188000000E+02  0.91188000000E+02 0.  0.
    9900012    2    3    3    0    0  0.94077921966E+01 -0.15287412714E+02 -0.32149119223E+02  0.54367117225E+02  0.40000075337E+02 0.  0.
         12    1    3    3    0    0 -0.94077921966E+01  0.15287412714E+02  0.32149119223E+02  0.36820882775E+02  0.00000000000E+00 0. -1.
         11    1    4    4    0    0  0.14877499443E+02  0.64934922439E+01 -0.97745292619E+01  0.18948531704E+02  0.51100000000E-03 0. -1.
        -11    1    4    4    0    0 -0.19797226369E+01 -0.22969113372E+02 -0.16026293309E+02  0.28077420613E+02  0.51100000000E-03 0.  1.
        -12    1    4    4    0    0 -0.34899846096E+01  0.11882084136E+01 -0.63482966526E+01  0.73411649075E+01  0.00000000000E+00 0.  1.
</event>
<event>
 8    1  0.2497772E-006  0.9118800E+02  0.7816164E-02  0.1184000E+00
        -11   -1    0    0    0    0  0.00000000000E+00  0.00000000000E+00  0.45593999997E+02  0.45594000000E+02  0.51100000000E-03 0.  1.
         11   -1    0    0    0    0 -0.00000000000E+00 -0.00000000000E+00 -0.45593999997E+02  0.45594000000E+02  0.51100000000E-03 0. -1.
         23    2    1    2    0    0  0.88817841970E-15  0.00000000000E+00  0.00000000000E+00  0.91188000000E+02  0.91188000000E+02 0.  0.
    9900012    2    3    3    0    0  0.15354611032E+01 -0.25112447308E+01 -0.36703069039E+02  0.54367091975E+02  0.40000017775E+02 0.  0.
        -12    1    3    3    0    0 -0.15354611032E+01  0.25112447308E+01  0.36703069039E+02  0.36820908025E+02  0.00000000000E+00 0.  1.
         11    1    4    4    0    0  0.12683995307E+02 -0.13214611796E+02 -0.12522529589E+02  0.22188362928E+02  0.51100000000E-03 0. -1.
        -11    1    4    4    0    0  0.14390820920E-01  0.51066330779E+01 -0.16343311269E+00  0.51092679644E+01  0.51100000000E-03 0.  1.
         12    1    4    4    0    0 -0.11162925025E+02  0.55967339876E+01 -0.24017106338E+02  0.27069461082E+02  0.00000000000E+00 0. -1.
</event>
<event>
 8    1  0.2497772E-006  0.9118800E+02  0.7816164E-02  0.1184000E+00
        -11   -1    0    0    0    0  0.00000000000E+00  0.00000000000E+00  0.45593999997E+02  0.45594000000E+02  0.51100000000E-03 0.  1.
         11   -1    0    0    0    0 -0.00000000000E+00 -0.00000000000E+00 -0.45593999997E+02  0.45594000000E+02  0.51100000000E-03 0. -1.
         23    2    1    2    0    0  0.00000000000E+00  0.00000000000E+00 -0.71054273576E-14  0.91188000000E+02  0.91188000000E+02 0.  0.
    9900012    2    3    3    0    0  0.18643504277E+02 -0.13716799740E+02 -0.28636506984E+02  0.54367076885E+02  0.39999983375E+02 0.  0.
        -12    1    3    3    0    0 -0.18643504277E+02  0.13716799740E+02  0.28636506984E+02  0.36820923115E+02  0.00000000000E+00 0.  1.
         11    1    4    4    0    0 -0.15357912533E+01  0.56039757645E+01 -0.49899345847E+01  0.76591544288E+01  0.51100000000E-03 0. -1.
        -11    1    4    4    0    0  0.76915311635E+01  0.63826166424E+01 -0.62949630596E+00  0.10014674868E+02  0.51100000000E-03 0.  1.
         12    1    4    4    0    0  0.12487764367E+02 -0.25703392147E+02 -0.23017076093E+02  0.36693247589E+02  0.00000000000E+00 0. -1.
</event>
<event>
 8    1  0.2497772E-006  0.9118800E+02  0.7816164E-02  0.1184000E+00
        -11   -1    0    0    0    0  0.00000000000E+00  0.00000000000E+00  0.45593999997E+02  0.45594000000E+02  0.51100000000E-03 0. -1.
         11   -1    0    0    0    0 -0.00000000000E+00 -0.00000000000E+00 -0.45593999997E+02  0.45594000000E+02  0.51100000000E-03 0.  1.
         23    2    1    2    0    0 -0.35527136788E-14  0.00000000000E+00  0.00000000000E+00  0.91188000000E+02  0.91188000000E+02 0.  0.
    9900012    2    3    3    0    0  0.15603420613E+02  0.25558230157E+02 -0.21426384236E+02  0.54367084680E+02  0.40000001146E+02 0.  0.
         12    1    3    3    0    0 -0.15603420613E+02 -0.25558230157E+02  0.21426384236E+02  0.36820915320E+02  0.00000000000E+00 0. -1.
         11    1    4    4    0    0 -0.11053130751E+01  0.15979281172E+02 -0.11023229927E+02  0.19444041299E+02  0.51100000000E-03 0.  1.
        -11    1    4    4    0    0 -0.63302801570E+01  0.67047826551E+01 -0.67321380857E+01  0.11417015406E+02  0.51100000000E-03 0. -1.
         12    1    4    4    0    0  0.23039013845E+02  0.28741663300E+01 -0.36710162226E+01  0.23506027975E+02  0.00000000000E+00 0. -1.
</event>
<event>
 8    1  0.2497772E-006  0.9118800E+02  0.7816164E-02  0.1184000E+00
        -11   -1    0    0    0    0  0.00000000000E+00  0.00000000000E+00  0.45593999997E+02  0.45594000000E+02  0.51100000000E-03 0. -1.
         11   -1    0    0    0    0 -0.00000000000E+00 -0.00000000000E+00 -0.45593999997E+02  0.45594000000E+02  0.51100000000E-03 0.  1.
         23    2    1    2    0    0  0.00000000000E+00  0.00000000000E+00 -0.17763568394E-14  0.91188000000E+02  0.91188000000E+02 0.  0.
    9900012    2    3    3    0    0  0.15743505297E+02 -0.31530960718E+02 -0.10663985900E+02  0.54367081514E+02  0.39999993928E+02 0.  0.
        -12    1    3    3    0    0 -0.15743505297E+02  0.31530960718E+02  0.10663985900E+02  0.36820918486E+02  0.00000000000E+00 0.  1.
         11    1    4    4    0    0  0.19798724018E+01  0.60850190674E+01 -0.90436716017E+00  0.64626025717E+01  0.51100000000E-03 0. -1.
        -11    1    4    4    0    0 -0.28060166630E+01 -0.20296067450E+02 -0.12142534981E+02  0.23816910787E+02  0.51100000000E-03 0.  1.
         12    1    4    4    0    0  0.16569649558E+02 -0.17319912336E+02  0.23829162409E+01  0.24087568155E+02  0.00000000000E+00 0. -1.
</event>
<event>
 8    1  0.2497772E-006  0.9118800E+02  0.7816164E-02  0.1184000E+00
        -11   -1    0    0    0    0  0.00000000000E+00  0.00000000000E+00  0.45593999997E+02  0.45594000000E+02  0.51100000000E-03 0. -1.
         11   -1    0    0    0    0 -0.00000000000E+00 -0.00000000000E+00 -0.45593999997E+02  0.45594000000E+02  0.51100000000E-03 0.  1.
         23    2    1    2    0    0  0.00000000000E+00  0.00000000000E+00 -0.35527136788E-14  0.91188000000E+02  0.91188000000E+02 0.  0.
    9900012    2    3    3    0    0 -0.76243989516E+01 -0.27738585038E+02  0.22983022813E+02  0.54367083432E+02  0.39999998300E+02 0.  0.
        -12    1    3    3    0    0  0.76243989516E+01  0.27738585038E+02 -0.22983022813E+02  0.36820916568E+02  0.00000000000E+00 0.  1.
         11    1    4    4    0    0 -0.32282018352E+01 -0.39511560644E+01 -0.56934097099E+00  0.51339137835E+01  0.51100000000E-03 0. -1.
        -11    1    4    4    0    0 -0.15571376011E+01 -0.44431556119E+01 -0.96299142510E+01  0.10719214432E+02  0.51100000000E-03 0.  1.
         12    1    4    4    0    0 -0.28390595154E+01 -0.19344273362E+02  0.33182278035E+02  0.38513955216E+02  0.00000000000E+00 0. -1.
</event>
<event>
 8    1  0.2497772E-006  0.9118800E+02  0.7816164E-02  0.1184000E+00
        -11   -1    0    0    0    0  0.00000000000E+00  0.00000000000E+00  0.45593999997E+02  0.45594000000E+02  0.51100000000E-03 0. -1.
         11   -1    0    0    0    0 -0.00000000000E+00 -0.00000000000E+00 -0.45593999997E+02  0.45594000000E+02  0.51100000000E-03 0.  1.
         23    2    1    2    0    0  0.00000000000E+00 -0.35527136788E-14  0.17763568394E-14  0.91188000000E+02  0.91188000000E+02 0.  0.
    9900012    2    3    3    0    0 -0.26527982167E+02 -0.20390157279E+02  0.15371640326E+02  0.54367086405E+02  0.40000005077E+02 0.  0.
        -12    1    3    3    0    0  0.26527982167E+02  0.20390157279E+02 -0.15371640326E+02  0.36820913595E+02  0.00000000000E+00 0.  1.
         11    1    4    4    0    0 -0.79606360037E+01 -0.36026297551E+01  0.15575544141E+01  0.88756206966E+01  0.51100000000E-03 0. -1.
        -11    1    4    4    0    0 -0.10851713901E+02  0.83820945519E+01  0.13385623758E+02  0.19162310073E+02  0.51100000000E-03 0.  1.
        -12    1    4    4    0    0 -0.77156322622E+01 -0.25169622076E+02  0.42846215313E+00  0.26329155635E+02  0.00000000000E+00 0.  1.
</event>
<event>
 8    1  0.2497772E-006  0.9118800E+02  0.7816164E-02  0.1184000E+00
        -11   -1    0    0    0    0  0.00000000000E+00  0.00000000000E+00  0.45593999997E+02  0.45594000000E+02  0.51100000000E-03 0.  1.
         11   -1    0    0    0    0 -0.00000000000E+00 -0.00000000000E+00 -0.45593999997E+02  0.45594000000E+02  0.51100000000E-03 0. -1.
         23    2    1    2    0    0  0.00000000000E+00  0.00000000000E+00  0.15543122345E-14  0.91188000000E+02  0.91188000000E+02 0.  0.
    9900012    2    3    3    0    0  0.27312479002E+02  0.24681813061E+02  0.78467529639E+00  0.54367093975E+02  0.40000022334E+02 0.  0.
        -12    1    3    3    0    0 -0.27312479002E+02 -0.24681813061E+02 -0.78467529639E+00  0.36820906025E+02  0.00000000000E+00 0.  1.
         11    1    4    4    0    0 -0.81174282311E-01  0.36703688756E+01 -0.13531814559E+02  0.14020991493E+02  0.51100000000E-03 0. -1.
        -11    1    4    4    0    0  0.95284356323E+00 -0.22719251952E+01  0.57421258533E+00  0.25296788932E+01  0.51100000000E-03 0.  1.
         12    1    4    4    0    0  0.26440809721E+02  0.23283369381E+02  0.13742277270E+02  0.37816423588E+02  0.00000000000E+00 0. -1.
</event>
<event>
 8    1  0.2497772E-006  0.9118800E+02  0.7816164E-02  0.1184000E+00
        -11   -1    0    0    0    0  0.00000000000E+00  0.00000000000E+00  0.45593999997E+02  0.45594000000E+02  0.51100000000E-03 0. -1.
         11   -1    0    0    0    0 -0.00000000000E+00 -0.00000000000E+00 -0.45593999997E+02  0.45594000000E+02  0.51100000000E-03 0.  1.
         23    2    1    2    0    0  0.88817841970E-15 -0.88817841970E-15  0.71054273576E-14  0.91188000000E+02  0.91188000000E+02 0.  0.
    9900012    2    3    3    0    0  0.21561779830E+01  0.55101713262E+01 -0.36342427836E+02  0.54367039223E+02  0.39999897517E+02 0.  0.
         12    1    3    3    0    0 -0.21561779830E+01 -0.55101713262E+01  0.36342427836E+02  0.36820960777E+02  0.00000000000E+00 0. -1.
         11    1    4    4    0    0  0.77279240437E+01 -0.44124258296E+01  0.22360693154E+01  0.91755282121E+01  0.51100000000E-03 0. -1.
        -11    1    4    4    0    0  0.77758465450E+01  0.44509161205E+01 -0.17327520296E+02  0.19506855300E+02  0.51100000000E-03 0.  1.
         12    1    4    4    0    0 -0.13347592606E+02  0.54716810352E+01 -0.21250976855E+02  0.25684655711E+02  0.00000000000E+00 0. -1.
</event>
<event>
 8    1  0.2497772E-006  0.9118800E+02  0.7816164E-02  0.1184000E+00
        -11   -1    0    0    0    0  0.00000000000E+00  0.00000000000E+00  0.45593999997E+02  0.45594000000E+02  0.51100000000E-03 0.  1.
         11   -1    0    0    0    0 -0.00000000000E+00 -0.00000000000E+00 -0.45593999997E+02  0.45594000000E+02  0.51100000000E-03 0. -1.
         23    2    1    2    0    0  0.00000000000E+00  0.88817841970E-15  0.35527136788E-14  0.91188000000E+02  0.91188000000E+02 0.  0.
    9900012    2    3    3    0    0 -0.32457292065E+02 -0.23089486210E+01 -0.17232846592E+02  0.54367108463E+02  0.40000055364E+02 0.  0.
        -12    1    3    3    0    0  0.32457292065E+02  0.23089486210E+01  0.17232846592E+02  0.36820891537E+02  0.00000000000E+00 0.  1.
         11    1    4    4    0    0  0.14020555423E+01 -0.60305032268E+01 -0.10647114949E+02  0.12316403124E+02  0.51100000000E-03 0. -1.
        -11    1    4    4    0    0 -0.37385915448E+02  0.51149784659E+01 -0.61847531997E+01  0.38237688882E+02  0.51100000000E-03 0.  1.
        -12    1    4    4    0    0  0.35265678414E+01 -0.13934238601E+01 -0.40097844312E+00  0.38130164575E+01  0.00000000000E+00 0.  1.
</event>
<event>
 8    1  0.2497772E-006  0.9118800E+02  0.7816164E-02  0.1184000E+00
        -11   -1    0    0    0    0  0.00000000000E+00  0.00000000000E+00  0.45593999997E+02  0.45594000000E+02  0.51100000000E-03 0. -1.
         11   -1    0    0    0    0 -0.00000000000E+00 -0.00000000000E+00 -0.45593999997E+02  0.45594000000E+02  0.51100000000E-03 0.  1.
         23    2    1    2    0    0  0.00000000000E+00  0.17763568394E-14  0.71054273576E-14  0.91188000000E+02  0.91188000000E+02 0.  0.
    9900012    2    3    3    0    0 -0.10071683953E+02  0.69688033061E+01 -0.34724312216E+02  0.54367069865E+02  0.39999967371E+02 0.  0.
        -12    1    3    3    0    0  0.10071683953E+02 -0.69688033061E+01  0.34724312216E+02  0.36820930135E+02  0.00000000000E+00 0.  1.
         11    1    4    4    0    0 -0.12088674479E+02  0.15930790648E+02 -0.65230564583E+01  0.21035123179E+02  0.51100000000E-03 0. -1.
        -11    1    4    4    0    0 -0.48240207623E+01 -0.13589538182E+01 -0.18742168303E+02  0.19400690832E+02  0.51100000000E-03 0.  1.
         12    1    4    4    0    0  0.68410112884E+01 -0.76030335234E+01 -0.94590874539E+01  0.13931255854E+02  0.00000000000E+00 0. -1.
</event>
<event>
 8    1  0.2497772E-006  0.9118800E+02  0.7816164E-02  0.1184000E+00
        -11   -1    0    0    0    0  0.00000000000E+00  0.00000000000E+00  0.45593999997E+02  0.45594000000E+02  0.51100000000E-03 0.  1.
         11   -1    0    0    0    0 -0.00000000000E+00 -0.00000000000E+00 -0.45593999997E+02  0.45594000000E+02  0.51100000000E-03 0. -1.
         23    2    1    2    0    0  0.00000000000E+00  0.00000000000E+00  0.71054273576E-14  0.91188000000E+02  0.91188000000E+02 0.  0.
    9900012    2    3    3    0    0  0.68747154391E+01 -0.24263993279E+02 -0.26828646436E+02  0.54367090834E+02  0.40000015175E+02 0.  0.
        -12    1    3    3    0    0 -0.68747154391E+01  0.24263993279E+02  0.26828646436E+02  0.36820909166E+02  0.00000000000E+00 0.  1.
         11    1    4    4    0    0  0.67612191339E+01 -0.94329654896E+01 -0.23289781802E+02  0.26021315469E+02  0.51100000000E-03 0.  1.
        -11    1    4    4    0    0  0.10583311255E+02 -0.13383866997E+02 -0.47388873977E+01  0.17708512838E+02  0.51100000000E-03 0. -1.
        -12    1    4    4    0    0 -0.10469814949E+02 -0.14471607916E+01  0.12000227635E+01  0.10637262527E+02  0.00000000000E+00 0.  1.
</event>
<event>
 8    1  0.2497772E-006  0.9118800E+02  0.7816164E-02  0.1184000E+00
        -11   -1    0    0    0    0  0.00000000000E+00  0.00000000000E+00  0.45593999997E+02  0.45594000000E+02  0.51100000000E-03 0.  1.
         11   -1    0    0    0    0 -0.00000000000E+00 -0.00000000000E+00 -0.45593999997E+02  0.45594000000E+02  0.51100000000E-03 0. -1.
         23    2    1    2    0    0  0.35527136788E-14 -0.17763568394E-14  0.00000000000E+00  0.91188000000E+02  0.91188000000E+02 0.  0.
    9900012    2    3    3    0    0 -0.30846863727E+02 -0.10112579461E+02  0.17377737249E+02  0.54367095380E+02  0.40000025538E+02 0.  0.
         12    1    3    3    0    0  0.30846863727E+02  0.10112579461E+02 -0.17377737249E+02  0.36820904620E+02  0.00000000000E+00 0. -1.
         11    1    4    4    0    0 -0.20050957107E+02  0.56996824381E+00 -0.28957258049E+01  0.20266992202E+02  0.51100000000E-03 0. -1.
        -11    1    4    4    0    0 -0.12546393108E+02 -0.16778591949E+02  0.14131393241E+02  0.25271117962E+02  0.51100000000E-03 0.  1.
        -12    1    4    4    0    0  0.17504864884E+01  0.60960442445E+01  0.61420698123E+01  0.88289852167E+01  0.00000000000E+00 0.  1.
</event>
<event>
 8    1  0.2497772E-006  0.9118800E+02  0.7816164E-02  0.1184000E+00
        -11   -1    0    0    0    0  0.00000000000E+00  0.00000000000E+00  0.45593999997E+02  0.45594000000E+02  0.51100000000E-03 0. -1.
         11   -1    0    0    0    0 -0.00000000000E+00 -0.00000000000E+00 -0.45593999997E+02  0.45594000000E+02  0.51100000000E-03 0.  1.
         23    2    1    2    0    0  0.00000000000E+00  0.00000000000E+00  0.00000000000E+00  0.91188000000E+02  0.91188000000E+02 0.  0.
    9900012    2    3    3    0    0  0.19893570912E+02  0.26013490280E+02 -0.16832213819E+02  0.54367092050E+02  0.40000017947E+02 0.  0.
         12    1    3    3    0    0 -0.19893570912E+02 -0.26013490280E+02  0.16832213819E+02  0.36820907950E+02  0.00000000000E+00 0. -1.
         11    1    4    4    0    0  0.84857400260E+01 -0.63797349225E+01  0.31002053651E+01  0.11059840642E+02  0.51100000000E-03 0. -1.
        -11    1    4    4    0    0  0.67931397055E+01  0.16243766247E+02 -0.19819889222E+02  0.26511029742E+02  0.51100000000E-03 0.  1.
        -12    1    4    4    0    0  0.46146911802E+01  0.16149458956E+02 -0.11252996196E+00  0.16796221666E+02  0.00000000000E+00 0.  1.
</event>
<event>
 8    1  0.2497772E-006  0.9118800E+02  0.7816164E-02  0.1184000E+00
        -11   -1    0    0    0    0  0.00000000000E+00  0.00000000000E+00  0.45593999997E+02  0.45594000000E+02  0.51100000000E-03 0.  1.
         11   -1    0    0    0    0 -0.00000000000E+00 -0.00000000000E+00 -0.45593999997E+02  0.45594000000E+02  0.51100000000E-03 0. -1.
         23    2    1    2    0    0  0.00000000000E+00  0.00000000000E+00  0.17763568394E-14  0.91188000000E+02  0.91188000000E+02 0.  0.
    9900012    2    3    3    0    0 -0.11086630155E+02  0.31956098609E+02 -0.14549024092E+02  0.54367085990E+02  0.40000004132E+02 0.  0.
         12    1    3    3    0    0  0.11086630155E+02 -0.31956098609E+02  0.14549024092E+02  0.36820914010E+02  0.00000000000E+00 0. -1.
         11    1    4    4    0    0  0.42660583564E-01 -0.63165795604E+01  0.64281123261E+01  0.90123041230E+01  0.51100000000E-03 0.  1.
        -11    1    4    4    0    0 -0.28498474277E+01  0.19271658954E+02 -0.98284650203E+01  0.21820109856E+02  0.51100000000E-03 0. -1.
        -12    1    4    4    0    0 -0.82794433106E+01  0.19001019215E+02 -0.11148671398E+02  0.23534672011E+02  0.00000000000E+00 0.  1.
</event>
<event>
 8    1  0.2497772E-006  0.9118800E+02  0.7816164E-02  0.1184000E+00
        -11   -1    0    0    0    0  0.00000000000E+00  0.00000000000E+00  0.45593999997E+02  0.45594000000E+02  0.51100000000E-03 0. -1.
         11   -1    0    0    0    0 -0.00000000000E+00 -0.00000000000E+00 -0.45593999997E+02  0.45594000000E+02  0.51100000000E-03 0.  1.
         23    2    1    2    0    0  0.00000000000E+00  0.41633363423E-16 -0.35527136788E-14  0.91188000000E+02  0.91188000000E+02 0.  0.
    9900012    2    3    3    0    0 -0.20673142102E+02 -0.12052890774E+00 -0.30469419966E+02  0.54367097178E+02  0.40000029636E+02 0.  0.
         12    1    3    3    0    0  0.20673142102E+02  0.12052890774E+00  0.30469419966E+02  0.36820902822E+02  0.00000000000E+00 0. -1.
         11    1    4    4    0    0  0.45187295569E+01  0.56766969230E+01 -0.21966900472E+02  0.23134141898E+02  0.51100000000E-03 0. -1.
        -11    1    4    4    0    0 -0.12288712560E+02  0.88046566059E+00  0.30255438280E+01  0.12686275729E+02  0.51100000000E-03 0.  1.
         12    1    4    4    0    0 -0.12903159099E+02 -0.66776914914E+01 -0.11528063322E+02  0.18546679551E+02  0.00000000000E+00 0. -1.
</event>
<event>
 8    1  0.2497772E-006  0.9118800E+02  0.7816164E-02  0.1184000E+00
        -11   -1    0    0    0    0  0.00000000000E+00  0.00000000000E+00  0.45593999997E+02  0.45594000000E+02  0.51100000000E-03 0.  1.
         11   -1    0    0    0    0 -0.00000000000E+00 -0.00000000000E+00 -0.45593999997E+02  0.45594000000E+02  0.51100000000E-03 0. -1.
         23    2    1    2    0    0  0.88817841970E-15  0.00000000000E+00  0.88817841970E-15  0.91188000000E+02  0.91188000000E+02 0.  0.
    9900012    2    3    3    0    0  0.38806821908E+01  0.36309572536E+02 -0.47259120982E+01  0.54367095650E+02  0.40000026153E+02 0.  0.
         12    1    3    3    0    0 -0.38806821908E+01 -0.36309572536E+02  0.47259120982E+01  0.36820904350E+02  0.00000000000E+00 0. -1.
         11    1    4    4    0    0 -0.44161896525E+01  0.90726674262E+01 -0.15230875513E+02  0.18270073739E+02  0.51100000000E-03 0. -1.
        -11    1    4    4    0    0  0.57904112731E+01  0.25634269925E+01  0.93206518398E+01  0.11268299412E+02  0.51100000000E-03 0.  1.
         12    1    4    4    0    0  0.25064605702E+01  0.24673478117E+02  0.11843115753E+01  0.24828722498E+02  0.00000000000E+00 0. -1.
</event>
<event>
 8    1  0.2497772E-006  0.9118800E+02  0.7816164E-02  0.1184000E+00
        -11   -1    0    0    0    0  0.00000000000E+00  0.00000000000E+00  0.45593999997E+02  0.45594000000E+02  0.51100000000E-03 0.  1.
         11   -1    0    0    0    0 -0.00000000000E+00 -0.00000000000E+00 -0.45593999997E+02  0.45594000000E+02  0.51100000000E-03 0. -1.
         23    2    1    2    0    0  0.00000000000E+00  0.94368957093E-15  0.00000000000E+00  0.91188000000E+02  0.91188000000E+02 0.  0.
    9900012    2    3    3    0    0  0.28722220466E+02 -0.28617642531E+00  0.23037623963E+02  0.54367082531E+02  0.39999996245E+02 0.  0.
         12    1    3    3    0    0 -0.28722220466E+02  0.28617642531E+00 -0.23037623963E+02  0.36820917469E+02  0.00000000000E+00 0. -1.
         11    1    4    4    0    0  0.13311944502E+01  0.14785816022E+02  0.12609675158E+02  0.19478099033E+02  0.51100000000E-03 0. -1.
        -11    1    4    4    0    0  0.73028499828E+01 -0.59124850535E+01  0.85964344637E+01  0.12735296743E+02  0.51100000000E-03 0.  1.
        -12    1    4    4    0    0  0.20088176033E+02 -0.91595073935E+01  0.18315143405E+01  0.22153686754E+02  0.00000000000E+00 0.  1.
</event>
<event>
 8    1  0.2497772E-006  0.9118800E+02  0.7816164E-02  0.1184000E+00
        -11   -1    0    0    0    0  0.00000000000E+00  0.00000000000E+00  0.45593999997E+02  0.45594000000E+02  0.51100000000E-03 0. -1.
         11   -1    0    0    0    0 -0.00000000000E+00 -0.00000000000E+00 -0.45593999997E+02  0.45594000000E+02  0.51100000000E-03 0.  1.
         23    2    1    2    0    0  0.00000000000E+00 -0.35527136788E-14  0.17763568394E-14  0.91188000000E+02  0.91188000000E+02 0.  0.
    9900012    2    3    3    0    0 -0.32382240210E+02 -0.13894407687E+02  0.10682522037E+02  0.54367077646E+02  0.39999985109E+02 0.  0.
        -12    1    3    3    0    0  0.32382240210E+02  0.13894407687E+02 -0.10682522037E+02  0.36820922354E+02  0.00000000000E+00 0.  1.
         11    1    4    4    0    0 -0.56313758871E+00  0.56835118580E+01  0.46807428297E+00  0.57304907974E+01  0.51100000000E-03 0. -1.
        -11    1    4    4    0    0 -0.10826671311E+02 -0.25497614651E+01 -0.99418483099E+01  0.14918392785E+02  0.51100000000E-03 0.  1.
        -12    1    4    4    0    0 -0.20992431310E+02 -0.17028158080E+02  0.20156296064E+02  0.33718194063E+02  0.00000000000E+00 0.  1.
</event>
<event>
 8    1  0.2497772E-006  0.9118800E+02  0.7816164E-02  0.1184000E+00
        -11   -1    0    0    0    0  0.00000000000E+00  0.00000000000E+00  0.45593999997E+02  0.45594000000E+02  0.51100000000E-03 0.  1.
         11   -1    0    0    0    0 -0.00000000000E+00 -0.00000000000E+00 -0.45593999997E+02  0.45594000000E+02  0.51100000000E-03 0. -1.
         23    2    1    2    0    0 -0.71054273576E-14  0.88817841970E-15 -0.88817841970E-15  0.91188000000E+02  0.91188000000E+02 0.  0.
    9900012    2    3    3    0    0  0.35869047435E+02 -0.54544697979E+01 -0.62801455346E+01  0.54367081589E+02  0.39999994098E+02 0.  0.
        -12    1    3    3    0    0 -0.35869047435E+02  0.54544697979E+01  0.62801455346E+01  0.36820918411E+02  0.00000000000E+00 0.  1.
         11    1    4    4    0    0  0.11002038933E+02  0.52717981056E+01 -0.15071105268E+02  0.19390072981E+02  0.51100000000E-03 0.  1.
        -11    1    4    4    0    0 -0.80423999226E+00  0.24800117287E+01  0.52886287514E+01  0.58963424655E+01  0.51100000000E-03 0. -1.
         12    1    4    4    0    0  0.25671248495E+02 -0.13206279632E+02  0.35023309817E+01  0.29080666143E+02  0.00000000000E+00 0. -1.
</event>
<event>
 8    1  0.2497772E-006  0.9118800E+02  0.7816164E-02  0.1184000E+00
        -11   -1    0    0    0    0  0.00000000000E+00  0.00000000000E+00  0.45593999997E+02  0.45594000000E+02  0.51100000000E-03 0. -1.
         11   -1    0    0    0    0 -0.00000000000E+00 -0.00000000000E+00 -0.45593999997E+02  0.45594000000E+02  0.51100000000E-03 0.  1.
         23    2    1    2    0    0  0.00000000000E+00  0.00000000000E+00 -0.35527136788E-14  0.91188000000E+02  0.91188000000E+02 0.  0.
    9900012    2    3    3    0    0 -0.34277585724E+02 -0.99284424453E+01 -0.90694200679E+01  0.54367065291E+02  0.39999956944E+02 0.  0.
        -12    1    3    3    0    0  0.34277585724E+02  0.99284424453E+01  0.90694200679E+01  0.36820934709E+02  0.00000000000E+00 0.  1.
         11    1    4    4    0    0 -0.23361131015E+02 -0.95836057380E+01 -0.20419789501E+02  0.32473924074E+02  0.51100000000E-03 0. -1.
        -11    1    4    4    0    0 -0.11559198721E+02 -0.66923747749E+00  0.11145976346E+01  0.11632079867E+02  0.51100000000E-03 0.  1.
        -12    1    4    4    0    0  0.64274401169E+00  0.32440077017E+00  0.10235771799E+02  0.10261061351E+02  0.00000000000E+00 0.  1.
</event>
<event>
 8    1  0.2497772E-006  0.9118800E+02  0.7816164E-02  0.1184000E+00
        -11   -1    0    0    0    0  0.00000000000E+00  0.00000000000E+00  0.45593999997E+02  0.45594000000E+02  0.51100000000E-03 0. -1.
         11   -1    0    0    0    0 -0.00000000000E+00 -0.00000000000E+00 -0.45593999997E+02  0.45594000000E+02  0.51100000000E-03 0.  1.
         23    2    1    2    0    0  0.00000000000E+00  0.10658141036E-13  0.00000000000E+00  0.91188000000E+02  0.91188000000E+02 0.  0.
    9900012    2    3    3    0    0  0.97174338281E+01  0.29217544937E+02 -0.20191264097E+02  0.54367073909E+02  0.39999976591E+02 0.  0.
         12    1    3    3    0    0 -0.97174338281E+01 -0.29217544937E+02  0.20191264097E+02  0.36820926091E+02  0.00000000000E+00 0. -1.
         11    1    4    4    0    0  0.84532149969E+00  0.33414241445E+02 -0.78374004252E+01  0.34331486211E+02  0.51100000000E-03 0. -1.
        -11    1    4    4    0    0  0.10345050117E+02 -0.85639655269E+00 -0.43817259180E+01  0.11267342156E+02  0.51100000000E-03 0.  1.
        -12    1    4    4    0    0 -0.14729377883E+01 -0.33402999554E+01 -0.79721377538E+01  0.87682455420E+01  0.00000000000E+00 0.  1.
</event>
<event>
 8    1  0.2497772E-006  0.9118800E+02  0.7816164E-02  0.1184000E+00
        -11   -1    0    0    0    0  0.00000000000E+00  0.00000000000E+00  0.45593999997E+02  0.45594000000E+02  0.51100000000E-03 0.  1.
         11   -1    0    0    0    0 -0.00000000000E+00 -0.00000000000E+00 -0.45593999997E+02  0.45594000000E+02  0.51100000000E-03 0. -1.
         23    2    1    2    0    0 -0.35527136788E-14  0.00000000000E+00 -0.35527136788E-14  0.91188000000E+02  0.91188000000E+02 0.  0.
    9900012    2    3    3    0    0  0.18602976443E+02  0.16357021705E+02  0.27242536233E+02  0.54367100065E+02  0.40000036219E+02 0.  0.
         12    1    3    3    0    0 -0.18602976443E+02 -0.16357021705E+02 -0.27242536233E+02  0.36820899935E+02  0.00000000000E+00 0. -1.
         11    1    4    4    0    0  0.17897163500E+02  0.14608618186E+00 -0.26198003066E+00  0.17899676989E+02  0.51100000000E-03 0. -1.
        -11    1    4    4    0    0  0.70512799150E+01  0.13870960557E+01  0.12621269108E+02  0.14523808662E+02  0.51100000000E-03 0.  1.
         12    1    4    4    0    0 -0.63454669722E+01  0.14823839468E+02  0.14883247156E+02  0.21943614414E+02  0.00000000000E+00 0. -1.
</event>
<event>
 8    1  0.2497772E-006  0.9118800E+02  0.7816164E-02  0.1184000E+00
        -11   -1    0    0    0    0  0.00000000000E+00  0.00000000000E+00  0.45593999997E+02  0.45594000000E+02  0.51100000000E-03 0. -1.
         11   -1    0    0    0    0 -0.00000000000E+00 -0.00000000000E+00 -0.45593999997E+02  0.45594000000E+02  0.51100000000E-03 0.  1.
         23    2    1    2    0    0  0.26645352591E-14 -0.22204460493E-15  0.00000000000E+00  0.91188000000E+02  0.91188000000E+02 0.  0.
    9900012    2    3    3    0    0 -0.40216949879E+01  0.45809934826E+00  0.36597764342E+02  0.54367078767E+02  0.39999987666E+02 0.  0.
        -12    1    3    3    0    0  0.40216949879E+01 -0.45809934826E+00 -0.36597764342E+02  0.36820921233E+02  0.00000000000E+00 0.  1.
         11    1    4    4    0    0  0.85653929700E+00  0.30290945496E+00  0.77848859809E+01  0.78377205680E+01  0.51100000000E-03 0. -1.
        -11    1    4    4    0    0 -0.17506064858E+02 -0.10149207364E+02  0.16131698636E+02  0.25878570635E+02  0.51100000000E-03 0.  1.
        -12    1    4    4    0    0  0.12627830573E+02  0.10304397257E+02  0.12681179725E+02  0.20650787565E+02  0.00000000000E+00 0.  1.
</event>
<event>
 8    1  0.2497772E-006  0.9118800E+02  0.7816164E-02  0.1184000E+00
        -11   -1    0    0    0    0  0.00000000000E+00  0.00000000000E+00  0.45593999997E+02  0.45594000000E+02  0.51100000000E-03 0. -1.
         11   -1    0    0    0    0 -0.00000000000E+00 -0.00000000000E+00 -0.45593999997E+02  0.45594000000E+02  0.51100000000E-03 0.  1.
         23    2    1    2    0    0  0.17763568394E-14  0.00000000000E+00  0.00000000000E+00  0.91188000000E+02  0.91188000000E+02 0.  0.
    9900012    2    3    3    0    0  0.10947453559E+02 -0.31816767965E+02  0.14954164888E+02  0.54367075098E+02  0.39999979301E+02 0.  0.
        -12    1    3    3    0    0 -0.10947453559E+02  0.31816767965E+02 -0.14954164888E+02  0.36820924902E+02  0.00000000000E+00 0.  1.
         11    1    4    4    0    0 -0.11967428398E+02 -0.43816632569E+01  0.34446444830E+01  0.13201662442E+02  0.51100000000E-03 0.  1.
        -11    1    4    4    0    0  0.15036468435E+02 -0.51650427153E+01  0.48479405699E+01  0.16621539558E+02  0.51100000000E-03 0. -1.
         12    1    4    4    0    0  0.78784135223E+01 -0.22270061992E+02  0.66615798346E+01  0.24543873098E+02  0.00000000000E+00 0. -1.
</event>
<event>
 8    1  0.2497772E-006  0.9118800E+02  0.7816164E-02  0.1184000E+00
        -11   -1    0    0    0    0  0.00000000000E+00  0.00000000000E+00  0.45593999997E+02  0.45594000000E+02  0.51100000000E-03 0.  1.
         11   -1    0    0    0    0 -0.00000000000E+00 -0.00000000000E+00 -0.45593999997E+02  0.45594000000E+02  0.51100000000E-03 0. -1.
         23    2    1    2    0    0  0.35527136788E-14  0.00000000000E+00  0.88817841970E-15  0.91188000000E+02  0.91188000000E+02 0.  0.
    9900012    2    3    3    0    0 -0.28834930499E+02 -0.22772344671E+02  0.23972298327E+01  0.54367087334E+02  0.40000007195E+02 0.  0.
        -12    1    3    3    0    0  0.28834930499E+02  0.22772344671E+02 -0.23972298327E+01  0.36820912666E+02  0.00000000000E+00 0.  1.
         11    1    4    4    0    0  0.66369398344E+01 -0.31581240596E+01 -0.37861146595E+01  0.82678523461E+01  0.51100000000E-03 0. -1.
        -11    1    4    4    0    0 -0.30650954034E+02 -0.70348001168E+01  0.81451393451E+01  0.32485576663E+02  0.51100000000E-03 0.  1.
        -12    1    4    4    0    0 -0.48209162989E+01 -0.12579420495E+02 -0.19617948529E+01  0.13613658325E+02  0.00000000000E+00 0.  1.
</event>
<event>
 8    1  0.2497772E-006  0.9118800E+02  0.7816164E-02  0.1184000E+00
        -11   -1    0    0    0    0  0.00000000000E+00  0.00000000000E+00  0.45593999997E+02  0.45594000000E+02  0.51100000000E-03 0.  1.
         11   -1    0    0    0    0 -0.00000000000E+00 -0.00000000000E+00 -0.45593999997E+02  0.45594000000E+02  0.51100000000E-03 0. -1.
         23    2    1    2    0    0  0.00000000000E+00  0.00000000000E+00  0.00000000000E+00  0.91188000000E+02  0.91188000000E+02 0.  0.
    9900012    2    3    3    0    0  0.19205834812E+02  0.31283489823E+02 -0.28739450687E+01  0.54367076782E+02  0.39999983140E+02 0.  0.
        -12    1    3    3    0    0 -0.19205834812E+02 -0.31283489823E+02  0.28739450687E+01  0.36820923218E+02  0.00000000000E+00 0.  1.
         11    1    4    4    0    0  0.23375699390E+02  0.27711081351E+02 -0.62308606703E+01  0.36785200510E+02  0.51100000000E-03 0. -1.
        -11    1    4    4    0    0 -0.46569332033E+01  0.97181748984E+01  0.37349668666E+01  0.11405258786E+02  0.51100000000E-03 0.  1.
         12    1    4    4    0    0  0.48706862588E+00 -0.61457664262E+01 -0.37805126492E+00  0.61766174862E+01  0.00000000000E+00 0. -1.
</event>
<event>
 8    1  0.2497772E-006  0.9118800E+02  0.7816164E-02  0.1184000E+00
        -11   -1    0    0    0    0  0.00000000000E+00  0.00000000000E+00  0.45593999997E+02  0.45594000000E+02  0.51100000000E-03 0. -1.
         11   -1    0    0    0    0 -0.00000000000E+00 -0.00000000000E+00 -0.45593999997E+02  0.45594000000E+02  0.51100000000E-03 0.  1.
         23    2    1    2    0    0 -0.17763568394E-14  0.00000000000E+00  0.71054273576E-14  0.91188000000E+02  0.91188000000E+02 0.  0.
    9900012    2    3    3    0    0 -0.10024918282E+02 -0.11745463209E+02  0.33426420492E+02  0.54367075521E+02  0.39999980265E+02 0.  0.
        -12    1    3    3    0    0  0.10024918282E+02  0.11745463209E+02 -0.33426420492E+02  0.36820924479E+02  0.00000000000E+00 0.  1.
         11    1    4    4    0    0 -0.41137178024E+01 -0.49284462922E+01 -0.30957430807E+01  0.71271230167E+01  0.51100000000E-03 0. -1.
        -11    1    4    4    0    0 -0.39865139779E+01  0.80075125886E+01  0.13805331738E+01  0.90508797174E+01  0.51100000000E-03 0.  1.
         12    1    4    4    0    0 -0.19246865021E+01 -0.14824529505E+02  0.35141630399E+02  0.38189072787E+02  0.00000000000E+00 0. -1.
</event>
<event>
 8    1  0.2497772E-006  0.9118800E+02  0.7816164E-02  0.1184000E+00
        -11   -1    0    0    0    0  0.00000000000E+00  0.00000000000E+00  0.45593999997E+02  0.45594000000E+02  0.51100000000E-03 0.  1.
         11   -1    0    0    0    0 -0.00000000000E+00 -0.00000000000E+00 -0.45593999997E+02  0.45594000000E+02  0.51100000000E-03 0. -1.
         23    2    1    2    0    0 -0.17763568394E-14  0.00000000000E+00  0.00000000000E+00  0.91188000000E+02  0.91188000000E+02 0.  0.
    9900012    2    3    3    0    0  0.15068601123E+02  0.21867841772E+02 -0.25505182747E+02  0.54367087592E+02  0.40000007784E+02 0.  0.
        -12    1    3    3    0    0 -0.15068601123E+02 -0.21867841772E+02  0.25505182747E+02  0.36820912408E+02  0.00000000000E+00 0.  1.
         11    1    4    4    0    0  0.27936770891E+01  0.17290287588E+02 -0.46861984537E+01  0.18130613138E+02  0.51100000000E-03 0. -1.
        -11    1    4    4    0    0 -0.79810641336E+01  0.40516963984E+01 -0.93908586105E+01  0.12973120446E+02  0.51100000000E-03 0.  1.
        -12    1    4    4    0    0  0.20255988168E+02  0.52585778552E+00 -0.11428125683E+02  0.23263354008E+02  0.00000000000E+00 0.  1.
</event>
<event>
 8    1  0.2497772E-006  0.9118800E+02  0.7816164E-02  0.1184000E+00
        -11   -1    0    0    0    0  0.00000000000E+00  0.00000000000E+00  0.45593999997E+02  0.45594000000E+02  0.51100000000E-03 0. -1.
         11   -1    0    0    0    0 -0.00000000000E+00 -0.00000000000E+00 -0.45593999997E+02  0.45594000000E+02  0.51100000000E-03 0.  1.
         23    2    1    2    0    0 -0.13322676296E-14  0.88817841970E-15  0.00000000000E+00  0.91188000000E+02  0.91188000000E+02 0.  0.
    9900012    2    3    3    0    0  0.36275555904E+01 -0.63700061805E+01  0.36083851259E+02  0.54367075786E+02  0.39999980869E+02 0.  0.
        -12    1    3    3    0    0 -0.36275555904E+01  0.63700061805E+01 -0.36083851259E+02  0.36820924214E+02  0.00000000000E+00 0.  1.
         11    1    4    4    0    0 -0.22066675960E+01  0.31933888744E+01  0.17003338697E+02  0.17440775255E+02  0.51100000000E-03 0. -1.
        -11    1    4    4    0    0  0.16931655403E+02 -0.10105651791E+02  0.81367298286E+01  0.21330999165E+02  0.51100000000E-03 0.  1.
         12    1    4    4    0    0 -0.11097432217E+02  0.54225673657E+00  0.10943782733E+02  0.15595301365E+02  0.00000000000E+00 0. -1.
</event>
<event>
 8    1  0.2497772E-006  0.9118800E+02  0.7816164E-02  0.1184000E+00
        -11   -1    0    0    0    0  0.00000000000E+00  0.00000000000E+00  0.45593999997E+02  0.45594000000E+02  0.51100000000E-03 0.  1.
         11   -1    0    0    0    0 -0.00000000000E+00 -0.00000000000E+00 -0.45593999997E+02  0.45594000000E+02  0.51100000000E-03 0. -1.
         23    2    1    2    0    0  0.00000000000E+00  0.00000000000E+00  0.00000000000E+00  0.91188000000E+02  0.91188000000E+02 0.  0.
    9900012    2    3    3    0    0 -0.22269782642E+02 -0.21223470707E+02 -0.20233614130E+02  0.54367108260E+02  0.40000054901E+02 0.  0.
        -12    1    3    3    0    0  0.22269782642E+02  0.21223470707E+02  0.20233614130E+02  0.36820891740E+02  0.00000000000E+00 0.  1.
         11    1    4    4    0    0 -0.36940458140E+01 -0.21491597151E+02 -0.78542120285E+01  0.23178079502E+02  0.51100000000E-03 0.  1.
        -11    1    4    4    0    0 -0.13437350093E+02  0.72818956526E+01  0.90712691212E+00  0.15310495136E+02  0.51100000000E-03 0. -1.
         12    1    4    4    0    0 -0.51383867350E+01 -0.70137692085E+01 -0.13286529013E+02  0.15878533622E+02  0.00000000000E+00 0. -1.
</event>
<event>
 8    1  0.2497772E-006  0.9118800E+02  0.7816164E-02  0.1184000E+00
        -11   -1    0    0    0    0  0.00000000000E+00  0.00000000000E+00  0.45593999997E+02  0.45594000000E+02  0.51100000000E-03 0.  1.
         11   -1    0    0    0    0 -0.00000000000E+00 -0.00000000000E+00 -0.45593999997E+02  0.45594000000E+02  0.51100000000E-03 0. -1.
         23    2    1    2    0    0  0.00000000000E+00  0.35527136788E-14 -0.88817841970E-15  0.91188000000E+02  0.91188000000E+02 0.  0.
    9900012    2    3    3    0    0 -0.18629529255E+02 -0.30953863380E+02  0.71118857901E+01  0.54367082876E+02  0.39999997032E+02 0.  0.
        -12    1    3    3    0    0  0.18629529255E+02  0.30953863380E+02 -0.71118857901E+01  0.36820917124E+02  0.00000000000E+00 0.  1.
         11    1    4    4    0    0 -0.13696150875E+02  0.70475954910E+00 -0.84669739614E+00  0.13740383239E+02  0.51100000000E-03 0. -1.
        -11    1    4    4    0    0  0.51796761431E+01  0.64506326905E+00  0.39389983020E+01  0.65391788057E+01  0.51100000000E-03 0.  1.
        -12    1    4    4    0    0 -0.10113054522E+02 -0.32303686198E+02  0.40195848842E+01  0.34087520831E+02  0.00000000000E+00 0.  1.
</event>
<event>
 8    1  0.2497772E-006  0.9118800E+02  0.7816164E-02  0.1184000E+00
        -11   -1    0    0    0    0  0.00000000000E+00  0.00000000000E+00  0.45593999997E+02  0.45594000000E+02  0.51100000000E-03 0.  1.
         11   -1    0    0    0    0 -0.00000000000E+00 -0.00000000000E+00 -0.45593999997E+02  0.45594000000E+02  0.51100000000E-03 0. -1.
         23    2    1    2    0    0  0.00000000000E+00  0.35527136788E-14  0.00000000000E+00  0.91188000000E+02  0.91188000000E+02 0.  0.
    9900012    2    3    3    0    0 -0.10032727450E+02  0.31112964470E+02 -0.16944235092E+02  0.54367091795E+02  0.40000017366E+02 0.  0.
        -12    1    3    3    0    0  0.10032727450E+02 -0.31112964470E+02  0.16944235092E+02  0.36820908205E+02  0.00000000000E+00 0.  1.
         11    1    4    4    0    0  0.17523805855E+01 -0.59311843102E+01 -0.22695418996E+01  0.65879136100E+01  0.51100000000E-03 0. -1.
        -11    1    4    4    0    0 -0.71116033101E+01  0.10198644733E+02  0.57758817152E+01  0.13709415227E+02  0.51100000000E-03 0.  1.
         12    1    4    4    0    0 -0.46735047256E+01  0.26845504047E+02 -0.20450574908E+02  0.34069762958E+02  0.00000000000E+00 0. -1.
</event>
<event>
 8    1  0.2497772E-006  0.9118800E+02  0.7816164E-02  0.1184000E+00
        -11   -1    0    0    0    0  0.00000000000E+00  0.00000000000E+00  0.45593999997E+02  0.45594000000E+02  0.51100000000E-03 0.  1.
         11   -1    0    0    0    0 -0.00000000000E+00 -0.00000000000E+00 -0.45593999997E+02  0.45594000000E+02  0.51100000000E-03 0. -1.
         23    2    1    2    0    0  0.00000000000E+00  0.00000000000E+00  0.35527136788E-14  0.91188000000E+02  0.91188000000E+02 0.  0.
    9900012    2    3    3    0    0 -0.17381837329E+02  0.26233491927E+02 -0.19116927549E+02  0.54367064562E+02  0.39999955281E+02 0.  0.
        -12    1    3    3    0    0  0.17381837329E+02 -0.26233491927E+02  0.19116927549E+02  0.36820935438E+02  0.00000000000E+00 0.  1.
         11    1    4    4    0    0 -0.13948718757E+02  0.89573216854E+01 -0.17561881357E+02  0.24149949147E+02  0.51100000000E-03 0. -1.
        -11    1    4    4    0    0 -0.84082637896E+01 -0.31336156694E+01 -0.20478606023E+01  0.92039220133E+01  0.51100000000E-03 0.  1.
        -12    1    4    4    0    0  0.49751452178E+01  0.20409785911E+02  0.49281441034E+00  0.21013193401E+02  0.00000000000E+00 0.  1.
</event>
<event>
 8    1  0.2497772E-006  0.9118800E+02  0.7816164E-02  0.1184000E+00
        -11   -1    0    0    0    0  0.00000000000E+00  0.00000000000E+00  0.45593999997E+02  0.45594000000E+02  0.51100000000E-03 0. -1.
         11   -1    0    0    0    0 -0.00000000000E+00 -0.00000000000E+00 -0.45593999997E+02  0.45594000000E+02  0.51100000000E-03 0.  1.
         23    2    1    2    0    0  0.00000000000E+00  0.17763568394E-14  0.00000000000E+00  0.91188000000E+02  0.91188000000E+02 0.  0.
    9900012    2    3    3    0    0  0.28360148191E+02 -0.11287063245E+02  0.20593184185E+02  0.54367149426E+02  0.40000148745E+02 0.  0.
        -12    1    3    3    0    0 -0.28360148191E+02  0.11287063245E+02 -0.20593184185E+02  0.36820850574E+02  0.00000000000E+00 0.  1.
         11    1    4    4    0    0  0.16689142447E+02 -0.64714640986E+01 -0.21298970739E+01  0.18026197186E+02  0.51100000000E-03 0. -1.
        -11    1    4    4    0    0 -0.41285406613E+01 -0.66336680905E+00 -0.34951197018E+01  0.54498408698E+01  0.51100000000E-03 0.  1.
        -12    1    4    4    0    0  0.15799546406E+02 -0.41522323372E+01  0.26218200961E+02  0.30891111370E+02  0.00000000000E+00 0.  1.
</event>
<event>
 8    1  0.2497772E-006  0.9118800E+02  0.7816164E-02  0.1184000E+00
        -11   -1    0    0    0    0  0.00000000000E+00  0.00000000000E+00  0.45593999997E+02  0.45594000000E+02  0.51100000000E-03 0.  1.
         11   -1    0    0    0    0 -0.00000000000E+00 -0.00000000000E+00 -0.45593999997E+02  0.45594000000E+02  0.51100000000E-03 0. -1.
         23    2    1    2    0    0  0.00000000000E+00  0.00000000000E+00  0.00000000000E+00  0.91188000000E+02  0.91188000000E+02 0.  0.
    9900012    2    3    3    0    0 -0.33571675363E+01  0.26163955331E+02 -0.25689601421E+02  0.54367098957E+02  0.40000033693E+02 0.  0.
        -12    1    3    3    0    0  0.33571675363E+01 -0.26163955331E+02  0.25689601421E+02  0.36820901043E+02  0.00000000000E+00 0.  1.
         11    1    4    4    0    0  0.10019354433E+02  0.14277708905E+02 -0.15189047901E+02  0.23128934502E+02  0.51100000000E-03 0. -1.
        -11    1    4    4    0    0  0.52048744573E+01  0.17792967974E+01  0.28800764230E+01  0.62089818548E+01  0.51100000000E-03 0.  1.
        -12    1    4    4    0    0 -0.18581396426E+02  0.10106949629E+02 -0.13380629943E+02  0.25029182600E+02  0.00000000000E+00 0.  1.
</event>
<event>
 8    1  0.2497772E-006  0.9118800E+02  0.7816164E-02  0.1184000E+00
        -11   -1    0    0    0    0  0.00000000000E+00  0.00000000000E+00  0.45593999997E+02  0.45594000000E+02  0.51100000000E-03 0. -1.
         11   -1    0    0    0    0 -0.00000000000E+00 -0.00000000000E+00 -0.45593999997E+02  0.45594000000E+02  0.51100000000E-03 0.  1.
         23    2    1    2    0    0 -0.17763568394E-14  0.88817841970E-15  0.00000000000E+00  0.91188000000E+02  0.91188000000E+02 0.  0.
    9900012    2    3    3    0    0 -0.15751017818E+02 -0.52368235383E+01  0.32867182439E+02  0.54367210159E+02  0.40000287198E+02 0.  0.
        -12    1    3    3    0    0  0.15751017818E+02  0.52368235383E+01 -0.32867182439E+02  0.36820789841E+02  0.00000000000E+00 0.  1.
         11    1    4    4    0    0 -0.24181735813E+02  0.42355151381E+01  0.30167148158E+02  0.38894122483E+02  0.51100000000E-03 0. -1.
        -11    1    4    4    0    0  0.95193404472E+00 -0.70053999039E+01 -0.22211382454E+00  0.70732694739E+01  0.51100000000E-03 0.  1.
         12    1    4    4    0    0  0.74787839506E+01 -0.24669387725E+01  0.29221481047E+01  0.83998182024E+01  0.00000000000E+00 0. -1.
</event>
<event>
 8    1  0.2497772E-006  0.9118800E+02  0.7816164E-02  0.1184000E+00
        -11   -1    0    0    0    0  0.00000000000E+00  0.00000000000E+00  0.45593999997E+02  0.45594000000E+02  0.51100000000E-03 0. -1.
         11   -1    0    0    0    0 -0.00000000000E+00 -0.00000000000E+00 -0.45593999997E+02  0.45594000000E+02  0.51100000000E-03 0.  1.
         23    2    1    2    0    0 -0.88817841970E-15  0.00000000000E+00  0.35527136788E-14  0.91188000000E+02  0.91188000000E+02 0.  0.
    9900012    2    3    3    0    0  0.22844224870E+01  0.30344442413E+02  0.20731043817E+02  0.54367082722E+02  0.39999996682E+02 0.  0.
        -12    1    3    3    0    0 -0.22844224870E+01 -0.30344442413E+02 -0.20731043817E+02  0.36820917278E+02  0.00000000000E+00 0.  1.
         11    1    4    4    0    0 -0.55933843874E+00 -0.25310032618E+01  0.11441439929E+02  0.11731384612E+02  0.51100000000E-03 0. -1.
        -11    1    4    4    0    0  0.11992245906E+02  0.93738327768E+01 -0.13140363826E+01  0.15277741805E+02  0.51100000000E-03 0.  1.
         12    1    4    4    0    0 -0.91484849799E+01  0.23501612898E+02  0.10603640271E+02  0.27357956306E+02  0.00000000000E+00 0. -1.
</event>
<event>
 8    1  0.2497772E-006  0.9118800E+02  0.7816164E-02  0.1184000E+00
        -11   -1    0    0    0    0  0.00000000000E+00  0.00000000000E+00  0.45593999997E+02  0.45594000000E+02  0.51100000000E-03 0. -1.
         11   -1    0    0    0    0 -0.00000000000E+00 -0.00000000000E+00 -0.45593999997E+02  0.45594000000E+02  0.51100000000E-03 0.  1.
         23    2    1    2    0    0 -0.17763568394E-14  0.00000000000E+00  0.35527136788E-14  0.91188000000E+02  0.91188000000E+02 0.  0.
    9900012    2    3    3    0    0 -0.79298655383E+01 -0.30198331682E+02  0.19518185229E+02  0.54367060869E+02  0.39999946864E+02 0.  0.
        -12    1    3    3    0    0  0.79298655383E+01  0.30198331682E+02 -0.19518185229E+02  0.36820939131E+02  0.00000000000E+00 0.  1.
         11    1    4    4    0    0 -0.13354877819E+02 -0.75655655794E+01  0.14203967970E+02  0.20912753297E+02  0.51100000000E-03 0. -1.
        -11    1    4    4    0    0  0.12946531047E+02 -0.21101876722E+02  0.67159700016E+01  0.25651629981E+02  0.51100000000E-03 0.  1.
        -12    1    4    4    0    0 -0.75215187661E+01 -0.15308893804E+01 -0.14017527431E+01  0.78026775915E+01  0.00000000000E+00 0.  1.
</event>
<event>
 8    1  0.2497772E-006  0.9118800E+02  0.7816164E-02  0.1184000E+00
        -11   -1    0    0    0    0  0.00000000000E+00  0.00000000000E+00  0.45593999997E+02  0.45594000000E+02  0.51100000000E-03 0.  1.
         11   -1    0    0    0    0 -0.00000000000E+00 -0.00000000000E+00 -0.45593999997E+02  0.45594000000E+02  0.51100000000E-03 0. -1.
         23    2    1    2    0    0  0.00000000000E+00  0.00000000000E+00  0.17763568394E-14  0.91188000000E+02  0.91188000000E+02 0.  0.
    9900012    2    3    3    0    0 -0.34006407558E+02  0.10380682492E+02  0.95700123939E+01  0.54367089349E+02  0.40000011788E+02 0.  0.
         12    1    3    3    0    0  0.34006407558E+02 -0.10380682492E+02 -0.95700123939E+01  0.36820910651E+02  0.00000000000E+00 0. -1.
         11    1    4    4    0    0 -0.63047934446E+01  0.27869799763E+01 -0.70327168090E+01  0.98476791045E+01  0.51100000000E-03 0. -1.
        -11    1    4    4    0    0 -0.12647745149E+02 -0.11429090757E+02  0.70835521573E+01  0.18459856021E+02  0.51100000000E-03 0.  1.
        -12    1    4    4    0    0 -0.15053868964E+02  0.19022793272E+02  0.95191770456E+01  0.26059554223E+02  0.00000000000E+00 0.  1.
</event>
<event>
 8    1  0.2497772E-006  0.9118800E+02  0.7816164E-02  0.1184000E+00
        -11   -1    0    0    0    0  0.00000000000E+00  0.00000000000E+00  0.45593999997E+02  0.45594000000E+02  0.51100000000E-03 0.  1.
         11   -1    0    0    0    0 -0.00000000000E+00 -0.00000000000E+00 -0.45593999997E+02  0.45594000000E+02  0.51100000000E-03 0. -1.
         23    2    1    2    0    0  0.00000000000E+00  0.00000000000E+00 -0.71054273576E-14  0.91188000000E+02  0.91188000000E+02 0.  0.
    9900012    2    3    3    0    0 -0.20621633188E+02 -0.10090792428E+02 -0.28787253833E+02  0.54367057176E+02  0.39999938444E+02 0.  0.
        -12    1    3    3    0    0  0.20621633188E+02  0.10090792428E+02  0.28787253833E+02  0.36820942824E+02  0.00000000000E+00 0.  1.
         11    1    4    4    0    0  0.50865831963E+01 -0.16122932015E+01  0.64081874602E+01  0.83389258761E+01  0.51100000000E-03 0. -1.
        -11    1    4    4    0    0  0.38199472182E+00 -0.29543968799E+01 -0.31102730672E+01  0.43067597687E+01  0.51100000000E-03 0.  1.
         12    1    4    4    0    0 -0.26090211107E+02 -0.55241023468E+01 -0.32085168226E+02  0.41721371531E+02  0.00000000000E+00 0. -1.
</event>
<event>
 8    1  0.2497772E-006  0.9118800E+02  0.7816164E-02  0.1184000E+00
        -11   -1    0    0    0    0  0.00000000000E+00  0.00000000000E+00  0.45593999997E+02  0.45594000000E+02  0.51100000000E-03 0.  1.
         11   -1    0    0    0    0 -0.00000000000E+00 -0.00000000000E+00 -0.45593999997E+02  0.45594000000E+02  0.51100000000E-03 0. -1.
         23    2    1    2    0    0  0.35527136788E-14  0.71054273576E-14  0.17763568394E-14  0.91188000000E+02  0.91188000000E+02 0.  0.
    9900012    2    3    3    0    0  0.17314440621E+02  0.32234151927E+02  0.41168937201E+01  0.54367092646E+02  0.40000019305E+02 0.  0.
         12    1    3    3    0    0 -0.17314440621E+02 -0.32234151927E+02 -0.41168937201E+01  0.36820907354E+02  0.00000000000E+00 0. -1.
         11    1    4    4    0    0  0.12776520823E+02  0.78076286158E+01  0.71721091384E+01  0.16602340157E+02  0.51100000000E-03 0. -1.
        -11    1    4    4    0    0 -0.27654375202E+01  0.65337117626E+01 -0.13898520518E+02  0.15604675803E+02  0.51100000000E-03 0.  1.
        -12    1    4    4    0    0  0.73033573185E+01  0.17892811548E+02  0.10843305100E+02  0.22160076686E+02  0.00000000000E+00 0.  1.
</event>
<event>
 8    1  0.2497772E-006  0.9118800E+02  0.7816164E-02  0.1184000E+00
        -11   -1    0    0    0    0  0.00000000000E+00  0.00000000000E+00  0.45593999997E+02  0.45594000000E+02  0.51100000000E-03 0. -1.
         11   -1    0    0    0    0 -0.00000000000E+00 -0.00000000000E+00 -0.45593999997E+02  0.45594000000E+02  0.51100000000E-03 0.  1.
         23    2    1    2    0    0  0.35527136788E-14  0.35527136788E-14  0.00000000000E+00  0.91188000000E+02  0.91188000000E+02 0.  0.
    9900012    2    3    3    0    0 -0.23228475543E+02 -0.25774323956E+02 -0.12324837294E+02  0.54367089286E+02  0.40000011646E+02 0.  0.
         12    1    3    3    0    0  0.23228475543E+02  0.25774323956E+02  0.12324837294E+02  0.36820910714E+02  0.00000000000E+00 0. -1.
         11    1    4    4    0    0 -0.16669691622E+01  0.25346611619E+01  0.18566860298E+00  0.30393694222E+01  0.51100000000E-03 0. -1.
        -11    1    4    4    0    0 -0.10634404769E+02 -0.15399534816E+02 -0.24329144786E+02  0.30694356544E+02  0.51100000000E-03 0.  1.
         12    1    4    4    0    0 -0.10927101612E+02 -0.12909450302E+02  0.11818638889E+02  0.20633363320E+02  0.00000000000E+00 0. -1.
</event>
<event>
 8    1  0.2497772E-006  0.9118800E+02  0.7816164E-02  0.1184000E+00
        -11   -1    0    0    0    0  0.00000000000E+00  0.00000000000E+00  0.45593999997E+02  0.45594000000E+02  0.51100000000E-03 0.  1.
         11   -1    0    0    0    0 -0.00000000000E+00 -0.00000000000E+00 -0.45593999997E+02  0.45594000000E+02  0.51100000000E-03 0. -1.
         23    2    1    2    0    0  0.00000000000E+00  0.35527136788E-14  0.35527136788E-14  0.91188000000E+02  0.91188000000E+02 0.  0.
    9900012    2    3    3    0    0 -0.81288922493E+01  0.16734379156E+02  0.31775167870E+02  0.54367087082E+02  0.40000006622E+02 0.  0.
         12    1    3    3    0    0  0.81288922493E+01 -0.16734379156E+02 -0.31775167870E+02  0.36820912918E+02  0.00000000000E+00 0. -1.
         11    1    4    4    0    0 -0.44526831624E+01  0.26217465001E+02  0.27152968092E+02  0.38006124966E+02  0.51100000000E-03 0. -1.
        -11    1    4    4    0    0  0.24431168782E+01  0.50587572610E+00  0.38931136667E+01  0.46239663293E+01  0.51100000000E-03 0.  1.
        -12    1    4    4    0    0 -0.61193259651E+01 -0.99889615716E+01  0.72908611073E+00  0.11736995787E+02  0.00000000000E+00 0.  1.
</event>
<event>
 8    1  0.2497772E-006  0.9118800E+02  0.7816164E-02  0.1184000E+00
        -11   -1    0    0    0    0  0.00000000000E+00  0.00000000000E+00  0.45593999997E+02  0.45594000000E+02  0.51100000000E-03 0. -1.
         11   -1    0    0    0    0 -0.00000000000E+00 -0.00000000000E+00 -0.45593999997E+02  0.45594000000E+02  0.51100000000E-03 0.  1.
         23    2    1    2    0    0  0.00000000000E+00  0.00000000000E+00  0.00000000000E+00  0.91188000000E+02  0.91188000000E+02 0.  0.
    9900012    2    3    3    0    0 -0.31462406481E+02  0.12469355756E+02 -0.14505463251E+02  0.54367132021E+02  0.40000109069E+02 0.  0.
         12    1    3    3    0    0  0.31462406481E+02 -0.12469355756E+02  0.14505463251E+02  0.36820867979E+02  0.00000000000E+00 0. -1.
         11    1    4    4    0    0  0.65006777114E+01 -0.82089114751E+00 -0.39510571630E+01  0.76513741216E+01  0.51100000000E-03 0. -1.
        -11    1    4    4    0    0 -0.31130134086E+02  0.38103145332E+01 -0.60522325398E+00  0.31368296742E+02  0.51100000000E-03 0.  1.
         12    1    4    4    0    0 -0.68329501064E+01  0.94799323707E+01 -0.99491828340E+01  0.15347461157E+02  0.00000000000E+00 0. -1.
</event>
<event>
 8    1  0.2497772E-006  0.9118800E+02  0.7816164E-02  0.1184000E+00
        -11   -1    0    0    0    0  0.00000000000E+00  0.00000000000E+00  0.45593999997E+02  0.45594000000E+02  0.51100000000E-03 0. -1.
         11   -1    0    0    0    0 -0.00000000000E+00 -0.00000000000E+00 -0.45593999997E+02  0.45594000000E+02  0.51100000000E-03 0.  1.
         23    2    1    2    0    0  0.00000000000E+00  0.00000000000E+00 -0.17763568394E-14  0.91188000000E+02  0.91188000000E+02 0.  0.
    9900012    2    3    3    0    0  0.17852836041E+02  0.29266833468E+02 -0.13435364455E+02  0.54367077768E+02  0.39999985388E+02 0.  0.
         12    1    3    3    0    0 -0.17852836041E+02 -0.29266833468E+02  0.13435364455E+02  0.36820922232E+02  0.00000000000E+00 0. -1.
         11    1    4    4    0    0  0.29171026205E+01  0.68278538968E+01 -0.55137698624E+01  0.92482828077E+01  0.51100000000E-03 0.  1.
        -11    1    4    4    0    0  0.70599620888E+01  0.31106246878E+02 -0.19090217516E+01  0.31954436685E+02  0.51100000000E-03 0. -1.
        -12    1    4    4    0    0  0.78757713316E+01 -0.86672673067E+01 -0.60125728407E+01  0.13164358275E+02  0.00000000000E+00 0.  1.
</event>
<event>
 8    1  0.2497772E-006  0.9118800E+02  0.7816164E-02  0.1184000E+00
        -11   -1    0    0    0    0  0.00000000000E+00  0.00000000000E+00  0.45593999997E+02  0.45594000000E+02  0.51100000000E-03 0. -1.
         11   -1    0    0    0    0 -0.00000000000E+00 -0.00000000000E+00 -0.45593999997E+02  0.45594000000E+02  0.51100000000E-03 0.  1.
         23    2    1    2    0    0 -0.35527136788E-14 -0.17763568394E-14  0.00000000000E+00  0.91188000000E+02  0.91188000000E+02 0.  0.
    9900012    2    3    3    0    0 -0.15993255829E+02  0.12597288915E+02  0.30680667022E+02  0.54367092231E+02  0.40000018360E+02 0.  0.
        -12    1    3    3    0    0  0.15993255829E+02 -0.12597288915E+02 -0.30680667022E+02  0.36820907769E+02  0.00000000000E+00 0.  1.
         11    1    4    4    0    0  0.12700519956E+01 -0.26562459355E+01  0.11320424726E+02  0.11697037692E+02  0.51100000000E-03 0. -1.
        -11    1    4    4    0    0 -0.14587514154E+02  0.15624787342E+01  0.23862261424E+02  0.28011505307E+02  0.51100000000E-03 0.  1.
        -12    1    4    4    0    0 -0.26757936697E+01  0.13691056117E+02 -0.45020191289E+01  0.14658549232E+02  0.00000000000E+00 0.  1.
</event>
<event>
 8    1  0.2497772E-006  0.9118800E+02  0.7816164E-02  0.1184000E+00
        -11   -1    0    0    0    0  0.00000000000E+00  0.00000000000E+00  0.45593999997E+02  0.45594000000E+02  0.51100000000E-03 0.  1.
         11   -1    0    0    0    0 -0.00000000000E+00 -0.00000000000E+00 -0.45593999997E+02  0.45594000000E+02  0.51100000000E-03 0. -1.
         23    2    1    2    0    0  0.00000000000E+00  0.00000000000E+00  0.00000000000E+00  0.91188000000E+02  0.91188000000E+02 0.  0.
    9900012    2    3    3    0    0 -0.30605669669E+02 -0.14151124164E+02 -0.14792470486E+02  0.54367102210E+02  0.40000041108E+02 0.  0.
        -12    1    3    3    0    0  0.30605669669E+02  0.14151124164E+02  0.14792470486E+02  0.36820897790E+02  0.00000000000E+00 0.  1.
         11    1    4    4    0    0 -0.31448284058E+02  0.21655737799E+01 -0.14529597281E+02  0.34710135082E+02  0.51100000000E-03 0. -1.
        -11    1    4    4    0    0  0.15885912810E+01  0.11719684708E+01  0.77703452834E+00  0.21215360648E+01  0.51100000000E-03 0.  1.
         12    1    4    4    0    0 -0.74597689220E+00 -0.17488666414E+02 -0.10399077337E+01  0.17535431063E+02  0.00000000000E+00 0. -1.
</event>
<event>
 8    1  0.2497772E-006  0.9118800E+02  0.7816164E-02  0.1184000E+00
        -11   -1    0    0    0    0  0.00000000000E+00  0.00000000000E+00  0.45593999997E+02  0.45594000000E+02  0.51100000000E-03 0.  1.
         11   -1    0    0    0    0 -0.00000000000E+00 -0.00000000000E+00 -0.45593999997E+02  0.45594000000E+02  0.51100000000E-03 0. -1.
         23    2    1    2    0    0 -0.35527136788E-14  0.00000000000E+00 -0.35527136788E-14  0.91188000000E+02  0.91188000000E+02 0.  0.
    9900012    2    3    3    0    0 -0.25061235692E+02 -0.19110006271E+02 -0.19040012291E+02  0.54367082818E+02  0.39999996900E+02 0.  0.
        -12    1    3    3    0    0  0.25061235692E+02  0.19110006271E+02  0.19040012291E+02  0.36820917182E+02  0.00000000000E+00 0.  1.
         11    1    4    4    0    0 -0.18655420545E+02 -0.65388237446E+01  0.59794957987E+00  0.19777221130E+02  0.51100000000E-03 0. -1.
        -11    1    4    4    0    0 -0.23836088569E+01 -0.11234543962E+02  0.27458349986E+01  0.11808309757E+02  0.51100000000E-03 0.  1.
        -12    1    4    4    0    0 -0.40222062901E+01 -0.13366385650E+01 -0.22383796869E+02  0.22781551931E+02  0.00000000000E+00 0.  1.
</event>
<event>
 8    1  0.2497772E-006  0.9118800E+02  0.7816164E-02  0.1184000E+00
        -11   -1    0    0    0    0  0.00000000000E+00  0.00000000000E+00  0.45593999997E+02  0.45594000000E+02  0.51100000000E-03 0.  1.
         11   -1    0    0    0    0 -0.00000000000E+00 -0.00000000000E+00 -0.45593999997E+02  0.45594000000E+02  0.51100000000E-03 0. -1.
         23    2    1    2    0    0  0.00000000000E+00 -0.17763568394E-14 -0.17763568394E-14  0.91188000000E+02  0.91188000000E+02 0.  0.
    9900012    2    3    3    0    0  0.32090320719E+02  0.15599377514E+02  0.90912741052E+01  0.54367074869E+02  0.39999978778E+02 0.  0.
         12    1    3    3    0    0 -0.32090320719E+02 -0.15599377514E+02 -0.90912741052E+01  0.36820925131E+02  0.00000000000E+00 0. -1.
         11    1    4    4    0    0 -0.25932310212E+01 -0.34265453459E+01 -0.46059095295E-02  0.42972178921E+01  0.51100000000E-03 0. -1.
        -11    1    4    4    0    0  0.28180336971E+02  0.51169658937E+01 -0.51783444228E+01  0.29105497470E+02  0.51100000000E-03 0.  1.
         12    1    4    4    0    0  0.65032147692E+01  0.13908956966E+02  0.14274224438E+02  0.20964359507E+02  0.00000000000E+00 0. -1.
</event>
<event>
 8    1  0.2497772E-006  0.9118800E+02  0.7816164E-02  0.1184000E+00
        -11   -1    0    0    0    0  0.00000000000E+00  0.00000000000E+00  0.45593999997E+02  0.45594000000E+02  0.51100000000E-03 0.  1.
         11   -1    0    0    0    0 -0.00000000000E+00 -0.00000000000E+00 -0.45593999997E+02  0.45594000000E+02  0.51100000000E-03 0. -1.
         23    2    1    2    0    0  0.17763568394E-14 -0.88817841970E-15  0.00000000000E+00  0.91188000000E+02  0.91188000000E+02 0.  0.
    9900012    2    3    3    0    0  0.14183128711E+02  0.58806732567E+01  0.33466937081E+02  0.54367091054E+02  0.40000015677E+02 0.  0.
         12    1    3    3    0    0 -0.14183128711E+02 -0.58806732567E+01 -0.33466937081E+02  0.36820908946E+02  0.00000000000E+00 0. -1.
         11    1    4    4    0    0  0.65114370030E+01  0.11266948368E+02  0.11372900370E+02  0.17282528763E+02  0.51100000000E-03 0. -1.
        -11    1    4    4    0    0 -0.21776554904E+01 -0.77832446391E+01  0.25214640769E+02  0.26478277699E+02  0.51100000000E-03 0.  1.
         12    1    4    4    0    0  0.98493471989E+01  0.23969695278E+01 -0.31206040576E+01  0.10606284592E+02  0.00000000000E+00 0. -1.
</event>
<event>
 8    1  0.2497772E-006  0.9118800E+02  0.7816164E-02  0.1184000E+00
        -11   -1    0    0    0    0  0.00000000000E+00  0.00000000000E+00  0.45593999997E+02  0.45594000000E+02  0.51100000000E-03 0.  1.
         11   -1    0    0    0    0 -0.00000000000E+00 -0.00000000000E+00 -0.45593999997E+02  0.45594000000E+02  0.51100000000E-03 0. -1.
         23    2    1    2    0    0  0.00000000000E+00  0.00000000000E+00  0.00000000000E+00  0.91188000000E+02  0.91188000000E+02 0.  0.
    9900012    2    3    3    0    0  0.23530950452E+02  0.24928563769E+02 -0.13440294302E+02  0.54367076170E+02  0.39999981744E+02 0.  0.
        -12    1    3    3    0    0 -0.23530950452E+02 -0.24928563769E+02  0.13440294302E+02  0.36820923830E+02  0.00000000000E+00 0.  1.
         11    1    4    4    0    0  0.18106857360E+02 -0.38817481796E+01 -0.63967375919E+01  0.19591949991E+02  0.51100000000E-03 0. -1.
        -11    1    4    4    0    0 -0.48373356129E+01  0.18832887477E+02 -0.63156456078E+01  0.20444188570E+02  0.51100000000E-03 0.  1.
         12    1    4    4    0    0  0.10261428705E+02  0.99774244716E+01 -0.72791110236E+00  0.14330937608E+02  0.00000000000E+00 0. -1.
</event>
<event>
 8    1  0.2497772E-006  0.9118800E+02  0.7816164E-02  0.1184000E+00
        -11   -1    0    0    0    0  0.00000000000E+00  0.00000000000E+00  0.45593999997E+02  0.45594000000E+02  0.51100000000E-03 0. -1.
         11   -1    0    0    0    0 -0.00000000000E+00 -0.00000000000E+00 -0.45593999997E+02  0.45594000000E+02  0.51100000000E-03 0.  1.
         23    2    1    2    0    0  0.17763568394E-14  0.00000000000E+00  0.00000000000E+00  0.91188000000E+02  0.91188000000E+02 0.  0.
    9900012    2    3    3    0    0 -0.90172585466E+01 -0.30951806780E+02  0.17789155519E+02  0.54367090876E+02  0.40000015270E+02 0.  0.
        -12    1    3    3    0    0  0.90172585466E+01  0.30951806780E+02 -0.17789155519E+02  0.36820909124E+02  0.00000000000E+00 0.  1.
         11    1    4    4    0    0 -0.30326664149E+01 -0.72936422413E+01 -0.91143266984E+01  0.12060896905E+02  0.51100000000E-03 0.  1.
        -11    1    4    4    0    0 -0.72005130760E+01 -0.23557382571E+02  0.30094093592E+02  0.38890257541E+02  0.51100000000E-03 0. -1.
         12    1    4    4    0    0  0.12159209443E+01 -0.10078196741E+00 -0.31906113750E+01  0.34159364300E+01  0.00000000000E+00 0. -1.
</event>
<event>
 8    1  0.2497772E-006  0.9118800E+02  0.7816164E-02  0.1184000E+00
        -11   -1    0    0    0    0  0.00000000000E+00  0.00000000000E+00  0.45593999997E+02  0.45594000000E+02  0.51100000000E-03 0.  1.
         11   -1    0    0    0    0 -0.00000000000E+00 -0.00000000000E+00 -0.45593999997E+02  0.45594000000E+02  0.51100000000E-03 0. -1.
         23    2    1    2    0    0  0.00000000000E+00  0.53290705182E-14 -0.71054273576E-14  0.91188000000E+02  0.91188000000E+02 0.  0.
    9900012    2    3    3    0    0 -0.71085244927E+01  0.12359620263E+02 -0.33948495158E+02  0.54366923739E+02  0.39999634247E+02 0.  0.
        -12    1    3    3    0    0  0.71085244927E+01 -0.12359620263E+02  0.33948495158E+02  0.36821076261E+02  0.00000000000E+00 0.  1.
         11    1    4    4    0    0 -0.17330117875E+01 -0.79358719475E+01 -0.59677242119E+01  0.10079440756E+02  0.51100000000E-03 0. -1.
        -11    1    4    4    0    0 -0.64124757104E-01 -0.66723967791E+01 -0.37997331149E+01  0.76787344509E+01  0.51100000000E-03 0.  1.
        -12    1    4    4    0    0 -0.53113879481E+01  0.26967888990E+02 -0.24181037831E+02  0.36608748532E+02  0.00000000000E+00 0.  1.
</event>
<event>
 8    1  0.2497772E-006  0.9118800E+02  0.7816164E-02  0.1184000E+00
        -11   -1    0    0    0    0  0.00000000000E+00  0.00000000000E+00  0.45593999997E+02  0.45594000000E+02  0.51100000000E-03 0.  1.
         11   -1    0    0    0    0 -0.00000000000E+00 -0.00000000000E+00 -0.45593999997E+02  0.45594000000E+02  0.51100000000E-03 0. -1.
         23    2    1    2    0    0  0.00000000000E+00  0.26645352591E-14  0.17763568394E-14  0.91188000000E+02  0.91188000000E+02 0.  0.
    9900012    2    3    3    0    0 -0.34456195850E+02  0.74693822063E+01  0.10618812745E+02  0.54367078133E+02  0.39999986220E+02 0.  0.
         12    1    3    3    0    0  0.34456195850E+02 -0.74693822063E+01 -0.10618812745E+02  0.36820921867E+02  0.00000000000E+00 0. -1.
         11    1    4    4    0    0 -0.12847619304E+02  0.87170890776E+01 -0.43545817956E+01  0.16124867337E+02  0.51100000000E-03 0. -1.
        -11    1    4    4    0    0 -0.35699775416E+00 -0.10811023454E+02  0.92810652577E+01  0.14252854033E+02  0.51100000000E-03 0.  1.
        -12    1    4    4    0    0 -0.21251578792E+02  0.95633165829E+01  0.56923292832E+01  0.23989356763E+02  0.00000000000E+00 0.  1.
</event>
<event>
 8    1  0.2497772E-006  0.9118800E+02  0.7816164E-02  0.1184000E+00
        -11   -1    0    0    0    0  0.00000000000E+00  0.00000000000E+00  0.45593999997E+02  0.45594000000E+02  0.51100000000E-03 0.  1.
         11   -1    0    0    0    0 -0.00000000000E+00 -0.00000000000E+00 -0.45593999997E+02  0.45594000000E+02  0.51100000000E-03 0. -1.
         23    2    1    2    0    0  0.00000000000E+00  0.35527136788E-14  0.71054273576E-14  0.91188000000E+02  0.91188000000E+02 0.  0.
    9900012    2    3    3    0    0  0.14581278861E+02  0.10827551198E+02 -0.32029990060E+02  0.54367220250E+02  0.40000310202E+02 0.  0.
        -12    1    3    3    0    0 -0.14581278861E+02 -0.10827551198E+02  0.32029990060E+02  0.36820779750E+02  0.00000000000E+00 0.  1.
         11    1    4    4    0    0  0.87076240332E+00 -0.49726339874E+01 -0.32555090344E+02  0.32944183455E+02  0.51100000000E-03 0. -1.
        -11    1    4    4    0    0  0.60585800231E+01  0.10252308513E+02 -0.47932687450E+00  0.11918304252E+02  0.51100000000E-03 0.  1.
         12    1    4    4    0    0  0.76519364348E+01  0.55478766732E+01  0.10044271588E+01  0.95047325423E+01  0.00000000000E+00 0. -1.
</event>
<event>
 8    1  0.2497772E-006  0.9118800E+02  0.7816164E-02  0.1184000E+00
        -11   -1    0    0    0    0  0.00000000000E+00  0.00000000000E+00  0.45593999997E+02  0.45594000000E+02  0.51100000000E-03 0. -1.
         11   -1    0    0    0    0 -0.00000000000E+00 -0.00000000000E+00 -0.45593999997E+02  0.45594000000E+02  0.51100000000E-03 0.  1.
         23    2    1    2    0    0  0.35527136788E-14  0.00000000000E+00  0.00000000000E+00  0.91188000000E+02  0.91188000000E+02 0.  0.
    9900012    2    3    3    0    0 -0.25641530400E+02 -0.10584202008E+02  0.24212910473E+02  0.54367103121E+02  0.40000043185E+02 0.  0.
        -12    1    3    3    0    0  0.25641530400E+02  0.10584202008E+02 -0.24212910473E+02  0.36820896879E+02  0.00000000000E+00 0.  1.
         11    1    4    4    0    0  0.22795198876E+01 -0.11703020538E+02  0.21788097592E+01  0.12120400689E+02  0.51100000000E-03 0.  1.
        -11    1    4    4    0    0 -0.10084377184E+01  0.52710952720E+01 -0.21938433811E+01  0.57977875988E+01  0.51100000000E-03 0. -1.
         12    1    4    4    0    0 -0.26912612569E+02 -0.41522767423E+01  0.24227944095E+02  0.36448914833E+02  0.00000000000E+00 0. -1.
</event>
<event>
 8    1  0.2497772E-006  0.9118800E+02  0.7816164E-02  0.1184000E+00
        -11   -1    0    0    0    0  0.00000000000E+00  0.00000000000E+00  0.45593999997E+02  0.45594000000E+02  0.51100000000E-03 0. -1.
         11   -1    0    0    0    0 -0.00000000000E+00 -0.00000000000E+00 -0.45593999997E+02  0.45594000000E+02  0.51100000000E-03 0.  1.
         23    2    1    2    0    0 -0.53290705182E-14  0.35527136788E-14  0.35527136788E-14  0.91188000000E+02  0.91188000000E+02 0.  0.
    9900012    2    3    3    0    0  0.13898661453E+02 -0.20707760171E+02 -0.27088676844E+02  0.54367074772E+02  0.39999978558E+02 0.  0.
         12    1    3    3    0    0 -0.13898661453E+02  0.20707760171E+02  0.27088676844E+02  0.36820925228E+02  0.00000000000E+00 0. -1.
         11    1    4    4    0    0 -0.74143331382E+01 -0.23174123288E+01 -0.40174480313E+00  0.77784403921E+01  0.51100000000E-03 0. -1.
        -11    1    4    4    0    0  0.67396719441E+01 -0.17519352022E+02 -0.33593408050E+01  0.19069243406E+02  0.51100000000E-03 0.  1.
         12    1    4    4    0    0  0.14573322647E+02 -0.87099582042E+00 -0.23327591236E+02  0.27519390973E+02  0.00000000000E+00 0. -1.
</event>
<event>
 8    1  0.2497772E-006  0.9118800E+02  0.7816164E-02  0.1184000E+00
        -11   -1    0    0    0    0  0.00000000000E+00  0.00000000000E+00  0.45593999997E+02  0.45594000000E+02  0.51100000000E-03 0. -1.
         11   -1    0    0    0    0 -0.00000000000E+00 -0.00000000000E+00 -0.45593999997E+02  0.45594000000E+02  0.51100000000E-03 0.  1.
         23    2    1    2    0    0 -0.88817841970E-15 -0.71054273576E-14  0.00000000000E+00  0.91188000000E+02  0.91188000000E+02 0.  0.
    9900012    2    3    3    0    0  0.60966210997E+01  0.28343836558E+02  0.22698857048E+02  0.54367082427E+02  0.39999996008E+02 0.  0.
        -12    1    3    3    0    0 -0.60966210997E+01 -0.28343836558E+02 -0.22698857048E+02  0.36820917573E+02  0.00000000000E+00 0.  1.
         11    1    4    4    0    0  0.35249519920E+01 -0.64292612406E+01 -0.14814821928E+01  0.74803393235E+01  0.51100000000E-03 0.  1.
        -11    1    4    4    0    0 -0.16874176407E+01  0.15436899501E+01  0.10422665540E+02  0.10670628575E+02  0.51100000000E-03 0. -1.
        -12    1    4    4    0    0  0.42590867484E+01  0.33229407849E+02  0.13757673700E+02  0.36216114529E+02  0.00000000000E+00 0.  1.
</event>
<event>
 8    1  0.2497772E-006  0.9118800E+02  0.7816164E-02  0.1184000E+00
        -11   -1    0    0    0    0  0.00000000000E+00  0.00000000000E+00  0.45593999997E+02  0.45594000000E+02  0.51100000000E-03 0. -1.
         11   -1    0    0    0    0 -0.00000000000E+00 -0.00000000000E+00 -0.45593999997E+02  0.45594000000E+02  0.51100000000E-03 0.  1.
         23    2    1    2    0    0  0.35527136788E-14 -0.17763568394E-14 -0.35527136788E-14  0.91188000000E+02  0.91188000000E+02 0.  0.
    9900012    2    3    3    0    0  0.26918608116E+02 -0.12480937367E+02 -0.21803552594E+02  0.54367079775E+02  0.39999989964E+02 0.  0.
        -12    1    3    3    0    0 -0.26918608116E+02  0.12480937367E+02  0.21803552594E+02  0.36820920225E+02  0.00000000000E+00 0.  1.
         11    1    4    4    0    0  0.21724367032E+02 -0.75442824771E+01 -0.63980281826E+01  0.23870464719E+02  0.51100000000E-03 0. -1.
        -11    1    4    4    0    0 -0.96409581703E+01 -0.55942810183E+01 -0.42736573575E+01  0.11937679926E+02  0.51100000000E-03 0.  1.
        -12    1    4    4    0    0  0.14835199255E+02  0.65762612802E+00 -0.11131867054E+02  0.18558935130E+02  0.00000000000E+00 0.  1.
</event>
<event>
 8    1  0.2497772E-006  0.9118800E+02  0.7816164E-02  0.1184000E+00
        -11   -1    0    0    0    0  0.00000000000E+00  0.00000000000E+00  0.45593999997E+02  0.45594000000E+02  0.51100000000E-03 0.  1.
         11   -1    0    0    0    0 -0.00000000000E+00 -0.00000000000E+00 -0.45593999997E+02  0.45594000000E+02  0.51100000000E-03 0. -1.
         23    2    1    2    0    0  0.00000000000E+00 -0.35527136788E-14  0.00000000000E+00  0.91188000000E+02  0.91188000000E+02 0.  0.
    9900012    2    3    3    0    0 -0.87539182636E+01  0.30878736605E+02  0.18045836757E+02  0.54367086329E+02  0.40000004905E+02 0.  0.
         12    1    3    3    0    0  0.87539182636E+01 -0.30878736605E+02 -0.18045836757E+02  0.36820913671E+02  0.00000000000E+00 0. -1.
         11    1    4    4    0    0 -0.12015365810E+02  0.56207583580E+01  0.12367420151E+02  0.18136014488E+02  0.51100000000E-03 0. -1.
        -11    1    4    4    0    0  0.32494483356E+01  0.29182328567E+02  0.93919845730E+01  0.30828178499E+02  0.51100000000E-03 0.  1.
        -12    1    4    4    0    0  0.11999211233E-01 -0.39243503203E+01 -0.37135679672E+01  0.54028933419E+01  0.00000000000E+00 0.  1.
</event>
<event>
 8    1  0.2497772E-006  0.9118800E+02  0.7816164E-02  0.1184000E+00
        -11   -1    0    0    0    0  0.00000000000E+00  0.00000000000E+00  0.45593999997E+02  0.45594000000E+02  0.51100000000E-03 0.  1.
         11   -1    0    0    0    0 -0.00000000000E+00 -0.00000000000E+00 -0.45593999997E+02  0.45594000000E+02  0.51100000000E-03 0. -1.
         23    2    1    2    0    0 -0.38857805862E-15  0.00000000000E+00  0.00000000000E+00  0.91188000000E+02  0.91188000000E+02 0.  0.
    9900012    2    3    3    0    0 -0.34254753778E+00 -0.59821842566E+01  0.36330099525E+02  0.54367082048E+02  0.39999995145E+02 0.  0.
         12    1    3    3    0    0  0.34254753778E+00  0.59821842566E+01 -0.36330099525E+02  0.36820917952E+02  0.00000000000E+00 0. -1.
         11    1    4    4    0    0  0.34282805311E+01 -0.49293406065E+01 -0.70240223411E+01  0.92405841982E+01  0.51100000000E-03 0. -1.
        -11    1    4    4    0    0  0.38292342909E+00  0.40864783501E+01  0.29419625235E+02  0.29704549902E+02  0.51100000000E-03 0.  1.
        -12    1    4    4    0    0 -0.41537514980E+01 -0.51393220002E+01  0.13934496631E+02  0.15421947948E+02  0.00000000000E+00 0.  1.
</event>
<event>
 8    1  0.2497772E-006  0.9118800E+02  0.7816164E-02  0.1184000E+00
        -11   -1    0    0    0    0  0.00000000000E+00  0.00000000000E+00  0.45593999997E+02  0.45594000000E+02  0.51100000000E-03 0. -1.
         11   -1    0    0    0    0 -0.00000000000E+00 -0.00000000000E+00 -0.45593999997E+02  0.45594000000E+02  0.51100000000E-03 0.  1.
         23    2    1    2    0    0 -0.88817841970E-15 -0.35527136788E-14  0.35527136788E-14  0.91188000000E+02  0.91188000000E+02 0.  0.
    9900012    2    3    3    0    0  0.63650780579E+01  0.31746039162E+02 -0.17534383479E+02  0.54367084407E+02  0.40000000522E+02 0.  0.
         12    1    3    3    0    0 -0.63650780579E+01 -0.31746039162E+02  0.17534383479E+02  0.36820915593E+02  0.00000000000E+00 0. -1.
         11    1    4    4    0    0 -0.42021677907E+01 -0.68490908406E+01 -0.63286579128E+01  0.10228400204E+02  0.51100000000E-03 0. -1.
        -11    1    4    4    0    0  0.10032915559E+01  0.18958128581E+02 -0.11682658136E+02  0.22291292798E+02  0.51100000000E-03 0.  1.
        -12    1    4    4    0    0  0.95639542926E+01  0.19637001421E+02  0.47693256911E+00  0.21847391405E+02  0.00000000000E+00 0.  1.
</event>
<event>
 8    1  0.2497772E-006  0.9118800E+02  0.7816164E-02  0.1184000E+00
        -11   -1    0    0    0    0  0.00000000000E+00  0.00000000000E+00  0.45593999997E+02  0.45594000000E+02  0.51100000000E-03 0.  1.
         11   -1    0    0    0    0 -0.00000000000E+00 -0.00000000000E+00 -0.45593999997E+02  0.45594000000E+02  0.51100000000E-03 0. -1.
         23    2    1    2    0    0  0.00000000000E+00  0.00000000000E+00 -0.26645352591E-14  0.91188000000E+02  0.91188000000E+02 0.  0.
    9900012    2    3    3    0    0  0.35797872054E+02  0.80375824654E+01  0.31128244012E+01  0.54367081336E+02  0.39999993522E+02 0.  0.
        -12    1    3    3    0    0 -0.35797872054E+02 -0.80375824654E+01 -0.31128244012E+01  0.36820918664E+02  0.00000000000E+00 0.  1.
         11    1    4    4    0    0  0.13062293068E+02  0.17199539985E+02 -0.10249593838E+02  0.23906104869E+02  0.51100000000E-03 0. -1.
        -11    1    4    4    0    0  0.22099741051E+02 -0.11445454122E+02  0.11358824922E+02  0.27357263724E+02  0.51100000000E-03 0.  1.
        -12    1    4    4    0    0  0.63583793455E+00  0.22834966021E+01  0.20035933175E+01  0.31037127433E+01  0.00000000000E+00 0.  1.
</event>
<event>
 8    1  0.2497772E-006  0.9118800E+02  0.7816164E-02  0.1184000E+00
        -11   -1    0    0    0    0  0.00000000000E+00  0.00000000000E+00  0.45593999997E+02  0.45594000000E+02  0.51100000000E-03 0. -1.
         11   -1    0    0    0    0 -0.00000000000E+00 -0.00000000000E+00 -0.45593999997E+02  0.45594000000E+02  0.51100000000E-03 0.  1.
         23    2    1    2    0    0  0.00000000000E+00  0.88817841970E-15 -0.71054273576E-14  0.91188000000E+02  0.91188000000E+02 0.  0.
    9900012    2    3    3    0    0 -0.18644997615E+01  0.15730593117E+01  0.36740029432E+02  0.54367073374E+02  0.39999975370E+02 0.  0.
        -12    1    3    3    0    0  0.18644997615E+01 -0.15730593117E+01 -0.36740029432E+02  0.36820926626E+02  0.00000000000E+00 0.  1.
         11    1    4    4    0    0 -0.10818413539E+02 -0.54827584410E+01  0.20223693845E+02  0.23581698510E+02  0.51100000000E-03 0. -1.
        -11    1    4    4    0    0  0.72795155418E+01 -0.64334358196E+00 -0.43337092147E+01  0.84962505440E+01  0.51100000000E-03 0.  1.
        -12    1    4    4    0    0  0.16743982357E+01  0.76991613347E+01  0.20850044801E+02  0.22289124319E+02  0.00000000000E+00 0.  1.
</event>
<event>
 8    1  0.2497772E-006  0.9118800E+02  0.7816164E-02  0.1184000E+00
        -11   -1    0    0    0    0  0.00000000000E+00  0.00000000000E+00  0.45593999997E+02  0.45594000000E+02  0.51100000000E-03 0.  1.
         11   -1    0    0    0    0 -0.00000000000E+00 -0.00000000000E+00 -0.45593999997E+02  0.45594000000E+02  0.51100000000E-03 0. -1.
         23    2    1    2    0    0  0.00000000000E+00  0.00000000000E+00 -0.17763568394E-14  0.91188000000E+02  0.91188000000E+02 0.  0.
    9900012    2    3    3    0    0 -0.26875262243E+02  0.20629890438E+02 -0.14419015248E+02  0.54367080663E+02  0.39999991987E+02 0.  0.
        -12    1    3    3    0    0  0.26875262243E+02 -0.20629890438E+02  0.14419015248E+02  0.36820919337E+02  0.00000000000E+00 0.  1.
         11    1    4    4    0    0 -0.12342362649E+02  0.33700366528E+01 -0.16999855842E+02  0.21276422672E+02  0.51100000000E-03 0. -1.
        -11    1    4    4    0    0 -0.33575434234E+01 -0.11137195229E+01 -0.82759533834E+01  0.90002707560E+01  0.51100000000E-03 0.  1.
        -12    1    4    4    0    0 -0.11175356171E+02  0.18373573308E+02  0.10856793977E+02  0.24090387235E+02  0.00000000000E+00 0.  1.
</event>
<event>
 8    1  0.2497772E-006  0.9118800E+02  0.7816164E-02  0.1184000E+00
        -11   -1    0    0    0    0  0.00000000000E+00  0.00000000000E+00  0.45593999997E+02  0.45594000000E+02  0.51100000000E-03 0.  1.
         11   -1    0    0    0    0 -0.00000000000E+00 -0.00000000000E+00 -0.45593999997E+02  0.45594000000E+02  0.51100000000E-03 0. -1.
         23    2    1    2    0    0  0.35527136788E-14  0.44408920985E-15  0.00000000000E+00  0.91188000000E+02  0.91188000000E+02 0.  0.
    9900012    2    3    3    0    0  0.24953079759E+02 -0.28122561875E+01 -0.26929797269E+02  0.54367096219E+02  0.40000027450E+02 0.  0.
         12    1    3    3    0    0 -0.24953079759E+02  0.28122561875E+01  0.26929797269E+02  0.36820903781E+02  0.00000000000E+00 0. -1.
         11    1    4    4    0    0  0.24715197378E+00  0.34327323214E+01 -0.23243616237E+02  0.23497030266E+02  0.51100000000E-03 0. -1.
        -11    1    4    4    0    0  0.13901333392E+02 -0.67228952783E+01 -0.99521240000E+01  0.18370878132E+02  0.51100000000E-03 0.  1.
         12    1    4    4    0    0  0.10804594393E+02  0.47790676942E+00  0.62659429680E+01  0.12499187820E+02  0.00000000000E+00 0. -1.
</event>
<event>
 8    1  0.2497772E-006  0.9118800E+02  0.7816164E-02  0.1184000E+00
        -11   -1    0    0    0    0  0.00000000000E+00  0.00000000000E+00  0.45593999997E+02  0.45594000000E+02  0.51100000000E-03 0. -1.
         11   -1    0    0    0    0 -0.00000000000E+00 -0.00000000000E+00 -0.45593999997E+02  0.45594000000E+02  0.51100000000E-03 0.  1.
         23    2    1    2    0    0  0.00000000000E+00  0.35527136788E-14  0.35527136788E-14  0.91188000000E+02  0.91188000000E+02 0.  0.
    9900012    2    3    3    0    0 -0.60851742374E+01  0.20486464815E+02 -0.29984226229E+02  0.54367103641E+02  0.40000044370E+02 0.  0.
         12    1    3    3    0    0  0.60851742374E+01 -0.20486464815E+02  0.29984226229E+02  0.36820896359E+02  0.00000000000E+00 0. -1.
         11    1    4    4    0    0  0.13284981906E+01  0.20460599800E+00  0.80209008256E+01  0.81327499268E+01  0.51100000000E-03 0. -1.
        -11    1    4    4    0    0  0.42228099233E+01  0.62506328143E+01 -0.15777406244E+02  0.17487969645E+02  0.51100000000E-03 0.  1.
         12    1    4    4    0    0 -0.11636482351E+02  0.14031226002E+02 -0.22227720810E+02  0.28746384070E+02  0.00000000000E+00 0. -1.
</event>
<event>
 8    1  0.2497772E-006  0.9118800E+02  0.7816164E-02  0.1184000E+00
        -11   -1    0    0    0    0  0.00000000000E+00  0.00000000000E+00  0.45593999997E+02  0.45594000000E+02  0.51100000000E-03 0.  1.
         11   -1    0    0    0    0 -0.00000000000E+00 -0.00000000000E+00 -0.45593999997E+02  0.45594000000E+02  0.51100000000E-03 0. -1.
         23    2    1    2    0    0  0.00000000000E+00 -0.35527136788E-14 -0.35527136788E-14  0.91188000000E+02  0.91188000000E+02 0.  0.
    9900012    2    3    3    0    0 -0.17893483336E+02  0.19350209183E+02 -0.25713274386E+02  0.54367084463E+02  0.40000000651E+02 0.  0.
        -12    1    3    3    0    0  0.17893483336E+02 -0.19350209183E+02  0.25713274386E+02  0.36820915537E+02  0.00000000000E+00 0.  1.
         11    1    4    4    0    0 -0.10264970274E+02 -0.56867002659E+01 -0.92252024583E+01  0.14926906421E+02  0.51100000000E-03 0. -1.
        -11    1    4    4    0    0  0.51660751408E+01  0.11464423367E+01 -0.10392623626E+02  0.11662302024E+02  0.51100000000E-03 0.  1.
         12    1    4    4    0    0 -0.12794588203E+02  0.23890467112E+02 -0.60954483015E+01  0.27777876019E+02  0.00000000000E+00 0. -1.
</event>
<event>
 8    1  0.2497772E-006  0.9118800E+02  0.7816164E-02  0.1184000E+00
        -11   -1    0    0    0    0  0.00000000000E+00  0.00000000000E+00  0.45593999997E+02  0.45594000000E+02  0.51100000000E-03 0.  1.
         11   -1    0    0    0    0 -0.00000000000E+00 -0.00000000000E+00 -0.45593999997E+02  0.45594000000E+02  0.51100000000E-03 0. -1.
         23    2    1    2    0    0  0.00000000000E+00  0.17763568394E-14  0.00000000000E+00  0.91188000000E+02  0.91188000000E+02 0.  0.
    9900012    2    3    3    0    0  0.98054585178E+01 -0.90530117259E+01  0.34317282200E+02  0.54367083449E+02  0.39999998339E+02 0.  0.
         12    1    3    3    0    0 -0.98054585178E+01  0.90530117259E+01 -0.34317282200E+02  0.36820916551E+02  0.00000000000E+00 0. -1.
         11    1    4    4    0    0  0.12328938529E+02  0.88393883037E+01  0.70601042572E+01  0.16732680096E+02  0.51100000000E-03 0. -1.
        -11    1    4    4    0    0  0.50527895633E+01 -0.73126918780E+01  0.18358535226E+01  0.90761502462E+01  0.51100000000E-03 0.  1.
        -12    1    4    4    0    0 -0.75762695742E+01 -0.10579708151E+02  0.25421324420E+02  0.28558253107E+02  0.00000000000E+00 0.  1.
</event>
<event>
 8    1  0.2497772E-006  0.9118800E+02  0.7816164E-02  0.1184000E+00
        -11   -1    0    0    0    0  0.00000000000E+00  0.00000000000E+00  0.45593999997E+02  0.45594000000E+02  0.51100000000E-03 0. -1.
         11   -1    0    0    0    0 -0.00000000000E+00 -0.00000000000E+00 -0.45593999997E+02  0.45594000000E+02  0.51100000000E-03 0.  1.
         23    2    1    2    0    0 -0.88817841970E-15  0.00000000000E+00  0.00000000000E+00  0.91188000000E+02  0.91188000000E+02 0.  0.
    9900012    2    3    3    0    0 -0.40001517996E+01 -0.10413098679E+02  0.35090532579E+02  0.54367091331E+02  0.40000016308E+02 0.  0.
        -12    1    3    3    0    0  0.40001517996E+01  0.10413098679E+02 -0.35090532579E+02  0.36820908669E+02  0.00000000000E+00 0.  1.
         11    1    4    4    0    0  0.12367964468E+01  0.51273251460E+01  0.16448175174E+02  0.17273146657E+02  0.51100000000E-03 0. -1.
        -11    1    4    4    0    0 -0.78563870184E+01  0.43598870650E+01 -0.96222263687E+00  0.90364431535E+01  0.51100000000E-03 0.  1.
        -12    1    4    4    0    0  0.26194387720E+01 -0.19900310890E+02  0.19604580041E+02  0.28057501521E+02  0.00000000000E+00 0.  1.
</event>
<event>
 8    1  0.2497772E-006  0.9118800E+02  0.7816164E-02  0.1184000E+00
        -11   -1    0    0    0    0  0.00000000000E+00  0.00000000000E+00  0.45593999997E+02  0.45594000000E+02  0.51100000000E-03 0. -1.
         11   -1    0    0    0    0 -0.00000000000E+00 -0.00000000000E+00 -0.45593999997E+02  0.45594000000E+02  0.51100000000E-03 0.  1.
         23    2    1    2    0    0  0.88817841970E-15  0.00000000000E+00  0.00000000000E+00  0.91188000000E+02  0.91188000000E+02 0.  0.
    9900012    2    3    3    0    0 -0.62959065797E+01 -0.21318131670E+02 -0.29354355001E+02  0.54367091061E+02  0.40000015692E+02 0.  0.
         12    1    3    3    0    0  0.62959065797E+01  0.21318131670E+02  0.29354355001E+02  0.36820908939E+02  0.00000000000E+00 0. -1.
         11    1    4    4    0    0  0.94410165605E+01 -0.51423251068E+01 -0.12086062330E+02  0.16175574305E+02  0.51100000000E-03 0. -1.
        -11    1    4    4    0    0 -0.45078106590E+01 -0.38180640584E+01 -0.20369174710E+02  0.21208518306E+02  0.51100000000E-03 0.  1.
         12    1    4    4    0    0 -0.11229112481E+02 -0.12357742505E+02  0.31008820396E+01  0.16982998450E+02  0.00000000000E+00 0. -1.
</event>
<event>
 8    1  0.2497772E-006  0.9118800E+02  0.7816164E-02  0.1184000E+00
        -11   -1    0    0    0    0  0.00000000000E+00  0.00000000000E+00  0.45593999997E+02  0.45594000000E+02  0.51100000000E-03 0.  1.
         11   -1    0    0    0    0 -0.00000000000E+00 -0.00000000000E+00 -0.45593999997E+02  0.45594000000E+02  0.51100000000E-03 0. -1.
         23    2    1    2    0    0  0.00000000000E+00  0.71054273576E-14 -0.17763568394E-14  0.91188000000E+02  0.91188000000E+02 0.  0.
    9900012    2    3    3    0    0  0.55708970001E+01 -0.32937515295E+02  0.15487561996E+02  0.54367090400E+02  0.40000014185E+02 0.  0.
         12    1    3    3    0    0 -0.55708970001E+01  0.32937515295E+02 -0.15487561996E+02  0.36820909600E+02  0.00000000000E+00 0. -1.
         11    1    4    4    0    0  0.41396502099E+01  0.19271855383E+01  0.74867437620E+00  0.46272304397E+01  0.51100000000E-03 0. -1.
        -11    1    4    4    0    0 -0.12460280302E+02 -0.26714717401E+02  0.26396056789E+01  0.29595645447E+02  0.51100000000E-03 0.  1.
         12    1    4    4    0    0  0.13891527092E+02 -0.81499834317E+01  0.12099281941E+02  0.20144214513E+02  0.00000000000E+00 0. -1.
</event>
<event>
 8    1  0.2497772E-006  0.9118800E+02  0.7816164E-02  0.1184000E+00
        -11   -1    0    0    0    0  0.00000000000E+00  0.00000000000E+00  0.45593999997E+02  0.45594000000E+02  0.51100000000E-03 0. -1.
         11   -1    0    0    0    0 -0.00000000000E+00 -0.00000000000E+00 -0.45593999997E+02  0.45594000000E+02  0.51100000000E-03 0.  1.
         23    2    1    2    0    0  0.00000000000E+00  0.35527136788E-14  0.00000000000E+00  0.91188000000E+02  0.91188000000E+02 0.  0.
    9900012    2    3    3    0    0 -0.15565818431E+01 -0.18006391423E+02 -0.32079982015E+02  0.54367104774E+02  0.40000046954E+02 0.  0.
         12    1    3    3    0    0  0.15565818431E+01  0.18006391423E+02  0.32079982015E+02  0.36820895226E+02  0.00000000000E+00 0. -1.
         11    1    4    4    0    0  0.44294184868E+01 -0.19143412198E+02 -0.26733131619E+01  0.19830193701E+02  0.51100000000E-03 0. -1.
        -11    1    4    4    0    0 -0.77474087371E+01 -0.64622844196E+01 -0.13861143057E+02  0.17143942054E+02  0.51100000000E-03 0.  1.
        -12    1    4    4    0    0  0.17614084072E+01  0.75993051936E+01 -0.15545525797E+02  0.17392969019E+02  0.00000000000E+00 0.  1.
</event>
<event>
 8    1  0.2497772E-006  0.9118800E+02  0.7816164E-02  0.1184000E+00
        -11   -1    0    0    0    0  0.00000000000E+00  0.00000000000E+00  0.45593999997E+02  0.45594000000E+02  0.51100000000E-03 0. -1.
         11   -1    0    0    0    0 -0.00000000000E+00 -0.00000000000E+00 -0.45593999997E+02  0.45594000000E+02  0.51100000000E-03 0.  1.
         23    2    1    2    0    0  0.00000000000E+00 -0.35527136788E-14 -0.17763568394E-14  0.91188000000E+02  0.91188000000E+02 0.  0.
    9900012    2    3    3    0    0 -0.23506664473E+02  0.25962204656E+02  0.11365833418E+02  0.54367061466E+02  0.39999948225E+02 0.  0.
        -12    1    3    3    0    0  0.23506664473E+02 -0.25962204656E+02 -0.11365833418E+02  0.36820938534E+02  0.00000000000E+00 0.  1.
         11    1    4    4    0    0 -0.91793689687E+01  0.82405279054E+01 -0.26194243138E+01  0.12610650214E+02  0.51100000000E-03 0. -1.
        -11    1    4    4    0    0 -0.88545711731E+01 -0.86319141903E+01  0.55090941369E+01  0.13537484690E+02  0.51100000000E-03 0.  1.
         12    1    4    4    0    0 -0.54727243307E+01  0.26353590941E+02  0.84761635946E+01  0.28218926563E+02  0.00000000000E+00 0. -1.
</event>
<event>
 8    1  0.2497772E-006  0.9118800E+02  0.7816164E-02  0.1184000E+00
        -11   -1    0    0    0    0  0.00000000000E+00  0.00000000000E+00  0.45593999997E+02  0.45594000000E+02  0.51100000000E-03 0. -1.
         11   -1    0    0    0    0 -0.00000000000E+00 -0.00000000000E+00 -0.45593999997E+02  0.45594000000E+02  0.51100000000E-03 0.  1.
         23    2    1    2    0    0  0.13322676296E-14  0.00000000000E+00 -0.71054273576E-14  0.91188000000E+02  0.91188000000E+02 0.  0.
    9900012    2    3    3    0    0 -0.23368411015E+01 -0.12161802671E+02 -0.34675787381E+02  0.54367075228E+02  0.39999979598E+02 0.  0.
         12    1    3    3    0    0  0.23368411015E+01  0.12161802671E+02  0.34675787381E+02  0.36820924772E+02  0.00000000000E+00 0. -1.
         11    1    4    4    0    0  0.37206258622E+01  0.48457922023E+01 -0.61870492415E+01  0.86950754713E+01  0.51100000000E-03 0. -1.
        -11    1    4    4    0    0  0.48362569646E+01  0.39312225841E+01 -0.19404908068E+02  0.20381225425E+02  0.51100000000E-03 0.  1.
         12    1    4    4    0    0 -0.10893723928E+02 -0.20938817457E+02 -0.90838300716E+01  0.25290774332E+02  0.00000000000E+00 0. -1.
</event>
<event>
 8    1  0.2497772E-006  0.9118800E+02  0.7816164E-02  0.1184000E+00
        -11   -1    0    0    0    0  0.00000000000E+00  0.00000000000E+00  0.45593999997E+02  0.45594000000E+02  0.51100000000E-03 0. -1.
         11   -1    0    0    0    0 -0.00000000000E+00 -0.00000000000E+00 -0.45593999997E+02  0.45594000000E+02  0.51100000000E-03 0.  1.
         23    2    1    2    0    0 -0.17763568394E-14  0.00000000000E+00  0.00000000000E+00  0.91188000000E+02  0.91188000000E+02 0.  0.
    9900012    2    3    3    0    0  0.15465552957E+02 -0.18528486082E+02 -0.27808168927E+02  0.54367049661E+02  0.39999921313E+02 0.  0.
         12    1    3    3    0    0 -0.15465552957E+02  0.18528486082E+02  0.27808168927E+02  0.36820950339E+02  0.00000000000E+00 0. -1.
         11    1    4    4    0    0 -0.49469837385E+01 -0.93015771364E+00  0.30129773944E+01  0.58665044551E+01  0.51100000000E-03 0. -1.
        -11    1    4    4    0    0  0.16271500793E+01 -0.18177966654E+02 -0.11640973091E+02  0.21647132462E+02  0.51100000000E-03 0.  1.
         12    1    4    4    0    0  0.18785386616E+02  0.57963828561E+00 -0.19180173231E+02  0.26853412745E+02  0.00000000000E+00 0. -1.
</event>
<event>
 8    1  0.2497772E-006  0.9118800E+02  0.7816164E-02  0.1184000E+00
        -11   -1    0    0    0    0  0.00000000000E+00  0.00000000000E+00  0.45593999997E+02  0.45594000000E+02  0.51100000000E-03 0. -1.
         11   -1    0    0    0    0 -0.00000000000E+00 -0.00000000000E+00 -0.45593999997E+02  0.45594000000E+02  0.51100000000E-03 0.  1.
         23    2    1    2    0    0 -0.17763568394E-14  0.35527136788E-14  0.00000000000E+00  0.91188000000E+02  0.91188000000E+02 0.  0.
    9900012    2    3    3    0    0 -0.15943437780E+02 -0.29217832043E+02 -0.15744992448E+02  0.54367086042E+02  0.40000004250E+02 0.  0.
         12    1    3    3    0    0  0.15943437780E+02  0.29217832043E+02  0.15744992448E+02  0.36820913958E+02  0.00000000000E+00 0. -1.
         11    1    4    4    0    0 -0.12376414041E+02  0.29660191022E+01 -0.98992438680E+00  0.12765298445E+02  0.51100000000E-03 0. -1.
        -11    1    4    4    0    0  0.67948436686E+01 -0.24629791830E+02 -0.65425405455E+01  0.26374256067E+02  0.51100000000E-03 0.  1.
        -12    1    4    4    0    0 -0.10361867407E+02 -0.75540593154E+01 -0.82125275152E+01  0.15227531530E+02  0.00000000000E+00 0.  1.
</event>
<event>
 8    1  0.2497772E-006  0.9118800E+02  0.7816164E-02  0.1184000E+00
        -11   -1    0    0    0    0  0.00000000000E+00  0.00000000000E+00  0.45593999997E+02  0.45594000000E+02  0.51100000000E-03 0.  1.
         11   -1    0    0    0    0 -0.00000000000E+00 -0.00000000000E+00 -0.45593999997E+02  0.45594000000E+02  0.51100000000E-03 0. -1.
         23    2    1    2    0    0 -0.17763568394E-14 -0.35527136788E-14  0.00000000000E+00  0.91188000000E+02  0.91188000000E+02 0.  0.
    9900012    2    3    3    0    0 -0.14891264767E+02 -0.27817250026E+02  0.18979750853E+02  0.54367080568E+02  0.39999991771E+02 0.  0.
         12    1    3    3    0    0  0.14891264767E+02  0.27817250026E+02 -0.18979750853E+02  0.36820919432E+02  0.00000000000E+00 0. -1.
         11    1    4    4    0    0 -0.84270497321E+01 -0.14726793903E+02 -0.57815027132E+01  0.17925384228E+02  0.51100000000E-03 0. -1.
        -11    1    4    4    0    0 -0.33496218649E+01 -0.19256215139E+02  0.15835965140E+02  0.25155507952E+02  0.51100000000E-03 0.  1.
         12    1    4    4    0    0 -0.31145931700E+01  0.61657590157E+01  0.89252884260E+01  0.11286188389E+02  0.00000000000E+00 0. -1.
</event>
<event>
 8    1  0.2497772E-006  0.9118800E+02  0.7816164E-02  0.1184000E+00
        -11   -1    0    0    0    0  0.00000000000E+00  0.00000000000E+00  0.45593999997E+02  0.45594000000E+02  0.51100000000E-03 0. -1.
         11   -1    0    0    0    0 -0.00000000000E+00 -0.00000000000E+00 -0.45593999997E+02  0.45594000000E+02  0.51100000000E-03 0.  1.
         23    2    1    2    0    0  0.00000000000E+00  0.35527136788E-14  0.00000000000E+00  0.91188000000E+02  0.91188000000E+02 0.  0.
    9900012    2    3    3    0    0  0.63214398494E+01 -0.24310938419E+02 -0.26922050327E+02  0.54367093949E+02  0.40000022276E+02 0.  0.
         12    1    3    3    0    0 -0.63214398494E+01  0.24310938419E+02  0.26922050327E+02  0.36820906051E+02  0.00000000000E+00 0. -1.
         11    1    4    4    0    0  0.11442598102E+01 -0.32119424210E+01 -0.19064368828E+02  0.19366880587E+02  0.51100000000E-03 0. -1.
        -11    1    4    4    0    0  0.17423065895E+01 -0.22963558679E+02 -0.14556727777E+02  0.27244430317E+02  0.51100000000E-03 0.  1.
         12    1    4    4    0    0  0.34348734497E+01  0.18645626806E+01  0.66990462780E+01  0.77557830450E+01  0.00000000000E+00 0. -1.
</event>
<event>
 8    1  0.2497772E-006  0.9118800E+02  0.7816164E-02  0.1184000E+00
        -11   -1    0    0    0    0  0.00000000000E+00  0.00000000000E+00  0.45593999997E+02  0.45594000000E+02  0.51100000000E-03 0.  1.
         11   -1    0    0    0    0 -0.00000000000E+00 -0.00000000000E+00 -0.45593999997E+02  0.45594000000E+02  0.51100000000E-03 0. -1.
         23    2    1    2    0    0  0.00000000000E+00  0.00000000000E+00  0.00000000000E+00  0.91188000000E+02  0.91188000000E+02 0.  0.
    9900012    2    3    3    0    0  0.34886034440E+02  0.36067080636E+01  0.11213151279E+02  0.54367102351E+02  0.40000041430E+02 0.  0.
         12    1    3    3    0    0 -0.34886034440E+02 -0.36067080636E+01 -0.11213151279E+02  0.36820897649E+02  0.00000000000E+00 0. -1.
         11    1    4    4    0    0  0.13449869753E+02 -0.97394532384E+01  0.82559194744E+01  0.18544976473E+02  0.51100000000E-03 0.  1.
        -11    1    4    4    0    0  0.97046220170E+01 -0.47796436104E+01 -0.60876593020E+01  0.12413068822E+02  0.51100000000E-03 0. -1.
         12    1    4    4    0    0  0.11731542671E+02  0.18125804912E+02  0.90448911068E+01  0.23409057057E+02  0.00000000000E+00 0. -1.
</event>
<event>
 8    1  0.2497772E-006  0.9118800E+02  0.7816164E-02  0.1184000E+00
        -11   -1    0    0    0    0  0.00000000000E+00  0.00000000000E+00  0.45593999997E+02  0.45594000000E+02  0.51100000000E-03 0.  1.
         11   -1    0    0    0    0 -0.00000000000E+00 -0.00000000000E+00 -0.45593999997E+02  0.45594000000E+02  0.51100000000E-03 0. -1.
         23    2    1    2    0    0  0.00000000000E+00  0.00000000000E+00  0.44408920985E-15  0.91188000000E+02  0.91188000000E+02 0.  0.
    9900012    2    3    3    0    0  0.81809356286E+01 -0.35698404039E+02 -0.38046741734E+01  0.54367091480E+02  0.40000016647E+02 0.  0.
        -12    1    3    3    0    0 -0.81809356286E+01  0.35698404039E+02  0.38046741734E+01  0.36820908520E+02  0.00000000000E+00 0.  1.
         11    1    4    4    0    0  0.19009970875E+02 -0.31618959983E+02 -0.27450612663E+01  0.36995580610E+02  0.51100000000E-03 0. -1.
        -11    1    4    4    0    0 -0.46987839728E+01 -0.19432147828E+01  0.59438785384E+01  0.78220423711E+01  0.51100000000E-03 0.  1.
         12    1    4    4    0    0 -0.61302512734E+01 -0.21362292724E+01 -0.70034914454E+01  0.95494684986E+01  0.00000000000E+00 0. -1.
</event>
<event>
 8    1  0.2497772E-006  0.9118800E+02  0.7816164E-02  0.1184000E+00
        -11   -1    0    0    0    0  0.00000000000E+00  0.00000000000E+00  0.45593999997E+02  0.45594000000E+02  0.51100000000E-03 0.  1.
         11   -1    0    0    0    0 -0.00000000000E+00 -0.00000000000E+00 -0.45593999997E+02  0.45594000000E+02  0.51100000000E-03 0. -1.
         23    2    1    2    0    0  0.17763568394E-14 -0.35527136788E-14  0.00000000000E+00  0.91188000000E+02  0.91188000000E+02 0.  0.
    9900012    2    3    3    0    0 -0.12433141009E+02  0.23109798888E+02 -0.25828951086E+02  0.54367075050E+02  0.39999979191E+02 0.  0.
        -12    1    3    3    0    0  0.12433141009E+02 -0.23109798888E+02  0.25828951086E+02  0.36820924950E+02  0.00000000000E+00 0.  1.
         11    1    4    4    0    0 -0.45690501708E+01 -0.32126234556E+01 -0.22533706130E+02  0.23215621489E+02  0.51100000000E-03 0. -1.
        -11    1    4    4    0    0 -0.25777454767E+01 -0.67199512429E-01  0.25320435784E+01  0.36139358684E+01  0.51100000000E-03 0.  1.
         12    1    4    4    0    0 -0.52863453616E+01  0.26389621856E+02 -0.58272885347E+01  0.27537517692E+02  0.00000000000E+00 0. -1.
</event>
<event>
 8    1  0.2497772E-006  0.9118800E+02  0.7816164E-02  0.1184000E+00
        -11   -1    0    0    0    0  0.00000000000E+00  0.00000000000E+00  0.45593999997E+02  0.45594000000E+02  0.51100000000E-03 0.  1.
         11   -1    0    0    0    0 -0.00000000000E+00 -0.00000000000E+00 -0.45593999997E+02  0.45594000000E+02  0.51100000000E-03 0. -1.
         23    2    1    2    0    0  0.00000000000E+00  0.00000000000E+00  0.88817841970E-15  0.91188000000E+02  0.91188000000E+02 0.  0.
    9900012    2    3    3    0    0 -0.54042971508E+01  0.36407507269E+02  0.10328898967E+01  0.54367083733E+02  0.39999998986E+02 0.  0.
         12    1    3    3    0    0  0.54042971508E+01 -0.36407507269E+02 -0.10328898967E+01  0.36820916267E+02  0.00000000000E+00 0. -1.
         11    1    4    4    0    0 -0.11628600812E+02  0.13628596926E+02 -0.54777161160E+01  0.18734150238E+02  0.51100000000E-03 0. -1.
        -11    1    4    4    0    0  0.54511101470E+01  0.25451314494E+02  0.12615050780E+02  0.28924444986E+02  0.51100000000E-03 0.  1.
         12    1    4    4    0    0  0.77319351406E+00 -0.26724041514E+01 -0.61044447675E+01  0.67084885092E+01  0.00000000000E+00 0. -1.
</event>
<event>
 8    1  0.2497772E-006  0.9118800E+02  0.7816164E-02  0.1184000E+00
        -11   -1    0    0    0    0  0.00000000000E+00  0.00000000000E+00  0.45593999997E+02  0.45594000000E+02  0.51100000000E-03 0. -1.
         11   -1    0    0    0    0 -0.00000000000E+00 -0.00000000000E+00 -0.45593999997E+02  0.45594000000E+02  0.51100000000E-03 0.  1.
         23    2    1    2    0    0 -0.17763568394E-14 -0.35527136788E-14  0.00000000000E+00  0.91188000000E+02  0.91188000000E+02 0.  0.
    9900012    2    3    3    0    0  0.12962681214E+02  0.31645794679E+02 -0.13648941661E+02  0.54367067997E+02  0.39999963112E+02 0.  0.
        -12    1    3    3    0    0 -0.12962681214E+02 -0.31645794679E+02  0.13648941661E+02  0.36820932003E+02  0.00000000000E+00 0.  1.
         11    1    4    4    0    0 -0.83657798422E+00  0.14543606380E+02 -0.22847059373E+02  0.27096207697E+02  0.51100000000E-03 0.  1.
        -11    1    4    4    0    0  0.11219488018E+02  0.45061965969E+01  0.12499260387E+01  0.12155041527E+02  0.51100000000E-03 0. -1.
        -12    1    4    4    0    0  0.25797711810E+01  0.12595991702E+02  0.79481916741E+01  0.15115818773E+02  0.00000000000E+00 0.  1.
</event>
<event>
 8    1  0.2497772E-006  0.9118800E+02  0.7816164E-02  0.1184000E+00
        -11   -1    0    0    0    0  0.00000000000E+00  0.00000000000E+00  0.45593999997E+02  0.45594000000E+02  0.51100000000E-03 0.  1.
         11   -1    0    0    0    0 -0.00000000000E+00 -0.00000000000E+00 -0.45593999997E+02  0.45594000000E+02  0.51100000000E-03 0. -1.
         23    2    1    2    0    0  0.17763568394E-14  0.17763568394E-14  0.35527136788E-14  0.91188000000E+02  0.91188000000E+02 0.  0.
    9900012    2    3    3    0    0  0.14057490919E+02  0.15828950548E+02 -0.30126580404E+02  0.54367087827E+02  0.40000008319E+02 0.  0.
        -12    1    3    3    0    0 -0.14057490919E+02 -0.15828950548E+02  0.30126580404E+02  0.36820912173E+02  0.00000000000E+00 0.  1.
         11    1    4    4    0    0 -0.28136792054E+01 -0.22078816649E+01 -0.13568114929E+01  0.38252411435E+01  0.51100000000E-03 0. -1.
        -11    1    4    4    0    0 -0.26266423918E+01  0.21321852340E+02 -0.17995660574E+02  0.28024354359E+02  0.51100000000E-03 0.  1.
         12    1    4    4    0    0  0.19497812516E+02 -0.32850201269E+01 -0.10774108337E+02  0.22517492325E+02  0.00000000000E+00 0. -1.
</event>
<event>
 8    1  0.2497772E-006  0.9118800E+02  0.7816164E-02  0.1184000E+00
        -11   -1    0    0    0    0  0.00000000000E+00  0.00000000000E+00  0.45593999997E+02  0.45594000000E+02  0.51100000000E-03 0.  1.
         11   -1    0    0    0    0 -0.00000000000E+00 -0.00000000000E+00 -0.45593999997E+02  0.45594000000E+02  0.51100000000E-03 0. -1.
         23    2    1    2    0    0  0.44408920985E-15  0.88817841970E-15  0.00000000000E+00  0.91188000000E+02  0.91188000000E+02 0.  0.
    9900012    2    3    3    0    0 -0.20058175430E+01  0.43682342337E+01 -0.36505829634E+02  0.54367076986E+02  0.39999983605E+02 0.  0.
        -12    1    3    3    0    0  0.20058175430E+01 -0.43682342337E+01  0.36505829634E+02  0.36820923014E+02  0.00000000000E+00 0.  1.
         11    1    4    4    0    0 -0.52737083352E+01  0.59570341096E+01 -0.78117510290E+00  0.79942785660E+01  0.51100000000E-03 0. -1.
        -11    1    4    4    0    0  0.13272108061E+01  0.13886872016E+02 -0.16025378825E+02  0.21246634314E+02  0.51100000000E-03 0.  1.
         12    1    4    4    0    0  0.19406799861E+01 -0.15475671892E+02 -0.19699275706E+02  0.25126164106E+02  0.00000000000E+00 0. -1.
</event>
<event>
 8    1  0.2497772E-006  0.9118800E+02  0.7816164E-02  0.1184000E+00
        -11   -1    0    0    0    0  0.00000000000E+00  0.00000000000E+00  0.45593999997E+02  0.45594000000E+02  0.51100000000E-03 0.  1.
         11   -1    0    0    0    0 -0.00000000000E+00 -0.00000000000E+00 -0.45593999997E+02  0.45594000000E+02  0.51100000000E-03 0. -1.
         23    2    1    2    0    0  0.00000000000E+00 -0.13322676296E-14  0.00000000000E+00  0.91188000000E+02  0.91188000000E+02 0.  0.
    9900012    2    3    3    0    0 -0.71795934118E+01 -0.34367595516E+01 -0.35950276443E+02  0.54367078582E+02  0.39999987243E+02 0.  0.
        -12    1    3    3    0    0  0.71795934118E+01  0.34367595516E+01  0.35950276443E+02  0.36820921418E+02  0.00000000000E+00 0.  1.
         11    1    4    4    0    0  0.31679133211E+01 -0.98305093652E+01 -0.68791505028E+01  0.12409564903E+02  0.51100000000E-03 0. -1.
        -11    1    4    4    0    0 -0.12817235236E+02 -0.70980463652E+01 -0.76681807780E+01  0.16536770483E+02  0.51100000000E-03 0.  1.
        -12    1    4    4    0    0  0.24697285028E+01  0.13491796179E+02 -0.21402945162E+02  0.25420743196E+02  0.00000000000E+00 0.  1.
</event>
<event>
 8    1  0.2497772E-006  0.9118800E+02  0.7816164E-02  0.1184000E+00
        -11   -1    0    0    0    0  0.00000000000E+00  0.00000000000E+00  0.45593999997E+02  0.45594000000E+02  0.51100000000E-03 0.  1.
         11   -1    0    0    0    0 -0.00000000000E+00 -0.00000000000E+00 -0.45593999997E+02  0.45594000000E+02  0.51100000000E-03 0. -1.
         23    2    1    2    0    0  0.17763568394E-14  0.00000000000E+00  0.00000000000E+00  0.91188000000E+02  0.91188000000E+02 0.  0.
    9900012    2    3    3    0    0 -0.86539175622E+01  0.28254616877E+02 -0.21967380633E+02  0.54367089149E+02  0.40000011333E+02 0.  0.
        -12    1    3    3    0    0  0.86539175622E+01 -0.28254616877E+02  0.21967380633E+02  0.36820910851E+02  0.00000000000E+00 0.  1.
         11    1    4    4    0    0 -0.17651263032E+01  0.11418160363E+02 -0.41909242052E+01  0.12290398809E+02  0.51100000000E-03 0. -1.
        -11    1    4    4    0    0 -0.15250773494E+01  0.32345990151E+01 -0.25356488458E+02  0.25607420778E+02  0.51100000000E-03 0.  1.
        -12    1    4    4    0    0 -0.53637139096E+01  0.13601857499E+02  0.75800320301E+01  0.16469269562E+02  0.00000000000E+00 0.  1.
</event>
<event>
 8    1  0.2497772E-006  0.9118800E+02  0.7816164E-02  0.1184000E+00
        -11   -1    0    0    0    0  0.00000000000E+00  0.00000000000E+00  0.45593999997E+02  0.45594000000E+02  0.51100000000E-03 0. -1.
         11   -1    0    0    0    0 -0.00000000000E+00 -0.00000000000E+00 -0.45593999997E+02  0.45594000000E+02  0.51100000000E-03 0.  1.
         23    2    1    2    0    0  0.44408920985E-15  0.71054273576E-14  0.00000000000E+00  0.91188000000E+02  0.91188000000E+02 0.  0.
    9900012    2    3    3    0    0  0.15183260090E+01 -0.20580704037E+02  0.30494414523E+02  0.54367081902E+02  0.39999994811E+02 0.  0.
        -12    1    3    3    0    0 -0.15183260090E+01  0.20580704037E+02 -0.30494414523E+02  0.36820918098E+02  0.00000000000E+00 0.  1.
         11    1    4    4    0    0  0.68575104493E+01  0.41878413734E+00  0.62503435279E+01  0.92880366167E+01  0.51100000000E-03 0.  1.
        -11    1    4    4    0    0 -0.64091579892E+01 -0.26654520620E+02  0.27191883809E+02  0.38612683421E+02  0.51100000000E-03 0. -1.
         12    1    4    4    0    0  0.10699735489E+01  0.56550324461E+01 -0.29478128146E+01  0.64663618636E+01  0.00000000000E+00 0. -1.
</event>
<event>
 8    1  0.2497772E-006  0.9118800E+02  0.7816164E-02  0.1184000E+00
        -11   -1    0    0    0    0  0.00000000000E+00  0.00000000000E+00  0.45593999997E+02  0.45594000000E+02  0.51100000000E-03 0. -1.
         11   -1    0    0    0    0 -0.00000000000E+00 -0.00000000000E+00 -0.45593999997E+02  0.45594000000E+02  0.51100000000E-03 0.  1.
         23    2    1    2    0    0 -0.88817841970E-15 -0.88817841970E-15  0.71054273576E-14  0.91188000000E+02  0.91188000000E+02 0.  0.
    9900012    2    3    3    0    0  0.21929796745E+00 -0.44155949503E+01  0.36554530279E+02  0.54367092158E+02  0.40000018193E+02 0.  0.
        -12    1    3    3    0    0 -0.21929796745E+00  0.44155949503E+01 -0.36554530279E+02  0.36820907842E+02  0.00000000000E+00 0.  1.
         11    1    4    4    0    0 -0.94881995191E+01 -0.29095071268E+01  0.72629871924E+01  0.12298054523E+02  0.51100000000E-03 0. -1.
        -11    1    4    4    0    0  0.36494037270E+01  0.13505471702E+02  0.12847023651E+02  0.18993733977E+02  0.51100000000E-03 0.  1.
         12    1    4    4    0    0  0.60580937596E+01 -0.15011559526E+02  0.16444519436E+02  0.23075303658E+02  0.00000000000E+00 0. -1.
</event>
<event>
 8    1  0.2497772E-006  0.9118800E+02  0.7816164E-02  0.1184000E+00
        -11   -1    0    0    0    0  0.00000000000E+00  0.00000000000E+00  0.45593999997E+02  0.45594000000E+02  0.51100000000E-03 0.  1.
         11   -1    0    0    0    0 -0.00000000000E+00 -0.00000000000E+00 -0.45593999997E+02  0.45594000000E+02  0.51100000000E-03 0. -1.
         23    2    1    2    0    0  0.10658141036E-13 -0.35527136788E-14  0.00000000000E+00  0.91188000000E+02  0.91188000000E+02 0.  0.
    9900012    2    3    3    0    0 -0.29470031394E+02  0.20945628119E+02 -0.69698177298E+01  0.54367075965E+02  0.39999981277E+02 0.  0.
        -12    1    3    3    0    0  0.29470031394E+02 -0.20945628119E+02  0.69698177298E+01  0.36820924035E+02  0.00000000000E+00 0.  1.
         11    1    4    4    0    0 -0.19888756464E+02  0.20542350075E+02 -0.51667583519E+01  0.29055914586E+02  0.51100000000E-03 0.  1.
        -11    1    4    4    0    0  0.48540255028E+01  0.45097518230E+01 -0.67989741530E+01  0.94934437841E+01  0.51100000000E-03 0. -1.
        -12    1    4    4    0    0 -0.14435300433E+02 -0.41064737794E+01  0.49959147751E+01  0.15817717595E+02  0.00000000000E+00 0.  1.
</event>
<event>
 8    1  0.2497772E-006  0.9118800E+02  0.7816164E-02  0.1184000E+00
        -11   -1    0    0    0    0  0.00000000000E+00  0.00000000000E+00  0.45593999997E+02  0.45594000000E+02  0.51100000000E-03 0.  1.
         11   -1    0    0    0    0 -0.00000000000E+00 -0.00000000000E+00 -0.45593999997E+02  0.45594000000E+02  0.51100000000E-03 0. -1.
         23    2    1    2    0    0  0.35527136788E-14  0.35527136788E-14  0.00000000000E+00  0.91188000000E+02  0.91188000000E+02 0.  0.
    9900012    2    3    3    0    0  0.12871799984E+02  0.31761746822E+02 -0.13464325030E+02  0.54367084143E+02  0.39999999920E+02 0.  0.
        -12    1    3    3    0    0 -0.12871799984E+02 -0.31761746822E+02  0.13464325030E+02  0.36820915857E+02  0.00000000000E+00 0.  1.
         11    1    4    4    0    0 -0.80665168912E+00  0.68135493947E+01 -0.19712474365E+02  0.20872392967E+02  0.51100000000E-03 0. -1.
        -11    1    4    4    0    0 -0.36637898640E+01  0.23287480302E+01  0.15379255196E+01  0.46056094842E+01  0.51100000000E-03 0.  1.
         12    1    4    4    0    0  0.17342241537E+02  0.22619449398E+02  0.47102238160E+01  0.28889081692E+02  0.00000000000E+00 0. -1.
</event>
<event>
 8    1  0.2497772E-006  0.9118800E+02  0.7816164E-02  0.1184000E+00
        -11   -1    0    0    0    0  0.00000000000E+00  0.00000000000E+00  0.45593999997E+02  0.45594000000E+02  0.51100000000E-03 0.  1.
         11   -1    0    0    0    0 -0.00000000000E+00 -0.00000000000E+00 -0.45593999997E+02  0.45594000000E+02  0.51100000000E-03 0. -1.
         23    2    1    2    0    0  0.00000000000E+00  0.00000000000E+00  0.17763568394E-14  0.91188000000E+02  0.91188000000E+02 0.  0.
    9900012    2    3    3    0    0 -0.31325850775E+02  0.17233332734E+02 -0.88024435494E+01  0.54367086156E+02  0.40000004509E+02 0.  0.
         12    1    3    3    0    0  0.31325850775E+02 -0.17233332734E+02  0.88024435494E+01  0.36820913844E+02  0.00000000000E+00 0. -1.
         11    1    4    4    0    0 -0.17508952657E+02 -0.72629637448E+01 -0.14950569880E+01  0.19014448747E+02  0.51100000000E-03 0. -1.
        -11    1    4    4    0    0 -0.81187416936E+01 -0.24516738202E+00  0.19066798130E+01  0.83432309031E+01  0.51100000000E-03 0.  1.
         12    1    4    4    0    0 -0.56981564246E+01  0.24741463861E+02 -0.92140663743E+01  0.27009406505E+02  0.00000000000E+00 0. -1.
</event>
<event>
 8    1  0.2497772E-006  0.9118800E+02  0.7816164E-02  0.1184000E+00
        -11   -1    0    0    0    0  0.00000000000E+00  0.00000000000E+00  0.45593999997E+02  0.45594000000E+02  0.51100000000E-03 0.  1.
         11   -1    0    0    0    0 -0.00000000000E+00 -0.00000000000E+00 -0.45593999997E+02  0.45594000000E+02  0.51100000000E-03 0. -1.
         23    2    1    2    0    0  0.35527136788E-14 -0.88817841970E-15  0.00000000000E+00  0.91188000000E+02  0.91188000000E+02 0.  0.
    9900012    2    3    3    0    0 -0.28339485113E+02  0.52394555731E+01 -0.22917267963E+02  0.54367089066E+02  0.40000011143E+02 0.  0.
        -12    1    3    3    0    0  0.28339485113E+02 -0.52394555731E+01  0.22917267963E+02  0.36820910934E+02  0.00000000000E+00 0.  1.
         11    1    4    4    0    0 -0.18988958243E+01  0.96076340961E+01 -0.34735864984E+01  0.10391257946E+02  0.51100000000E-03 0. -1.
        -11    1    4    4    0    0 -0.27175858766E+02  0.13222945121E+01 -0.39996867337E+01  0.27500422845E+02  0.51100000000E-03 0.  1.
        -12    1    4    4    0    0  0.73526947720E+00 -0.56904730351E+01 -0.15443994731E+02  0.16475408274E+02  0.00000000000E+00 0.  1.
</event>
<event>
 8    1  0.2497772E-006  0.9118800E+02  0.7816164E-02  0.1184000E+00
        -11   -1    0    0    0    0  0.00000000000E+00  0.00000000000E+00  0.45593999997E+02  0.45594000000E+02  0.51100000000E-03 0.  1.
         11   -1    0    0    0    0 -0.00000000000E+00 -0.00000000000E+00 -0.45593999997E+02  0.45594000000E+02  0.51100000000E-03 0. -1.
         23    2    1    2    0    0 -0.17763568394E-14  0.00000000000E+00  0.71054273576E-14  0.91188000000E+02  0.91188000000E+02 0.  0.
    9900012    2    3    3    0    0 -0.10150386329E+02 -0.10085266204E+02 -0.33926941888E+02  0.54367077647E+02  0.39999985113E+02 0.  0.
        -12    1    3    3    0    0  0.10150386329E+02  0.10085266204E+02  0.33926941888E+02  0.36820922353E+02  0.00000000000E+00 0.  1.
         11    1    4    4    0    0 -0.56314995232E+01  0.76527145543E+00  0.44200824917E+01  0.71997608832E+01  0.51100000000E-03 0. -1.
        -11    1    4    4    0    0 -0.13286926606E+02 -0.10728167172E+02 -0.17031777621E+02  0.24118819181E+02  0.51100000000E-03 0.  1.
         12    1    4    4    0    0  0.87680398000E+01 -0.12237048769E+00 -0.21315246759E+02  0.23048497583E+02  0.00000000000E+00 0. -1.
</event>
<event>
 8    1  0.2497772E-006  0.9118800E+02  0.7816164E-02  0.1184000E+00
        -11   -1    0    0    0    0  0.00000000000E+00  0.00000000000E+00  0.45593999997E+02  0.45594000000E+02  0.51100000000E-03 0. -1.
         11   -1    0    0    0    0 -0.00000000000E+00 -0.00000000000E+00 -0.45593999997E+02  0.45594000000E+02  0.51100000000E-03 0.  1.
         23    2    1    2    0    0 -0.13322676296E-14 -0.17763568394E-14  0.00000000000E+00  0.91188000000E+02  0.91188000000E+02 0.  0.
    9900012    2    3    3    0    0 -0.28014466241E+01  0.63619204802E+01 -0.36158815998E+02  0.54367053383E+02  0.39999929797E+02 0.  0.
         12    1    3    3    0    0  0.28014466241E+01 -0.63619204802E+01  0.36158815998E+02  0.36820946617E+02  0.00000000000E+00 0. -1.
         11    1    4    4    0    0  0.88805095493E+00  0.19001642386E+02 -0.16916650548E+02  0.25456317760E+02  0.51100000000E-03 0. -1.
        -11    1    4    4    0    0 -0.82159588336E+01 -0.37695407701E+01 -0.16107616481E+02  0.18470699124E+02  0.51100000000E-03 0.  1.
         12    1    4    4    0    0  0.45264612546E+01 -0.88701811354E+01 -0.31345489693E+01  0.10440036499E+02  0.00000000000E+00 0. -1.
</event>
<event>
 8    1  0.2497772E-006  0.9118800E+02  0.7816164E-02  0.1184000E+00
        -11   -1    0    0    0    0  0.00000000000E+00  0.00000000000E+00  0.45593999997E+02  0.45594000000E+02  0.51100000000E-03 0.  1.
         11   -1    0    0    0    0 -0.00000000000E+00 -0.00000000000E+00 -0.45593999997E+02  0.45594000000E+02  0.51100000000E-03 0. -1.
         23    2    1    2    0    0  0.35527136788E-14  0.17763568394E-14 -0.10658141036E-13  0.91188000000E+02  0.91188000000E+02 0.  0.
    9900012    2    3    3    0    0  0.16453682253E+02 -0.90128397506E+01 -0.31683229973E+02  0.54367054852E+02  0.39999933146E+02 0.  0.
        -12    1    3    3    0    0 -0.16453682253E+02  0.90128397506E+01  0.31683229973E+02  0.36820945148E+02  0.00000000000E+00 0.  1.
         11    1    4    4    0    0 -0.44857534977E+01  0.10534456332E+02 -0.55534319369E+01  0.12725461138E+02  0.51100000000E-03 0. -1.
        -11    1    4    4    0    0  0.16225236652E+01  0.12522972172E+01  0.10833548243E+01  0.23182944810E+01  0.51100000000E-03 0.  1.
        -12    1    4    4    0    0  0.19316912085E+02 -0.20799593299E+02 -0.27213152861E+02  0.39323299233E+02  0.00000000000E+00 0.  1.
</event>
<event>
 8    1  0.2497772E-006  0.9118800E+02  0.7816164E-02  0.1184000E+00
        -11   -1    0    0    0    0  0.00000000000E+00  0.00000000000E+00  0.45593999997E+02  0.45594000000E+02  0.51100000000E-03 0.  1.
         11   -1    0    0    0    0 -0.00000000000E+00 -0.00000000000E+00 -0.45593999997E+02  0.45594000000E+02  0.51100000000E-03 0. -1.
         23    2    1    2    0    0  0.00000000000E+00  0.00000000000E+00  0.71054273576E-14  0.91188000000E+02  0.91188000000E+02 0.  0.
    9900012    2    3    3    0    0 -0.98966977508E+01 -0.85095902693E+01 -0.34429959188E+02  0.54367084169E+02  0.39999999980E+02 0.  0.
        -12    1    3    3    0    0  0.98966977508E+01  0.85095902693E+01  0.34429959188E+02  0.36820915831E+02  0.00000000000E+00 0.  1.
         11    1    4    4    0    0 -0.13598474394E+01 -0.13611509499E+02 -0.63440820008E+01  0.15078784851E+02  0.51100000000E-03 0. -1.
        -11    1    4    4    0    0 -0.37222668267E+01 -0.73630843230E+01 -0.72118837302E-01  0.82507867785E+01  0.51100000000E-03 0.  1.
         12    1    4    4    0    0 -0.48145834848E+01  0.12465003553E+02 -0.28013758350E+02  0.31037512539E+02  0.00000000000E+00 0. -1.
</event>
<event>
 8    1  0.2497772E-006  0.9118800E+02  0.7816164E-02  0.1184000E+00
        -11   -1    0    0    0    0  0.00000000000E+00  0.00000000000E+00  0.45593999997E+02  0.45594000000E+02  0.51100000000E-03 0. -1.
         11   -1    0    0    0    0 -0.00000000000E+00 -0.00000000000E+00 -0.45593999997E+02  0.45594000000E+02  0.51100000000E-03 0.  1.
         23    2    1    2    0    0 -0.88817841970E-15  0.35527136788E-14  0.35527136788E-14  0.91188000000E+02  0.91188000000E+02 0.  0.
    9900012    2    3    3    0    0  0.72889902846E+01 -0.23518809239E+02  0.27377163209E+02  0.54367179358E+02  0.40000216983E+02 0.  0.
        -12    1    3    3    0    0 -0.72889902846E+01  0.23518809239E+02 -0.27377163209E+02  0.36820820642E+02  0.00000000000E+00 0.  1.
         11    1    4    4    0    0  0.58939726754E+01 -0.71237475720E+01 -0.39520856705E+01  0.10055131763E+02  0.51100000000E-03 0.  1.
        -11    1    4    4    0    0 -0.10499298748E+02 -0.66087911316E+01  0.24502416042E+02  0.27464154576E+02  0.51100000000E-03 0. -1.
         12    1    4    4    0    0  0.11894316358E+02 -0.97862705350E+01  0.68268328376E+01  0.16847893019E+02  0.00000000000E+00 0. -1.
</event>
<event>
 8    1  0.2497772E-006  0.9118800E+02  0.7816164E-02  0.1184000E+00
        -11   -1    0    0    0    0  0.00000000000E+00  0.00000000000E+00  0.45593999997E+02  0.45594000000E+02  0.51100000000E-03 0. -1.
         11   -1    0    0    0    0 -0.00000000000E+00 -0.00000000000E+00 -0.45593999997E+02  0.45594000000E+02  0.51100000000E-03 0.  1.
         23    2    1    2    0    0  0.00000000000E+00 -0.27755575616E-15  0.00000000000E+00  0.91188000000E+02  0.91188000000E+02 0.  0.
    9900012    2    3    3    0    0  0.12093401462E+02 -0.42108941578E+00 -0.34775735857E+02  0.54367089099E+02  0.40000011218E+02 0.  0.
         12    1    3    3    0    0 -0.12093401462E+02  0.42108941578E+00  0.34775735857E+02  0.36820910901E+02  0.00000000000E+00 0. -1.
         11    1    4    4    0    0  0.67021876520E+01 -0.55560832612E-01  0.49487010683E+01  0.83313893711E+01  0.51100000000E-03 0.  1.
        -11    1    4    4    0    0  0.42636652263E+01 -0.65261736470E+01 -0.23526773713E+01  0.81427805268E+01  0.51100000000E-03 0. -1.
        -12    1    4    4    0    0  0.11275485842E+01  0.61606450639E+01 -0.37371759554E+02  0.37892919201E+02  0.00000000000E+00 0.  1.
</event>
<event>
 8    1  0.2497772E-006  0.9118800E+02  0.7816164E-02  0.1184000E+00
        -11   -1    0    0    0    0  0.00000000000E+00  0.00000000000E+00  0.45593999997E+02  0.45594000000E+02  0.51100000000E-03 0. -1.
         11   -1    0    0    0    0 -0.00000000000E+00 -0.00000000000E+00 -0.45593999997E+02  0.45594000000E+02  0.51100000000E-03 0.  1.
         23    2    1    2    0    0  0.00000000000E+00 -0.35527136788E-14  0.00000000000E+00  0.91188000000E+02  0.91188000000E+02 0.  0.
    9900012    2    3    3    0    0 -0.33681717613E+02 -0.11330455176E+02  0.96412436805E+01  0.54366934079E+02  0.39999657818E+02 0.  0.
        -12    1    3    3    0    0  0.33681717613E+02  0.11330455176E+02 -0.96412436805E+01  0.36821065921E+02  0.00000000000E+00 0.  1.
         11    1    4    4    0    0 -0.84888932171E+01  0.70008941973E+01  0.85750872734E+01  0.13950123642E+02  0.51100000000E-03 0. -1.
        -11    1    4    4    0    0 -0.15528095589E+02 -0.24266774305E+02 -0.12669591783E+01  0.28837532378E+02  0.51100000000E-03 0.  1.
        -12    1    4    4    0    0 -0.96647288073E+01  0.59354249319E+01  0.23331155854E+01  0.11579278059E+02  0.00000000000E+00 0.  1.
</event>
<event>
 8    1  0.2497772E-006  0.9118800E+02  0.7816164E-02  0.1184000E+00
        -11   -1    0    0    0    0  0.00000000000E+00  0.00000000000E+00  0.45593999997E+02  0.45594000000E+02  0.51100000000E-03 0.  1.
         11   -1    0    0    0    0 -0.00000000000E+00 -0.00000000000E+00 -0.45593999997E+02  0.45594000000E+02  0.51100000000E-03 0. -1.
         23    2    1    2    0    0  0.00000000000E+00  0.00000000000E+00  0.88817841970E-15  0.91188000000E+02  0.91188000000E+02 0.  0.
    9900012    2    3    3    0    0 -0.26717980312E+02  0.25146977944E+02  0.30918200725E+01  0.54367077646E+02  0.39999985109E+02 0.  0.
         12    1    3    3    0    0  0.26717980312E+02 -0.25146977944E+02 -0.30918200725E+01  0.36820922354E+02  0.00000000000E+00 0. -1.
         11    1    4    4    0    0 -0.24870403328E+01  0.18572499380E+02  0.14796989353E+02  0.23876222419E+02  0.51100000000E-03 0. -1.
        -11    1    4    4    0    0 -0.12935855354E+02  0.44599282620E+01  0.54573645355E+00  0.13693981977E+02  0.51100000000E-03 0.  1.
         12    1    4    4    0    0 -0.11295084625E+02  0.21145503028E+01 -0.12250905734E+02  0.16796873250E+02  0.00000000000E+00 0. -1.
</event>
<event>
 8    1  0.2497772E-006  0.9118800E+02  0.7816164E-02  0.1184000E+00
        -11   -1    0    0    0    0  0.00000000000E+00  0.00000000000E+00  0.45593999997E+02  0.45594000000E+02  0.51100000000E-03 0.  1.
         11   -1    0    0    0    0 -0.00000000000E+00 -0.00000000000E+00 -0.45593999997E+02  0.45594000000E+02  0.51100000000E-03 0. -1.
         23    2    1    2    0    0  0.35527136788E-14  0.00000000000E+00  0.00000000000E+00  0.91188000000E+02  0.91188000000E+02 0.  0.
    9900012    2    3    3    0    0 -0.19097928921E+02 -0.26838882324E+02 -0.16453789601E+02  0.54367031983E+02  0.39999881011E+02 0.  0.
         12    1    3    3    0    0  0.19097928921E+02  0.26838882324E+02  0.16453789601E+02  0.36820968017E+02  0.00000000000E+00 0. -1.
         11    1    4    4    0    0 -0.31146380079E+01 -0.44446631679E+01 -0.16532390324E+02  0.17400457772E+02  0.51100000000E-03 0. -1.
        -11    1    4    4    0    0  0.53312886802E+01 -0.31367725689E+01 -0.48000968585E+01  0.78296175674E+01  0.51100000000E-03 0.  1.
        -12    1    4    4    0    0 -0.21314579593E+02 -0.19257446587E+02  0.48786975813E+01  0.29136956643E+02  0.00000000000E+00 0.  1.
</event>
<event>
 8    1  0.2497772E-006  0.9118800E+02  0.7816164E-02  0.1184000E+00
        -11   -1    0    0    0    0  0.00000000000E+00  0.00000000000E+00  0.45593999997E+02  0.45594000000E+02  0.51100000000E-03 0.  1.
         11   -1    0    0    0    0 -0.00000000000E+00 -0.00000000000E+00 -0.45593999997E+02  0.45594000000E+02  0.51100000000E-03 0. -1.
         23    2    1    2    0    0  0.00000000000E+00  0.17763568394E-14  0.00000000000E+00  0.91188000000E+02  0.91188000000E+02 0.  0.
    9900012    2    3    3    0    0  0.29240581068E+00  0.54384080635E+01 -0.36415918360E+02  0.54367069900E+02  0.39999967451E+02 0.  0.
        -12    1    3    3    0    0 -0.29240581068E+00 -0.54384080635E+01  0.36415918360E+02  0.36820930100E+02  0.00000000000E+00 0.  1.
         11    1    4    4    0    0 -0.59403676767E+01 -0.21077850295E+01 -0.94370037951E+01  0.11348469798E+02  0.51100000000E-03 0. -1.
        -11    1    4    4    0    0 -0.13409068571E+01  0.22616113411E+01  0.71731978034E+01  0.76398746092E+01  0.51100000000E-03 0.  1.
         12    1    4    4    0    0  0.75736803445E+01  0.52845817518E+01 -0.34152112368E+02  0.35378725493E+02  0.00000000000E+00 0. -1.
</event>
<event>
 8    1  0.2497772E-006  0.9118800E+02  0.7816164E-02  0.1184000E+00
        -11   -1    0    0    0    0  0.00000000000E+00  0.00000000000E+00  0.45593999997E+02  0.45594000000E+02  0.51100000000E-03 0. -1.
         11   -1    0    0    0    0 -0.00000000000E+00 -0.00000000000E+00 -0.45593999997E+02  0.45594000000E+02  0.51100000000E-03 0.  1.
         23    2    1    2    0    0  0.00000000000E+00  0.00000000000E+00  0.00000000000E+00  0.91188000000E+02  0.91188000000E+02 0.  0.
    9900012    2    3    3    0    0  0.13441667812E+02 -0.23335701487E+02  0.25110678680E+02  0.54367087719E+02  0.40000008073E+02 0.  0.
         12    1    3    3    0    0 -0.13441667812E+02  0.23335701487E+02 -0.25110678680E+02  0.36820912281E+02  0.00000000000E+00 0. -1.
         11    1    4    4    0    0  0.11048815440E+02  0.14158483631E+01  0.17322905916E+02  0.20595242627E+02  0.51100000000E-03 0. -1.
        -11    1    4    4    0    0  0.86462577473E+01 -0.15960487068E+01  0.31698951728E+01  0.93463030218E+01  0.51100000000E-03 0.  1.
         12    1    4    4    0    0 -0.62534053750E+01 -0.23155501143E+02  0.46178775906E+01  0.24425542070E+02  0.00000000000E+00 0. -1.
</event>
<event>
 8    1  0.2497772E-006  0.9118800E+02  0.7816164E-02  0.1184000E+00
        -11   -1    0    0    0    0  0.00000000000E+00  0.00000000000E+00  0.45593999997E+02  0.45594000000E+02  0.51100000000E-03 0. -1.
         11   -1    0    0    0    0 -0.00000000000E+00 -0.00000000000E+00 -0.45593999997E+02  0.45594000000E+02  0.51100000000E-03 0.  1.
         23    2    1    2    0    0  0.17763568394E-14  0.00000000000E+00 -0.35527136788E-14  0.91188000000E+02  0.91188000000E+02 0.  0.
    9900012    2    3    3    0    0 -0.89342281040E+01 -0.26805108749E+02 -0.23610303208E+02  0.54367072466E+02  0.39999973301E+02 0.  0.
        -12    1    3    3    0    0  0.89342281040E+01  0.26805108749E+02  0.23610303208E+02  0.36820927534E+02  0.00000000000E+00 0.  1.
         11    1    4    4    0    0 -0.10617629701E+02 -0.14992256368E+02  0.69793997248E+01  0.19652323839E+02  0.51100000000E-03 0. -1.
        -11    1    4    4    0    0 -0.22385167461E+01  0.12596907708E+01 -0.31196711699E+01  0.40410551258E+01  0.51100000000E-03 0.  1.
         12    1    4    4    0    0  0.39219183432E+01 -0.13072543152E+02 -0.27470031763E+02  0.30673693501E+02  0.00000000000E+00 0. -1.
</event>
<event>
 8    1  0.2497772E-006  0.9118800E+02  0.7816164E-02  0.1184000E+00
        -11   -1    0    0    0    0  0.00000000000E+00  0.00000000000E+00  0.45593999997E+02  0.45594000000E+02  0.51100000000E-03 0.  1.
         11   -1    0    0    0    0 -0.00000000000E+00 -0.00000000000E+00 -0.45593999997E+02  0.45594000000E+02  0.51100000000E-03 0. -1.
         23    2    1    2    0    0  0.35527136788E-14  0.88817841970E-15 -0.35527136788E-14  0.91188000000E+02  0.91188000000E+02 0.  0.
    9900012    2    3    3    0    0 -0.29331173190E+02  0.79693303516E+01 -0.20783475836E+02  0.54367070968E+02  0.39999969886E+02 0.  0.
        -12    1    3    3    0    0  0.29331173190E+02 -0.79693303516E+01  0.20783475836E+02  0.36820929032E+02  0.00000000000E+00 0.  1.
         11    1    4    4    0    0 -0.65676574826E+01  0.49456834377E+01 -0.14494160236E+02  0.16663570767E+02  0.51100000000E-03 0. -1.
        -11    1    4    4    0    0 -0.24895222048E+02 -0.71313657626E+01 -0.81771064292E+01  0.27156832073E+02  0.51100000000E-03 0.  1.
        -12    1    4    4    0    0  0.21317063405E+01  0.10155012677E+02  0.18877908294E+01  0.10546668128E+02  0.00000000000E+00 0.  1.
</event>
<event>
 8    1  0.2497772E-006  0.9118800E+02  0.7816164E-02  0.1184000E+00
        -11   -1    0    0    0    0  0.00000000000E+00  0.00000000000E+00  0.45593999997E+02  0.45594000000E+02  0.51100000000E-03 0. -1.
         11   -1    0    0    0    0 -0.00000000000E+00 -0.00000000000E+00 -0.45593999997E+02  0.45594000000E+02  0.51100000000E-03 0.  1.
         23    2    1    2    0    0  0.00000000000E+00  0.15543122345E-14  0.00000000000E+00  0.91188000000E+02  0.91188000000E+02 0.  0.
    9900012    2    3    3    0    0 -0.32934339169E+02  0.11364754802E+01  0.16426131364E+02  0.54367081155E+02  0.39999993110E+02 0.  0.
        -12    1    3    3    0    0  0.32934339169E+02 -0.11364754802E+01 -0.16426131364E+02  0.36820918845E+02  0.00000000000E+00 0.  1.
         11    1    4    4    0    0 -0.17981133861E+02  0.32930309546E+01  0.16893385036E+02  0.24890795207E+02  0.51100000000E-03 0. -1.
        -11    1    4    4    0    0 -0.85409369558E+01  0.10927715942E+02  0.36366650816E+01  0.14338337176E+02  0.51100000000E-03 0.  1.
        -12    1    4    4    0    0 -0.64122683517E+01 -0.13084271416E+02 -0.41039187542E+01  0.15137948773E+02  0.00000000000E+00 0.  1.
</event>
<event>
 8    1  0.2497772E-006  0.9118800E+02  0.7816164E-02  0.1184000E+00
        -11   -1    0    0    0    0  0.00000000000E+00  0.00000000000E+00  0.45593999997E+02  0.45594000000E+02  0.51100000000E-03 0. -1.
         11   -1    0    0    0    0 -0.00000000000E+00 -0.00000000000E+00 -0.45593999997E+02  0.45594000000E+02  0.51100000000E-03 0.  1.
         23    2    1    2    0    0  0.00000000000E+00 -0.71054273576E-14  0.33306690739E-15  0.91188000000E+02  0.91188000000E+02 0.  0.
    9900012    2    3    3    0    0  0.10812618713E+02 -0.35191549309E+02 -0.64814520947E+00  0.54367109755E+02  0.40000058309E+02 0.  0.
        -12    1    3    3    0    0 -0.10812618713E+02  0.35191549309E+02  0.64814520947E+00  0.36820890245E+02  0.00000000000E+00 0.  1.
         11    1    4    4    0    0  0.41284508266E+01 -0.24752728362E+02 -0.42806916485E+01  0.25457140233E+02  0.51100000000E-03 0. -1.
        -11    1    4    4    0    0  0.12822312623E+02 -0.31870856122E+01 -0.67497413634E+01  0.14836718789E+02  0.51100000000E-03 0.  1.
         12    1    4    4    0    0 -0.61381447366E+01 -0.72517353342E+01  0.10382287802E+02  0.14073250732E+02  0.00000000000E+00 0. -1.
</event>
<event>
 8    1  0.2497772E-006  0.9118800E+02  0.7816164E-02  0.1184000E+00
        -11   -1    0    0    0    0  0.00000000000E+00  0.00000000000E+00  0.45593999997E+02  0.45594000000E+02  0.51100000000E-03 0. -1.
         11   -1    0    0    0    0 -0.00000000000E+00 -0.00000000000E+00 -0.45593999997E+02  0.45594000000E+02  0.51100000000E-03 0.  1.
         23    2    1    2    0    0  0.00000000000E+00  0.17763568394E-14  0.00000000000E+00  0.91188000000E+02  0.91188000000E+02 0.  0.
    9900012    2    3    3    0    0 -0.19601925703E+02 -0.47561506320E+01 -0.30804603276E+02  0.54367081447E+02  0.39999993776E+02 0.  0.
         12    1    3    3    0    0  0.19601925703E+02  0.47561506320E+01  0.30804603276E+02  0.36820918553E+02  0.00000000000E+00 0. -1.
         11    1    4    4    0    0  0.30542511496E+01  0.28842431682E+01  0.33920817736E+01  0.53994006852E+01  0.51100000000E-03 0. -1.
        -11    1    4    4    0    0 -0.13687397732E+02  0.79307930628E+01 -0.22581463564E+02  0.27571086889E+02  0.51100000000E-03 0.  1.
         12    1    4    4    0    0 -0.89687791202E+01 -0.15571186863E+02 -0.11615221485E+02  0.21396593873E+02  0.00000000000E+00 0. -1.
</event>
<event>
 8    1  0.2497772E-006  0.9118800E+02  0.7816164E-02  0.1184000E+00
        -11   -1    0    0    0    0  0.00000000000E+00  0.00000000000E+00  0.45593999997E+02  0.45594000000E+02  0.51100000000E-03 0. -1.
         11   -1    0    0    0    0 -0.00000000000E+00 -0.00000000000E+00 -0.45593999997E+02  0.45594000000E+02  0.51100000000E-03 0.  1.
         23    2    1    2    0    0  0.35527136788E-14  0.88817841970E-15  0.00000000000E+00  0.91188000000E+02  0.91188000000E+02 0.  0.
    9900012    2    3    3    0    0 -0.23217824300E+02  0.60619262780E+01  0.27927908563E+02  0.54367049549E+02  0.39999921056E+02 0.  0.
        -12    1    3    3    0    0  0.23217824300E+02 -0.60619262780E+01 -0.27927908563E+02  0.36820950451E+02  0.00000000000E+00 0.  1.
         11    1    4    4    0    0 -0.19268618441E+02  0.16299150351E+00  0.21640231579E+02  0.28975952890E+02  0.51100000000E-03 0. -1.
        -11    1    4    4    0    0 -0.11765152282E+02  0.99088411805E+01  0.62587357779E+01  0.16606496185E+02  0.51100000000E-03 0.  1.
        -12    1    4    4    0    0  0.78159464230E+01 -0.40099064060E+01  0.28941206662E-01  0.87846004727E+01  0.00000000000E+00 0.  1.
</event>
<event>
 8    1  0.2497772E-006  0.9118800E+02  0.7816164E-02  0.1184000E+00
        -11   -1    0    0    0    0  0.00000000000E+00  0.00000000000E+00  0.45593999997E+02  0.45594000000E+02  0.51100000000E-03 0. -1.
         11   -1    0    0    0    0 -0.00000000000E+00 -0.00000000000E+00 -0.45593999997E+02  0.45594000000E+02  0.51100000000E-03 0.  1.
         23    2    1    2    0    0  0.00000000000E+00  0.00000000000E+00  0.00000000000E+00  0.91188000000E+02  0.91188000000E+02 0.  0.
    9900012    2    3    3    0    0  0.19484715208E+02  0.30243080647E+02 -0.78411174544E+01  0.54367066054E+02  0.39999958682E+02 0.  0.
         12    1    3    3    0    0 -0.19484715208E+02 -0.30243080647E+02  0.78411174544E+01  0.36820933946E+02  0.00000000000E+00 0. -1.
         11    1    4    4    0    0  0.19850870772E+02  0.30492649769E+02 -0.35752593900E+01  0.36560104490E+02  0.51100000000E-03 0. -1.
        -11    1    4    4    0    0  0.64502382183E+01 -0.52973383720E+01 -0.76983314375E-01  0.83470529884E+01  0.51100000000E-03 0.  1.
         12    1    4    4    0    0 -0.68163937815E+01  0.50477692496E+01 -0.41888747501E+01  0.94599085753E+01  0.00000000000E+00 0. -1.
</event>
<event>
 8    1  0.2497772E-006  0.9118800E+02  0.7816164E-02  0.1184000E+00
        -11   -1    0    0    0    0  0.00000000000E+00  0.00000000000E+00  0.45593999997E+02  0.45594000000E+02  0.51100000000E-03 0.  1.
         11   -1    0    0    0    0 -0.00000000000E+00 -0.00000000000E+00 -0.45593999997E+02  0.45594000000E+02  0.51100000000E-03 0. -1.
         23    2    1    2    0    0  0.00000000000E+00  0.71054273576E-14  0.00000000000E+00  0.91188000000E+02  0.91188000000E+02 0.  0.
    9900012    2    3    3    0    0  0.15284231439E+02 -0.32245316710E+02 -0.90781596507E+01  0.54367066238E+02  0.39999959103E+02 0.  0.
         12    1    3    3    0    0 -0.15284231439E+02  0.32245316710E+02  0.90781596507E+01  0.36820933762E+02  0.00000000000E+00 0. -1.
         11    1    4    4    0    0  0.87867107164E+01 -0.60859269793E+01 -0.47592936952E+01  0.11700242269E+02  0.51100000000E-03 0.  1.
        -11    1    4    4    0    0 -0.77201975696E+01  0.13055576793E+01  0.62136038931E+01  0.99957393408E+01  0.51100000000E-03 0. -1.
         12    1    4    4    0    0  0.14217718293E+02 -0.27464947410E+02 -0.10532469849E+02  0.32671084629E+02  0.00000000000E+00 0. -1.
</event>
<event>
 8    1  0.2497772E-006  0.9118800E+02  0.7816164E-02  0.1184000E+00
        -11   -1    0    0    0    0  0.00000000000E+00  0.00000000000E+00  0.45593999997E+02  0.45594000000E+02  0.51100000000E-03 0.  1.
         11   -1    0    0    0    0 -0.00000000000E+00 -0.00000000000E+00 -0.45593999997E+02  0.45594000000E+02  0.51100000000E-03 0. -1.
         23    2    1    2    0    0  0.00000000000E+00  0.71054273576E-14  0.00000000000E+00  0.91188000000E+02  0.91188000000E+02 0.  0.
    9900012    2    3    3    0    0 -0.14313544898E+02 -0.33784112202E+02  0.30882414923E+01  0.54367067905E+02  0.39999962904E+02 0.  0.
         12    1    3    3    0    0  0.14313544898E+02  0.33784112202E+02 -0.30882414923E+01  0.36820932095E+02  0.00000000000E+00 0. -1.
         11    1    4    4    0    0 -0.12183557645E+02 -0.20493408900E+02 -0.64587972848E+01  0.24700909859E+02  0.51100000000E-03 0. -1.
        -11    1    4    4    0    0  0.64961238296E+01 -0.17368995699E+02  0.61222252687E+01  0.19528524749E+02  0.51100000000E-03 0.  1.
         12    1    4    4    0    0 -0.86261110825E+01  0.40782923973E+01  0.34248135084E+01  0.10137633296E+02  0.00000000000E+00 0. -1.
</event>
<event>
 8    1  0.2497772E-006  0.9118800E+02  0.7816164E-02  0.1184000E+00
        -11   -1    0    0    0    0  0.00000000000E+00  0.00000000000E+00  0.45593999997E+02  0.45594000000E+02  0.51100000000E-03 0. -1.
         11   -1    0    0    0    0 -0.00000000000E+00 -0.00000000000E+00 -0.45593999997E+02  0.45594000000E+02  0.51100000000E-03 0.  1.
         23    2    1    2    0    0  0.00000000000E+00 -0.35527136788E-14 -0.35527136788E-14  0.91188000000E+02  0.91188000000E+02 0.  0.
    9900012    2    3    3    0    0 -0.12961778196E+02  0.29719202586E+02 -0.17451105070E+02  0.54367085230E+02  0.40000002399E+02 0.  0.
         12    1    3    3    0    0  0.12961778196E+02 -0.29719202586E+02  0.17451105070E+02  0.36820914770E+02  0.00000000000E+00 0. -1.
         11    1    4    4    0    0 -0.45702029029E+01 -0.11416155966E+01  0.62168208499E+01  0.77999296461E+01  0.51100000000E-03 0. -1.
        -11    1    4    4    0    0 -0.97463436716E+01  0.29257978188E+02 -0.95346961587E+01  0.32278954967E+02  0.51100000000E-03 0.  1.
        -12    1    4    4    0    0  0.13547683785E+01  0.16028399944E+01 -0.14133229761E+02  0.14288200617E+02  0.00000000000E+00 0.  1.
</event>
<event>
 8    1  0.2497772E-006  0.9118800E+02  0.7816164E-02  0.1184000E+00
        -11   -1    0    0    0    0  0.00000000000E+00  0.00000000000E+00  0.45593999997E+02  0.45594000000E+02  0.51100000000E-03 0. -1.
         11   -1    0    0    0    0 -0.00000000000E+00 -0.00000000000E+00 -0.45593999997E+02  0.45594000000E+02  0.51100000000E-03 0.  1.
         23    2    1    2    0    0  0.00000000000E+00  0.00000000000E+00  0.00000000000E+00  0.91188000000E+02  0.91188000000E+02 0.  0.
    9900012    2    3    3    0    0 -0.17879613221E+02 -0.12804377910E+02 -0.29531895014E+02  0.54367279125E+02  0.40000444420E+02 0.  0.
         12    1    3    3    0    0  0.17879613221E+02  0.12804377910E+02  0.29531895014E+02  0.36820720875E+02  0.00000000000E+00 0. -1.
         11    1    4    4    0    0 -0.23267411457E+02 -0.11228296441E+02 -0.21572305985E+02  0.33657264634E+02  0.51100000000E-03 0. -1.
        -11    1    4    4    0    0  0.40563544917E+00  0.74852322830E+00 -0.13133167133E+02  0.13160733504E+02  0.51100000000E-03 0.  1.
         12    1    4    4    0    0  0.49821627867E+01 -0.23246046966E+01  0.51735781041E+01  0.75492809875E+01  0.00000000000E+00 0. -1.
</event>
<event>
 8    1  0.2497772E-006  0.9118800E+02  0.7816164E-02  0.1184000E+00
        -11   -1    0    0    0    0  0.00000000000E+00  0.00000000000E+00  0.45593999997E+02  0.45594000000E+02  0.51100000000E-03 0.  1.
         11   -1    0    0    0    0 -0.00000000000E+00 -0.00000000000E+00 -0.45593999997E+02  0.45594000000E+02  0.51100000000E-03 0. -1.
         23    2    1    2    0    0  0.44408920985E-15  0.00000000000E+00  0.00000000000E+00  0.91188000000E+02  0.91188000000E+02 0.  0.
    9900012    2    3    3    0    0  0.36906575683E+01  0.65144613901E+01  0.36051618407E+02  0.54367104434E+02  0.40000046178E+02 0.  0.
         12    1    3    3    0    0 -0.36906575683E+01 -0.65144613901E+01 -0.36051618407E+02  0.36820895566E+02  0.00000000000E+00 0. -1.
         11    1    4    4    0    0 -0.11535977267E+02 -0.38356762926E+01  0.13682696553E+02  0.18303206532E+02  0.51100000000E-03 0. -1.
        -11    1    4    4    0    0  0.74793349093E+01  0.13011151911E+02  0.23408882819E+02  0.27806587706E+02  0.51100000000E-03 0.  1.
        -12    1    4    4    0    0  0.77472999262E+01 -0.26610142283E+01 -0.10399609646E+01  0.82573101963E+01  0.00000000000E+00 0.  1.
</event>
<event>
 8    1  0.2497772E-006  0.9118800E+02  0.7816164E-02  0.1184000E+00
        -11   -1    0    0    0    0  0.00000000000E+00  0.00000000000E+00  0.45593999997E+02  0.45594000000E+02  0.51100000000E-03 0.  1.
         11   -1    0    0    0    0 -0.00000000000E+00 -0.00000000000E+00 -0.45593999997E+02  0.45594000000E+02  0.51100000000E-03 0. -1.
         23    2    1    2    0    0 -0.71054273576E-14 -0.88817841970E-15  0.17763568394E-14  0.91188000000E+02  0.91188000000E+02 0.  0.
    9900012    2    3    3    0    0  0.32891689382E+02  0.58659051511E+01 -0.15475937960E+02  0.54367126445E+02  0.40000096357E+02 0.  0.
        -12    1    3    3    0    0 -0.32891689382E+02 -0.58659051511E+01  0.15475937960E+02  0.36820873555E+02  0.00000000000E+00 0.  1.
         11    1    4    4    0    0  0.17054406639E+02  0.19952770888E+01 -0.15364713658E+02  0.23041448360E+02  0.51100000000E-03 0. -1.
        -11    1    4    4    0    0  0.19791660385E+02  0.27003419983E+01 -0.87082494721E+01  0.21790715381E+02  0.51100000000E-03 0.  1.
        -12    1    4    4    0    0 -0.39543776417E+01  0.11702860641E+01  0.85970251699E+01  0.95349627046E+01  0.00000000000E+00 0.  1.
</event>
<event>
 8    1  0.2497772E-006  0.9118800E+02  0.7816164E-02  0.1184000E+00
        -11   -1    0    0    0    0  0.00000000000E+00  0.00000000000E+00  0.45593999997E+02  0.45594000000E+02  0.51100000000E-03 0.  1.
         11   -1    0    0    0    0 -0.00000000000E+00 -0.00000000000E+00 -0.45593999997E+02  0.45594000000E+02  0.51100000000E-03 0. -1.
         23    2    1    2    0    0 -0.88817841970E-15  0.00000000000E+00  0.00000000000E+00  0.91188000000E+02  0.91188000000E+02 0.  0.
    9900012    2    3    3    0    0 -0.78097415755E+01 -0.15789673178E+02 -0.32333784792E+02  0.54367089072E+02  0.40000011159E+02 0.  0.
         12    1    3    3    0    0  0.78097415755E+01  0.15789673178E+02  0.32333784792E+02  0.36820910928E+02  0.00000000000E+00 0. -1.
         11    1    4    4    0    0  0.64324605690E+01  0.48642392740E+01 -0.11418697105E+02  0.13979414027E+02  0.51100000000E-03 0. -1.
        -11    1    4    4    0    0  0.18221534894E+01 -0.24644393249E+01  0.43722923842E+01  0.53395360734E+01  0.51100000000E-03 0.  1.
        -12    1    4    4    0    0 -0.16064355634E+02 -0.18189473127E+02 -0.25287380071E+02  0.35048138972E+02  0.00000000000E+00 0.  1.
</event>
<event>
 8    1  0.2497772E-006  0.9118800E+02  0.7816164E-02  0.1184000E+00
        -11   -1    0    0    0    0  0.00000000000E+00  0.00000000000E+00  0.45593999997E+02  0.45594000000E+02  0.51100000000E-03 0.  1.
         11   -1    0    0    0    0 -0.00000000000E+00 -0.00000000000E+00 -0.45593999997E+02  0.45594000000E+02  0.51100000000E-03 0. -1.
         23    2    1    2    0    0 -0.17763568394E-14  0.00000000000E+00 -0.49960036108E-14  0.91188000000E+02  0.91188000000E+02 0.  0.
    9900012    2    3    3    0    0  0.13501029429E+02 -0.34243836467E+02  0.92805733427E+00  0.54367089881E+02  0.40000013001E+02 0.  0.
        -12    1    3    3    0    0 -0.13501029429E+02  0.34243836467E+02 -0.92805733427E+00  0.36820910119E+02  0.00000000000E+00 0.  1.
         11    1    4    4    0    0  0.13893067815E+02 -0.11652848318E+02  0.67429528947E+01  0.19346152621E+02  0.51100000000E-03 0.  1.
        -11    1    4    4    0    0 -0.43702530556E+01 -0.16780647733E+02 -0.15356183514E+02  0.23162504668E+02  0.51100000000E-03 0. -1.
        -12    1    4    4    0    0  0.39782146688E+01 -0.58103404157E+01  0.95412879539E+01  0.11858432591E+02  0.00000000000E+00 0.  1.
</event>
<event>
 8    1  0.2497772E-006  0.9118800E+02  0.7816164E-02  0.1184000E+00
        -11   -1    0    0    0    0  0.00000000000E+00  0.00000000000E+00  0.45593999997E+02  0.45594000000E+02  0.51100000000E-03 0.  1.
         11   -1    0    0    0    0 -0.00000000000E+00 -0.00000000000E+00 -0.45593999997E+02  0.45594000000E+02  0.51100000000E-03 0. -1.
         23    2    1    2    0    0 -0.77715611724E-15 -0.17763568394E-14  0.00000000000E+00  0.91188000000E+02  0.91188000000E+02 0.  0.
    9900012    2    3    3    0    0 -0.82150977405E+00 -0.11613925367E+02  0.34931661982E+02  0.54367093580E+02  0.40000021435E+02 0.  0.
         12    1    3    3    0    0  0.82150977405E+00  0.11613925367E+02 -0.34931661982E+02  0.36820906420E+02  0.00000000000E+00 0. -1.
         11    1    4    4    0    0 -0.89392775653E+01 -0.13953714180E+02  0.95149470315E+01  0.19108925666E+02  0.51100000000E-03 0. -1.
        -11    1    4    4    0    0  0.14097864736E+02 -0.30190260333E+01  0.22484158843E+02  0.26709580818E+02  0.51100000000E-03 0.  1.
        -12    1    4    4    0    0 -0.59800969451E+01  0.53588148465E+01  0.29325561073E+01  0.85485870970E+01  0.00000000000E+00 0.  1.
</event>
<event>
 8    1  0.2497772E-006  0.9118800E+02  0.7816164E-02  0.1184000E+00
        -11   -1    0    0    0    0  0.00000000000E+00  0.00000000000E+00  0.45593999997E+02  0.45594000000E+02  0.51100000000E-03 0.  1.
         11   -1    0    0    0    0 -0.00000000000E+00 -0.00000000000E+00 -0.45593999997E+02  0.45594000000E+02  0.51100000000E-03 0. -1.
         23    2    1    2    0    0 -0.17763568394E-14 -0.55511151231E-16 -0.14210854715E-13  0.91188000000E+02  0.91188000000E+02 0.  0.
    9900012    2    3    3    0    0  0.90191131566E+01 -0.26827563181E+00 -0.35698218048E+02  0.54367093633E+02  0.40000021554E+02 0.  0.
        -12    1    3    3    0    0 -0.90191131566E+01  0.26827563181E+00  0.35698218048E+02  0.36820906367E+02  0.00000000000E+00 0.  1.
         11    1    4    4    0    0  0.19344710101E+01  0.39140920352E+01 -0.47663534945E+00  0.43919786050E+01  0.51100000000E-03 0. -1.
        -11    1    4    4    0    0  0.14527873204E+02 -0.47380760707E+00 -0.79384021759E+00  0.14557258534E+02  0.51100000000E-03 0.  1.
        -12    1    4    4    0    0 -0.74432310573E+01 -0.37085600600E+01 -0.34427742481E+02  0.35417856494E+02  0.00000000000E+00 0.  1.
</event>
<event>
 8    1  0.2497772E-006  0.9118800E+02  0.7816164E-02  0.1184000E+00
        -11   -1    0    0    0    0  0.00000000000E+00  0.00000000000E+00  0.45593999997E+02  0.45594000000E+02  0.51100000000E-03 0.  1.
         11   -1    0    0    0    0 -0.00000000000E+00 -0.00000000000E+00 -0.45593999997E+02  0.45594000000E+02  0.51100000000E-03 0. -1.
         23    2    1    2    0    0 -0.44408920985E-15  0.00000000000E+00 -0.35527136788E-14  0.91188000000E+02  0.91188000000E+02 0.  0.
    9900012    2    3    3    0    0 -0.16856142706E+01 -0.20863200543E+02  0.30292963248E+02  0.54367108448E+02  0.40000055328E+02 0.  0.
         12    1    3    3    0    0  0.16856142706E+01  0.20863200543E+02 -0.30292963248E+02  0.36820891552E+02  0.00000000000E+00 0. -1.
         11    1    4    4    0    0 -0.18902631258E+01 -0.21744232765E+01 -0.26296481193E+01  0.39008025792E+01  0.51100000000E-03 0. -1.
        -11    1    4    4    0    0  0.47053705344E+01  0.87933685766E+01  0.12178704028E+02  0.15741177683E+02  0.51100000000E-03 0.  1.
        -12    1    4    4    0    0 -0.45007216793E+01 -0.27482145843E+02  0.20743907339E+02  0.34725128185E+02  0.00000000000E+00 0.  1.
</event>
<event>
 8    1  0.2497772E-006  0.9118800E+02  0.7816164E-02  0.1184000E+00
        -11   -1    0    0    0    0  0.00000000000E+00  0.00000000000E+00  0.45593999997E+02  0.45594000000E+02  0.51100000000E-03 0. -1.
         11   -1    0    0    0    0 -0.00000000000E+00 -0.00000000000E+00 -0.45593999997E+02  0.45594000000E+02  0.51100000000E-03 0.  1.
         23    2    1    2    0    0  0.00000000000E+00  0.35527136788E-14  0.35527136788E-14  0.91188000000E+02  0.91188000000E+02 0.  0.
    9900012    2    3    3    0    0  0.20870168351E+02 -0.22043008251E+02 -0.20840382991E+02  0.54367086066E+02  0.40000004304E+02 0.  0.
         12    1    3    3    0    0 -0.20870168351E+02  0.22043008251E+02  0.20840382991E+02  0.36820913934E+02  0.00000000000E+00 0. -1.
         11    1    4    4    0    0 -0.50115744121E+00 -0.87111465127E+01  0.96728426633E+01  0.13026861395E+02  0.51100000000E-03 0. -1.
        -11    1    4    4    0    0  0.50746247269E+01 -0.42462294840E+01 -0.14033638290E+01  0.67640011271E+01  0.51100000000E-03 0.  1.
        -12    1    4    4    0    0  0.16296701066E+02 -0.90856322543E+01 -0.29109861825E+02  0.34576223544E+02  0.00000000000E+00 0.  1.
</event>
<event>
 8    1  0.2497772E-006  0.9118800E+02  0.7816164E-02  0.1184000E+00
        -11   -1    0    0    0    0  0.00000000000E+00  0.00000000000E+00  0.45593999997E+02  0.45594000000E+02  0.51100000000E-03 0. -1.
         11   -1    0    0    0    0 -0.00000000000E+00 -0.00000000000E+00 -0.45593999997E+02  0.45594000000E+02  0.51100000000E-03 0.  1.
         23    2    1    2    0    0  0.44408920985E-15  0.35527136788E-14  0.71054273576E-14  0.91188000000E+02  0.91188000000E+02 0.  0.
    9900012    2    3    3    0    0 -0.35799551055E+01  0.14554380938E+02  0.33632553879E+02  0.54366881556E+02  0.39999538081E+02 0.  0.
        -12    1    3    3    0    0  0.35799551055E+01 -0.14554380938E+02 -0.33632553879E+02  0.36821118444E+02  0.00000000000E+00 0.  1.
         11    1    4    4    0    0  0.63697973912E+01  0.13131160299E+02  0.28737577829E+02  0.32231197144E+02  0.51100000000E-03 0. -1.
        -11    1    4    4    0    0 -0.75321787199E+01 -0.27097738839E+01  0.11479164682E+02  0.13994563689E+02  0.51100000000E-03 0.  1.
        -12    1    4    4    0    0 -0.24175737768E+01  0.41329945225E+01 -0.65841886322E+01  0.81411207234E+01  0.00000000000E+00 0.  1.
</event>
<event>
 8    1  0.2497772E-006  0.9118800E+02  0.7816164E-02  0.1184000E+00
        -11   -1    0    0    0    0  0.00000000000E+00  0.00000000000E+00  0.45593999997E+02  0.45594000000E+02  0.51100000000E-03 0. -1.
         11   -1    0    0    0    0 -0.00000000000E+00 -0.00000000000E+00 -0.45593999997E+02  0.45594000000E+02  0.51100000000E-03 0.  1.
         23    2    1    2    0    0  0.00000000000E+00  0.71054273576E-14  0.00000000000E+00  0.91188000000E+02  0.91188000000E+02 0.  0.
    9900012    2    3    3    0    0  0.77405577795E+01  0.32238931486E+02 -0.16016072392E+02  0.54367088646E+02  0.40000010186E+02 0.  0.
         12    1    3    3    0    0 -0.77405577795E+01 -0.32238931486E+02  0.16016072392E+02  0.36820911354E+02  0.00000000000E+00 0. -1.
         11    1    4    4    0    0  0.12602450099E+01 -0.53090463786E+01  0.19382718534E+01  0.57906035069E+01  0.51100000000E-03 0. -1.
        -11    1    4    4    0    0  0.10550210210E+02  0.16831944771E+02  0.14282501069E+01  0.19916355060E+02  0.51100000000E-03 0.  1.
        -12    1    4    4    0    0 -0.40698974409E+01  0.20716033093E+02 -0.19382594352E+02  0.28660130079E+02  0.00000000000E+00 0.  1.
</event>
<event>
 8    1  0.2497772E-006  0.9118800E+02  0.7816164E-02  0.1184000E+00
        -11   -1    0    0    0    0  0.00000000000E+00  0.00000000000E+00  0.45593999997E+02  0.45594000000E+02  0.51100000000E-03 0.  1.
         11   -1    0    0    0    0 -0.00000000000E+00 -0.00000000000E+00 -0.45593999997E+02  0.45594000000E+02  0.51100000000E-03 0. -1.
         23    2    1    2    0    0  0.00000000000E+00  0.00000000000E+00  0.44408920985E-15  0.91188000000E+02  0.91188000000E+02 0.  0.
    9900012    2    3    3    0    0 -0.32938732845E+02 -0.15965144615E+02 -0.39919087396E+01  0.54367064387E+02  0.39999954884E+02 0.  0.
        -12    1    3    3    0    0  0.32938732845E+02  0.15965144615E+02  0.39919087396E+01  0.36820935613E+02  0.00000000000E+00 0.  1.
         11    1    4    4    0    0 -0.31731026784E+01 -0.23405585680E+01  0.50940772234E+01  0.64417713431E+01  0.51100000000E-03 0. -1.
        -11    1    4    4    0    0 -0.41222865716E+01 -0.49365625205E+01  0.11995401965E+02  0.13610751804E+02  0.51100000000E-03 0.  1.
         12    1    4    4    0    0 -0.25643343595E+02 -0.86880235263E+01 -0.21081387928E+02  0.34314541240E+02  0.00000000000E+00 0. -1.
</event>
<event>
 8    1  0.2497772E-006  0.9118800E+02  0.7816164E-02  0.1184000E+00
        -11   -1    0    0    0    0  0.00000000000E+00  0.00000000000E+00  0.45593999997E+02  0.45594000000E+02  0.51100000000E-03 0.  1.
         11   -1    0    0    0    0 -0.00000000000E+00 -0.00000000000E+00 -0.45593999997E+02  0.45594000000E+02  0.51100000000E-03 0. -1.
         23    2    1    2    0    0  0.35527136788E-14 -0.88817841970E-15  0.35527136788E-14  0.91188000000E+02  0.91188000000E+02 0.  0.
    9900012    2    3    3    0    0 -0.22832909982E+02  0.68060307045E+01 -0.28073409519E+02  0.54367079938E+02  0.39999990334E+02 0.  0.
        -12    1    3    3    0    0  0.22832909982E+02 -0.68060307045E+01  0.28073409519E+02  0.36820920062E+02  0.00000000000E+00 0.  1.
         11    1    4    4    0    0 -0.18260715384E+02  0.30762722117E+01 -0.10439679978E+02  0.21258036019E+02  0.51100000000E-03 0. -1.
        -11    1    4    4    0    0 -0.94049291111E+01 -0.32449250242E+01  0.33313280858E+01  0.10491900546E+02  0.51100000000E-03 0.  1.
         12    1    4    4    0    0  0.48327345131E+01  0.69746835170E+01 -0.20965057627E+02  0.22617143373E+02  0.00000000000E+00 0. -1.
</event>
<event>
 8    1  0.2497772E-006  0.9118800E+02  0.7816164E-02  0.1184000E+00
        -11   -1    0    0    0    0  0.00000000000E+00  0.00000000000E+00  0.45593999997E+02  0.45594000000E+02  0.51100000000E-03 0.  1.
         11   -1    0    0    0    0 -0.00000000000E+00 -0.00000000000E+00 -0.45593999997E+02  0.45594000000E+02  0.51100000000E-03 0. -1.
         23    2    1    2    0    0  0.00000000000E+00  0.00000000000E+00  0.00000000000E+00  0.91188000000E+02  0.91188000000E+02 0.  0.
    9900012    2    3    3    0    0  0.40276613860E+01 -0.74587437156E+01  0.35831901071E+02  0.54367081374E+02  0.39999993609E+02 0.  0.
         12    1    3    3    0    0 -0.40276613860E+01  0.74587437156E+01 -0.35831901071E+02  0.36820918626E+02  0.00000000000E+00 0. -1.
         11    1    4    4    0    0  0.10390959179E+02 -0.66478922940E+01 -0.30727594368E+01  0.12712527500E+02  0.51100000000E-03 0. -1.
        -11    1    4    4    0    0 -0.19112747329E+01 -0.36367990005E+01  0.34612151296E+02  0.34855132989E+02  0.51100000000E-03 0.  1.
         12    1    4    4    0    0 -0.44520230603E+01  0.28259475789E+01  0.42925092123E+01  0.67994208861E+01  0.00000000000E+00 0. -1.
</event>
<event>
 8    1  0.2497772E-006  0.9118800E+02  0.7816164E-02  0.1184000E+00
        -11   -1    0    0    0    0  0.00000000000E+00  0.00000000000E+00  0.45593999997E+02  0.45594000000E+02  0.51100000000E-03 0.  1.
         11   -1    0    0    0    0 -0.00000000000E+00 -0.00000000000E+00 -0.45593999997E+02  0.45594000000E+02  0.51100000000E-03 0. -1.
         23    2    1    2    0    0  0.00000000000E+00  0.00000000000E+00  0.88817841970E-15  0.91188000000E+02  0.91188000000E+02 0.  0.
    9900012    2    3    3    0    0  0.21126887281E+02  0.29508610164E+02 -0.62190389166E+01  0.54367083593E+02  0.39999998667E+02 0.  0.
        -12    1    3    3    0    0 -0.21126887281E+02 -0.29508610164E+02  0.62190389166E+01  0.36820916407E+02  0.00000000000E+00 0.  1.
         11    1    4    4    0    0 -0.49693189590E+00  0.39011343216E+01  0.26647831378E+01  0.47504588975E+01  0.51100000000E-03 0. -1.
        -11    1    4    4    0    0 -0.59740346368E+01 -0.33488479058E+01  0.35675788310E+01  0.77221429095E+01  0.51100000000E-03 0.  1.
         12    1    4    4    0    0  0.27597853813E+02  0.28956323748E+02 -0.12451400885E+02  0.41894481786E+02  0.00000000000E+00 0. -1.
</event>
<event>
 8    1  0.2497772E-006  0.9118800E+02  0.7816164E-02  0.1184000E+00
        -11   -1    0    0    0    0  0.00000000000E+00  0.00000000000E+00  0.45593999997E+02  0.45594000000E+02  0.51100000000E-03 0.  1.
         11   -1    0    0    0    0 -0.00000000000E+00 -0.00000000000E+00 -0.45593999997E+02  0.45594000000E+02  0.51100000000E-03 0. -1.
         23    2    1    2    0    0 -0.17763568394E-14  0.35527136788E-14  0.00000000000E+00  0.91188000000E+02  0.91188000000E+02 0.  0.
    9900012    2    3    3    0    0 -0.85317213147E+01 -0.21256730439E+02  0.28829471943E+02  0.54367118560E+02  0.40000078381E+02 0.  0.
         12    1    3    3    0    0  0.85317213147E+01  0.21256730439E+02 -0.28829471943E+02  0.36820881440E+02  0.00000000000E+00 0. -1.
         11    1    4    4    0    0  0.89025927603E+01 -0.56696105469E+01  0.12924616423E+02  0.16686711826E+02  0.51100000000E-03 0. -1.
        -11    1    4    4    0    0  0.45348569630E+01 -0.58012652054E+01 -0.20775252858E+01  0.76508638226E+01  0.51100000000E-03 0.  1.
         12    1    4    4    0    0 -0.21969171038E+02 -0.97858546865E+01  0.17982380806E+02  0.30029542912E+02  0.00000000000E+00 0. -1.
</event>
<event>
 8    1  0.2497772E-006  0.9118800E+02  0.7816164E-02  0.1184000E+00
        -11   -1    0    0    0    0  0.00000000000E+00  0.00000000000E+00  0.45593999997E+02  0.45594000000E+02  0.51100000000E-03 0. -1.
         11   -1    0    0    0    0 -0.00000000000E+00 -0.00000000000E+00 -0.45593999997E+02  0.45594000000E+02  0.51100000000E-03 0.  1.
         23    2    1    2    0    0  0.17763568394E-14  0.88817841970E-15  0.00000000000E+00  0.91188000000E+02  0.91188000000E+02 0.  0.
    9900012    2    3    3    0    0  0.13196923026E+02  0.41307902336E+01 -0.34125626523E+02  0.54367074008E+02  0.39999976816E+02 0.  0.
         12    1    3    3    0    0 -0.13196923026E+02 -0.41307902336E+01  0.34125626523E+02  0.36820925992E+02  0.00000000000E+00 0. -1.
         11    1    4    4    0    0 -0.32076297777E+01  0.48579331459E+01 -0.24773836832E+01  0.63265973015E+01  0.51100000000E-03 0. -1.
        -11    1    4    4    0    0  0.14436699998E+02  0.14032598563E+02 -0.23917000954E+02  0.31262678455E+02  0.51100000000E-03 0.  1.
         12    1    4    4    0    0  0.19678528056E+01 -0.14759741475E+02 -0.77312418860E+01  0.16777798252E+02  0.00000000000E+00 0. -1.
</event>
<event>
 8    1  0.2497772E-006  0.9118800E+02  0.7816164E-02  0.1184000E+00
        -11   -1    0    0    0    0  0.00000000000E+00  0.00000000000E+00  0.45593999997E+02  0.45594000000E+02  0.51100000000E-03 0. -1.
         11   -1    0    0    0    0 -0.00000000000E+00 -0.00000000000E+00 -0.45593999997E+02  0.45594000000E+02  0.51100000000E-03 0.  1.
         23    2    1    2    0    0  0.00000000000E+00  0.17763568394E-14 -0.35527136788E-14  0.91188000000E+02  0.91188000000E+02 0.  0.
    9900012    2    3    3    0    0  0.28117097552E+02 -0.52309979363E+01  0.23191535368E+02  0.54367057224E+02  0.39999938554E+02 0.  0.
        -12    1    3    3    0    0 -0.28117097552E+02  0.52309979363E+01 -0.23191535368E+02  0.36820942776E+02  0.00000000000E+00 0.  1.
         11    1    4    4    0    0  0.22196700767E+02 -0.15157300784E+02  0.63837169536E+01  0.27625877984E+02  0.51100000000E-03 0. -1.
        -11    1    4    4    0    0  0.60691455371E+01 -0.24203914757E+01  0.88786353414E+00  0.65940218655E+01  0.51100000000E-03 0.  1.
        -12    1    4    4    0    0 -0.14874875140E+00  0.12346694324E+02  0.15919954880E+02  0.20147157375E+02  0.00000000000E+00 0.  1.
</event>
<event>
 8    1  0.2497772E-006  0.9118800E+02  0.7816164E-02  0.1184000E+00
        -11   -1    0    0    0    0  0.00000000000E+00  0.00000000000E+00  0.45593999997E+02  0.45594000000E+02  0.51100000000E-03 0.  1.
         11   -1    0    0    0    0 -0.00000000000E+00 -0.00000000000E+00 -0.45593999997E+02  0.45594000000E+02  0.51100000000E-03 0. -1.
         23    2    1    2    0    0  0.16653345369E-14  0.35527136788E-14  0.35527136788E-14  0.91188000000E+02  0.91188000000E+02 0.  0.
    9900012    2    3    3    0    0  0.97599453933E+00  0.22449660242E+02  0.29169201124E+02  0.54367053454E+02  0.39999929960E+02 0.  0.
         12    1    3    3    0    0 -0.97599453933E+00 -0.22449660242E+02 -0.29169201124E+02  0.36820946546E+02  0.00000000000E+00 0. -1.
         11    1    4    4    0    0  0.13792695442E+02  0.14360810386E+02  0.34555703803E+01  0.20209212983E+02  0.51100000000E-03 0. -1.
        -11    1    4    4    0    0  0.83288120868E+00  0.20605268474E+01  0.16439566514E+02  0.16589117199E+02  0.51100000000E-03 0.  1.
         12    1    4    4    0    0 -0.13649582111E+02  0.60283230086E+01  0.92740642293E+01  0.17568723273E+02  0.00000000000E+00 0. -1.
</event>
<event>
 8    1  0.2497772E-006  0.9118800E+02  0.7816164E-02  0.1184000E+00
        -11   -1    0    0    0    0  0.00000000000E+00  0.00000000000E+00  0.45593999997E+02  0.45594000000E+02  0.51100000000E-03 0.  1.
         11   -1    0    0    0    0 -0.00000000000E+00 -0.00000000000E+00 -0.45593999997E+02  0.45594000000E+02  0.51100000000E-03 0. -1.
         23    2    1    2    0    0  0.00000000000E+00  0.00000000000E+00  0.00000000000E+00  0.91188000000E+02  0.91188000000E+02 0.  0.
    9900012    2    3    3    0    0 -0.24478025149E+02 -0.16697199735E+02  0.21858895293E+02  0.54367061695E+02  0.39999948747E+02 0.  0.
         12    1    3    3    0    0  0.24478025149E+02  0.16697199735E+02 -0.21858895293E+02  0.36820938305E+02  0.00000000000E+00 0. -1.
         11    1    4    4    0    0 -0.10800101005E+02  0.10263502835E+02  0.17501219490E+02  0.22984219718E+02  0.51100000000E-03 0. -1.
        -11    1    4    4    0    0 -0.47028790206E+01 -0.11657772137E+02  0.52427822024E+01  0.13620113353E+02  0.51100000000E-03 0.  1.
         12    1    4    4    0    0 -0.89750451235E+01 -0.15302930433E+02 -0.88510639967E+00  0.17762728624E+02  0.00000000000E+00 0. -1.
</event>
<event>
 8    1  0.2497772E-006  0.9118800E+02  0.7816164E-02  0.1184000E+00
        -11   -1    0    0    0    0  0.00000000000E+00  0.00000000000E+00  0.45593999997E+02  0.45594000000E+02  0.51100000000E-03 0. -1.
         11   -1    0    0    0    0 -0.00000000000E+00 -0.00000000000E+00 -0.45593999997E+02  0.45594000000E+02  0.51100000000E-03 0.  1.
         23    2    1    2    0    0  0.00000000000E+00  0.00000000000E+00  0.71054273576E-14  0.91188000000E+02  0.91188000000E+02 0.  0.
    9900012    2    3    3    0    0 -0.12660865862E+02 -0.27656379883E+01 -0.34464949487E+02  0.54367095326E+02  0.40000025416E+02 0.  0.
         12    1    3    3    0    0  0.12660865862E+02  0.27656379883E+01  0.34464949487E+02  0.36820904674E+02  0.00000000000E+00 0. -1.
         11    1    4    4    0    0  0.70185639142E+00 -0.39953632976E+01  0.48731560666E+01  0.63405978098E+01  0.51100000000E-03 0. -1.
        -11    1    4    4    0    0  0.54025739959E+01 -0.54073225088E+01 -0.10609554568E+02  0.13076298822E+02  0.51100000000E-03 0.  1.
         12    1    4    4    0    0 -0.18765296249E+02  0.66370478181E+01 -0.28728550985E+02  0.34950198694E+02  0.00000000000E+00 0. -1.
</event>
<event>
 8    1  0.2497772E-006  0.9118800E+02  0.7816164E-02  0.1184000E+00
        -11   -1    0    0    0    0  0.00000000000E+00  0.00000000000E+00  0.45593999997E+02  0.45594000000E+02  0.51100000000E-03 0. -1.
         11   -1    0    0    0    0 -0.00000000000E+00 -0.00000000000E+00 -0.45593999997E+02  0.45594000000E+02  0.51100000000E-03 0.  1.
         23    2    1    2    0    0  0.00000000000E+00  0.35527136788E-14 -0.35527136788E-14  0.91188000000E+02  0.91188000000E+02 0.  0.
    9900012    2    3    3    0    0  0.86598504563E+01 -0.24893182226E+02  0.25712173536E+02  0.54367090190E+02  0.40000013707E+02 0.  0.
        -12    1    3    3    0    0 -0.86598504563E+01  0.24893182226E+02 -0.25712173536E+02  0.36820909810E+02  0.00000000000E+00 0.  1.
         11    1    4    4    0    0  0.20663005481E+02 -0.50146109086E+01  0.12259982438E+02  0.24544109022E+02  0.51100000000E-03 0. -1.
        -11    1    4    4    0    0 -0.12204000027E+02 -0.17491649141E+02  0.62384149818E+01  0.22221908741E+02  0.51100000000E-03 0.  1.
         12    1    4    4    0    0  0.20084500273E+00 -0.23869221762E+01  0.72137761162E+01  0.76010724273E+01  0.00000000000E+00 0. -1.
</event>
<event>
 8    1  0.2497772E-006  0.9118800E+02  0.7816164E-02  0.1184000E+00
        -11   -1    0    0    0    0  0.00000000000E+00  0.00000000000E+00  0.45593999997E+02  0.45594000000E+02  0.51100000000E-03 0. -1.
         11   -1    0    0    0    0 -0.00000000000E+00 -0.00000000000E+00 -0.45593999997E+02  0.45594000000E+02  0.51100000000E-03 0.  1.
         23    2    1    2    0    0  0.00000000000E+00  0.00000000000E+00  0.88817841970E-15  0.91188000000E+02  0.91188000000E+02 0.  0.
    9900012    2    3    3    0    0  0.32160142015E+02  0.17816688009E+02  0.20178052131E+01  0.54367073289E+02  0.39999975176E+02 0.  0.
        -12    1    3    3    0    0 -0.32160142015E+02 -0.17816688009E+02 -0.20178052131E+01  0.36820926711E+02  0.00000000000E+00 0.  1.
         11    1    4    4    0    0  0.12642580928E+02  0.35112004067E+01 -0.82939975067E+01  0.15522685841E+02  0.51100000000E-03 0. -1.
        -11    1    4    4    0    0  0.17820931370E+02 -0.25503677498E+01 -0.16917778262E+01  0.18081816365E+02  0.51100000000E-03 0.  1.
         12    1    4    4    0    0  0.16966297159E+01  0.16855855352E+02  0.12003580546E+02  0.20762571083E+02  0.00000000000E+00 0. -1.
</event>
<event>
 8    1  0.2497772E-006  0.9118800E+02  0.7816164E-02  0.1184000E+00
        -11   -1    0    0    0    0  0.00000000000E+00  0.00000000000E+00  0.45593999997E+02  0.45594000000E+02  0.51100000000E-03 0.  1.
         11   -1    0    0    0    0 -0.00000000000E+00 -0.00000000000E+00 -0.45593999997E+02  0.45594000000E+02  0.51100000000E-03 0. -1.
         23    2    1    2    0    0  0.35527136788E-14 -0.17763568394E-14 -0.35527136788E-14  0.91188000000E+02  0.91188000000E+02 0.  0.
    9900012    2    3    3    0    0 -0.25964042008E+02  0.15545620770E+02 -0.20975845287E+02  0.54367029235E+02  0.39999874748E+02 0.  0.
        -12    1    3    3    0    0  0.25964042008E+02 -0.15545620770E+02  0.20975845287E+02  0.36820970765E+02  0.00000000000E+00 0.  1.
         11    1    4    4    0    0  0.19374032049E+01 -0.51846332089E+01 -0.19706591603E+01  0.58751553576E+01  0.51100000000E-03 0. -1.
        -11    1    4    4    0    0 -0.16138769055E+02  0.55453951612E+01  0.49675853892E+01  0.17773243344E+02  0.51100000000E-03 0.  1.
         12    1    4    4    0    0 -0.11762676158E+02  0.15184858818E+02 -0.23972771516E+02  0.30718630534E+02  0.00000000000E+00 0. -1.
</event>
<event>
 8    1  0.2497772E-006  0.9118800E+02  0.7816164E-02  0.1184000E+00
        -11   -1    0    0    0    0  0.00000000000E+00  0.00000000000E+00  0.45593999997E+02  0.45594000000E+02  0.51100000000E-03 0.  1.
         11   -1    0    0    0    0 -0.00000000000E+00 -0.00000000000E+00 -0.45593999997E+02  0.45594000000E+02  0.51100000000E-03 0. -1.
         23    2    1    2    0    0  0.35527136788E-14 -0.17763568394E-14  0.00000000000E+00  0.91188000000E+02  0.91188000000E+02 0.  0.
    9900012    2    3    3    0    0 -0.24036218793E+02  0.97178426443E+01  0.26145793399E+02  0.54367098436E+02  0.40000032505E+02 0.  0.
         12    1    3    3    0    0  0.24036218793E+02 -0.97178426443E+01 -0.26145793399E+02  0.36820901564E+02  0.00000000000E+00 0. -1.
         11    1    4    4    0    0 -0.56434902664E+01  0.59768894526E+01 -0.46647793802E+01  0.94515795951E+01  0.51100000000E-03 0. -1.
        -11    1    4    4    0    0 -0.95123449711E+01 -0.11556831576E+02  0.13242798402E+02  0.19985413999E+02  0.51100000000E-03 0.  1.
        -12    1    4    4    0    0 -0.88803835552E+01  0.15297784768E+02  0.17567774377E+02  0.24930104843E+02  0.00000000000E+00 0.  1.
</event>
<event>
 8    1  0.2497772E-006  0.9118800E+02  0.7816164E-02  0.1184000E+00
        -11   -1    0    0    0    0  0.00000000000E+00  0.00000000000E+00  0.45593999997E+02  0.45594000000E+02  0.51100000000E-03 0.  1.
         11   -1    0    0    0    0 -0.00000000000E+00 -0.00000000000E+00 -0.45593999997E+02  0.45594000000E+02  0.51100000000E-03 0. -1.
         23    2    1    2    0    0  0.00000000000E+00  0.17763568394E-14  0.00000000000E+00  0.91188000000E+02  0.91188000000E+02 0.  0.
    9900012    2    3    3    0    0 -0.21030433347E+01  0.15440499655E+02  0.33360866820E+02  0.54367092137E+02  0.40000018145E+02 0.  0.
         12    1    3    3    0    0  0.21030433347E+01 -0.15440499655E+02 -0.33360866820E+02  0.36820907863E+02  0.00000000000E+00 0. -1.
         11    1    4    4    0    0 -0.38699678790E+01  0.87145043509E+01  0.59351226236E+01  0.11231425479E+02  0.51100000000E-03 0. -1.
        -11    1    4    4    0    0 -0.10461835982E+02  0.15137411387E+02  0.13987598104E+02  0.23113721825E+02  0.51100000000E-03 0.  1.
        -12    1    4    4    0    0  0.12228760526E+02 -0.84114160831E+01  0.13438146092E+02  0.20021944834E+02  0.00000000000E+00 0.  1.
</event>
<event>
 8    1  0.2497772E-006  0.9118800E+02  0.7816164E-02  0.1184000E+00
        -11   -1    0    0    0    0  0.00000000000E+00  0.00000000000E+00  0.45593999997E+02  0.45594000000E+02  0.51100000000E-03 0. -1.
         11   -1    0    0    0    0 -0.00000000000E+00 -0.00000000000E+00 -0.45593999997E+02  0.45594000000E+02  0.51100000000E-03 0.  1.
         23    2    1    2    0    0  0.00000000000E+00  0.35527136788E-14  0.00000000000E+00  0.91188000000E+02  0.91188000000E+02 0.  0.
    9900012    2    3    3    0    0 -0.16656323843E+02 -0.13434606224E+02 -0.29964224004E+02  0.54367129715E+02  0.40000103812E+02 0.  0.
         12    1    3    3    0    0  0.16656323843E+02  0.13434606224E+02  0.29964224004E+02  0.36820870285E+02  0.00000000000E+00 0. -1.
         11    1    4    4    0    0 -0.19512372367E+01  0.69418714706E+01 -0.10402753672E+02  0.12657574431E+02  0.51100000000E-03 0. -1.
        -11    1    4    4    0    0  0.25376088916E+01  0.36578898023E+01 -0.94554232132E+01  0.10451059520E+02  0.51100000000E-03 0.  1.
        -12    1    4    4    0    0 -0.17242695498E+02 -0.24034367497E+02 -0.10106047119E+02  0.31258495764E+02  0.00000000000E+00 0.  1.
</event>
<event>
 8    1  0.2497772E-006  0.9118800E+02  0.7816164E-02  0.1184000E+00
        -11   -1    0    0    0    0  0.00000000000E+00  0.00000000000E+00  0.45593999997E+02  0.45594000000E+02  0.51100000000E-03 0. -1.
         11   -1    0    0    0    0 -0.00000000000E+00 -0.00000000000E+00 -0.45593999997E+02  0.45594000000E+02  0.51100000000E-03 0.  1.
         23    2    1    2    0    0 -0.71054273576E-14 -0.13322676296E-14  0.35527136788E-14  0.91188000000E+02  0.91188000000E+02 0.  0.
    9900012    2    3    3    0    0  0.32368730884E+02 -0.14906881406E+01 -0.17487775996E+02  0.54367092903E+02  0.40000019890E+02 0.  0.
        -12    1    3    3    0    0 -0.32368730884E+02  0.14906881406E+01  0.17487775996E+02  0.36820907097E+02  0.00000000000E+00 0.  1.
         11    1    4    4    0    0  0.13826139351E+02 -0.97378854734E+01 -0.22646526540E+02  0.28264000202E+02  0.51100000000E-03 0. -1.
        -11    1    4    4    0    0  0.80694185693E+01  0.98914192785E+01 -0.25214081365E+01  0.13012040218E+02  0.51100000000E-03 0.  1.
        -12    1    4    4    0    0  0.10473172964E+02 -0.16442219457E+01  0.76801586803E+01  0.13091052482E+02  0.00000000000E+00 0.  1.
</event>
<event>
 8    1  0.2497772E-006  0.9118800E+02  0.7816164E-02  0.1184000E+00
        -11   -1    0    0    0    0  0.00000000000E+00  0.00000000000E+00  0.45593999997E+02  0.45594000000E+02  0.51100000000E-03 0. -1.
         11   -1    0    0    0    0 -0.00000000000E+00 -0.00000000000E+00 -0.45593999997E+02  0.45594000000E+02  0.51100000000E-03 0.  1.
         23    2    1    2    0    0  0.35527136788E-14  0.71054273576E-14  0.00000000000E+00  0.91188000000E+02  0.91188000000E+02 0.  0.
    9900012    2    3    3    0    0 -0.20965279036E+02 -0.24825350924E+02 -0.17318670292E+02  0.54367118503E+02  0.40000078251E+02 0.  0.
         12    1    3    3    0    0  0.20965279036E+02  0.24825350924E+02  0.17318670292E+02  0.36820881497E+02  0.00000000000E+00 0. -1.
         11    1    4    4    0    0 -0.26418801256E+01  0.38861327496E+01  0.65641210475E+01  0.80727469756E+01  0.51100000000E-03 0. -1.
        -11    1    4    4    0    0 -0.16230196456E+02 -0.75097119298E+01 -0.73832446558E+01  0.19347541243E+02  0.51100000000E-03 0.  1.
        -12    1    4    4    0    0 -0.20932024548E+01 -0.21201771744E+02 -0.16499546683E+02  0.26946830284E+02  0.00000000000E+00 0.  1.
</event>
<event>
 8    1  0.2497772E-006  0.9118800E+02  0.7816164E-02  0.1184000E+00
        -11   -1    0    0    0    0  0.00000000000E+00  0.00000000000E+00  0.45593999997E+02  0.45594000000E+02  0.51100000000E-03 0.  1.
         11   -1    0    0    0    0 -0.00000000000E+00 -0.00000000000E+00 -0.45593999997E+02  0.45594000000E+02  0.51100000000E-03 0. -1.
         23    2    1    2    0    0  0.71054273576E-14 -0.88817841970E-15 -0.17763568394E-14  0.91188000000E+02  0.91188000000E+02 0.  0.
    9900012    2    3    3    0    0  0.35796893934E+02 -0.11339773633E+01 -0.85486629162E+01  0.54367039154E+02  0.39999897360E+02 0.  0.
        -12    1    3    3    0    0 -0.35796893934E+02  0.11339773633E+01  0.85486629162E+01  0.36820960846E+02  0.00000000000E+00 0.  1.
         11    1    4    4    0    0  0.52910011795E+01 -0.36346966338E+01 -0.16239007020E+01  0.66213870792E+01  0.51100000000E-03 0. -1.
        -11    1    4    4    0    0  0.26611549699E+02 -0.23831211478E+01  0.10901646644E+02  0.28856537277E+02  0.51100000000E-03 0.  1.
         12    1    4    4    0    0  0.38943430548E+01  0.48838404183E+01 -0.17826408858E+02  0.18889114798E+02  0.00000000000E+00 0. -1.
</event>
<event>
 8    1  0.2497772E-006  0.9118800E+02  0.7816164E-02  0.1184000E+00
        -11   -1    0    0    0    0  0.00000000000E+00  0.00000000000E+00  0.45593999997E+02  0.45594000000E+02  0.51100000000E-03 0.  1.
         11   -1    0    0    0    0 -0.00000000000E+00 -0.00000000000E+00 -0.45593999997E+02  0.45594000000E+02  0.51100000000E-03 0. -1.
         23    2    1    2    0    0 -0.35527136788E-14  0.35527136788E-14  0.00000000000E+00  0.91188000000E+02  0.91188000000E+02 0.  0.
    9900012    2    3    3    0    0  0.19936466575E+02 -0.19995900602E+02  0.23632199683E+02  0.54367087434E+02  0.40000007422E+02 0.  0.
         12    1    3    3    0    0 -0.19936466575E+02  0.19995900602E+02 -0.23632199683E+02  0.36820912566E+02  0.00000000000E+00 0. -1.
         11    1    4    4    0    0  0.19433133297E+02 -0.55193507080E+01  0.16000514789E+02  0.25770649502E+02  0.51100000000E-03 0. -1.
        -11    1    4    4    0    0 -0.96682352473E+00  0.59507698048E+01 -0.14379131665E+01  0.61979031562E+01  0.51100000000E-03 0.  1.
         12    1    4    4    0    0  0.14701568022E+01 -0.20427319699E+02  0.90695980599E+01  0.22398534775E+02  0.00000000000E+00 0. -1.
</event>
<event>
 8    1  0.2497772E-006  0.9118800E+02  0.7816164E-02  0.1184000E+00
        -11   -1    0    0    0    0  0.00000000000E+00  0.00000000000E+00  0.45593999997E+02  0.45594000000E+02  0.51100000000E-03 0.  1.
         11   -1    0    0    0    0 -0.00000000000E+00 -0.00000000000E+00 -0.45593999997E+02  0.45594000000E+02  0.51100000000E-03 0. -1.
         23    2    1    2    0    0  0.35527136788E-14  0.00000000000E+00  0.35527136788E-14  0.91188000000E+02  0.91188000000E+02 0.  0.
    9900012    2    3    3    0    0  0.27519626203E+02 -0.74724795751E+01  0.23293987187E+02  0.54367114399E+02  0.40000068896E+02 0.  0.
         12    1    3    3    0    0 -0.27519626203E+02  0.74724795751E+01 -0.23293987187E+02  0.36820885601E+02  0.00000000000E+00 0. -1.
         11    1    4    4    0    0  0.25968856029E+02 -0.66933696038E+01  0.15372298952E+02  0.30911005410E+02  0.51100000000E-03 0. -1.
        -11    1    4    4    0    0  0.45292814600E+01 -0.93310895466E-01  0.15041002651E+02  0.15708432719E+02  0.51100000000E-03 0.  1.
         12    1    4    4    0    0 -0.29785112864E+01 -0.68579907591E+00 -0.71193144155E+01  0.77476762712E+01  0.00000000000E+00 0. -1.
</event>
<event>
 8    1  0.2497772E-006  0.9118800E+02  0.7816164E-02  0.1184000E+00
        -11   -1    0    0    0    0  0.00000000000E+00  0.00000000000E+00  0.45593999997E+02  0.45594000000E+02  0.51100000000E-03 0. -1.
         11   -1    0    0    0    0 -0.00000000000E+00 -0.00000000000E+00 -0.45593999997E+02  0.45594000000E+02  0.51100000000E-03 0.  1.
         23    2    1    2    0    0  0.00000000000E+00 -0.35527136788E-14 -0.17763568394E-14  0.91188000000E+02  0.91188000000E+02 0.  0.
    9900012    2    3    3    0    0  0.20008339080E+02  0.30300565072E+02  0.61092048146E+01  0.54367078503E+02  0.39999987063E+02 0.  0.
        -12    1    3    3    0    0 -0.20008339080E+02 -0.30300565072E+02 -0.61092048146E+01  0.36820921497E+02  0.00000000000E+00 0.  1.
         11    1    4    4    0    0  0.10848817158E+02  0.28848276786E+02  0.18152284602E+02  0.35769055674E+02  0.51100000000E-03 0. -1.
        -11    1    4    4    0    0  0.22929147219E+01 -0.39650527501E+01 -0.13328854004E+01  0.47702919181E+01  0.51100000000E-03 0.  1.
         12    1    4    4    0    0  0.68666072006E+01  0.54173410360E+01 -0.10710194387E+02  0.13827730911E+02  0.00000000000E+00 0. -1.
</event>
<event>
 8    1  0.2497772E-006  0.9118800E+02  0.7816164E-02  0.1184000E+00
        -11   -1    0    0    0    0  0.00000000000E+00  0.00000000000E+00  0.45593999997E+02  0.45594000000E+02  0.51100000000E-03 0.  1.
         11   -1    0    0    0    0 -0.00000000000E+00 -0.00000000000E+00 -0.45593999997E+02  0.45594000000E+02  0.51100000000E-03 0. -1.
         23    2    1    2    0    0  0.00000000000E+00  0.00000000000E+00 -0.17763568394E-14  0.91188000000E+02  0.91188000000E+02 0.  0.
    9900012    2    3    3    0    0  0.25983408025E+02  0.21488837712E+02  0.14794307637E+02  0.54367093205E+02  0.40000020579E+02 0.  0.
         12    1    3    3    0    0 -0.25983408025E+02 -0.21488837712E+02 -0.14794307637E+02  0.36820906795E+02  0.00000000000E+00 0. -1.
         11    1    4    4    0    0  0.68291064338E+01  0.42880378037E+01  0.13605093763E+01  0.81777104935E+01  0.51100000000E-03 0. -1.
        -11    1    4    4    0    0  0.21918332109E+02  0.12817057471E+02  0.23672254787E+02  0.34714058991E+02  0.51100000000E-03 0.  1.
         12    1    4    4    0    0 -0.27640305179E+01  0.43837424372E+01 -0.10238456526E+02  0.11475323721E+02  0.00000000000E+00 0. -1.
</event>
<event>
 8    1  0.2497772E-006  0.9118800E+02  0.7816164E-02  0.1184000E+00
        -11   -1    0    0    0    0  0.00000000000E+00  0.00000000000E+00  0.45593999997E+02  0.45594000000E+02  0.51100000000E-03 0.  1.
         11   -1    0    0    0    0 -0.00000000000E+00 -0.00000000000E+00 -0.45593999997E+02  0.45594000000E+02  0.51100000000E-03 0. -1.
         23    2    1    2    0    0  0.00000000000E+00  0.35527136788E-14  0.35527136788E-14  0.91188000000E+02  0.91188000000E+02 0.  0.
    9900012    2    3    3    0    0  0.17301729349E+02 -0.25097342386E+02 -0.20653167205E+02  0.54367085442E+02  0.40000002882E+02 0.  0.
        -12    1    3    3    0    0 -0.17301729349E+02  0.25097342386E+02  0.20653167205E+02  0.36820914558E+02  0.00000000000E+00 0.  1.
         11    1    4    4    0    0  0.19404223339E+02 -0.13285477810E+02  0.26806304309E+01  0.23668831484E+02  0.51100000000E-03 0. -1.
        -11    1    4    4    0    0 -0.16054962019E+01 -0.18197755217E+01  0.21993315456E+01  0.32750970233E+01  0.51100000000E-03 0.  1.
         12    1    4    4    0    0 -0.49699778841E+00 -0.99920890540E+01 -0.25533129182E+02  0.27423156935E+02  0.00000000000E+00 0. -1.
</event>
<event>
 8    1  0.2497772E-006  0.9118800E+02  0.7816164E-02  0.1184000E+00
        -11   -1    0    0    0    0  0.00000000000E+00  0.00000000000E+00  0.45593999997E+02  0.45594000000E+02  0.51100000000E-03 0. -1.
         11   -1    0    0    0    0 -0.00000000000E+00 -0.00000000000E+00 -0.45593999997E+02  0.45594000000E+02  0.51100000000E-03 0.  1.
         23    2    1    2    0    0  0.35527136788E-14 -0.17763568394E-14  0.00000000000E+00  0.91188000000E+02  0.91188000000E+02 0.  0.
    9900012    2    3    3    0    0 -0.21468406947E+02  0.90171199141E+01  0.28523258945E+02  0.54367119385E+02  0.40000080263E+02 0.  0.
        -12    1    3    3    0    0  0.21468406947E+02 -0.90171199141E+01 -0.28523258945E+02  0.36820880615E+02  0.00000000000E+00 0.  1.
         11    1    4    4    0    0 -0.10971204793E+02  0.73406063817E+01  0.32579987881E+02  0.35152630730E+02  0.51100000000E-03 0. -1.
        -11    1    4    4    0    0 -0.30315662056E+01 -0.14159088635E+01 -0.90955404451E+01  0.96914419886E+01  0.51100000000E-03 0.  1.
        -12    1    4    4    0    0 -0.74656359485E+01  0.30924223958E+01  0.50388115095E+01  0.95230466667E+01  0.00000000000E+00 0.  1.
</event>
<event>
 8    1  0.2497772E-006  0.9118800E+02  0.7816164E-02  0.1184000E+00
        -11   -1    0    0    0    0  0.00000000000E+00  0.00000000000E+00  0.45593999997E+02  0.45594000000E+02  0.51100000000E-03 0.  1.
         11   -1    0    0    0    0 -0.00000000000E+00 -0.00000000000E+00 -0.45593999997E+02  0.45594000000E+02  0.51100000000E-03 0. -1.
         23    2    1    2    0    0 -0.71054273576E-14  0.24424906542E-14 -0.17763568394E-14  0.91188000000E+02  0.91188000000E+02 0.  0.
    9900012    2    3    3    0    0 -0.36610983036E+02 -0.13121193149E+01 -0.37005165537E+01  0.54367088024E+02  0.40000008769E+02 0.  0.
         12    1    3    3    0    0  0.36610983036E+02  0.13121193149E+01  0.37005165537E+01  0.36820911976E+02  0.00000000000E+00 0. -1.
         11    1    4    4    0    0  0.15779077243E+01  0.34914976621E+01 -0.24991555309E+01  0.45745084260E+01  0.51100000000E-03 0. -1.
        -11    1    4    4    0    0 -0.33063171146E+02 -0.11069018051E+02  0.97218327967E+01  0.36196829696E+02  0.51100000000E-03 0.  1.
        -12    1    4    4    0    0 -0.51257196141E+01  0.62654010740E+01 -0.10923193819E+02  0.13595749902E+02  0.00000000000E+00 0.  1.
</event>
<event>
 8    1  0.2497772E-006  0.9118800E+02  0.7816164E-02  0.1184000E+00
        -11   -1    0    0    0    0  0.00000000000E+00  0.00000000000E+00  0.45593999997E+02  0.45594000000E+02  0.51100000000E-03 0.  1.
         11   -1    0    0    0    0 -0.00000000000E+00 -0.00000000000E+00 -0.45593999997E+02  0.45594000000E+02  0.51100000000E-03 0. -1.
         23    2    1    2    0    0 -0.35527136788E-14  0.35527136788E-14  0.00000000000E+00  0.91188000000E+02  0.91188000000E+02 0.  0.
    9900012    2    3    3    0    0  0.27357129400E+02  0.21257861486E+02  0.12468773838E+02  0.54367088482E+02  0.40000009813E+02 0.  0.
         12    1    3    3    0    0 -0.27357129400E+02 -0.21257861486E+02 -0.12468773838E+02  0.36820911518E+02  0.00000000000E+00 0. -1.
         11    1    4    4    0    0 -0.10713894148E+01 -0.10628044264E+01 -0.28862455492E+00  0.15364676767E+01  0.51100000000E-03 0. -1.
        -11    1    4    4    0    0  0.91474046728E+01 -0.31362002640E+01  0.18034066560E+02  0.20463096571E+02  0.51100000000E-03 0.  1.
         12    1    4    4    0    0  0.19281114142E+02  0.25456866177E+02 -0.52766681666E+01  0.32367524234E+02  0.00000000000E+00 0. -1.
</event>
<event>
 8    1  0.2497772E-006  0.9118800E+02  0.7816164E-02  0.1184000E+00
        -11   -1    0    0    0    0  0.00000000000E+00  0.00000000000E+00  0.45593999997E+02  0.45594000000E+02  0.51100000000E-03 0.  1.
         11   -1    0    0    0    0 -0.00000000000E+00 -0.00000000000E+00 -0.45593999997E+02  0.45594000000E+02  0.51100000000E-03 0. -1.
         23    2    1    2    0    0  0.17763568394E-14  0.00000000000E+00  0.00000000000E+00  0.91188000000E+02  0.91188000000E+02 0.  0.
    9900012    2    3    3    0    0  0.11723876031E+02 -0.26360131005E+01  0.34804913223E+02  0.54367084494E+02  0.40000000720E+02 0.  0.
         12    1    3    3    0    0 -0.11723876031E+02  0.26360131005E+01 -0.34804913223E+02  0.36820915506E+02  0.00000000000E+00 0. -1.
         11    1    4    4    0    0  0.11329365521E+01 -0.28998922064E+01 -0.82523840110E+00  0.32208599348E+01  0.51100000000E-03 0. -1.
        -11    1    4    4    0    0  0.22218033764E+02 -0.62288185184E+00  0.31945352452E+02  0.38917021336E+02  0.51100000000E-03 0.  1.
        -12    1    4    4    0    0 -0.11627094286E+02  0.88676095773E+00  0.36847991727E+01  0.12229203223E+02  0.00000000000E+00 0.  1.
</event>
<event>
 8    1  0.2497772E-006  0.9118800E+02  0.7816164E-02  0.1184000E+00
        -11   -1    0    0    0    0  0.00000000000E+00  0.00000000000E+00  0.45593999997E+02  0.45594000000E+02  0.51100000000E-03 0.  1.
         11   -1    0    0    0    0 -0.00000000000E+00 -0.00000000000E+00 -0.45593999997E+02  0.45594000000E+02  0.51100000000E-03 0. -1.
         23    2    1    2    0    0  0.00000000000E+00 -0.44408920985E-15  0.00000000000E+00  0.91188000000E+02  0.91188000000E+02 0.  0.
    9900012    2    3    3    0    0 -0.26091548302E+02 -0.83353936737E+00  0.25967649160E+02  0.54367048307E+02  0.39999918225E+02 0.  0.
         12    1    3    3    0    0  0.26091548302E+02  0.83353936737E+00 -0.25967649160E+02  0.36820951693E+02  0.00000000000E+00 0. -1.
         11    1    4    4    0    0 -0.42993899075E+00  0.69764003708E+01 -0.79609254320E+01  0.10593929567E+02  0.51100000000E-03 0. -1.
        -11    1    4    4    0    0 -0.10734745173E+02 -0.63129339720E+01  0.18043993390E+02  0.21924269360E+02  0.51100000000E-03 0.  1.
         12    1    4    4    0    0 -0.14926864138E+02 -0.14970057662E+01  0.15884581202E+02  0.21848849380E+02  0.00000000000E+00 0. -1.
</event>
<event>
 8    1  0.2497772E-006  0.9118800E+02  0.7816164E-02  0.1184000E+00
        -11   -1    0    0    0    0  0.00000000000E+00  0.00000000000E+00  0.45593999997E+02  0.45594000000E+02  0.51100000000E-03 0. -1.
         11   -1    0    0    0    0 -0.00000000000E+00 -0.00000000000E+00 -0.45593999997E+02  0.45594000000E+02  0.51100000000E-03 0.  1.
         23    2    1    2    0    0  0.35527136788E-14  0.26645352591E-14 -0.35527136788E-14  0.91188000000E+02  0.91188000000E+02 0.  0.
    9900012    2    3    3    0    0  0.25644976095E+02  0.75484920539E+01 -0.25320662393E+02  0.54367075579E+02  0.39999980397E+02 0.  0.
         12    1    3    3    0    0 -0.25644976095E+02 -0.75484920539E+01  0.25320662393E+02  0.36820924421E+02  0.00000000000E+00 0. -1.
         11    1    4    4    0    0  0.16567046365E+02 -0.64572846131E+01 -0.49730886479E+01  0.18463346414E+02  0.51100000000E-03 0.  1.
        -11    1    4    4    0    0 -0.20710427639E+01 -0.22718992021E+01  0.36920945290E+01  0.48044048941E+01  0.51100000000E-03 0. -1.
        -12    1    4    4    0    0  0.11148972494E+02  0.16277675869E+02 -0.24039668274E+02  0.31099324271E+02  0.00000000000E+00 0.  1.
</event>
<event>
 8    1  0.2497772E-006  0.9118800E+02  0.7816164E-02  0.1184000E+00
        -11   -1    0    0    0    0  0.00000000000E+00  0.00000000000E+00  0.45593999997E+02  0.45594000000E+02  0.51100000000E-03 0.  1.
         11   -1    0    0    0    0 -0.00000000000E+00 -0.00000000000E+00 -0.45593999997E+02  0.45594000000E+02  0.51100000000E-03 0. -1.
         23    2    1    2    0    0 -0.35527136788E-14 -0.17763568394E-14  0.00000000000E+00  0.91188000000E+02  0.91188000000E+02 0.  0.
    9900012    2    3    3    0    0  0.26882972544E+02 -0.12553576142E+02 -0.21805634696E+02  0.54367188069E+02  0.40000236840E+02 0.  0.
        -12    1    3    3    0    0 -0.26882972544E+02  0.12553576142E+02  0.21805634696E+02  0.36820811931E+02  0.00000000000E+00 0.  1.
         11    1    4    4    0    0  0.95962676008E+01 -0.17952839693E+02 -0.51790315869E+01  0.21005122551E+02  0.51100000000E-03 0. -1.
        -11    1    4    4    0    0 -0.31983063586E+01 -0.41316822569E+01 -0.71637606716E+01  0.88667597834E+01  0.51100000000E-03 0.  1.
         12    1    4    4    0    0  0.20485011302E+02  0.95309458082E+01 -0.94628424374E+01  0.24495305735E+02  0.00000000000E+00 0. -1.
</event>
<event>
 8    1  0.2497772E-006  0.9118800E+02  0.7816164E-02  0.1184000E+00
        -11   -1    0    0    0    0  0.00000000000E+00  0.00000000000E+00  0.45593999997E+02  0.45594000000E+02  0.51100000000E-03 0.  1.
         11   -1    0    0    0    0 -0.00000000000E+00 -0.00000000000E+00 -0.45593999997E+02  0.45594000000E+02  0.51100000000E-03 0. -1.
         23    2    1    2    0    0  0.17763568394E-14  0.00000000000E+00  0.00000000000E+00  0.91188000000E+02  0.91188000000E+02 0.  0.
    9900012    2    3    3    0    0  0.33556449874E+01 -0.28353950080E+02 -0.23250228698E+02  0.54367082399E+02  0.39999995945E+02 0.  0.
         12    1    3    3    0    0 -0.33556449874E+01  0.28353950080E+02  0.23250228698E+02  0.36820917601E+02  0.00000000000E+00 0. -1.
         11    1    4    4    0    0 -0.81721802693E+01 -0.18792112854E+02 -0.65225963947E+01  0.21505169143E+02  0.51100000000E-03 0. -1.
        -11    1    4    4    0    0 -0.72683143212E+01 -0.52049295990E+01 -0.43843290003E+01  0.99570089006E+01  0.51100000000E-03 0.  1.
         12    1    4    4    0    0  0.18796139578E+02 -0.43569076271E+01 -0.12343303303E+02  0.22904904356E+02  0.00000000000E+00 0. -1.
</event>
<event>
 8    1  0.2497772E-006  0.9118800E+02  0.7816164E-02  0.1184000E+00
        -11   -1    0    0    0    0  0.00000000000E+00  0.00000000000E+00  0.45593999997E+02  0.45594000000E+02  0.51100000000E-03 0.  1.
         11   -1    0    0    0    0 -0.00000000000E+00 -0.00000000000E+00 -0.45593999997E+02  0.45594000000E+02  0.51100000000E-03 0. -1.
         23    2    1    2    0    0  0.88817841970E-15 -0.88817841970E-15  0.00000000000E+00  0.91188000000E+02  0.91188000000E+02 0.  0.
    9900012    2    3    3    0    0  0.12644450306E+01 -0.79567145500E+01 -0.35928697752E+02  0.54367089503E+02  0.40000012139E+02 0.  0.
        -12    1    3    3    0    0 -0.12644450306E+01  0.79567145500E+01  0.35928697752E+02  0.36820910497E+02  0.00000000000E+00 0.  1.
         11    1    4    4    0    0 -0.45907965344E+00 -0.15191784901E+02 -0.52013223419E+00  0.15207617184E+02  0.51100000000E-03 0.  1.
        -11    1    4    4    0    0  0.53639551212E+01  0.79831115299E+01 -0.33742834253E+02  0.35086763145E+02  0.51100000000E-03 0. -1.
        -12    1    4    4    0    0 -0.36404304372E+01 -0.74804117890E+00 -0.16657312647E+01  0.40727091744E+01  0.00000000000E+00 0.  1.
</event>
<event>
 8    1  0.2497772E-006  0.9118800E+02  0.7816164E-02  0.1184000E+00
        -11   -1    0    0    0    0  0.00000000000E+00  0.00000000000E+00  0.45593999997E+02  0.45594000000E+02  0.51100000000E-03 0. -1.
         11   -1    0    0    0    0 -0.00000000000E+00 -0.00000000000E+00 -0.45593999997E+02  0.45594000000E+02  0.51100000000E-03 0.  1.
         23    2    1    2    0    0  0.00000000000E+00 -0.66613381478E-15  0.00000000000E+00  0.91188000000E+02  0.91188000000E+02 0.  0.
    9900012    2    3    3    0    0 -0.72052216663E+01  0.18845221704E+01 -0.36059994043E+02  0.54366948774E+02  0.39999691318E+02 0.  0.
         12    1    3    3    0    0  0.72052216663E+01 -0.18845221704E+01  0.36059994043E+02  0.36821051226E+02  0.00000000000E+00 0. -1.
         11    1    4    4    0    0 -0.71196844503E+01  0.16037752436E+01 -0.89229031396E-01  0.72986275275E+01  0.51100000000E-03 0. -1.
        -11    1    4    4    0    0 -0.13280977648E+02  0.70174584155E+01 -0.22442738098E+02  0.27005658361E+02  0.51100000000E-03 0.  1.
        -12    1    4    4    0    0  0.13195440432E+02 -0.67367114887E+01 -0.13528026913E+02  0.20062662885E+02  0.00000000000E+00 0.  1.
</event>
<event>
 8    1  0.2497772E-006  0.9118800E+02  0.7816164E-02  0.1184000E+00
        -11   -1    0    0    0    0  0.00000000000E+00  0.00000000000E+00  0.45593999997E+02  0.45594000000E+02  0.51100000000E-03 0. -1.
         11   -1    0    0    0    0 -0.00000000000E+00 -0.00000000000E+00 -0.45593999997E+02  0.45594000000E+02  0.51100000000E-03 0.  1.
         23    2    1    2    0    0  0.00000000000E+00  0.35527136788E-14  0.66613381478E-15  0.91188000000E+02  0.91188000000E+02 0.  0.
    9900012    2    3    3    0    0 -0.21474466555E+02 -0.29873002038E+02  0.14937636952E+01  0.54367078032E+02  0.39999985989E+02 0.  0.
         12    1    3    3    0    0  0.21474466555E+02  0.29873002038E+02 -0.14937636952E+01  0.36820921968E+02  0.00000000000E+00 0. -1.
         11    1    4    4    0    0 -0.81755165348E+01 -0.11102672361E+02 -0.12264566275E+02  0.18453400509E+02  0.51100000000E-03 0. -1.
        -11    1    4    4    0    0 -0.65318115934E+01 -0.17600275788E+02 -0.18471836374E+01  0.18863890324E+02  0.51100000000E-03 0.  1.
         12    1    4    4    0    0 -0.67671384269E+01 -0.11700538890E+01  0.15605513607E+02  0.17049787199E+02  0.00000000000E+00 0. -1.
</event>
<event>
 8    1  0.2497772E-006  0.9118800E+02  0.7816164E-02  0.1184000E+00
        -11   -1    0    0    0    0  0.00000000000E+00  0.00000000000E+00  0.45593999997E+02  0.45594000000E+02  0.51100000000E-03 0.  1.
         11   -1    0    0    0    0 -0.00000000000E+00 -0.00000000000E+00 -0.45593999997E+02  0.45594000000E+02  0.51100000000E-03 0. -1.
         23    2    1    2    0    0  0.00000000000E+00  0.17763568394E-14  0.00000000000E+00  0.91188000000E+02  0.91188000000E+02 0.  0.
    9900012    2    3    3    0    0 -0.22121983440E+02  0.12957675796E+02 -0.26429063488E+02  0.54367096831E+02  0.40000028845E+02 0.  0.
        -12    1    3    3    0    0  0.22121983440E+02 -0.12957675796E+02  0.26429063488E+02  0.36820903169E+02  0.00000000000E+00 0.  1.
         11    1    4    4    0    0 -0.16975013481E+02  0.21248737910E+01 -0.42178828203E+01  0.17619781697E+02  0.51100000000E-03 0.  1.
        -11    1    4    4    0    0  0.46764271219E+01  0.16972385642E+02 -0.12005592022E+02  0.21308802995E+02  0.51100000000E-03 0. -1.
        -12    1    4    4    0    0 -0.98233970812E+01 -0.61395836375E+01 -0.10205588646E+02  0.15438512139E+02  0.00000000000E+00 0.  1.
</event>
<event>
 8    1  0.2497772E-006  0.9118800E+02  0.7816164E-02  0.1184000E+00
        -11   -1    0    0    0    0  0.00000000000E+00  0.00000000000E+00  0.45593999997E+02  0.45594000000E+02  0.51100000000E-03 0.  1.
         11   -1    0    0    0    0 -0.00000000000E+00 -0.00000000000E+00 -0.45593999997E+02  0.45594000000E+02  0.51100000000E-03 0. -1.
         23    2    1    2    0    0  0.00000000000E+00 -0.88817841970E-15  0.00000000000E+00  0.91188000000E+02  0.91188000000E+02 0.  0.
    9900012    2    3    3    0    0 -0.35502246063E+02  0.73191368999E+01 -0.64653400155E+01  0.54367083907E+02  0.39999999382E+02 0.  0.
        -12    1    3    3    0    0  0.35502246063E+02 -0.73191368999E+01  0.64653400155E+01  0.36820916093E+02  0.00000000000E+00 0.  1.
         11    1    4    4    0    0 -0.25335225568E+01  0.14754349675E+02 -0.71922918858E+01  0.16608390461E+02  0.51100000000E-03 0. -1.
        -11    1    4    4    0    0 -0.39534940079E+01 -0.42509630673E+00  0.62444794210E+01  0.74029956937E+01  0.51100000000E-03 0.  1.
         12    1    4    4    0    0 -0.29015229498E+02 -0.70101164685E+01 -0.55175275508E+01  0.30355697752E+02  0.00000000000E+00 0. -1.
</event>
<event>
 8    1  0.2497772E-006  0.9118800E+02  0.7816164E-02  0.1184000E+00
        -11   -1    0    0    0    0  0.00000000000E+00  0.00000000000E+00  0.45593999997E+02  0.45594000000E+02  0.51100000000E-03 0.  1.
         11   -1    0    0    0    0 -0.00000000000E+00 -0.00000000000E+00 -0.45593999997E+02  0.45594000000E+02  0.51100000000E-03 0. -1.
         23    2    1    2    0    0 -0.17763568394E-14 -0.88817841970E-15  0.14210854715E-13  0.91188000000E+02  0.91188000000E+02 0.  0.
    9900012    2    3    3    0    0  0.61603010498E+01  0.32455520701E+01 -0.36156635321E+02  0.54367011488E+02  0.39999834288E+02 0.  0.
        -12    1    3    3    0    0 -0.61603010498E+01 -0.32455520701E+01  0.36156635321E+02  0.36820988512E+02  0.00000000000E+00 0.  1.
         11    1    4    4    0    0 -0.13288739293E+01 -0.31764583178E+00  0.16791670770E+01  0.21648111067E+01  0.51100000000E-03 0. -1.
        -11    1    4    4    0    0 -0.25107916560E+01  0.10611682323E+01  0.63075014960E+01  0.68712974132E+01  0.51100000000E-03 0.  1.
         12    1    4    4    0    0  0.99999666351E+01  0.25020296696E+01 -0.44143303894E+02  0.45330902968E+02  0.00000000000E+00 0. -1.
</event>
<event>
 8    1  0.2497772E-006  0.9118800E+02  0.7816164E-02  0.1184000E+00
        -11   -1    0    0    0    0  0.00000000000E+00  0.00000000000E+00  0.45593999997E+02  0.45594000000E+02  0.51100000000E-03 0.  1.
         11   -1    0    0    0    0 -0.00000000000E+00 -0.00000000000E+00 -0.45593999997E+02  0.45594000000E+02  0.51100000000E-03 0. -1.
         23    2    1    2    0    0  0.00000000000E+00 -0.71054273576E-14  0.17763568394E-14  0.91188000000E+02  0.91188000000E+02 0.  0.
    9900012    2    3    3    0    0 -0.23324895298E+02  0.27092307423E+02  0.88166744425E+01  0.54367114481E+02  0.40000069083E+02 0.  0.
         12    1    3    3    0    0  0.23324895298E+02 -0.27092307423E+02 -0.88166744425E+01  0.36820885519E+02  0.00000000000E+00 0. -1.
         11    1    4    4    0    0 -0.15014397606E+02  0.65165481743E+01 -0.77434864585E+01  0.18106880415E+02  0.51100000000E-03 0. -1.
        -11    1    4    4    0    0 -0.15581782834E+02  0.15634876694E+02  0.16345219687E+02  0.27466480160E+02  0.51100000000E-03 0.  1.
         12    1    4    4    0    0  0.72712851417E+01  0.49408825544E+01  0.21494121438E+00  0.87937539057E+01  0.00000000000E+00 0. -1.
</event>
<event>
 8    1  0.2497772E-006  0.9118800E+02  0.7816164E-02  0.1184000E+00
        -11   -1    0    0    0    0  0.00000000000E+00  0.00000000000E+00  0.45593999997E+02  0.45594000000E+02  0.51100000000E-03 0. -1.
         11   -1    0    0    0    0 -0.00000000000E+00 -0.00000000000E+00 -0.45593999997E+02  0.45594000000E+02  0.51100000000E-03 0.  1.
         23    2    1    2    0    0  0.35527136788E-14 -0.17763568394E-14  0.35527136788E-14  0.91188000000E+02  0.91188000000E+02 0.  0.
    9900012    2    3    3    0    0  0.25441057636E+02  0.14218756836E+02 -0.22502444603E+02  0.54367075613E+02  0.39999980476E+02 0.  0.
         12    1    3    3    0    0 -0.25441057636E+02 -0.14218756836E+02  0.22502444603E+02  0.36820924387E+02  0.00000000000E+00 0. -1.
         11    1    4    4    0    0  0.13948900212E+02 -0.45548036442E+01 -0.10223095176E+02  0.17883783957E+02  0.51100000000E-03 0. -1.
        -11    1    4    4    0    0  0.76182340257E-01  0.22025728357E+02 -0.50922204837E+01  0.22606840185E+02  0.51100000000E-03 0.  1.
        -12    1    4    4    0    0  0.11415975083E+02 -0.32521678776E+01 -0.71871289436E+01  0.13876451472E+02  0.00000000000E+00 0.  1.
</event>
<event>
 8    1  0.2497772E-006  0.9118800E+02  0.7816164E-02  0.1184000E+00
        -11   -1    0    0    0    0  0.00000000000E+00  0.00000000000E+00  0.45593999997E+02  0.45594000000E+02  0.51100000000E-03 0. -1.
         11   -1    0    0    0    0 -0.00000000000E+00 -0.00000000000E+00 -0.45593999997E+02  0.45594000000E+02  0.51100000000E-03 0.  1.
         23    2    1    2    0    0  0.00000000000E+00  0.00000000000E+00  0.00000000000E+00  0.91188000000E+02  0.91188000000E+02 0.  0.
    9900012    2    3    3    0    0  0.24280160557E+02  0.14906386199E+02  0.23324924047E+02  0.54367100663E+02  0.40000037582E+02 0.  0.
        -12    1    3    3    0    0 -0.24280160557E+02 -0.14906386199E+02 -0.23324924047E+02  0.36820899337E+02  0.00000000000E+00 0.  1.
         11    1    4    4    0    0  0.14653958074E+02  0.98917942367E+01  0.23044276017E+02  0.29045218847E+02  0.51100000000E-03 0. -1.
        -11    1    4    4    0    0 -0.42820035016E+01  0.64862383293E+01 -0.61667400451E+01  0.99214678701E+01  0.51100000000E-03 0.  1.
         12    1    4    4    0    0  0.13908205985E+02 -0.14716463667E+01  0.64473880747E+01  0.15400413947E+02  0.00000000000E+00 0. -1.
</event>
<event>
 8    1  0.2497772E-006  0.9118800E+02  0.7816164E-02  0.1184000E+00
        -11   -1    0    0    0    0  0.00000000000E+00  0.00000000000E+00  0.45593999997E+02  0.45594000000E+02  0.51100000000E-03 0. -1.
         11   -1    0    0    0    0 -0.00000000000E+00 -0.00000000000E+00 -0.45593999997E+02  0.45594000000E+02  0.51100000000E-03 0.  1.
         23    2    1    2    0    0  0.00000000000E+00 -0.88817841970E-15  0.88817841970E-15  0.91188000000E+02  0.91188000000E+02 0.  0.
    9900012    2    3    3    0    0  0.36325069774E+02  0.41982128701E+01  0.43179088622E+01  0.54367081729E+02  0.39999994417E+02 0.  0.
         12    1    3    3    0    0 -0.36325069774E+02 -0.41982128701E+01 -0.43179088622E+01  0.36820918271E+02  0.00000000000E+00 0. -1.
         11    1    4    4    0    0  0.21230402174E+02  0.15670146686E+02 -0.78752423806E+01  0.27537300457E+02  0.51100000000E-03 0. -1.
        -11    1    4    4    0    0  0.10435675659E+02 -0.12942416023E+02  0.37009134654E+01  0.17032504798E+02  0.51100000000E-03 0.  1.
        -12    1    4    4    0    0  0.46589919408E+01  0.14704822069E+01  0.84922377775E+01  0.97972764733E+01  0.00000000000E+00 0.  1.
</event>
<event>
 8    1  0.2497772E-006  0.9118800E+02  0.7816164E-02  0.1184000E+00
        -11   -1    0    0    0    0  0.00000000000E+00  0.00000000000E+00  0.45593999997E+02  0.45594000000E+02  0.51100000000E-03 0.  1.
         11   -1    0    0    0    0 -0.00000000000E+00 -0.00000000000E+00 -0.45593999997E+02  0.45594000000E+02  0.51100000000E-03 0. -1.
         23    2    1    2    0    0 -0.35527136788E-14  0.00000000000E+00  0.00000000000E+00  0.91188000000E+02  0.91188000000E+02 0.  0.
    9900012    2    3    3    0    0 -0.28165187619E+02  0.84263692573E+01 -0.22169809613E+02  0.54367055542E+02  0.39999934720E+02 0.  0.
        -12    1    3    3    0    0  0.28165187619E+02 -0.84263692573E+01  0.22169809613E+02  0.36820944458E+02  0.00000000000E+00 0.  1.
         11    1    4    4    0    0 -0.20787857192E+02  0.10324547148E+02  0.14354989721E+01  0.23254933627E+02  0.51100000000E-03 0. -1.
        -11    1    4    4    0    0 -0.39856317553E+01  0.33340922400E+01  0.13670187034E+01  0.53730970539E+01  0.51100000000E-03 0.  1.
        -12    1    4    4    0    0 -0.33916986715E+01 -0.52322701310E+01 -0.24972327289E+02  0.25739024861E+02  0.00000000000E+00 0.  1.
</event>
<event>
 8    1  0.2497772E-006  0.9118800E+02  0.7816164E-02  0.1184000E+00
        -11   -1    0    0    0    0  0.00000000000E+00  0.00000000000E+00  0.45593999997E+02  0.45594000000E+02  0.51100000000E-03 0. -1.
         11   -1    0    0    0    0 -0.00000000000E+00 -0.00000000000E+00 -0.45593999997E+02  0.45594000000E+02  0.51100000000E-03 0.  1.
         23    2    1    2    0    0  0.00000000000E+00  0.00000000000E+00 -0.71054273576E-14  0.91188000000E+02  0.91188000000E+02 0.  0.
    9900012    2    3    3    0    0  0.45116527523E+01 -0.16433688261E+02 -0.32639825416E+02  0.54367091217E+02  0.40000016047E+02 0.  0.
         12    1    3    3    0    0 -0.45116527523E+01  0.16433688261E+02  0.32639825416E+02  0.36820908783E+02  0.00000000000E+00 0. -1.
         11    1    4    4    0    0 -0.26138295649E+00  0.62879762893E+01  0.45089843307E+01  0.77419575574E+01  0.51100000000E-03 0. -1.
        -11    1    4    4    0    0  0.15419490930E+01 -0.21746570166E+02 -0.21510093547E+02  0.30626378265E+02  0.51100000000E-03 0.  1.
        -12    1    4    4    0    0  0.32310866158E+01 -0.97509438436E+00 -0.15638716200E+02  0.15998755395E+02  0.00000000000E+00 0.  1.
</event>
<event>
 8    1  0.2497772E-006  0.9118800E+02  0.7816164E-02  0.1184000E+00
        -11   -1    0    0    0    0  0.00000000000E+00  0.00000000000E+00  0.45593999997E+02  0.45594000000E+02  0.51100000000E-03 0.  1.
         11   -1    0    0    0    0 -0.00000000000E+00 -0.00000000000E+00 -0.45593999997E+02  0.45594000000E+02  0.51100000000E-03 0. -1.
         23    2    1    2    0    0  0.88817841970E-15  0.00000000000E+00  0.00000000000E+00  0.91188000000E+02  0.91188000000E+02 0.  0.
    9900012    2    3    3    0    0 -0.12494810867E+01 -0.32709424412E+02  0.16861568109E+02  0.54367080302E+02  0.39999991163E+02 0.  0.
         12    1    3    3    0    0  0.12494810867E+01  0.32709424412E+02 -0.16861568109E+02  0.36820919698E+02  0.00000000000E+00 0. -1.
         11    1    4    4    0    0  0.38643308108E+01  0.11842432126E+01  0.59078183724E+01  0.71580585905E+01  0.51100000000E-03 0. -1.
        -11    1    4    4    0    0 -0.14784385554E+02 -0.54368516325E+01  0.53489349190E+01  0.16635760184E+02  0.51100000000E-03 0.  1.
        -12    1    4    4    0    0  0.96705736564E+01 -0.28456815992E+02  0.56048148178E+01  0.30573261527E+02  0.00000000000E+00 0.  1.
</event>
<event>
 8    1  0.2497772E-006  0.9118800E+02  0.7816164E-02  0.1184000E+00
        -11   -1    0    0    0    0  0.00000000000E+00  0.00000000000E+00  0.45593999997E+02  0.45594000000E+02  0.51100000000E-03 0. -1.
         11   -1    0    0    0    0 -0.00000000000E+00 -0.00000000000E+00 -0.45593999997E+02  0.45594000000E+02  0.51100000000E-03 0.  1.
         23    2    1    2    0    0  0.00000000000E+00  0.00000000000E+00  0.00000000000E+00  0.91188000000E+02  0.91188000000E+02 0.  0.
    9900012    2    3    3    0    0  0.18774073053E+02  0.19934400847E+02 -0.24615712505E+02  0.54367089388E+02  0.40000011878E+02 0.  0.
         12    1    3    3    0    0 -0.18774073053E+02 -0.19934400847E+02  0.24615712505E+02  0.36820910612E+02  0.00000000000E+00 0. -1.
         11    1    4    4    0    0  0.10975164611E+02  0.10884532622E+01 -0.88277876215E+01  0.14126882292E+02  0.51100000000E-03 0. -1.
        -11    1    4    4    0    0 -0.13702754422E+01 -0.51190072697E+01 -0.13471966203E+02  0.14476731808E+02  0.51100000000E-03 0.  1.
         12    1    4    4    0    0  0.91691838840E+01  0.23964954855E+02 -0.23159586813E+01  0.25763475288E+02  0.00000000000E+00 0. -1.
</event>
<event>
 8    1  0.2497772E-006  0.9118800E+02  0.7816164E-02  0.1184000E+00
        -11   -1    0    0    0    0  0.00000000000E+00  0.00000000000E+00  0.45593999997E+02  0.45594000000E+02  0.51100000000E-03 0.  1.
         11   -1    0    0    0    0 -0.00000000000E+00 -0.00000000000E+00 -0.45593999997E+02  0.45594000000E+02  0.51100000000E-03 0. -1.
         23    2    1    2    0    0  0.35527136788E-14 -0.30531133177E-15  0.71054273576E-14  0.91188000000E+02  0.91188000000E+02 0.  0.
    9900012    2    3    3    0    0  0.16778917155E+02  0.45802789473E-01  0.32775673928E+02  0.54367096151E+02  0.40000027296E+02 0.  0.
         12    1    3    3    0    0 -0.16778917155E+02 -0.45802789473E-01 -0.32775673928E+02  0.36820903849E+02  0.00000000000E+00 0. -1.
         11    1    4    4    0    0 -0.10382687917E+02 -0.24223270923E+01  0.10050691412E+02  0.14652108212E+02  0.51100000000E-03 0. -1.
        -11    1    4    4    0    0  0.26127545291E+02  0.49891513901E+01  0.24739694102E+02  0.36326198797E+02  0.51100000000E-03 0.  1.
        -12    1    4    4    0    0  0.10340597811E+01 -0.25210215083E+01 -0.20147115858E+01  0.33887891422E+01  0.00000000000E+00 0.  1.
</event>
<event>
 8    1  0.2497772E-006  0.9118800E+02  0.7816164E-02  0.1184000E+00
        -11   -1    0    0    0    0  0.00000000000E+00  0.00000000000E+00  0.45593999997E+02  0.45594000000E+02  0.51100000000E-03 0.  1.
         11   -1    0    0    0    0 -0.00000000000E+00 -0.00000000000E+00 -0.45593999997E+02  0.45594000000E+02  0.51100000000E-03 0. -1.
         23    2    1    2    0    0  0.71054273576E-14 -0.62450045135E-15  0.66613381478E-15  0.91188000000E+02  0.91188000000E+02 0.  0.
    9900012    2    3    3    0    0 -0.36789041662E+02 -0.10609964618E+00 -0.15281659154E+01  0.54367080204E+02  0.39999990941E+02 0.  0.
        -12    1    3    3    0    0  0.36789041662E+02  0.10609964618E+00  0.15281659154E+01  0.36820919796E+02  0.00000000000E+00 0.  1.
         11    1    4    4    0    0 -0.23838472152E+01 -0.16193596460E+01 -0.79578263136E+01  0.84635721245E+01  0.51100000000E-03 0. -1.
        -11    1    4    4    0    0 -0.28869464119E+02 -0.11579289565E+02  0.60236150595E+01  0.31682958259E+02  0.51100000000E-03 0.  1.
        -12    1    4    4    0    0 -0.55357303280E+01  0.13092549565E+02  0.40604533864E+00  0.14220549821E+02  0.00000000000E+00 0.  1.
</event>
<event>
 8    1  0.2497772E-006  0.9118800E+02  0.7816164E-02  0.1184000E+00
        -11   -1    0    0    0    0  0.00000000000E+00  0.00000000000E+00  0.45593999997E+02  0.45594000000E+02  0.51100000000E-03 0.  1.
         11   -1    0    0    0    0 -0.00000000000E+00 -0.00000000000E+00 -0.45593999997E+02  0.45594000000E+02  0.51100000000E-03 0. -1.
         23    2    1    2    0    0 -0.88817841970E-15  0.35527136788E-14  0.35527136788E-14  0.91188000000E+02  0.91188000000E+02 0.  0.
    9900012    2    3    3    0    0 -0.60107344996E+01  0.31274166217E+02  0.18481803908E+02  0.54367089127E+02  0.40000011283E+02 0.  0.
         12    1    3    3    0    0  0.60107344996E+01 -0.31274166217E+02 -0.18481803908E+02  0.36820910873E+02  0.00000000000E+00 0. -1.
         11    1    4    4    0    0 -0.10628769670E+02  0.22431905304E+02  0.24587815611E+02  0.34938829360E+02  0.51100000000E-03 0.  1.
        -11    1    4    4    0    0  0.18043227269E+01 -0.44520639803E+01 -0.22387677981E+01  0.52998618569E+01  0.51100000000E-03 0. -1.
        -12    1    4    4    0    0  0.28137124432E+01  0.13294324893E+02 -0.38672439048E+01  0.14128397910E+02  0.00000000000E+00 0.  1.
</event>
<event>
 8    1  0.2497772E-006  0.9118800E+02  0.7816164E-02  0.1184000E+00
        -11   -1    0    0    0    0  0.00000000000E+00  0.00000000000E+00  0.45593999997E+02  0.45594000000E+02  0.51100000000E-03 0. -1.
         11   -1    0    0    0    0 -0.00000000000E+00 -0.00000000000E+00 -0.45593999997E+02  0.45594000000E+02  0.51100000000E-03 0.  1.
         23    2    1    2    0    0  0.00000000000E+00 -0.17763568394E-14 -0.71054273576E-14  0.91188000000E+02  0.91188000000E+02 0.  0.
    9900012    2    3    3    0    0 -0.92046728802E+00 -0.13249648765E+02 -0.34342060639E+02  0.54367114875E+02  0.40000069981E+02 0.  0.
         12    1    3    3    0    0  0.92046728802E+00  0.13249648765E+02  0.34342060639E+02  0.36820885125E+02  0.00000000000E+00 0. -1.
         11    1    4    4    0    0  0.61355740375E+01 -0.12525380756E+02 -0.44656840013E+01  0.14644888724E+02  0.51100000000E-03 0. -1.
        -11    1    4    4    0    0 -0.71129959767E+01 -0.12178012965E+02 -0.12137912840E+02  0.18607193230E+02  0.51100000000E-03 0.  1.
        -12    1    4    4    0    0  0.56954651183E-01  0.11453744956E+02 -0.17738463798E+02  0.21115032922E+02  0.00000000000E+00 0.  1.
</event>
<event>
 8    1  0.2497772E-006  0.9118800E+02  0.7816164E-02  0.1184000E+00
        -11   -1    0    0    0    0  0.00000000000E+00  0.00000000000E+00  0.45593999997E+02  0.45594000000E+02  0.51100000000E-03 0. -1.
         11   -1    0    0    0    0 -0.00000000000E+00 -0.00000000000E+00 -0.45593999997E+02  0.45594000000E+02  0.51100000000E-03 0.  1.
         23    2    1    2    0    0 -0.35527136788E-14  0.00000000000E+00  0.00000000000E+00  0.91188000000E+02  0.91188000000E+02 0.  0.
    9900012    2    3    3    0    0  0.22798529751E+02 -0.19323452524E+02  0.21508400435E+02  0.54367081142E+02  0.39999993080E+02 0.  0.
        -12    1    3    3    0    0 -0.22798529751E+02  0.19323452524E+02 -0.21508400435E+02  0.36820918858E+02  0.00000000000E+00 0.  1.
         11    1    4    4    0    0  0.42466761467E+01  0.86664085051E+01  0.99177078301E+01  0.13838418390E+02  0.51100000000E-03 0. -1.
        -11    1    4    4    0    0  0.46772954846E+00 -0.47605638981E+01 -0.48484763008E+01  0.68109810056E+01  0.51100000000E-03 0.  1.
         12    1    4    4    0    0  0.18084124056E+02 -0.23229297131E+02  0.16439168906E+02  0.33717681747E+02  0.00000000000E+00 0. -1.
</event>
<event>
 8    1  0.2497772E-006  0.9118800E+02  0.7816164E-02  0.1184000E+00
        -11   -1    0    0    0    0  0.00000000000E+00  0.00000000000E+00  0.45593999997E+02  0.45594000000E+02  0.51100000000E-03 0.  1.
         11   -1    0    0    0    0 -0.00000000000E+00 -0.00000000000E+00 -0.45593999997E+02  0.45594000000E+02  0.51100000000E-03 0. -1.
         23    2    1    2    0    0  0.00000000000E+00 -0.88817841970E-15  0.17763568394E-14  0.91188000000E+02  0.91188000000E+02 0.  0.
    9900012    2    3    3    0    0 -0.32626336745E+02  0.78464577594E+01  0.15157094205E+02  0.54367051431E+02  0.39999925348E+02 0.  0.
         12    1    3    3    0    0  0.32626336745E+02 -0.78464577594E+01 -0.15157094205E+02  0.36820948569E+02  0.00000000000E+00 0. -1.
         11    1    4    4    0    0 -0.11259853611E+02  0.21596841404E+02  0.88662368708E+01  0.25919452511E+02  0.51100000000E-03 0. -1.
        -11    1    4    4    0    0 -0.11288967281E+02 -0.10693876844E+01  0.89472622101E+00  0.11374748681E+02  0.51100000000E-03 0.  1.
        -12    1    4    4    0    0 -0.10077515854E+02 -0.12680995960E+02  0.53961311133E+01  0.17072850240E+02  0.00000000000E+00 0.  1.
</event>
<event>
 8    1  0.2497772E-006  0.9118800E+02  0.7816164E-02  0.1184000E+00
        -11   -1    0    0    0    0  0.00000000000E+00  0.00000000000E+00  0.45593999997E+02  0.45594000000E+02  0.51100000000E-03 0.  1.
         11   -1    0    0    0    0 -0.00000000000E+00 -0.00000000000E+00 -0.45593999997E+02  0.45594000000E+02  0.51100000000E-03 0. -1.
         23    2    1    2    0    0  0.00000000000E+00  0.00000000000E+00  0.00000000000E+00  0.91188000000E+02  0.91188000000E+02 0.  0.
    9900012    2    3    3    0    0 -0.31583441619E+02 -0.53456030135E+01  0.18157406058E+02  0.54367073195E+02  0.39999974962E+02 0.  0.
         12    1    3    3    0    0  0.31583441619E+02  0.53456030135E+01 -0.18157406058E+02  0.36820926805E+02  0.00000000000E+00 0. -1.
         11    1    4    4    0    0 -0.27588779358E+02 -0.51097613976E+01  0.12118345987E+02  0.30563126766E+02  0.51100000000E-03 0.  1.
        -11    1    4    4    0    0  0.26690600826E+01  0.10199595413E+02  0.16720203331E+01  0.10674796512E+02  0.51100000000E-03 0. -1.
         12    1    4    4    0    0 -0.66637223429E+01 -0.10435437029E+02  0.43670397379E+01  0.13129149916E+02  0.00000000000E+00 0. -1.
</event>
<event>
 8    1  0.2497772E-006  0.9118800E+02  0.7816164E-02  0.1184000E+00
        -11   -1    0    0    0    0  0.00000000000E+00  0.00000000000E+00  0.45593999997E+02  0.45594000000E+02  0.51100000000E-03 0.  1.
         11   -1    0    0    0    0 -0.00000000000E+00 -0.00000000000E+00 -0.45593999997E+02  0.45594000000E+02  0.51100000000E-03 0. -1.
         23    2    1    2    0    0 -0.17763568394E-14  0.00000000000E+00 -0.35527136788E-14  0.91188000000E+02  0.91188000000E+02 0.  0.
    9900012    2    3    3    0    0 -0.14798095781E+02 -0.23449844212E+02 -0.24226100927E+02  0.54367044031E+02  0.39999908478E+02 0.  0.
        -12    1    3    3    0    0  0.14798095781E+02  0.23449844212E+02  0.24226100927E+02  0.36820955969E+02  0.00000000000E+00 0.  1.
         11    1    4    4    0    0 -0.10232319599E+01 -0.19149444711E+02 -0.80347017255E+01  0.20791937583E+02  0.51100000000E-03 0. -1.
        -11    1    4    4    0    0 -0.15890614154E+02 -0.12309309610E+02 -0.15264871272E+02  0.25239790341E+02  0.51100000000E-03 0.  1.
        -12    1    4    4    0    0  0.21157503334E+01  0.80089101086E+01 -0.92652793012E+00  0.83353161072E+01  0.00000000000E+00 0.  1.
</event>
<event>
 8    1  0.2497772E-006  0.9118800E+02  0.7816164E-02  0.1184000E+00
        -11   -1    0    0    0    0  0.00000000000E+00  0.00000000000E+00  0.45593999997E+02  0.45594000000E+02  0.51100000000E-03 0.  1.
         11   -1    0    0    0    0 -0.00000000000E+00 -0.00000000000E+00 -0.45593999997E+02  0.45594000000E+02  0.51100000000E-03 0. -1.
         23    2    1    2    0    0  0.00000000000E+00 -0.88817841970E-15  0.00000000000E+00  0.91188000000E+02  0.91188000000E+02 0.  0.
    9900012    2    3    3    0    0 -0.18908480662E+02 -0.55787210172E+01  0.31098648215E+02  0.54367099821E+02  0.40000035663E+02 0.  0.
         12    1    3    3    0    0  0.18908480662E+02  0.55787210172E+01 -0.31098648215E+02  0.36820900179E+02  0.00000000000E+00 0. -1.
         11    1    4    4    0    0 -0.78583477603E+01  0.15273501674E+02  0.86239731658E+01  0.19219947875E+02  0.51100000000E-03 0. -1.
        -11    1    4    4    0    0 -0.82475130044E+01 -0.17664187084E+02  0.23739226511E+02  0.30718005334E+02  0.51100000000E-03 0.  1.
        -12    1    4    4    0    0 -0.28026198973E+01 -0.31880356066E+01 -0.12645514611E+01  0.44291466126E+01  0.00000000000E+00 0.  1.
</event>
<event>
 8    1  0.2497772E-006  0.9118800E+02  0.7816164E-02  0.1184000E+00
        -11   -1    0    0    0    0  0.00000000000E+00  0.00000000000E+00  0.45593999997E+02  0.45594000000E+02  0.51100000000E-03 0. -1.
         11   -1    0    0    0    0 -0.00000000000E+00 -0.00000000000E+00 -0.45593999997E+02  0.45594000000E+02  0.51100000000E-03 0.  1.
         23    2    1    2    0    0  0.00000000000E+00  0.17763568394E-14  0.00000000000E+00  0.91188000000E+02  0.91188000000E+02 0.  0.
    9900012    2    3    3    0    0 -0.12520752641E+02  0.12239255273E+02 -0.32391794490E+02  0.54366851639E+02  0.39999469877E+02 0.  0.
         12    1    3    3    0    0  0.12520752641E+02 -0.12239255273E+02  0.32391794490E+02  0.36821148361E+02  0.00000000000E+00 0. -1.
         11    1    4    4    0    0 -0.48633334744E+01 -0.58039683352E+01 -0.42727053401E+01  0.86944851546E+01  0.51100000000E-03 0. -1.
        -11    1    4    4    0    0  0.49269547905E+01  0.81421310263E+01  0.35725191077E+01  0.10165238521E+02  0.51100000000E-03 0.  1.
        -12    1    4    4    0    0 -0.12584373957E+02  0.99010925817E+01 -0.31691608258E+02  0.35507127963E+02  0.00000000000E+00 0.  1.
</event>
<event>
 8    1  0.2497772E-006  0.9118800E+02  0.7816164E-02  0.1184000E+00
        -11   -1    0    0    0    0  0.00000000000E+00  0.00000000000E+00  0.45593999997E+02  0.45594000000E+02  0.51100000000E-03 0.  1.
         11   -1    0    0    0    0 -0.00000000000E+00 -0.00000000000E+00 -0.45593999997E+02  0.45594000000E+02  0.51100000000E-03 0. -1.
         23    2    1    2    0    0  0.00000000000E+00  0.13322676296E-14  0.00000000000E+00  0.91188000000E+02  0.91188000000E+02 0.  0.
    9900012    2    3    3    0    0  0.19174200636E+02  0.19086701418E+01  0.31376458218E+02  0.54367148271E+02  0.40000146112E+02 0.  0.
         12    1    3    3    0    0 -0.19174200636E+02 -0.19086701418E+01 -0.31376458218E+02  0.36820851729E+02  0.00000000000E+00 0. -1.
         11    1    4    4    0    0 -0.74472772347E+01  0.99692892876E+01  0.35652722719E+01  0.12944490478E+02  0.51100000000E-03 0. -1.
        -11    1    4    4    0    0  0.32497681513E+01 -0.64507910684E+01  0.55947312091E+01  0.91364498580E+01  0.51100000000E-03 0.  1.
         12    1    4    4    0    0  0.23371709720E+02 -0.16098280774E+01  0.22216454737E+02  0.32286207934E+02  0.00000000000E+00 0. -1.
</event>
<event>
 8    1  0.2497772E-006  0.9118800E+02  0.7816164E-02  0.1184000E+00
        -11   -1    0    0    0    0  0.00000000000E+00  0.00000000000E+00  0.45593999997E+02  0.45594000000E+02  0.51100000000E-03 0.  1.
         11   -1    0    0    0    0 -0.00000000000E+00 -0.00000000000E+00 -0.45593999997E+02  0.45594000000E+02  0.51100000000E-03 0. -1.
         23    2    1    2    0    0  0.00000000000E+00  0.71054273576E-14  0.88817841970E-15  0.91188000000E+02  0.91188000000E+02 0.  0.
    9900012    2    3    3    0    0 -0.11934889527E+02  0.34436377220E+02  0.52415940803E+01  0.54367082405E+02  0.39999995958E+02 0.  0.
        -12    1    3    3    0    0  0.11934889527E+02 -0.34436377220E+02 -0.52415940803E+01  0.36820917595E+02  0.00000000000E+00 0.  1.
         11    1    4    4    0    0  0.32173120269E+01  0.30447537190E+01  0.61424523779E+01  0.75730669721E+01  0.51100000000E-03 0. -1.
        -11    1    4    4    0    0 -0.66221730332E+01 -0.41430836694E+01  0.56850075013E+01  0.96611401255E+01  0.51100000000E-03 0.  1.
         12    1    4    4    0    0 -0.85300285206E+01  0.35534707170E+02 -0.65858657990E+01  0.37132875307E+02  0.00000000000E+00 0. -1.
</event>
<event>
 8    1  0.2497772E-006  0.9118800E+02  0.7816164E-02  0.1184000E+00
        -11   -1    0    0    0    0  0.00000000000E+00  0.00000000000E+00  0.45593999997E+02  0.45594000000E+02  0.51100000000E-03 0.  1.
         11   -1    0    0    0    0 -0.00000000000E+00 -0.00000000000E+00 -0.45593999997E+02  0.45594000000E+02  0.51100000000E-03 0. -1.
         23    2    1    2    0    0 -0.35527136788E-14 -0.88817841970E-15  0.00000000000E+00  0.91188000000E+02  0.91188000000E+02 0.  0.
    9900012    2    3    3    0    0 -0.12249589733E+02 -0.73449036547E+01 -0.33937876241E+02  0.54367088794E+02  0.40000010524E+02 0.  0.
        -12    1    3    3    0    0  0.12249589733E+02  0.73449036547E+01  0.33937876241E+02  0.36820911206E+02  0.00000000000E+00 0.  1.
         11    1    4    4    0    0  0.35893718615E+01 -0.65925570897E+01  0.31202268881E+00  0.75128395271E+01  0.51100000000E-03 0. -1.
        -11    1    4    4    0    0  0.36565039952E+00  0.11317297726E+02 -0.86956771165E+01  0.14276894929E+02  0.51100000000E-03 0.  1.
         12    1    4    4    0    0 -0.16204611994E+02 -0.12069644291E+02 -0.25554221813E+02  0.32577354338E+02  0.00000000000E+00 0. -1.
</event>
<event>
 8    1  0.2497772E-006  0.9118800E+02  0.7816164E-02  0.1184000E+00
        -11   -1    0    0    0    0  0.00000000000E+00  0.00000000000E+00  0.45593999997E+02  0.45594000000E+02  0.51100000000E-03 0. -1.
         11   -1    0    0    0    0 -0.00000000000E+00 -0.00000000000E+00 -0.45593999997E+02  0.45594000000E+02  0.51100000000E-03 0.  1.
         23    2    1    2    0    0  0.00000000000E+00 -0.35527136788E-14 -0.35527136788E-14  0.91188000000E+02  0.91188000000E+02 0.  0.
    9900012    2    3    3    0    0 -0.25484510625E+02  0.20295253624E+02 -0.17158726036E+02  0.54367089085E+02  0.40000011186E+02 0.  0.
         12    1    3    3    0    0  0.25484510625E+02 -0.20295253624E+02  0.17158726036E+02  0.36820910915E+02  0.00000000000E+00 0. -1.
         11    1    4    4    0    0 -0.14210775760E+01  0.48094706386E+01  0.66289920916E+01  0.83122804159E+01  0.51100000000E-03 0. -1.
        -11    1    4    4    0    0 -0.19225598436E+02  0.11265844767E+02 -0.91908357570E+00  0.22302188422E+02  0.51100000000E-03 0.  1.
         12    1    4    4    0    0 -0.48378346131E+01  0.42199382186E+01 -0.22868634552E+02  0.23752620246E+02  0.00000000000E+00 0. -1.
</event>
<event>
 8    1  0.2497772E-006  0.9118800E+02  0.7816164E-02  0.1184000E+00
        -11   -1    0    0    0    0  0.00000000000E+00  0.00000000000E+00  0.45593999997E+02  0.45594000000E+02  0.51100000000E-03 0.  1.
         11   -1    0    0    0    0 -0.00000000000E+00 -0.00000000000E+00 -0.45593999997E+02  0.45594000000E+02  0.51100000000E-03 0. -1.
         23    2    1    2    0    0  0.00000000000E+00  0.00000000000E+00  0.35527136788E-14  0.91188000000E+02  0.91188000000E+02 0.  0.
    9900012    2    3    3    0    0 -0.17288982940E+02 -0.25533201967E+02  0.20122819505E+02  0.54367065756E+02  0.39999958003E+02 0.  0.
         12    1    3    3    0    0  0.17288982940E+02  0.25533201967E+02 -0.20122819505E+02  0.36820934244E+02  0.00000000000E+00 0. -1.
         11    1    4    4    0    0 -0.45925743074E+01 -0.82227051772E+01 -0.48044001366E+01  0.10572931483E+02  0.51100000000E-03 0. -1.
        -11    1    4    4    0    0  0.50804605380E+01 -0.81739520306E+00  0.17785316929E+02  0.18514770123E+02  0.51100000000E-03 0.  1.
         12    1    4    4    0    0 -0.17776869171E+02 -0.16493101587E+02  0.71419027126E+01  0.25279364150E+02  0.00000000000E+00 0. -1.
</event>
<event>
 8    1  0.2497772E-006  0.9118800E+02  0.7816164E-02  0.1184000E+00
        -11   -1    0    0    0    0  0.00000000000E+00  0.00000000000E+00  0.45593999997E+02  0.45594000000E+02  0.51100000000E-03 0.  1.
         11   -1    0    0    0    0 -0.00000000000E+00 -0.00000000000E+00 -0.45593999997E+02  0.45594000000E+02  0.51100000000E-03 0. -1.
         23    2    1    2    0    0  0.00000000000E+00  0.00000000000E+00  0.00000000000E+00  0.91188000000E+02  0.91188000000E+02 0.  0.
    9900012    2    3    3    0    0 -0.33815964742E+02  0.11661129562E+02 -0.87343558151E+01  0.54366941004E+02  0.39999673606E+02 0.  0.
         12    1    3    3    0    0  0.33815964742E+02 -0.11661129562E+02  0.87343558151E+01  0.36821058996E+02  0.00000000000E+00 0. -1.
         11    1    4    4    0    0 -0.74812023385E+01 -0.88465730727E+01 -0.10453300164E+02  0.15604541907E+02  0.51100000000E-03 0. -1.
        -11    1    4    4    0    0 -0.66918787800E+01  0.10259240169E+02  0.92636379763E+01  0.15357351310E+02  0.51100000000E-03 0.  1.
        -12    1    4    4    0    0 -0.19642883623E+02  0.10248462467E+02 -0.75446936275E+01  0.23405047787E+02  0.00000000000E+00 0.  1.
</event>
<event>
 8    1  0.2497772E-006  0.9118800E+02  0.7816164E-02  0.1184000E+00
        -11   -1    0    0    0    0  0.00000000000E+00  0.00000000000E+00  0.45593999997E+02  0.45594000000E+02  0.51100000000E-03 0.  1.
         11   -1    0    0    0    0 -0.00000000000E+00 -0.00000000000E+00 -0.45593999997E+02  0.45594000000E+02  0.51100000000E-03 0. -1.
         23    2    1    2    0    0  0.00000000000E+00  0.00000000000E+00  0.00000000000E+00  0.91188000000E+02  0.91188000000E+02 0.  0.
    9900012    2    3    3    0    0  0.16952859960E+02  0.13050783965E+02 -0.29967718892E+02  0.54366992429E+02  0.39999790840E+02 0.  0.
        -12    1    3    3    0    0 -0.16952859960E+02 -0.13050783965E+02  0.29967718892E+02  0.36821007571E+02  0.00000000000E+00 0.  1.
         11    1    4    4    0    0 -0.64151336352E+01 -0.10936659485E+01  0.21073500061E+00  0.65111023849E+01  0.51100000000E-03 0. -1.
        -11    1    4    4    0    0  0.63410788768E+01  0.18473742046E+02 -0.17001426222E+02  0.25894727656E+02  0.51100000000E-03 0.  1.
         12    1    4    4    0    0  0.17026914719E+02 -0.43292921327E+01 -0.13177027670E+02  0.21961162388E+02  0.00000000000E+00 0. -1.
</event>
<event>
 8    1  0.2497772E-006  0.9118800E+02  0.7816164E-02  0.1184000E+00
        -11   -1    0    0    0    0  0.00000000000E+00  0.00000000000E+00  0.45593999997E+02  0.45594000000E+02  0.51100000000E-03 0.  1.
         11   -1    0    0    0    0 -0.00000000000E+00 -0.00000000000E+00 -0.45593999997E+02  0.45594000000E+02  0.51100000000E-03 0. -1.
         23    2    1    2    0    0  0.00000000000E+00  0.00000000000E+00 -0.71054273576E-14  0.91188000000E+02  0.91188000000E+02 0.  0.
    9900012    2    3    3    0    0 -0.11371084784E+02  0.93245402754E+01 -0.33756912985E+02  0.54367111977E+02  0.40000063374E+02 0.  0.
        -12    1    3    3    0    0  0.11371084784E+02 -0.93245402754E+01  0.33756912985E+02  0.36820888023E+02  0.00000000000E+00 0.  1.
         11    1    4    4    0    0 -0.51413435971E+01  0.71316476277E+01 -0.24510394420E+01  0.91269604182E+01  0.51100000000E-03 0. -1.
        -11    1    4    4    0    0 -0.15004311759E+02 -0.83970276727E+01 -0.10028370223E+02  0.19904965579E+02  0.51100000000E-03 0.  1.
         12    1    4    4    0    0  0.87745705718E+01  0.10589920320E+02 -0.21277503320E+02  0.25335185980E+02  0.00000000000E+00 0. -1.
</event>
<event>
 8    1  0.2497772E-006  0.9118800E+02  0.7816164E-02  0.1184000E+00
        -11   -1    0    0    0    0  0.00000000000E+00  0.00000000000E+00  0.45593999997E+02  0.45594000000E+02  0.51100000000E-03 0.  1.
         11   -1    0    0    0    0 -0.00000000000E+00 -0.00000000000E+00 -0.45593999997E+02  0.45594000000E+02  0.51100000000E-03 0. -1.
         23    2    1    2    0    0  0.00000000000E+00  0.00000000000E+00  0.00000000000E+00  0.91188000000E+02  0.91188000000E+02 0.  0.
    9900012    2    3    3    0    0  0.17284146991E+02  0.21903023772E+02 -0.24026909408E+02  0.54367128700E+02  0.40000101498E+02 0.  0.
        -12    1    3    3    0    0 -0.17284146991E+02 -0.21903023772E+02  0.24026909408E+02  0.36820871300E+02  0.00000000000E+00 0.  1.
         11    1    4    4    0    0  0.52372601653E+01  0.61094837618E+01  0.37384039395E+01  0.88730124619E+01  0.51100000000E-03 0.  1.
        -11    1    4    4    0    0  0.79826779229E+01  0.24723593769E+02 -0.22445090163E+02  0.34333093486E+02  0.51100000000E-03 0. -1.
        -12    1    4    4    0    0  0.40642089027E+01 -0.89300537587E+01 -0.53202231848E+01  0.11161022752E+02  0.00000000000E+00 0.  1.
</event>
<event>
 8    1  0.2497772E-006  0.9118800E+02  0.7816164E-02  0.1184000E+00
        -11   -1    0    0    0    0  0.00000000000E+00  0.00000000000E+00  0.45593999997E+02  0.45594000000E+02  0.51100000000E-03 0.  1.
         11   -1    0    0    0    0 -0.00000000000E+00 -0.00000000000E+00 -0.45593999997E+02  0.45594000000E+02  0.51100000000E-03 0. -1.
         23    2    1    2    0    0  0.00000000000E+00  0.88817841970E-15  0.00000000000E+00  0.91188000000E+02  0.91188000000E+02 0.  0.
    9900012    2    3    3    0    0 -0.34023866105E+02  0.61254693633E+01 -0.12674096413E+02  0.54367115172E+02  0.40000070657E+02 0.  0.
        -12    1    3    3    0    0  0.34023866105E+02 -0.61254693633E+01  0.12674096413E+02  0.36820884828E+02  0.00000000000E+00 0.  1.
         11    1    4    4    0    0  0.53119023382E+01 -0.24691601929E+01  0.11077137289E+01  0.59615508448E+01  0.51100000000E-03 0.  1.
        -11    1    4    4    0    0 -0.33887256057E+02  0.10073337480E+01 -0.28430814310E+01  0.34021228029E+02  0.51100000000E-03 0. -1.
         12    1    4    4    0    0 -0.54485123860E+01  0.75872958083E+01 -0.10938728711E+02  0.14384336298E+02  0.00000000000E+00 0. -1.
</event>
<event>
 8    1  0.2497772E-006  0.9118800E+02  0.7816164E-02  0.1184000E+00
        -11   -1    0    0    0    0  0.00000000000E+00  0.00000000000E+00  0.45593999997E+02  0.45594000000E+02  0.51100000000E-03 0. -1.
         11   -1    0    0    0    0 -0.00000000000E+00 -0.00000000000E+00 -0.45593999997E+02  0.45594000000E+02  0.51100000000E-03 0.  1.
         23    2    1    2    0    0  0.00000000000E+00  0.00000000000E+00  0.71054273576E-14  0.91188000000E+02  0.91188000000E+02 0.  0.
    9900012    2    3    3    0    0  0.14519060998E+02  0.86797032285E+01 -0.32705343754E+02  0.54367083519E+02  0.39999998499E+02 0.  0.
         12    1    3    3    0    0 -0.14519060998E+02 -0.86797032285E+01  0.32705343754E+02  0.36820916481E+02  0.00000000000E+00 0. -1.
         11    1    4    4    0    0 -0.21495659708E+00 -0.16970847596E+01  0.57035550730E+01  0.59545649507E+01  0.51100000000E-03 0. -1.
        -11    1    4    4    0    0  0.23416683757E+01 -0.72915185269E+01 -0.12871987051E+02  0.14977907200E+02  0.51100000000E-03 0.  1.
        -12    1    4    4    0    0  0.12392349219E+02  0.17668306515E+02 -0.25536911777E+02  0.33434611368E+02  0.00000000000E+00 0.  1.
</event>
<event>
 8    1  0.2497772E-006  0.9118800E+02  0.7816164E-02  0.1184000E+00
        -11   -1    0    0    0    0  0.00000000000E+00  0.00000000000E+00  0.45593999997E+02  0.45594000000E+02  0.51100000000E-03 0. -1.
         11   -1    0    0    0    0 -0.00000000000E+00 -0.00000000000E+00 -0.45593999997E+02  0.45594000000E+02  0.51100000000E-03 0.  1.
         23    2    1    2    0    0  0.88817841970E-15  0.35527136788E-14 -0.35527136788E-14  0.91188000000E+02  0.91188000000E+02 0.  0.
    9900012    2    3    3    0    0  0.68111030979E+01  0.18550118455E+02 -0.31068982850E+02  0.54367085896E+02  0.40000003917E+02 0.  0.
         12    1    3    3    0    0 -0.68111030979E+01 -0.18550118455E+02  0.31068982850E+02  0.36820914104E+02  0.00000000000E+00 0. -1.
         11    1    4    4    0    0 -0.98933290603E+01  0.16987134427E+02 -0.81220816110E+01  0.21269906109E+02  0.51100000000E-03 0. -1.
        -11    1    4    4    0    0 -0.15627035697E+01 -0.27565752831E+01 -0.94788587309E+01  0.99944741152E+01  0.51100000000E-03 0.  1.
        -12    1    4    4    0    0  0.18267135728E+02  0.43195593108E+01 -0.13468042508E+02  0.23102705672E+02  0.00000000000E+00 0.  1.
</event>
<event>
 8    1  0.2497772E-006  0.9118800E+02  0.7816164E-02  0.1184000E+00
        -11   -1    0    0    0    0  0.00000000000E+00  0.00000000000E+00  0.45593999997E+02  0.45594000000E+02  0.51100000000E-03 0.  1.
         11   -1    0    0    0    0 -0.00000000000E+00 -0.00000000000E+00 -0.45593999997E+02  0.45594000000E+02  0.51100000000E-03 0. -1.
         23    2    1    2    0    0  0.66613381478E-15 -0.71054273576E-14  0.35527136788E-14  0.91188000000E+02  0.91188000000E+02 0.  0.
    9900012    2    3    3    0    0  0.17952285224E+01 -0.30250313550E+02  0.20915964916E+02  0.54367056182E+02  0.39999936178E+02 0.  0.
         12    1    3    3    0    0 -0.17952285224E+01  0.30250313550E+02 -0.20915964916E+02  0.36820943818E+02  0.00000000000E+00 0. -1.
         11    1    4    4    0    0 -0.10311830519E+02 -0.14120952677E+01  0.13651369390E+02  0.17166471629E+02  0.51100000000E-03 0. -1.
        -11    1    4    4    0    0 -0.11603972116E+01 -0.34058338339E+01  0.77141606289E+01  0.85120209270E+01  0.51100000000E-03 0.  1.
         12    1    4    4    0    0  0.13267456253E+02 -0.25432384448E+02 -0.44956510313E+00  0.28688563626E+02  0.00000000000E+00 0. -1.
</event>
<event>
 8    1  0.2497772E-006  0.9118800E+02  0.7816164E-02  0.1184000E+00
        -11   -1    0    0    0    0  0.00000000000E+00  0.00000000000E+00  0.45593999997E+02  0.45594000000E+02  0.51100000000E-03 0. -1.
         11   -1    0    0    0    0 -0.00000000000E+00 -0.00000000000E+00 -0.45593999997E+02  0.45594000000E+02  0.51100000000E-03 0.  1.
         23    2    1    2    0    0  0.00000000000E+00  0.13322676296E-14 -0.14210854715E-13  0.91188000000E+02  0.91188000000E+02 0.  0.
    9900012    2    3    3    0    0  0.78251108460E+01  0.32086067234E+01 -0.35836449135E+02  0.54367100996E+02  0.40000038340E+02 0.  0.
         12    1    3    3    0    0 -0.78251108460E+01 -0.32086067234E+01  0.35836449135E+02  0.36820899004E+02  0.00000000000E+00 0. -1.
         11    1    4    4    0    0  0.10888827056E+02 -0.30554832611E+01 -0.64759941069E+01  0.13032307261E+02  0.51100000000E-03 0. -1.
        -11    1    4    4    0    0  0.15320953583E+01  0.57088577044E+01 -0.34159374985E+02  0.34667005525E+02  0.51100000000E-03 0.  1.
         12    1    4    4    0    0 -0.45958115682E+01  0.55523228013E+00  0.47989199564E+01  0.66677882092E+01  0.00000000000E+00 0. -1.
</event>
<event>
 8    1  0.2497772E-006  0.9118800E+02  0.7816164E-02  0.1184000E+00
        -11   -1    0    0    0    0  0.00000000000E+00  0.00000000000E+00  0.45593999997E+02  0.45594000000E+02  0.51100000000E-03 0. -1.
         11   -1    0    0    0    0 -0.00000000000E+00 -0.00000000000E+00 -0.45593999997E+02  0.45594000000E+02  0.51100000000E-03 0.  1.
         23    2    1    2    0    0 -0.88817841970E-15  0.11934897515E-14  0.71054273576E-14  0.91188000000E+02  0.91188000000E+02 0.  0.
    9900012    2    3    3    0    0  0.59369098718E+01 -0.22006110584E+00  0.36338482256E+02  0.54367073634E+02  0.39999975964E+02 0.  0.
        -12    1    3    3    0    0 -0.59369098718E+01  0.22006110584E+00 -0.36338482256E+02  0.36820926366E+02  0.00000000000E+00 0.  1.
         11    1    4    4    0    0  0.95024682522E+01 -0.14901563862E+02  0.32938457546E+02  0.37380415918E+02  0.51100000000E-03 0. -1.
        -11    1    4    4    0    0 -0.49689538900E+01  0.11940212755E+02  0.80232911192E+00  0.12957735746E+02  0.51100000000E-03 0.  1.
         12    1    4    4    0    0  0.14033955096E+01  0.27412900004E+01  0.25976955985E+01  0.40289219705E+01  0.00000000000E+00 0. -1.
</event>
<event>
 8    1  0.2497772E-006  0.9118800E+02  0.7816164E-02  0.1184000E+00
        -11   -1    0    0    0    0  0.00000000000E+00  0.00000000000E+00  0.45593999997E+02  0.45594000000E+02  0.51100000000E-03 0. -1.
         11   -1    0    0    0    0 -0.00000000000E+00 -0.00000000000E+00 -0.45593999997E+02  0.45594000000E+02  0.51100000000E-03 0.  1.
         23    2    1    2    0    0 -0.35527136788E-14  0.00000000000E+00 -0.35527136788E-14  0.91188000000E+02  0.91188000000E+02 0.  0.
    9900012    2    3    3    0    0 -0.21356326595E+02 -0.95055130960E+01 -0.28448780670E+02  0.54367074068E+02  0.39999976954E+02 0.  0.
         12    1    3    3    0    0  0.21356326595E+02  0.95055130960E+01  0.28448780670E+02  0.36820925932E+02  0.00000000000E+00 0. -1.
         11    1    4    4    0    0 -0.20784311656E+02 -0.38054532210E+01 -0.39730100458E+01  0.21500090565E+02  0.51100000000E-03 0. -1.
        -11    1    4    4    0    0 -0.29407602242E+01 -0.38147215149E+01  0.27008830361E+01  0.55222224121E+01  0.51100000000E-03 0.  1.
        -12    1    4    4    0    0  0.23687452850E+01 -0.18853383601E+01 -0.27176653660E+02  0.27344761091E+02  0.00000000000E+00 0.  1.
</event>
<event>
 8    1  0.2497772E-006  0.9118800E+02  0.7816164E-02  0.1184000E+00
        -11   -1    0    0    0    0  0.00000000000E+00  0.00000000000E+00  0.45593999997E+02  0.45594000000E+02  0.51100000000E-03 0. -1.
         11   -1    0    0    0    0 -0.00000000000E+00 -0.00000000000E+00 -0.45593999997E+02  0.45594000000E+02  0.51100000000E-03 0.  1.
         23    2    1    2    0    0  0.88817841970E-15  0.00000000000E+00  0.00000000000E+00  0.91188000000E+02  0.91188000000E+02 0.  0.
    9900012    2    3    3    0    0  0.39688973964E+01 -0.32990880152E+02  0.15862835223E+02  0.54367083918E+02  0.39999999409E+02 0.  0.
        -12    1    3    3    0    0 -0.39688973964E+01  0.32990880152E+02 -0.15862835223E+02  0.36820916082E+02  0.00000000000E+00 0.  1.
         11    1    4    4    0    0 -0.79220272148E+01 -0.22903007743E+02  0.16635321131E+02  0.29394560521E+02  0.51100000000E-03 0. -1.
        -11    1    4    4    0    0 -0.43261613111E+01 -0.72928448773E+01  0.26568716070E+00  0.84836223409E+01  0.51100000000E-03 0.  1.
         12    1    4    4    0    0  0.16217085922E+02 -0.27950275322E+01 -0.10381730684E+01  0.16488901056E+02  0.00000000000E+00 0. -1.
</event>
<event>
 8    1  0.2497772E-006  0.9118800E+02  0.7816164E-02  0.1184000E+00
        -11   -1    0    0    0    0  0.00000000000E+00  0.00000000000E+00  0.45593999997E+02  0.45594000000E+02  0.51100000000E-03 0.  1.
         11   -1    0    0    0    0 -0.00000000000E+00 -0.00000000000E+00 -0.45593999997E+02  0.45594000000E+02  0.51100000000E-03 0. -1.
         23    2    1    2    0    0 -0.35527136788E-14 -0.17763568394E-14  0.00000000000E+00  0.91188000000E+02  0.91188000000E+02 0.  0.
    9900012    2    3    3    0    0 -0.21926480371E+02 -0.15169709229E+02  0.25394683655E+02  0.54367074190E+02  0.39999977230E+02 0.  0.
         12    1    3    3    0    0  0.21926480371E+02  0.15169709229E+02 -0.25394683655E+02  0.36820925810E+02  0.00000000000E+00 0. -1.
         11    1    4    4    0    0  0.70388296072E+00 -0.11038278015E+02 -0.44514876316E+01  0.11922867740E+02  0.51100000000E-03 0. -1.
        -11    1    4    4    0    0 -0.46621934935E+01  0.13154105207E+01 -0.21862603566E+01  0.53147048476E+01  0.51100000000E-03 0.  1.
        -12    1    4    4    0    0 -0.17968169839E+02 -0.54468417355E+01  0.32032431643E+02  0.37129501602E+02  0.00000000000E+00 0.  1.
</event>
<event>
 8    1  0.2497772E-006  0.9118800E+02  0.7816164E-02  0.1184000E+00
        -11   -1    0    0    0    0  0.00000000000E+00  0.00000000000E+00  0.45593999997E+02  0.45594000000E+02  0.51100000000E-03 0. -1.
         11   -1    0    0    0    0 -0.00000000000E+00 -0.00000000000E+00 -0.45593999997E+02  0.45594000000E+02  0.51100000000E-03 0.  1.
         23    2    1    2    0    0  0.88817841970E-15 -0.17763568394E-14 -0.71054273576E-14  0.91188000000E+02  0.91188000000E+02 0.  0.
    9900012    2    3    3    0    0  0.74822168895E+01  0.14883791757E+02 -0.32836916650E+02  0.54367164571E+02  0.40000183272E+02 0.  0.
         12    1    3    3    0    0 -0.74822168895E+01 -0.14883791757E+02  0.32836916650E+02  0.36820835429E+02  0.00000000000E+00 0. -1.
         11    1    4    4    0    0 -0.99967189288E+01  0.10872827501E+01  0.43822212438E+01  0.10969067253E+02  0.51100000000E-03 0. -1.
        -11    1    4    4    0    0  0.98755920702E+01  0.76323910173E+01 -0.19416119630E+02  0.23081733322E+02  0.51100000000E-03 0.  1.
         12    1    4    4    0    0  0.76033437481E+01  0.61641179892E+01 -0.17803018263E+02  0.20316363996E+02  0.00000000000E+00 0. -1.
</event>
<event>
 8    1  0.2497772E-006  0.9118800E+02  0.7816164E-02  0.1184000E+00
        -11   -1    0    0    0    0  0.00000000000E+00  0.00000000000E+00  0.45593999997E+02  0.45594000000E+02  0.51100000000E-03 0. -1.
         11   -1    0    0    0    0 -0.00000000000E+00 -0.00000000000E+00 -0.45593999997E+02  0.45594000000E+02  0.51100000000E-03 0.  1.
         23    2    1    2    0    0  0.00000000000E+00 -0.88817841970E-15  0.35527136788E-14  0.91188000000E+02  0.91188000000E+02 0.  0.
    9900012    2    3    3    0    0 -0.24284554089E+02  0.54719565358E+01 -0.27131152648E+02  0.54367064113E+02  0.39999954258E+02 0.  0.
         12    1    3    3    0    0  0.24284554089E+02 -0.54719565358E+01  0.27131152648E+02  0.36820935887E+02  0.00000000000E+00 0. -1.
         11    1    4    4    0    0 -0.21286360977E+02  0.80860572169E+00 -0.19552861874E+02  0.28915003278E+02  0.51100000000E-03 0. -1.
        -11    1    4    4    0    0 -0.12195666290E+02  0.23695822069E+01 -0.96716032819E+01  0.15744494479E+02  0.51100000000E-03 0.  1.
         12    1    4    4    0    0  0.91974731783E+01  0.22937686071E+01  0.20933125087E+01  0.97075663556E+01  0.00000000000E+00 0. -1.
</event>
<event>
 8    1  0.2497772E-006  0.9118800E+02  0.7816164E-02  0.1184000E+00
        -11   -1    0    0    0    0  0.00000000000E+00  0.00000000000E+00  0.45593999997E+02  0.45594000000E+02  0.51100000000E-03 0.  1.
         11   -1    0    0    0    0 -0.00000000000E+00 -0.00000000000E+00 -0.45593999997E+02  0.45594000000E+02  0.51100000000E-03 0. -1.
         23    2    1    2    0    0  0.17763568394E-14  0.00000000000E+00  0.00000000000E+00  0.91188000000E+02  0.91188000000E+02 0.  0.
    9900012    2    3    3    0    0  0.10585819982E+02 -0.17712589747E+02 -0.30495693560E+02  0.54367044745E+02  0.39999910104E+02 0.  0.
        -12    1    3    3    0    0 -0.10585819982E+02  0.17712589747E+02  0.30495693560E+02  0.36820955255E+02  0.00000000000E+00 0.  1.
         11    1    4    4    0    0  0.13803402240E+02 -0.48859182508E+01 -0.21230942984E+02  0.25790677595E+02  0.51100000000E-03 0. -1.
        -11    1    4    4    0    0 -0.89965030388E+01 -0.13745175926E+02 -0.13573407966E+02  0.21309723889E+02  0.51100000000E-03 0.  1.
         12    1    4    4    0    0  0.57789207808E+01  0.91850442988E+00  0.43086573900E+01  0.72666432610E+01  0.00000000000E+00 0. -1.
</event>
<event>
 8    1  0.2497772E-006  0.9118800E+02  0.7816164E-02  0.1184000E+00
        -11   -1    0    0    0    0  0.00000000000E+00  0.00000000000E+00  0.45593999997E+02  0.45594000000E+02  0.51100000000E-03 0.  1.
         11   -1    0    0    0    0 -0.00000000000E+00 -0.00000000000E+00 -0.45593999997E+02  0.45594000000E+02  0.51100000000E-03 0. -1.
         23    2    1    2    0    0  0.00000000000E+00 -0.71054273576E-14  0.00000000000E+00  0.91188000000E+02  0.91188000000E+02 0.  0.
    9900012    2    3    3    0    0  0.15147528056E+02 -0.33052961009E+02  0.58168038123E+01  0.54367067852E+02  0.39999962782E+02 0.  0.
        -12    1    3    3    0    0 -0.15147528056E+02  0.33052961009E+02 -0.58168038123E+01  0.36820932148E+02  0.00000000000E+00 0.  1.
         11    1    4    4    0    0  0.79379589323E+01 -0.23869195169E+02  0.10743633046E+02  0.27352793665E+02  0.51100000000E-03 0. -1.
        -11    1    4    4    0    0  0.10986748960E+02  0.32575012834E+01 -0.75862958160E+01  0.13743065589E+02  0.51100000000E-03 0.  1.
        -12    1    4    4    0    0 -0.37771798357E+01 -0.12441267124E+02  0.26594665829E+01  0.13271208598E+02  0.00000000000E+00 0.  1.
</event>
<event>
 8    1  0.2497772E-006  0.9118800E+02  0.7816164E-02  0.1184000E+00
        -11   -1    0    0    0    0  0.00000000000E+00  0.00000000000E+00  0.45593999997E+02  0.45594000000E+02  0.51100000000E-03 0.  1.
         11   -1    0    0    0    0 -0.00000000000E+00 -0.00000000000E+00 -0.45593999997E+02  0.45594000000E+02  0.51100000000E-03 0. -1.
         23    2    1    2    0    0  0.00000000000E+00  0.00000000000E+00  0.11102230246E-15  0.91188000000E+02  0.91188000000E+02 0.  0.
    9900012    2    3    3    0    0  0.34925992140E+02  0.11644976593E+02 -0.58166918605E+00  0.54367234855E+02  0.40000343497E+02 0.  0.
        -12    1    3    3    0    0 -0.34925992140E+02 -0.11644976593E+02  0.58166918605E+00  0.36820765145E+02  0.00000000000E+00 0.  1.
         11    1    4    4    0    0  0.69191111989E+01  0.44037124750E+01 -0.61494529372E+01  0.10250978248E+02  0.51100000000E-03 0. -1.
        -11    1    4    4    0    0  0.22887586037E+02 -0.40629442229E+01 -0.90468999310E+01  0.24943847117E+02  0.51100000000E-03 0.  1.
        -12    1    4    4    0    0  0.51192949043E+01  0.11304208341E+02  0.14614683682E+02  0.19172409490E+02  0.00000000000E+00 0.  1.
</event>
<event>
 8    1  0.2497772E-006  0.9118800E+02  0.7816164E-02  0.1184000E+00
        -11   -1    0    0    0    0  0.00000000000E+00  0.00000000000E+00  0.45593999997E+02  0.45594000000E+02  0.51100000000E-03 0. -1.
         11   -1    0    0    0    0 -0.00000000000E+00 -0.00000000000E+00 -0.45593999997E+02  0.45594000000E+02  0.51100000000E-03 0.  1.
         23    2    1    2    0    0  0.35527136788E-14  0.00000000000E+00  0.88817841970E-15  0.91188000000E+02  0.91188000000E+02 0.  0.
    9900012    2    3    3    0    0  0.17316469745E+02 -0.32491434961E+02  0.47588778414E+00  0.54367082854E+02  0.39999996983E+02 0.  0.
        -12    1    3    3    0    0 -0.17316469745E+02  0.32491434961E+02 -0.47588778414E+00  0.36820917146E+02  0.00000000000E+00 0.  1.
         11    1    4    4    0    0 -0.54329998202E+01 -0.50888699627E+01 -0.70771256847E+01  0.10271309204E+02  0.51100000000E-03 0.  1.
        -11    1    4    4    0    0 -0.48920791174E+01 -0.89477112507E+01  0.13678396503E+01  0.10289069943E+02  0.51100000000E-03 0. -1.
         12    1    4    4    0    0  0.27641548683E+02 -0.18454853748E+02  0.61851738185E+01  0.33806703708E+02  0.00000000000E+00 0. -1.
</event>
<event>
 8    1  0.2497772E-006  0.9118800E+02  0.7816164E-02  0.1184000E+00
        -11   -1    0    0    0    0  0.00000000000E+00  0.00000000000E+00  0.45593999997E+02  0.45594000000E+02  0.51100000000E-03 0. -1.
         11   -1    0    0    0    0 -0.00000000000E+00 -0.00000000000E+00 -0.45593999997E+02  0.45594000000E+02  0.51100000000E-03 0.  1.
         23    2    1    2    0    0  0.00000000000E+00  0.00000000000E+00 -0.35527136788E-14  0.91188000000E+02  0.91188000000E+02 0.  0.
    9900012    2    3    3    0    0 -0.10295907449E+02 -0.29309580713E+02 -0.19766681971E+02  0.54367096319E+02  0.40000027677E+02 0.  0.
        -12    1    3    3    0    0  0.10295907449E+02  0.29309580713E+02  0.19766681971E+02  0.36820903681E+02  0.00000000000E+00 0.  1.
         11    1    4    4    0    0 -0.12077613381E+02 -0.15378411493E+01 -0.14020734664E+01  0.12255590995E+02  0.51100000000E-03 0. -1.
        -11    1    4    4    0    0 -0.60110736522E+01 -0.41085594024E+00 -0.11288365477E+02  0.12795663502E+02  0.51100000000E-03 0.  1.
         12    1    4    4    0    0  0.77927795842E+01 -0.27360883623E+02 -0.70762430281E+01  0.29315841821E+02  0.00000000000E+00 0. -1.
</event>
<event>
 8    1  0.2497772E-006  0.9118800E+02  0.7816164E-02  0.1184000E+00
        -11   -1    0    0    0    0  0.00000000000E+00  0.00000000000E+00  0.45593999997E+02  0.45594000000E+02  0.51100000000E-03 0.  1.
         11   -1    0    0    0    0 -0.00000000000E+00 -0.00000000000E+00 -0.45593999997E+02  0.45594000000E+02  0.51100000000E-03 0. -1.
         23    2    1    2    0    0  0.00000000000E+00  0.17763568394E-14 -0.71054273576E-14  0.91188000000E+02  0.91188000000E+02 0.  0.
    9900012    2    3    3    0    0  0.87967830527E+01  0.11674014451E+02  0.33795177360E+02  0.54367081783E+02  0.39999994542E+02 0.  0.
         12    1    3    3    0    0 -0.87967830527E+01 -0.11674014451E+02 -0.33795177360E+02  0.36820918217E+02  0.00000000000E+00 0. -1.
         11    1    4    4    0    0 -0.33521694080E+01 -0.67226612733E+01  0.12315619719E+00  0.75130807294E+01  0.51100000000E-03 0. -1.
        -11    1    4    4    0    0  0.13960398525E+00  0.17171772240E+01  0.24134287812E+02  0.24195702828E+02  0.51100000000E-03 0.  1.
         12    1    4    4    0    0  0.12009348476E+02  0.16679498500E+02  0.95377333517E+01  0.22658298226E+02  0.00000000000E+00 0. -1.
</event>
<event>
 8    1  0.2497772E-006  0.9118800E+02  0.7816164E-02  0.1184000E+00
        -11   -1    0    0    0    0  0.00000000000E+00  0.00000000000E+00  0.45593999997E+02  0.45594000000E+02  0.51100000000E-03 0. -1.
         11   -1    0    0    0    0 -0.00000000000E+00 -0.00000000000E+00 -0.45593999997E+02  0.45594000000E+02  0.51100000000E-03 0.  1.
         23    2    1    2    0    0 -0.22204460493E-15 -0.17763568394E-14  0.71054273576E-14  0.91188000000E+02  0.91188000000E+02 0.  0.
    9900012    2    3    3    0    0  0.18686151045E+01 -0.10976372168E+02  0.35097204128E+02  0.54366997760E+02  0.39999802993E+02 0.  0.
        -12    1    3    3    0    0 -0.18686151045E+01  0.10976372168E+02 -0.35097204128E+02  0.36821002240E+02  0.00000000000E+00 0.  1.
         11    1    4    4    0    0 -0.93074115024E+01 -0.12414684047E+02  0.35216257512E+02  0.38482945343E+02  0.51100000000E-03 0. -1.
        -11    1    4    4    0    0  0.98447814227E+01  0.26976533714E+01  0.43180382605E+01  0.11083434019E+02  0.51100000000E-03 0.  1.
         12    1    4    4    0    0  0.13312451842E+01 -0.12593414921E+01 -0.44370916452E+01  0.48006183979E+01  0.00000000000E+00 0. -1.
</event>
<event>
 8    1  0.2497772E-006  0.9118800E+02  0.7816164E-02  0.1184000E+00
        -11   -1    0    0    0    0  0.00000000000E+00  0.00000000000E+00  0.45593999997E+02  0.45594000000E+02  0.51100000000E-03 0. -1.
         11   -1    0    0    0    0 -0.00000000000E+00 -0.00000000000E+00 -0.45593999997E+02  0.45594000000E+02  0.51100000000E-03 0.  1.
         23    2    1    2    0    0  0.71054273576E-14  0.35527136788E-14  0.44408920985E-15  0.91188000000E+02  0.91188000000E+02 0.  0.
    9900012    2    3    3    0    0  0.30211836752E+02  0.20953256473E+02  0.19963323707E+01  0.54367090455E+02  0.40000014311E+02 0.  0.
         12    1    3    3    0    0 -0.30211836752E+02 -0.20953256473E+02 -0.19963323707E+01  0.36820909545E+02  0.00000000000E+00 0. -1.
         11    1    4    4    0    0  0.45728868940E+01  0.12771427309E+02  0.21448186432E+01  0.13733932333E+02  0.51100000000E-03 0. -1.
        -11    1    4    4    0    0  0.25628475089E+02  0.17442856295E+02 -0.24267840447E+01  0.31096000582E+02  0.51100000000E-03 0.  1.
         12    1    4    4    0    0  0.10474768751E-01 -0.92610271300E+01  0.22782977722E+01  0.95371575410E+01  0.00000000000E+00 0. -1.
</event>
<event>
 8    1  0.2497772E-006  0.9118800E+02  0.7816164E-02  0.1184000E+00
        -11   -1    0    0    0    0  0.00000000000E+00  0.00000000000E+00  0.45593999997E+02  0.45594000000E+02  0.51100000000E-03 0. -1.
         11   -1    0    0    0    0 -0.00000000000E+00 -0.00000000000E+00 -0.45593999997E+02  0.45594000000E+02  0.51100000000E-03 0.  1.
         23    2    1    2    0    0  0.00000000000E+00 -0.35527136788E-14  0.00000000000E+00  0.91188000000E+02  0.91188000000E+02 0.  0.
    9900012    2    3    3    0    0  0.20029529879E+02  0.19313896677E+02 -0.24115870737E+02  0.54367029162E+02  0.39999874581E+02 0.  0.
         12    1    3    3    0    0 -0.20029529879E+02 -0.19313896677E+02  0.24115870737E+02  0.36820970838E+02  0.00000000000E+00 0. -1.
         11    1    4    4    0    0  0.79425413117E+01 -0.34618256046E+01 -0.98189380837E+01  0.13095027467E+02  0.51100000000E-03 0. -1.
        -11    1    4    4    0    0  0.16059772467E+02  0.58675283871E+01 -0.16503653650E+02  0.23763727930E+02  0.51100000000E-03 0.  1.
         12    1    4    4    0    0 -0.39727838999E+01  0.16908193894E+02  0.22067209967E+01  0.17508273765E+02  0.00000000000E+00 0. -1.
</event>
<event>
 8    1  0.2497772E-006  0.9118800E+02  0.7816164E-02  0.1184000E+00
        -11   -1    0    0    0    0  0.00000000000E+00  0.00000000000E+00  0.45593999997E+02  0.45594000000E+02  0.51100000000E-03 0.  1.
         11   -1    0    0    0    0 -0.00000000000E+00 -0.00000000000E+00 -0.45593999997E+02  0.45594000000E+02  0.51100000000E-03 0. -1.
         23    2    1    2    0    0 -0.35527136788E-14  0.00000000000E+00 -0.71054273576E-14  0.91188000000E+02  0.91188000000E+02 0.  0.
    9900012    2    3    3    0    0 -0.26937338910E+02 -0.42602994583E+01 -0.24738829007E+02  0.54367081494E+02  0.39999993881E+02 0.  0.
        -12    1    3    3    0    0  0.26937338910E+02  0.42602994583E+01  0.24738829007E+02  0.36820918506E+02  0.00000000000E+00 0.  1.
         11    1    4    4    0    0  0.33763860742E+01 -0.25180383567E+01 -0.63285344341E+00  0.42592257313E+01  0.51100000000E-03 0. -1.
        -11    1    4    4    0    0 -0.25152008647E+02  0.74532434930E+01 -0.28596037604E+01  0.26388476869E+02  0.51100000000E-03 0.  1.
         12    1    4    4    0    0 -0.51617163370E+01 -0.91955045945E+01 -0.21246371803E+02  0.23719378893E+02  0.00000000000E+00 0. -1.
</event>
<event>
 8    1  0.2497772E-006  0.9118800E+02  0.7816164E-02  0.1184000E+00
        -11   -1    0    0    0    0  0.00000000000E+00  0.00000000000E+00  0.45593999997E+02  0.45594000000E+02  0.51100000000E-03 0. -1.
         11   -1    0    0    0    0 -0.00000000000E+00 -0.00000000000E+00 -0.45593999997E+02  0.45594000000E+02  0.51100000000E-03 0.  1.
         23    2    1    2    0    0  0.00000000000E+00  0.00000000000E+00  0.00000000000E+00  0.91188000000E+02  0.91188000000E+02 0.  0.
    9900012    2    3    3    0    0 -0.11034305447E+02  0.29032764508E+02  0.19776796681E+02  0.54367095630E+02  0.40000026107E+02 0.  0.
        -12    1    3    3    0    0  0.11034305447E+02 -0.29032764508E+02 -0.19776796681E+02  0.36820904370E+02  0.00000000000E+00 0.  1.
         11    1    4    4    0    0 -0.10304602289E+02  0.36262244507E+02  0.75186314443E+01  0.38440408740E+02  0.51100000000E-03 0. -1.
        -11    1    4    4    0    0  0.26373137902E+01 -0.40676844425E+01  0.91638503380E+01  0.10367142038E+02  0.51100000000E-03 0.  1.
         12    1    4    4    0    0 -0.33670169487E+01 -0.31617955561E+01  0.30943148988E+01  0.55595448523E+01  0.00000000000E+00 0. -1.
</event>
<event>
 8    1  0.2497772E-006  0.9118800E+02  0.7816164E-02  0.1184000E+00
        -11   -1    0    0    0    0  0.00000000000E+00  0.00000000000E+00  0.45593999997E+02  0.45594000000E+02  0.51100000000E-03 0. -1.
         11   -1    0    0    0    0 -0.00000000000E+00 -0.00000000000E+00 -0.45593999997E+02  0.45594000000E+02  0.51100000000E-03 0.  1.
         23    2    1    2    0    0  0.35527136788E-14 -0.66613381478E-15  0.00000000000E+00  0.91188000000E+02  0.91188000000E+02 0.  0.
    9900012    2    3    3    0    0  0.15330044646E+02 -0.18557883153E+01  0.33426458420E+02  0.54367050235E+02  0.39999922620E+02 0.  0.
        -12    1    3    3    0    0 -0.15330044646E+02  0.18557883153E+01 -0.33426458420E+02  0.36820949765E+02  0.00000000000E+00 0.  1.
         11    1    4    4    0    0  0.18803983684E+02 -0.48768630368E+01  0.18794654496E+02  0.27029847083E+02  0.51100000000E-03 0. -1.
        -11    1    4    4    0    0 -0.12200968291E+02  0.29372577530E+01  0.31933011757E+01  0.12949451069E+02  0.51100000000E-03 0.  1.
         12    1    4    4    0    0  0.87270292526E+01  0.83816968499E-01  0.11438502748E+02  0.14387752082E+02  0.00000000000E+00 0. -1.
</event>
<event>
 8    1  0.2497772E-006  0.9118800E+02  0.7816164E-02  0.1184000E+00
        -11   -1    0    0    0    0  0.00000000000E+00  0.00000000000E+00  0.45593999997E+02  0.45594000000E+02  0.51100000000E-03 0.  1.
         11   -1    0    0    0    0 -0.00000000000E+00 -0.00000000000E+00 -0.45593999997E+02  0.45594000000E+02  0.51100000000E-03 0. -1.
         23    2    1    2    0    0  0.00000000000E+00  0.00000000000E+00 -0.35527136788E-14  0.91188000000E+02  0.91188000000E+02 0.  0.
    9900012    2    3    3    0    0 -0.19649467266E+02 -0.13097977036E+02  0.28251042526E+02  0.54367082438E+02  0.39999996035E+02 0.  0.
        -12    1    3    3    0    0  0.19649467266E+02  0.13097977036E+02 -0.28251042526E+02  0.36820917562E+02  0.00000000000E+00 0.  1.
         11    1    4    4    0    0 -0.73755659200E+01  0.10900850281E+02  0.64777977149E+01  0.14669334442E+02  0.51100000000E-03 0. -1.
        -11    1    4    4    0    0 -0.11879703286E+02 -0.96619378340E+01  0.20084974272E+02  0.25256416702E+02  0.51100000000E-03 0.  1.
        -12    1    4    4    0    0 -0.39419806014E+00 -0.14336889482E+02  0.16882705393E+01  0.14441331294E+02  0.00000000000E+00 0.  1.
</event>
<event>
 8    1  0.2497772E-006  0.9118800E+02  0.7816164E-02  0.1184000E+00
        -11   -1    0    0    0    0  0.00000000000E+00  0.00000000000E+00  0.45593999997E+02  0.45594000000E+02  0.51100000000E-03 0.  1.
         11   -1    0    0    0    0 -0.00000000000E+00 -0.00000000000E+00 -0.45593999997E+02  0.45594000000E+02  0.51100000000E-03 0. -1.
         23    2    1    2    0    0  0.44408920985E-15 -0.17763568394E-14  0.00000000000E+00  0.91188000000E+02  0.91188000000E+02 0.  0.
    9900012    2    3    3    0    0  0.26042075063E+01 -0.10677291115E+02 -0.35142603341E+02  0.54366959658E+02  0.39999716131E+02 0.  0.
        -12    1    3    3    0    0 -0.26042075063E+01  0.10677291115E+02  0.35142603341E+02  0.36821040342E+02  0.00000000000E+00 0.  1.
         11    1    4    4    0    0  0.50103434499E+01 -0.74668517416E+01 -0.36370657310E+02  0.37465746087E+02  0.51100000000E-03 0. -1.
        -11    1    4    4    0    0 -0.42996736133E+01  0.40627613650E+01 -0.45156691267E+01  0.74420757194E+01  0.51100000000E-03 0.  1.
        -12    1    4    4    0    0  0.18935376697E+01 -0.72732007384E+01  0.57437230960E+01  0.94591378514E+01  0.00000000000E+00 0.  1.
</event>
<event>
 8    1  0.2497772E-006  0.9118800E+02  0.7816164E-02  0.1184000E+00
        -11   -1    0    0    0    0  0.00000000000E+00  0.00000000000E+00  0.45593999997E+02  0.45594000000E+02  0.51100000000E-03 0.  1.
         11   -1    0    0    0    0 -0.00000000000E+00 -0.00000000000E+00 -0.45593999997E+02  0.45594000000E+02  0.51100000000E-03 0. -1.
         23    2    1    2    0    0  0.00000000000E+00  0.00000000000E+00  0.00000000000E+00  0.91188000000E+02  0.91188000000E+02 0.  0.
    9900012    2    3    3    0    0  0.17664671189E+02 -0.70483144277E+01 -0.31528740301E+02  0.54367071040E+02  0.39999970051E+02 0.  0.
        -12    1    3    3    0    0 -0.17664671189E+02  0.70483144277E+01  0.31528740301E+02  0.36820928960E+02  0.00000000000E+00 0.  1.
         11    1    4    4    0    0  0.17179451534E+02  0.78579594894E+01 -0.17589078443E+02  0.25811950006E+02  0.51100000000E-03 0. -1.
        -11    1    4    4    0    0  0.94558675805E+01 -0.52048436396E+01 -0.10132190211E+02  0.14804226009E+02  0.51100000000E-03 0.  1.
        -12    1    4    4    0    0 -0.89706479263E+01 -0.97014302775E+01 -0.38074716473E+01  0.13750895025E+02  0.00000000000E+00 0.  1.
</event>
<event>
 8    1  0.2497772E-006  0.9118800E+02  0.7816164E-02  0.1184000E+00
        -11   -1    0    0    0    0  0.00000000000E+00  0.00000000000E+00  0.45593999997E+02  0.45594000000E+02  0.51100000000E-03 0. -1.
         11   -1    0    0    0    0 -0.00000000000E+00 -0.00000000000E+00 -0.45593999997E+02  0.45594000000E+02  0.51100000000E-03 0.  1.
         23    2    1    2    0    0  0.71054273576E-14 -0.44408920985E-15  0.88817841970E-15  0.91188000000E+02  0.91188000000E+02 0.  0.
    9900012    2    3    3    0    0 -0.35848642703E+02  0.28948130068E+01 -0.78915257154E+01  0.54367064323E+02  0.39999954737E+02 0.  0.
         12    1    3    3    0    0  0.35848642703E+02 -0.28948130068E+01  0.78915257154E+01  0.36820935677E+02  0.00000000000E+00 0. -1.
         11    1    4    4    0    0 -0.26193452522E-01 -0.63417644802E+00 -0.87335740658E+01  0.87566079099E+01  0.51100000000E-03 0. -1.
        -11    1    4    4    0    0 -0.25015827913E+02 -0.77478023706E+01 -0.83504058148E+01  0.27487258235E+02  0.51100000000E-03 0.  1.
         12    1    4    4    0    0 -0.10806621338E+02  0.11276791825E+02  0.91924541652E+01  0.18123198178E+02  0.00000000000E+00 0. -1.
</event>
<event>
 8    1  0.2497772E-006  0.9118800E+02  0.7816164E-02  0.1184000E+00
        -11   -1    0    0    0    0  0.00000000000E+00  0.00000000000E+00  0.45593999997E+02  0.45594000000E+02  0.51100000000E-03 0.  1.
         11   -1    0    0    0    0 -0.00000000000E+00 -0.00000000000E+00 -0.45593999997E+02  0.45594000000E+02  0.51100000000E-03 0. -1.
         23    2    1    2    0    0 -0.35527136788E-14  0.00000000000E+00  0.00000000000E+00  0.91188000000E+02  0.91188000000E+02 0.  0.
    9900012    2    3    3    0    0  0.27862047242E+02 -0.20670286038E+02 -0.12338079391E+02  0.54367046665E+02  0.39999914483E+02 0.  0.
        -12    1    3    3    0    0 -0.27862047242E+02  0.20670286038E+02  0.12338079391E+02  0.36820953335E+02  0.00000000000E+00 0.  1.
         11    1    4    4    0    0  0.15079548294E+02 -0.77352546003E+01 -0.72872044691E+01  0.18448042978E+02  0.51100000000E-03 0. -1.
        -11    1    4    4    0    0  0.13355272655E+02 -0.21416117295E+02 -0.86609021687E+01  0.26683789355E+02  0.51100000000E-03 0.  1.
        -12    1    4    4    0    0 -0.57277370626E+00  0.84810858577E+01  0.36100272470E+01  0.92352143326E+01  0.00000000000E+00 0.  1.
</event>
<event>
 8    1  0.2497772E-006  0.9118800E+02  0.7816164E-02  0.1184000E+00
        -11   -1    0    0    0    0  0.00000000000E+00  0.00000000000E+00  0.45593999997E+02  0.45594000000E+02  0.51100000000E-03 0. -1.
         11   -1    0    0    0    0 -0.00000000000E+00 -0.00000000000E+00 -0.45593999997E+02  0.45594000000E+02  0.51100000000E-03 0.  1.
         23    2    1    2    0    0  0.17763568394E-14  0.00000000000E+00  0.35527136788E-14  0.91188000000E+02  0.91188000000E+02 0.  0.
    9900012    2    3    3    0    0 -0.14777829330E+02 -0.17209198218E+02 -0.29004108133E+02  0.54367095182E+02  0.40000025086E+02 0.  0.
         12    1    3    3    0    0  0.14777829330E+02  0.17209198218E+02  0.29004108133E+02  0.36820904818E+02  0.00000000000E+00 0. -1.
         11    1    4    4    0    0 -0.36789880070E+01 -0.15214390492E+02  0.32560236376E+01  0.15987942988E+02  0.51100000000E-03 0. -1.
        -11    1    4    4    0    0 -0.14119871274E+02  0.16122147162E+01 -0.29921416593E+02  0.33124932789E+02  0.51100000000E-03 0.  1.
         12    1    4    4    0    0  0.30210299513E+01 -0.36070224429E+01 -0.23387151777E+01  0.52542194047E+01  0.00000000000E+00 0. -1.
</event>
<event>
 8    1  0.2497772E-006  0.9118800E+02  0.7816164E-02  0.1184000E+00
        -11   -1    0    0    0    0  0.00000000000E+00  0.00000000000E+00  0.45593999997E+02  0.45594000000E+02  0.51100000000E-03 0. -1.
         11   -1    0    0    0    0 -0.00000000000E+00 -0.00000000000E+00 -0.45593999997E+02  0.45594000000E+02  0.51100000000E-03 0.  1.
         23    2    1    2    0    0  0.35527136788E-14  0.00000000000E+00  0.35527136788E-14  0.91188000000E+02  0.91188000000E+02 0.  0.
    9900012    2    3    3    0    0 -0.13149819394E+02 -0.15438006500E+02 -0.30733214686E+02  0.54367078234E+02  0.39999986450E+02 0.  0.
         12    1    3    3    0    0  0.13149819394E+02  0.15438006500E+02  0.30733214686E+02  0.36820921766E+02  0.00000000000E+00 0. -1.
         11    1    4    4    0    0  0.38954182418E+01 -0.13265460235E+02 -0.11952833804E+02  0.18276130737E+02  0.51100000000E-03 0. -1.
        -11    1    4    4    0    0 -0.18995084361E+02 -0.82367650724E+01 -0.55937910956E+01  0.21446398948E+02  0.51100000000E-03 0.  1.
         12    1    4    4    0    0  0.19498467250E+01  0.60642188076E+01 -0.13186589786E+02  0.14644548549E+02  0.00000000000E+00 0. -1.
</event>
<event>
 8    1  0.2497772E-006  0.9118800E+02  0.7816164E-02  0.1184000E+00
        -11   -1    0    0    0    0  0.00000000000E+00  0.00000000000E+00  0.45593999997E+02  0.45594000000E+02  0.51100000000E-03 0.  1.
         11   -1    0    0    0    0 -0.00000000000E+00 -0.00000000000E+00 -0.45593999997E+02  0.45594000000E+02  0.51100000000E-03 0. -1.
         23    2    1    2    0    0 -0.35527136788E-14  0.00000000000E+00 -0.44408920985E-15  0.91188000000E+02  0.91188000000E+02 0.  0.
    9900012    2    3    3    0    0  0.25662750802E+02  0.26331566184E+02  0.19619848358E+01  0.54367115424E+02  0.40000071232E+02 0.  0.
         12    1    3    3    0    0 -0.25662750802E+02 -0.26331566184E+02 -0.19619848358E+01  0.36820884576E+02  0.00000000000E+00 0. -1.
         11    1    4    4    0    0  0.34231510242E+01 -0.25955833478E+01  0.59329445784E+01  0.73249469268E+01  0.51100000000E-03 0. -1.
        -11    1    4    4    0    0  0.16791788554E+02  0.24473560201E+02  0.10065598241E+02  0.31340637836E+02  0.51100000000E-03 0.  1.
         12    1    4    4    0    0  0.54478112237E+01  0.44535893315E+01 -0.14036557984E+02  0.15701530661E+02  0.00000000000E+00 0. -1.
</event>
<event>
 8    1  0.2497772E-006  0.9118800E+02  0.7816164E-02  0.1184000E+00
        -11   -1    0    0    0    0  0.00000000000E+00  0.00000000000E+00  0.45593999997E+02  0.45594000000E+02  0.51100000000E-03 0.  1.
         11   -1    0    0    0    0 -0.00000000000E+00 -0.00000000000E+00 -0.45593999997E+02  0.45594000000E+02  0.51100000000E-03 0. -1.
         23    2    1    2    0    0  0.35527136788E-14 -0.17763568394E-14 -0.10658141036E-13  0.91188000000E+02  0.91188000000E+02 0.  0.
    9900012    2    3    3    0    0  0.15965135013E+02  0.93154616405E+01 -0.31845195248E+02  0.54367084450E+02  0.40000000621E+02 0.  0.
        -12    1    3    3    0    0 -0.15965135013E+02 -0.93154616405E+01  0.31845195248E+02  0.36820915550E+02  0.00000000000E+00 0.  1.
         11    1    4    4    0    0 -0.58869917607E+01  0.11110870930E+02 -0.19918435373E+02  0.23555300736E+02  0.51100000000E-03 0. -1.
        -11    1    4    4    0    0 -0.25188981590E+01  0.10841807434E+01  0.11858185119E+01  0.29877184647E+01  0.51100000000E-03 0.  1.
        -12    1    4    4    0    0  0.24371024933E+02 -0.28795900331E+01 -0.13112578387E+02  0.27824065249E+02  0.00000000000E+00 0.  1.
</event>
<event>
 8    1  0.2497772E-006  0.9118800E+02  0.7816164E-02  0.1184000E+00
        -11   -1    0    0    0    0  0.00000000000E+00  0.00000000000E+00  0.45593999997E+02  0.45594000000E+02  0.51100000000E-03 0.  1.
         11   -1    0    0    0    0 -0.00000000000E+00 -0.00000000000E+00 -0.45593999997E+02  0.45594000000E+02  0.51100000000E-03 0. -1.
         23    2    1    2    0    0  0.00000000000E+00  0.00000000000E+00  0.00000000000E+00  0.91188000000E+02  0.91188000000E+02 0.  0.
    9900012    2    3    3    0    0  0.25560033172E+01  0.24490926552E+02 -0.27375939638E+02  0.54367072427E+02  0.39999973211E+02 0.  0.
        -12    1    3    3    0    0 -0.25560033172E+01 -0.24490926552E+02  0.27375939638E+02  0.36820927573E+02  0.00000000000E+00 0.  1.
         11    1    4    4    0    0  0.37906428558E+01  0.12698172517E+02  0.71960000860E+00  0.13271412244E+02  0.51100000000E-03 0. -1.
        -11    1    4    4    0    0  0.18673866094E+01 -0.87818756741E+01 -0.10755552455E+02  0.14010366946E+02  0.51100000000E-03 0.  1.
        -12    1    4    4    0    0 -0.31020261480E+01  0.20574629709E+02 -0.17339987191E+02  0.27085293236E+02  0.00000000000E+00 0.  1.
</event>
<event>
 8    1  0.2497772E-006  0.9118800E+02  0.7816164E-02  0.1184000E+00
        -11   -1    0    0    0    0  0.00000000000E+00  0.00000000000E+00  0.45593999997E+02  0.45594000000E+02  0.51100000000E-03 0.  1.
         11   -1    0    0    0    0 -0.00000000000E+00 -0.00000000000E+00 -0.45593999997E+02  0.45594000000E+02  0.51100000000E-03 0. -1.
         23    2    1    2    0    0  0.00000000000E+00  0.00000000000E+00  0.88817841970E-15  0.91188000000E+02  0.91188000000E+02 0.  0.
    9900012    2    3    3    0    0  0.30148389400E+02 -0.19841745000E+02 -0.72910505623E+01  0.54367086834E+02  0.40000006056E+02 0.  0.
        -12    1    3    3    0    0 -0.30148389400E+02  0.19841745000E+02  0.72910505623E+01  0.36820913166E+02  0.00000000000E+00 0.  1.
         11    1    4    4    0    0  0.25280944562E+02 -0.91241811382E+01  0.76867928726E+01  0.27954670885E+02  0.51100000000E-03 0. -1.
        -11    1    4    4    0    0  0.11269282769E+02 -0.50166018704E+01 -0.12328505540E+02  0.17440042361E+02  0.51100000000E-03 0.  1.
        -12    1    4    4    0    0 -0.64018379306E+01 -0.57009619912E+01 -0.26493378949E+01  0.89723735876E+01  0.00000000000E+00 0.  1.
</event>
<event>
 8    1  0.2497772E-006  0.9118800E+02  0.7816164E-02  0.1184000E+00
        -11   -1    0    0    0    0  0.00000000000E+00  0.00000000000E+00  0.45593999997E+02  0.45594000000E+02  0.51100000000E-03 0.  1.
         11   -1    0    0    0    0 -0.00000000000E+00 -0.00000000000E+00 -0.45593999997E+02  0.45594000000E+02  0.51100000000E-03 0. -1.
         23    2    1    2    0    0  0.00000000000E+00  0.00000000000E+00 -0.22204460493E-15  0.91188000000E+02  0.91188000000E+02 0.  0.
    9900012    2    3    3    0    0 -0.34647229008E+02 -0.12357464448E+02  0.16256786627E+01  0.54367078819E+02  0.39999987783E+02 0.  0.
        -12    1    3    3    0    0  0.34647229008E+02  0.12357464448E+02 -0.16256786627E+01  0.36820921181E+02  0.00000000000E+00 0.  1.
         11    1    4    4    0    0 -0.43118842298E+02 -0.71413019642E+01  0.86646020248E+00  0.43714797362E+02  0.51100000000E-03 0. -1.
        -11    1    4    4    0    0  0.22013901346E+01  0.50349081306E-01  0.10902138635E+01  0.24570755145E+01  0.51100000000E-03 0.  1.
         12    1    4    4    0    0  0.62702231550E+01 -0.52665115650E+01 -0.33099540329E+00  0.81952059422E+01  0.00000000000E+00 0. -1.
</event>
<event>
 8    1  0.2497772E-006  0.9118800E+02  0.7816164E-02  0.1184000E+00
        -11   -1    0    0    0    0  0.00000000000E+00  0.00000000000E+00  0.45593999997E+02  0.45594000000E+02  0.51100000000E-03 0. -1.
         11   -1    0    0    0    0 -0.00000000000E+00 -0.00000000000E+00 -0.45593999997E+02  0.45594000000E+02  0.51100000000E-03 0.  1.
         23    2    1    2    0    0 -0.17763568394E-14  0.35527136788E-14  0.00000000000E+00  0.91188000000E+02  0.91188000000E+02 0.  0.
    9900012    2    3    3    0    0  0.71337730066E+01 -0.22124049863E+02  0.28555479572E+02  0.54367085927E+02  0.40000003987E+02 0.  0.
        -12    1    3    3    0    0 -0.71337730066E+01  0.22124049863E+02 -0.28555479572E+02  0.36820914073E+02  0.00000000000E+00 0.  1.
         11    1    4    4    0    0  0.32997411050E+01 -0.19846209230E+02  0.18198907521E+02  0.27128592801E+02  0.51100000000E-03 0. -1.
        -11    1    4    4    0    0 -0.76856959427E+01 -0.86300217157E+01  0.22112520028E+01  0.11765918265E+02  0.51100000000E-03 0.  1.
        -12    1    4    4    0    0  0.11519727844E+02  0.63521810834E+01  0.81453200484E+01  0.15472574860E+02  0.00000000000E+00 0.  1.
</event>
<event>
 8    1  0.2497772E-006  0.9118800E+02  0.7816164E-02  0.1184000E+00
        -11   -1    0    0    0    0  0.00000000000E+00  0.00000000000E+00  0.45593999997E+02  0.45594000000E+02  0.51100000000E-03 0. -1.
         11   -1    0    0    0    0 -0.00000000000E+00 -0.00000000000E+00 -0.45593999997E+02  0.45594000000E+02  0.51100000000E-03 0.  1.
         23    2    1    2    0    0  0.71054273576E-14  0.11102230246E-15 -0.35527136788E-14  0.91188000000E+02  0.91188000000E+02 0.  0.
    9900012    2    3    3    0    0  0.29546463378E+02  0.83171407301E+00  0.21956745136E+02  0.54367029027E+02  0.39999874273E+02 0.  0.
        -12    1    3    3    0    0 -0.29546463378E+02 -0.83171407301E+00 -0.21956745136E+02  0.36820970973E+02  0.00000000000E+00 0.  1.
         11    1    4    4    0    0  0.20412179238E+01  0.74379234813E-02  0.19295442782E+02  0.19403111564E+02  0.51100000000E-03 0. -1.
        -11    1    4    4    0    0  0.97556872873E+01 -0.76942738463E+01 -0.55805835167E+01  0.13620506493E+02  0.51100000000E-03 0.  1.
        -12    1    4    4    0    0  0.17749558167E+02  0.85185499958E+01  0.82418858700E+01  0.21343410970E+02  0.00000000000E+00 0.  1.
</event>
<event>
 8    1  0.2497772E-006  0.9118800E+02  0.7816164E-02  0.1184000E+00
        -11   -1    0    0    0    0  0.00000000000E+00  0.00000000000E+00  0.45593999997E+02  0.45594000000E+02  0.51100000000E-03 0. -1.
         11   -1    0    0    0    0 -0.00000000000E+00 -0.00000000000E+00 -0.45593999997E+02  0.45594000000E+02  0.51100000000E-03 0.  1.
         23    2    1    2    0    0 -0.71054273576E-14 -0.13322676296E-14  0.00000000000E+00  0.91188000000E+02  0.91188000000E+02 0.  0.
    9900012    2    3    3    0    0  0.34895045752E+02 -0.32626193031E+01  0.11290252549E+02  0.54367099612E+02  0.40000035186E+02 0.  0.
        -12    1    3    3    0    0 -0.34895045752E+02  0.32626193031E+01 -0.11290252549E+02  0.36820900388E+02  0.00000000000E+00 0.  1.
         11    1    4    4    0    0  0.22939748069E+02 -0.83455356442E+01  0.11100446565E+02  0.26816038500E+02  0.51100000000E-03 0. -1.
        -11    1    4    4    0    0  0.37557364148E+00 -0.82542483694E+01  0.44457466424E+01  0.93828745688E+01  0.51100000000E-03 0.  1.
        -12    1    4    4    0    0  0.11579724042E+02  0.13337164710E+02 -0.42559406580E+01  0.18168186543E+02  0.00000000000E+00 0.  1.
</event>
<event>
 8    1  0.2497772E-006  0.9118800E+02  0.7816164E-02  0.1184000E+00
        -11   -1    0    0    0    0  0.00000000000E+00  0.00000000000E+00  0.45593999997E+02  0.45594000000E+02  0.51100000000E-03 0.  1.
         11   -1    0    0    0    0 -0.00000000000E+00 -0.00000000000E+00 -0.45593999997E+02  0.45594000000E+02  0.51100000000E-03 0. -1.
         23    2    1    2    0    0  0.00000000000E+00  0.00000000000E+00  0.00000000000E+00  0.91188000000E+02  0.91188000000E+02 0.  0.
    9900012    2    3    3    0    0 -0.21376347959E+02 -0.66015936917E+01 -0.29244665244E+02  0.54367085609E+02  0.40000003262E+02 0.  0.
        -12    1    3    3    0    0  0.21376347959E+02  0.66015936917E+01  0.29244665244E+02  0.36820914391E+02  0.00000000000E+00 0.  1.
         11    1    4    4    0    0 -0.80192801169E+01 -0.81965022871E+00 -0.12342660597E+02  0.14741843540E+02  0.51100000000E-03 0. -1.
        -11    1    4    4    0    0 -0.35240945209E+01  0.11214176555E+02 -0.16150401398E+02  0.19975296332E+02  0.51100000000E-03 0.  1.
        -12    1    4    4    0    0 -0.98329733216E+01 -0.16996120018E+02 -0.75160325000E+00  0.19649945736E+02  0.00000000000E+00 0.  1.
</event>
<event>
 8    1  0.2497772E-006  0.9118800E+02  0.7816164E-02  0.1184000E+00
        -11   -1    0    0    0    0  0.00000000000E+00  0.00000000000E+00  0.45593999997E+02  0.45594000000E+02  0.51100000000E-03 0. -1.
         11   -1    0    0    0    0 -0.00000000000E+00 -0.00000000000E+00 -0.45593999997E+02  0.45594000000E+02  0.51100000000E-03 0.  1.
         23    2    1    2    0    0 -0.17763568394E-14 -0.71054273576E-14  0.00000000000E+00  0.91188000000E+02  0.91188000000E+02 0.  0.
    9900012    2    3    3    0    0  0.15400090056E+02  0.33207479437E+02  0.39852694261E+01  0.54367057091E+02  0.39999938251E+02 0.  0.
        -12    1    3    3    0    0 -0.15400090056E+02 -0.33207479437E+02 -0.39852694261E+01  0.36820942909E+02  0.00000000000E+00 0.  1.
         11    1    4    4    0    0  0.13404972248E+02  0.22542725903E+02  0.20068576684E+02  0.33024468845E+02  0.51100000000E-03 0. -1.
        -11    1    4    4    0    0 -0.24142763636E+01  0.64941400370E+01 -0.44882778779E+01  0.82551331758E+01  0.51100000000E-03 0.  1.
         12    1    4    4    0    0  0.44093941716E+01  0.41706134974E+01 -0.11595029380E+02  0.13087455071E+02  0.00000000000E+00 0. -1.
</event>
<event>
 8    1  0.2497772E-006  0.9118800E+02  0.7816164E-02  0.1184000E+00
        -11   -1    0    0    0    0  0.00000000000E+00  0.00000000000E+00  0.45593999997E+02  0.45594000000E+02  0.51100000000E-03 0. -1.
         11   -1    0    0    0    0 -0.00000000000E+00 -0.00000000000E+00 -0.45593999997E+02  0.45594000000E+02  0.51100000000E-03 0.  1.
         23    2    1    2    0    0  0.00000000000E+00 -0.44408920985E-15  0.00000000000E+00  0.91188000000E+02  0.91188000000E+02 0.  0.
    9900012    2    3    3    0    0 -0.26715166899E+02 -0.22719057744E+01  0.25237248294E+02  0.54367076604E+02  0.39999982734E+02 0.  0.
        -12    1    3    3    0    0  0.26715166899E+02  0.22719057744E+01 -0.25237248294E+02  0.36820923396E+02  0.00000000000E+00 0.  1.
         11    1    4    4    0    0 -0.31297653518E+02 -0.10242161994E+02  0.10219699084E+02  0.34480244310E+02  0.51100000000E-03 0. -1.
        -11    1    4    4    0    0  0.43903196454E+01 -0.57762327594E+00  0.60391913022E+01  0.74886839354E+01  0.51100000000E-03 0.  1.
         12    1    4    4    0    0  0.19216697340E+00  0.85478794956E+01  0.89783579073E+01  0.12398148359E+02  0.00000000000E+00 0. -1.
</event>
<event>
 8    1  0.2497772E-006  0.9118800E+02  0.7816164E-02  0.1184000E+00
        -11   -1    0    0    0    0  0.00000000000E+00  0.00000000000E+00  0.45593999997E+02  0.45594000000E+02  0.51100000000E-03 0. -1.
         11   -1    0    0    0    0 -0.00000000000E+00 -0.00000000000E+00 -0.45593999997E+02  0.45594000000E+02  0.51100000000E-03 0.  1.
         23    2    1    2    0    0 -0.35527136788E-14  0.00000000000E+00  0.44408920985E-15  0.91188000000E+02  0.91188000000E+02 0.  0.
    9900012    2    3    3    0    0  0.17793349052E+02  0.32226353093E+02  0.79928229321E+00  0.54367082624E+02  0.39999996459E+02 0.  0.
         12    1    3    3    0    0 -0.17793349052E+02 -0.32226353093E+02 -0.79928229321E+00  0.36820917376E+02  0.00000000000E+00 0. -1.
         11    1    4    4    0    0  0.22139774042E+02  0.15176973697E+02  0.87863082328E+00  0.26856695955E+02  0.51100000000E-03 0. -1.
        -11    1    4    4    0    0  0.19955038008E+01  0.73390515270E+01 -0.97808623618E+01  0.12389874153E+02  0.51100000000E-03 0.  1.
         12    1    4    4    0    0 -0.63419287907E+01  0.97103278693E+01  0.97015138317E+01  0.15120512516E+02  0.00000000000E+00 0. -1.
</event>
<event>
 8    1  0.2497772E-006  0.9118800E+02  0.7816164E-02  0.1184000E+00
        -11   -1    0    0    0    0  0.00000000000E+00  0.00000000000E+00  0.45593999997E+02  0.45594000000E+02  0.51100000000E-03 0. -1.
         11   -1    0    0    0    0 -0.00000000000E+00 -0.00000000000E+00 -0.45593999997E+02  0.45594000000E+02  0.51100000000E-03 0.  1.
         23    2    1    2    0    0 -0.71054273576E-14 -0.17763568394E-14  0.44408920985E-15  0.91188000000E+02  0.91188000000E+02 0.  0.
    9900012    2    3    3    0    0 -0.36195840980E+02 -0.56935858439E+01  0.36373267288E+01  0.54367000968E+02  0.39999810306E+02 0.  0.
         12    1    3    3    0    0  0.36195840980E+02  0.56935858439E+01 -0.36373267288E+01  0.36820999032E+02  0.00000000000E+00 0. -1.
         11    1    4    4    0    0  0.81428023695E+00  0.71306597569E+01 -0.17476319314E+00  0.71791297041E+01  0.51100000000E-03 0. -1.
        -11    1    4    4    0    0 -0.18188813907E+02  0.93809326080E+00  0.12733870849E+02  0.22223060936E+02  0.51100000000E-03 0.  1.
         12    1    4    4    0    0 -0.18821307310E+02 -0.13762338862E+02 -0.89217809266E+01  0.24964810327E+02  0.00000000000E+00 0. -1.
</event>
<event>
 8    1  0.2497772E-006  0.9118800E+02  0.7816164E-02  0.1184000E+00
        -11   -1    0    0    0    0  0.00000000000E+00  0.00000000000E+00  0.45593999997E+02  0.45594000000E+02  0.51100000000E-03 0. -1.
         11   -1    0    0    0    0 -0.00000000000E+00 -0.00000000000E+00 -0.45593999997E+02  0.45594000000E+02  0.51100000000E-03 0.  1.
         23    2    1    2    0    0 -0.71054273576E-14  0.17763568394E-14  0.00000000000E+00  0.91188000000E+02  0.91188000000E+02 0.  0.
    9900012    2    3    3    0    0 -0.29039094788E+02  0.13912812141E+02  0.17858928391E+02  0.54367126965E+02  0.40000097543E+02 0.  0.
         12    1    3    3    0    0  0.29039094788E+02 -0.13912812141E+02 -0.17858928391E+02  0.36820873035E+02  0.00000000000E+00 0. -1.
         11    1    4    4    0    0 -0.16792126821E+02  0.34135235139E+01  0.26415173643E+02  0.31486331397E+02  0.51100000000E-03 0. -1.
        -11    1    4    4    0    0 -0.22013220316E+01  0.91071417235E+01  0.36096711286E+00  0.93763610520E+01  0.51100000000E-03 0.  1.
        -12    1    4    4    0    0 -0.10045645935E+02  0.13921469034E+01 -0.89172123650E+01  0.13504434517E+02  0.00000000000E+00 0.  1.
</event>
<event>
 8    1  0.2497772E-006  0.9118800E+02  0.7816164E-02  0.1184000E+00
        -11   -1    0    0    0    0  0.00000000000E+00  0.00000000000E+00  0.45593999997E+02  0.45594000000E+02  0.51100000000E-03 0.  1.
         11   -1    0    0    0    0 -0.00000000000E+00 -0.00000000000E+00 -0.45593999997E+02  0.45594000000E+02  0.51100000000E-03 0. -1.
         23    2    1    2    0    0 -0.35527136788E-14  0.00000000000E+00  0.17763568394E-14  0.91188000000E+02  0.91188000000E+02 0.  0.
    9900012    2    3    3    0    0  0.10025205355E+02 -0.34894678356E+02 -0.61353947957E+01  0.54366995270E+02  0.39999797317E+02 0.  0.
         12    1    3    3    0    0 -0.10025205355E+02  0.34894678356E+02  0.61353947957E+01  0.36821004730E+02  0.00000000000E+00 0. -1.
         11    1    4    4    0    0 -0.21640175439E+01  0.10404725694E+01  0.26261095523E+01  0.35583713605E+01  0.51100000000E-03 0. -1.
        -11    1    4    4    0    0  0.40492744022E+01 -0.34807907392E+02  0.43738261415E+01  0.35314549346E+02  0.51100000000E-03 0.  1.
         12    1    4    4    0    0  0.81399484966E+01 -0.11272435342E+01 -0.13135330489E+02  0.15494074563E+02  0.00000000000E+00 0. -1.
</event>
<event>
 8    1  0.2497772E-006  0.9118800E+02  0.7816164E-02  0.1184000E+00
        -11   -1    0    0    0    0  0.00000000000E+00  0.00000000000E+00  0.45593999997E+02  0.45594000000E+02  0.51100000000E-03 0. -1.
         11   -1    0    0    0    0 -0.00000000000E+00 -0.00000000000E+00 -0.45593999997E+02  0.45594000000E+02  0.51100000000E-03 0.  1.
         23    2    1    2    0    0  0.00000000000E+00  0.17763568394E-14 -0.35527136788E-14  0.91188000000E+02  0.91188000000E+02 0.  0.
    9900012    2    3    3    0    0 -0.20164118850E+02  0.99639478548E+01 -0.29153175737E+02  0.54367087444E+02  0.40000007447E+02 0.  0.
         12    1    3    3    0    0  0.20164118850E+02 -0.99639478548E+01  0.29153175737E+02  0.36820912556E+02  0.00000000000E+00 0. -1.
         11    1    4    4    0    0 -0.50150499364E+01 -0.12472497898E+02 -0.80084966021E+01  0.15647681865E+02  0.51100000000E-03 0. -1.
        -11    1    4    4    0    0 -0.11108901269E+02  0.24733672929E+02 -0.20575784537E+02  0.34037114648E+02  0.51100000000E-03 0.  1.
        -12    1    4    4    0    0 -0.40401676448E+01 -0.22972271770E+01 -0.56889459849E+00  0.46822909313E+01  0.00000000000E+00 0.  1.
</event>
<event>
 8    1  0.2497772E-006  0.9118800E+02  0.7816164E-02  0.1184000E+00
        -11   -1    0    0    0    0  0.00000000000E+00  0.00000000000E+00  0.45593999997E+02  0.45594000000E+02  0.51100000000E-03 0.  1.
         11   -1    0    0    0    0 -0.00000000000E+00 -0.00000000000E+00 -0.45593999997E+02  0.45594000000E+02  0.51100000000E-03 0. -1.
         23    2    1    2    0    0 -0.44408920985E-15  0.00000000000E+00  0.00000000000E+00  0.91188000000E+02  0.91188000000E+02 0.  0.
    9900012    2    3    3    0    0 -0.36020717253E+01  0.34383519128E+02 -0.12671953302E+02  0.54367085986E+02  0.40000004123E+02 0.  0.
        -12    1    3    3    0    0  0.36020717253E+01 -0.34383519128E+02  0.12671953302E+02  0.36820914014E+02  0.00000000000E+00 0.  1.
         11    1    4    4    0    0 -0.15071716622E+02  0.96477873505E+01 -0.19374028033E+01  0.17999721458E+02  0.51100000000E-03 0. -1.
        -11    1    4    4    0    0  0.25250563482E+01 -0.27878959564E+01  0.25286318720E+01  0.45323562118E+01  0.51100000000E-03 0.  1.
         12    1    4    4    0    0  0.89445885481E+01  0.27523627734E+02 -0.13263182371E+02  0.31835008317E+02  0.00000000000E+00 0. -1.
</event>
<event>
 8    1  0.2497772E-006  0.9118800E+02  0.7816164E-02  0.1184000E+00
        -11   -1    0    0    0    0  0.00000000000E+00  0.00000000000E+00  0.45593999997E+02  0.45594000000E+02  0.51100000000E-03 0.  1.
         11   -1    0    0    0    0 -0.00000000000E+00 -0.00000000000E+00 -0.45593999997E+02  0.45594000000E+02  0.51100000000E-03 0. -1.
         23    2    1    2    0    0  0.00000000000E+00  0.00000000000E+00  0.00000000000E+00  0.91188000000E+02  0.91188000000E+02 0.  0.
    9900012    2    3    3    0    0 -0.26087344530E+02 -0.19666493083E+02 -0.16984096244E+02  0.54367081760E+02  0.39999994489E+02 0.  0.
        -12    1    3    3    0    0  0.26087344530E+02  0.19666493083E+02  0.16984096244E+02  0.36820918240E+02  0.00000000000E+00 0.  1.
         11    1    4    4    0    0 -0.23636149486E+02 -0.12679586156E+02 -0.21987311386E+02  0.34682579631E+02  0.51100000000E-03 0. -1.
        -11    1    4    4    0    0 -0.36249783458E+01  0.74857157150E+00  0.98215081748E+01  0.10495849203E+02  0.51100000000E-03 0.  1.
        -12    1    4    4    0    0  0.11737833025E+01 -0.77354784985E+01 -0.48182930330E+01  0.91886529259E+01  0.00000000000E+00 0.  1.
</event>
<event>
 8    1  0.2497772E-006  0.9118800E+02  0.7816164E-02  0.1184000E+00
        -11   -1    0    0    0    0  0.00000000000E+00  0.00000000000E+00  0.45593999997E+02  0.45594000000E+02  0.51100000000E-03 0.  1.
         11   -1    0    0    0    0 -0.00000000000E+00 -0.00000000000E+00 -0.45593999997E+02  0.45594000000E+02  0.51100000000E-03 0. -1.
         23    2    1    2    0    0 -0.71054273576E-14 -0.88817841970E-15  0.35527136788E-14  0.91188000000E+02  0.91188000000E+02 0.  0.
    9900012    2    3    3    0    0  0.21790432458E+02 -0.33469617181E+01 -0.29491605242E+02  0.54367083673E+02  0.39999998849E+02 0.  0.
        -12    1    3    3    0    0 -0.21790432458E+02  0.33469617181E+01  0.29491605242E+02  0.36820916327E+02  0.00000000000E+00 0.  1.
         11    1    4    4    0    0 -0.37679040480E+01  0.75833475591E+00 -0.57607258004E-01  0.38438901355E+01  0.51100000000E-03 0. -1.
        -11    1    4    4    0    0  0.56350734209E+01  0.13403769017E+02 -0.10419337227E+02  0.17887919522E+02  0.51100000000E-03 0.  1.
         12    1    4    4    0    0  0.19923263085E+02 -0.17509065491E+02 -0.19014660757E+02  0.32635274015E+02  0.00000000000E+00 0. -1.
</event>
<event>
 8    1  0.2497772E-006  0.9118800E+02  0.7816164E-02  0.1184000E+00
        -11   -1    0    0    0    0  0.00000000000E+00  0.00000000000E+00  0.45593999997E+02  0.45594000000E+02  0.51100000000E-03 0. -1.
         11   -1    0    0    0    0 -0.00000000000E+00 -0.00000000000E+00 -0.45593999997E+02  0.45594000000E+02  0.51100000000E-03 0.  1.
         23    2    1    2    0    0  0.00000000000E+00  0.00000000000E+00  0.44408920985E-15  0.91188000000E+02  0.91188000000E+02 0.  0.
    9900012    2    3    3    0    0  0.15543406954E+02  0.33294213355E+02  0.23828981657E+01  0.54367077329E+02  0.39999984387E+02 0.  0.
        -12    1    3    3    0    0 -0.15543406954E+02 -0.33294213355E+02 -0.23828981657E+01  0.36820922671E+02  0.00000000000E+00 0.  1.
         11    1    4    4    0    0  0.50638390261E+01  0.71659535432E+01 -0.30630631692E+00  0.87799305059E+01  0.51100000000E-03 0. -1.
        -11    1    4    4    0    0  0.13662368869E+02  0.22018155852E+01 -0.11143199210E+02  0.17767363448E+02  0.51100000000E-03 0.  1.
        -12    1    4    4    0    0 -0.31828009412E+01  0.23926444227E+02  0.13832403692E+02  0.27819783376E+02  0.00000000000E+00 0.  1.
</event>
<event>
 8    1  0.2497772E-006  0.9118800E+02  0.7816164E-02  0.1184000E+00
        -11   -1    0    0    0    0  0.00000000000E+00  0.00000000000E+00  0.45593999997E+02  0.45594000000E+02  0.51100000000E-03 0. -1.
         11   -1    0    0    0    0 -0.00000000000E+00 -0.00000000000E+00 -0.45593999997E+02  0.45594000000E+02  0.51100000000E-03 0.  1.
         23    2    1    2    0    0  0.00000000000E+00  0.00000000000E+00  0.00000000000E+00  0.91188000000E+02  0.91188000000E+02 0.  0.
    9900012    2    3    3    0    0 -0.27631421318E+02  0.21120570308E+02  0.12091519508E+02  0.54367098623E+02  0.40000032931E+02 0.  0.
        -12    1    3    3    0    0  0.27631421318E+02 -0.21120570308E+02 -0.12091519508E+02  0.36820901377E+02  0.00000000000E+00 0.  1.
         11    1    4    4    0    0 -0.82930250297E+01 -0.61712235875E+01  0.36433937858E+01  0.10960501049E+02  0.51100000000E-03 0. -1.
        -11    1    4    4    0    0 -0.10916138512E+02  0.20308409957E+02  0.17709122777E+02  0.29072437545E+02  0.51100000000E-03 0.  1.
         12    1    4    4    0    0 -0.84222577764E+01  0.69833839382E+01 -0.92609970553E+01  0.14334160029E+02  0.00000000000E+00 0. -1.
</event>
<event>
 8    1  0.2497772E-006  0.9118800E+02  0.7816164E-02  0.1184000E+00
        -11   -1    0    0    0    0  0.00000000000E+00  0.00000000000E+00  0.45593999997E+02  0.45594000000E+02  0.51100000000E-03 0. -1.
         11   -1    0    0    0    0 -0.00000000000E+00 -0.00000000000E+00 -0.45593999997E+02  0.45594000000E+02  0.51100000000E-03 0.  1.
         23    2    1    2    0    0  0.00000000000E+00  0.35527136788E-14  0.35527136788E-14  0.91188000000E+02  0.91188000000E+02 0.  0.
    9900012    2    3    3    0    0  0.22872387608E+02 -0.17997028907E+02 -0.22555278400E+02  0.54367085453E+02  0.40000002907E+02 0.  0.
         12    1    3    3    0    0 -0.22872387608E+02  0.17997028907E+02  0.22555278400E+02  0.36820914547E+02  0.00000000000E+00 0. -1.
         11    1    4    4    0    0 -0.87719713570E+01 -0.61414217966E+01 -0.66747497284E+01  0.12618115048E+02  0.51100000000E-03 0. -1.
        -11    1    4    4    0    0  0.34138713621E+02 -0.11269652409E+02 -0.15534440487E+02  0.39163448196E+02  0.51100000000E-03 0.  1.
        -12    1    4    4    0    0 -0.24943546555E+01 -0.58595470177E+00 -0.34608818422E+00  0.25855222086E+01  0.00000000000E+00 0.  1.
</event>
<event>
 8    1  0.2497772E-006  0.9118800E+02  0.7816164E-02  0.1184000E+00
        -11   -1    0    0    0    0  0.00000000000E+00  0.00000000000E+00  0.45593999997E+02  0.45594000000E+02  0.51100000000E-03 0. -1.
         11   -1    0    0    0    0 -0.00000000000E+00 -0.00000000000E+00 -0.45593999997E+02  0.45594000000E+02  0.51100000000E-03 0.  1.
         23    2    1    2    0    0  0.44408920985E-15  0.13322676296E-14  0.00000000000E+00  0.91188000000E+02  0.91188000000E+02 0.  0.
    9900012    2    3    3    0    0  0.37190059420E+01 -0.14290695807E+01 -0.36604744336E+02  0.54367074524E+02  0.39999977991E+02 0.  0.
         12    1    3    3    0    0 -0.37190059420E+01  0.14290695807E+01  0.36604744336E+02  0.36820925476E+02  0.00000000000E+00 0. -1.
         11    1    4    4    0    0  0.57726518686E+01 -0.11284200096E+02  0.22036064443E+01  0.12865168597E+02  0.51100000000E-03 0. -1.
        -11    1    4    4    0    0 -0.58498102435E+01  0.50809347289E+01 -0.28400046540E+02  0.29438050569E+02  0.51100000000E-03 0.  1.
         12    1    4    4    0    0  0.37961643170E+01  0.47741957864E+01 -0.10408304240E+02  0.12063855357E+02  0.00000000000E+00 0. -1.
</event>
<event>
 8    1  0.2497772E-006  0.9118800E+02  0.7816164E-02  0.1184000E+00
        -11   -1    0    0    0    0  0.00000000000E+00  0.00000000000E+00  0.45593999997E+02  0.45594000000E+02  0.51100000000E-03 0. -1.
         11   -1    0    0    0    0 -0.00000000000E+00 -0.00000000000E+00 -0.45593999997E+02  0.45594000000E+02  0.51100000000E-03 0.  1.
         23    2    1    2    0    0  0.17763568394E-14  0.71054273576E-14  0.00000000000E+00  0.91188000000E+02  0.91188000000E+02 0.  0.
    9900012    2    3    3    0    0  0.13501057778E+02  0.32527186525E+02 -0.10746221814E+02  0.54367113161E+02  0.40000066072E+02 0.  0.
         12    1    3    3    0    0 -0.13501057778E+02 -0.32527186525E+02  0.10746221814E+02  0.36820886839E+02  0.00000000000E+00 0. -1.
         11    1    4    4    0    0 -0.69543069325E+01  0.39099560205E+01  0.66836686649E+01  0.10407764797E+02  0.51100000000E-03 0. -1.
        -11    1    4    4    0    0  0.18252417647E+02  0.92778865466E+01 -0.57815525310E+01  0.21275720403E+02  0.51100000000E-03 0.  1.
         12    1    4    4    0    0  0.22029470628E+01  0.19339343958E+02 -0.11648337948E+02  0.22683627960E+02  0.00000000000E+00 0. -1.
</event>
<event>
 8    1  0.2497772E-006  0.9118800E+02  0.7816164E-02  0.1184000E+00
        -11   -1    0    0    0    0  0.00000000000E+00  0.00000000000E+00  0.45593999997E+02  0.45594000000E+02  0.51100000000E-03 0. -1.
         11   -1    0    0    0    0 -0.00000000000E+00 -0.00000000000E+00 -0.45593999997E+02  0.45594000000E+02  0.51100000000E-03 0.  1.
         23    2    1    2    0    0  0.35527136788E-14  0.00000000000E+00  0.00000000000E+00  0.91188000000E+02  0.91188000000E+02 0.  0.
    9900012    2    3    3    0    0  0.19653121153E+02  0.25101851387E+02  0.18423661610E+02  0.54367089891E+02  0.40000013025E+02 0.  0.
        -12    1    3    3    0    0 -0.19653121153E+02 -0.25101851387E+02 -0.18423661610E+02  0.36820910109E+02  0.00000000000E+00 0.  1.
         11    1    4    4    0    0  0.10668933114E+02  0.16848869312E+02  0.84020217034E+01  0.21640344264E+02  0.51100000000E-03 0. -1.
        -11    1    4    4    0    0  0.18872475127E+02  0.31437222918E+01  0.25043621615E+01  0.19295728474E+02  0.51100000000E-03 0.  1.
         12    1    4    4    0    0 -0.98882870878E+01  0.51092597826E+01  0.75172777453E+01  0.13431017153E+02  0.00000000000E+00 0. -1.
</event>
<event>
 8    1  0.2497772E-006  0.9118800E+02  0.7816164E-02  0.1184000E+00
        -11   -1    0    0    0    0  0.00000000000E+00  0.00000000000E+00  0.45593999997E+02  0.45594000000E+02  0.51100000000E-03 0.  1.
         11   -1    0    0    0    0 -0.00000000000E+00 -0.00000000000E+00 -0.45593999997E+02  0.45594000000E+02  0.51100000000E-03 0. -1.
         23    2    1    2    0    0  0.35527136788E-14  0.17763568394E-14 -0.35527136788E-14  0.91188000000E+02  0.91188000000E+02 0.  0.
    9900012    2    3    3    0    0 -0.26581759547E+02 -0.99182782115E+01  0.23469697796E+02  0.54366961205E+02  0.39999719658E+02 0.  0.
         12    1    3    3    0    0  0.26581759547E+02  0.99182782115E+01 -0.23469697796E+02  0.36821038795E+02  0.00000000000E+00 0. -1.
         11    1    4    4    0    0 -0.11487526078E+02 -0.11441921220E+02  0.18475817680E+02  0.24581225677E+02  0.51100000000E-03 0. -1.
        -11    1    4    4    0    0 -0.14872958248E+02  0.10401425385E+02  0.87440971662E+01  0.20145812781E+02  0.51100000000E-03 0.  1.
         12    1    4    4    0    0 -0.22127522113E+00 -0.88777823765E+01 -0.37502170499E+01  0.96399227471E+01  0.00000000000E+00 0. -1.
</event>
<event>
 8    1  0.2497772E-006  0.9118800E+02  0.7816164E-02  0.1184000E+00
        -11   -1    0    0    0    0  0.00000000000E+00  0.00000000000E+00  0.45593999997E+02  0.45594000000E+02  0.51100000000E-03 0.  1.
         11   -1    0    0    0    0 -0.00000000000E+00 -0.00000000000E+00 -0.45593999997E+02  0.45594000000E+02  0.51100000000E-03 0. -1.
         23    2    1    2    0    0 -0.88817841970E-15  0.17763568394E-14  0.00000000000E+00  0.91188000000E+02  0.91188000000E+02 0.  0.
    9900012    2    3    3    0    0  0.52515872807E+01 -0.11494392069E+02 -0.34584331888E+02  0.54367133224E+02  0.40000111811E+02 0.  0.
        -12    1    3    3    0    0 -0.52515872807E+01  0.11494392069E+02  0.34584331888E+02  0.36820866776E+02  0.00000000000E+00 0.  1.
         11    1    4    4    0    0 -0.43430447892E+01  0.62538314292E+00 -0.97366729444E+01  0.10679697674E+02  0.51100000000E-03 0. -1.
        -11    1    4    4    0    0  0.56449868486E+01 -0.20985393768E+02 -0.60916285397E+01  0.22569017848E+02  0.51100000000E-03 0.  1.
        -12    1    4    4    0    0  0.39496452213E+01  0.88656185556E+01 -0.18756030403E+02  0.21118417702E+02  0.00000000000E+00 0.  1.
</event>
<event>
 8    1  0.2497772E-006  0.9118800E+02  0.7816164E-02  0.1184000E+00
        -11   -1    0    0    0    0  0.00000000000E+00  0.00000000000E+00  0.45593999997E+02  0.45594000000E+02  0.51100000000E-03 0.  1.
         11   -1    0    0    0    0 -0.00000000000E+00 -0.00000000000E+00 -0.45593999997E+02  0.45594000000E+02  0.51100000000E-03 0. -1.
         23    2    1    2    0    0  0.35527136788E-14 -0.44408920985E-15 -0.71054273576E-14  0.91188000000E+02  0.91188000000E+02 0.  0.
    9900012    2    3    3    0    0 -0.16221916677E+02 -0.20548094905E+01  0.32991016001E+02  0.54367082582E+02  0.39999996363E+02 0.  0.
         12    1    3    3    0    0  0.16221916677E+02  0.20548094905E+01 -0.32991016001E+02  0.36820917418E+02  0.00000000000E+00 0. -1.
         11    1    4    4    0    0 -0.99543011690E+01  0.23768563294E+01 -0.33115114199E+01  0.10756563853E+02  0.51100000000E-03 0. -1.
        -11    1    4    4    0    0  0.45134941422E+01 -0.77735785291E+01  0.48926583872E+01  0.10234171138E+02  0.51100000000E-03 0.  1.
        -12    1    4    4    0    0 -0.10781109650E+02  0.33419127092E+01  0.31409869034E+02  0.33376347592E+02  0.00000000000E+00 0.  1.
</event>
<event>
 8    1  0.2497772E-006  0.9118800E+02  0.7816164E-02  0.1184000E+00
        -11   -1    0    0    0    0  0.00000000000E+00  0.00000000000E+00  0.45593999997E+02  0.45594000000E+02  0.51100000000E-03 0.  1.
         11   -1    0    0    0    0 -0.00000000000E+00 -0.00000000000E+00 -0.45593999997E+02  0.45594000000E+02  0.51100000000E-03 0. -1.
         23    2    1    2    0    0  0.88817841970E-15 -0.17763568394E-14  0.00000000000E+00  0.91188000000E+02  0.91188000000E+02 0.  0.
    9900012    2    3    3    0    0  0.72335091175E+01 -0.15207081412E+02  0.32744546672E+02  0.54367023425E+02  0.39999861501E+02 0.  0.
         12    1    3    3    0    0 -0.72335091175E+01  0.15207081412E+02 -0.32744546672E+02  0.36820976575E+02  0.00000000000E+00 0. -1.
         11    1    4    4    0    0  0.54580587237E+01 -0.25258746822E+00 -0.84779800411E+01  0.10086146504E+02  0.51100000000E-03 0. -1.
        -11    1    4    4    0    0 -0.13693780755E+01 -0.99292809294E+01  0.22242552926E+02  0.24396659136E+02  0.51100000000E-03 0.  1.
         12    1    4    4    0    0  0.31448284694E+01 -0.50252130145E+01  0.18979973787E+02  0.19884217784E+02  0.00000000000E+00 0. -1.
</event>
<event>
 8    1  0.2497772E-006  0.9118800E+02  0.7816164E-02  0.1184000E+00
        -11   -1    0    0    0    0  0.00000000000E+00  0.00000000000E+00  0.45593999997E+02  0.45594000000E+02  0.51100000000E-03 0.  1.
         11   -1    0    0    0    0 -0.00000000000E+00 -0.00000000000E+00 -0.45593999997E+02  0.45594000000E+02  0.51100000000E-03 0. -1.
         23    2    1    2    0    0 -0.43021142204E-15  0.00000000000E+00  0.00000000000E+00  0.91188000000E+02  0.91188000000E+02 0.  0.
    9900012    2    3    3    0    0  0.62699228785E-01  0.16133762375E+02  0.33098003726E+02  0.54367081079E+02  0.39999992936E+02 0.  0.
         12    1    3    3    0    0 -0.62699228785E-01 -0.16133762375E+02 -0.33098003726E+02  0.36820918921E+02  0.00000000000E+00 0. -1.
         11    1    4    4    0    0 -0.80508148076E+01  0.91265514648E+01 -0.33550580470E+01  0.12624023743E+02  0.51100000000E-03 0. -1.
        -11    1    4    4    0    0  0.12519210233E+01  0.11755437563E+02  0.23988184864E+02  0.26743048290E+02  0.51100000000E-03 0.  1.
        -12    1    4    4    0    0  0.68615930131E+01 -0.47482266524E+01  0.12464876909E+02  0.15000009046E+02  0.00000000000E+00 0.  1.
</event>
<event>
 8    1  0.2497772E-006  0.9118800E+02  0.7816164E-02  0.1184000E+00
        -11   -1    0    0    0    0  0.00000000000E+00  0.00000000000E+00  0.45593999997E+02  0.45594000000E+02  0.51100000000E-03 0. -1.
         11   -1    0    0    0    0 -0.00000000000E+00 -0.00000000000E+00 -0.45593999997E+02  0.45594000000E+02  0.51100000000E-03 0.  1.
         23    2    1    2    0    0  0.00000000000E+00  0.00000000000E+00 -0.17763568394E-14  0.91188000000E+02  0.91188000000E+02 0.  0.
    9900012    2    3    3    0    0 -0.26732194649E+02  0.22920370406E+02 -0.10762267982E+02  0.54367081728E+02  0.39999994414E+02 0.  0.
        -12    1    3    3    0    0  0.26732194649E+02 -0.22920370406E+02  0.10762267982E+02  0.36820918272E+02  0.00000000000E+00 0.  1.
         11    1    4    4    0    0 -0.25496132545E+02  0.14862334533E+02  0.94037598063E+01  0.30973738252E+02  0.51100000000E-03 0. -1.
        -11    1    4    4    0    0  0.35141711356E+01  0.27042761803E+01 -0.54253923844E+01  0.70069530622E+01  0.51100000000E-03 0.  1.
         12    1    4    4    0    0 -0.47502332396E+01  0.53537596924E+01 -0.14740635404E+02  0.16386390414E+02  0.00000000000E+00 0. -1.
</event>
<event>
 8    1  0.2497772E-006  0.9118800E+02  0.7816164E-02  0.1184000E+00
        -11   -1    0    0    0    0  0.00000000000E+00  0.00000000000E+00  0.45593999997E+02  0.45594000000E+02  0.51100000000E-03 0.  1.
         11   -1    0    0    0    0 -0.00000000000E+00 -0.00000000000E+00 -0.45593999997E+02  0.45594000000E+02  0.51100000000E-03 0. -1.
         23    2    1    2    0    0  0.00000000000E+00  0.88817841970E-15 -0.35527136788E-14  0.91188000000E+02  0.91188000000E+02 0.  0.
    9900012    2    3    3    0    0 -0.21802051094E+02 -0.34316747988E+01 -0.29473400990E+02  0.54366984401E+02  0.39999772539E+02 0.  0.
        -12    1    3    3    0    0  0.21802051094E+02  0.34316747988E+01  0.29473400990E+02  0.36821015599E+02  0.00000000000E+00 0.  1.
         11    1    4    4    0    0 -0.16184968791E+01 -0.87254336476E+01 -0.15357698939E+02  0.17737295212E+02  0.51100000000E-03 0. -1.
        -11    1    4    4    0    0 -0.17279473187E+02  0.14828412334E+02 -0.13865937540E+02  0.26659449171E+02  0.51100000000E-03 0.  1.
        -12    1    4    4    0    0 -0.29040810283E+01 -0.95346534855E+01 -0.24976451057E+00  0.99702400181E+01  0.00000000000E+00 0.  1.
</event>
<event>
 8    1  0.2497772E-006  0.9118800E+02  0.7816164E-02  0.1184000E+00
        -11   -1    0    0    0    0  0.00000000000E+00  0.00000000000E+00  0.45593999997E+02  0.45594000000E+02  0.51100000000E-03 0. -1.
         11   -1    0    0    0    0 -0.00000000000E+00 -0.00000000000E+00 -0.45593999997E+02  0.45594000000E+02  0.51100000000E-03 0.  1.
         23    2    1    2    0    0  0.35527136788E-14  0.00000000000E+00  0.00000000000E+00  0.91188000000E+02  0.91188000000E+02 0.  0.
    9900012    2    3    3    0    0 -0.18830557718E+02 -0.14023903132E+02  0.28364060695E+02  0.54367086077E+02  0.40000004329E+02 0.  0.
        -12    1    3    3    0    0  0.18830557718E+02  0.14023903132E+02 -0.28364060695E+02  0.36820913923E+02  0.00000000000E+00 0.  1.
         11    1    4    4    0    0  0.27455394390E+01  0.73553465847E+01 -0.22116987941E+01  0.81566366849E+01  0.51100000000E-03 0.  1.
        -11    1    4    4    0    0 -0.47123984541E+01 -0.15923193770E+02  0.17922508287E+02  0.24432992093E+02  0.51100000000E-03 0. -1.
         12    1    4    4    0    0 -0.16863698703E+02 -0.54560559468E+01  0.12653251202E+02  0.21777457299E+02  0.00000000000E+00 0. -1.
</event>
<event>
 8    1  0.2497772E-006  0.9118800E+02  0.7816164E-02  0.1184000E+00
        -11   -1    0    0    0    0  0.00000000000E+00  0.00000000000E+00  0.45593999997E+02  0.45594000000E+02  0.51100000000E-03 0.  1.
         11   -1    0    0    0    0 -0.00000000000E+00 -0.00000000000E+00 -0.45593999997E+02  0.45594000000E+02  0.51100000000E-03 0. -1.
         23    2    1    2    0    0  0.00000000000E+00  0.00000000000E+00  0.44408920985E-15  0.91188000000E+02  0.91188000000E+02 0.  0.
    9900012    2    3    3    0    0 -0.34414291730E+02 -0.12799830641E+02  0.27571496051E+01  0.54367068267E+02  0.39999963729E+02 0.  0.
         12    1    3    3    0    0  0.34414291730E+02  0.12799830641E+02 -0.27571496051E+01  0.36820931733E+02  0.00000000000E+00 0. -1.
         11    1    4    4    0    0  0.19061472812E+01 -0.41052310035E+00 -0.24707168965E+01  0.31474384692E+01  0.51100000000E-03 0. -1.
        -11    1    4    4    0    0 -0.51643214288E+01  0.99856506523E+01  0.62213551963E+01  0.12848684583E+02  0.51100000000E-03 0.  1.
        -12    1    4    4    0    0 -0.31156117582E+02 -0.22374958193E+02 -0.99348869476E+00  0.38370945215E+02  0.00000000000E+00 0.  1.
</event>
<event>
 8    1  0.2497772E-006  0.9118800E+02  0.7816164E-02  0.1184000E+00
        -11   -1    0    0    0    0  0.00000000000E+00  0.00000000000E+00  0.45593999997E+02  0.45594000000E+02  0.51100000000E-03 0.  1.
         11   -1    0    0    0    0 -0.00000000000E+00 -0.00000000000E+00 -0.45593999997E+02  0.45594000000E+02  0.51100000000E-03 0. -1.
         23    2    1    2    0    0  0.35527136788E-14  0.00000000000E+00  0.88817841970E-15  0.91188000000E+02  0.91188000000E+02 0.  0.
    9900012    2    3    3    0    0 -0.31950310065E+02  0.18057821376E+02 -0.29787421504E+01  0.54367080254E+02  0.39999991055E+02 0.  0.
        -12    1    3    3    0    0  0.31950310065E+02 -0.18057821376E+02  0.29787421504E+01  0.36820919746E+02  0.00000000000E+00 0.  1.
         11    1    4    4    0    0  0.56124596229E+01  0.39731493642E+01 -0.49708237851E+01  0.84849695493E+01  0.51100000000E-03 0. -1.
        -11    1    4    4    0    0 -0.15210712445E+02  0.57549331483E+00 -0.88459655645E+01  0.17605342163E+02  0.51100000000E-03 0.  1.
        -12    1    4    4    0    0 -0.22352057244E+02  0.13509178697E+02  0.10838047199E+02  0.28276768542E+02  0.00000000000E+00 0.  1.
</event>
<event>
 8    1  0.2497772E-006  0.9118800E+02  0.7816164E-02  0.1184000E+00
        -11   -1    0    0    0    0  0.00000000000E+00  0.00000000000E+00  0.45593999997E+02  0.45594000000E+02  0.51100000000E-03 0.  1.
         11   -1    0    0    0    0 -0.00000000000E+00 -0.00000000000E+00 -0.45593999997E+02  0.45594000000E+02  0.51100000000E-03 0. -1.
         23    2    1    2    0    0  0.00000000000E+00  0.00000000000E+00  0.35527136788E-14  0.91188000000E+02  0.91188000000E+02 0.  0.
    9900012    2    3    3    0    0 -0.63578584339E+01  0.30382294059E+02 -0.19805900767E+02  0.54367083915E+02  0.39999999401E+02 0.  0.
         12    1    3    3    0    0  0.63578584339E+01 -0.30382294059E+02  0.19805900767E+02  0.36820916085E+02  0.00000000000E+00 0. -1.
         11    1    4    4    0    0  0.73922304925E+00  0.42041353160E+01  0.55712040728E+01  0.70185126312E+01  0.51100000000E-03 0. -1.
        -11    1    4    4    0    0 -0.14514763178E+02  0.43197189004E+01 -0.34943576474E+01  0.15541842141E+02  0.51100000000E-03 0.  1.
        -12    1    4    4    0    0  0.74176816953E+01  0.21858439842E+02 -0.21882747193E+02  0.31806729143E+02  0.00000000000E+00 0.  1.
</event>
<event>
 8    1  0.2497772E-006  0.9118800E+02  0.7816164E-02  0.1184000E+00
        -11   -1    0    0    0    0  0.00000000000E+00  0.00000000000E+00  0.45593999997E+02  0.45594000000E+02  0.51100000000E-03 0. -1.
         11   -1    0    0    0    0 -0.00000000000E+00 -0.00000000000E+00 -0.45593999997E+02  0.45594000000E+02  0.51100000000E-03 0.  1.
         23    2    1    2    0    0  0.71054273576E-14  0.00000000000E+00 -0.88817841970E-15  0.91188000000E+02  0.91188000000E+02 0.  0.
    9900012    2    3    3    0    0  0.36634149953E+02 -0.18091004949E+01 -0.32319711391E+01  0.54367089842E+02  0.40000012914E+02 0.  0.
        -12    1    3    3    0    0 -0.36634149953E+02  0.18091004949E+01  0.32319711391E+01  0.36820910158E+02  0.00000000000E+00 0.  1.
         11    1    4    4    0    0  0.69961784809E+01 -0.13448391569E+02 -0.60024062790E+01  0.16304435915E+02  0.51100000000E-03 0. -1.
        -11    1    4    4    0    0  0.77601259506E+01 -0.47440642446E+01 -0.39503394233E+01  0.99161929261E+01  0.51100000000E-03 0.  1.
         12    1    4    4    0    0  0.21877845522E+02  0.16383355318E+02  0.67207745632E+01  0.28146461001E+02  0.00000000000E+00 0. -1.
</event>
<event>
 8    1  0.2497772E-006  0.9118800E+02  0.7816164E-02  0.1184000E+00
        -11   -1    0    0    0    0  0.00000000000E+00  0.00000000000E+00  0.45593999997E+02  0.45594000000E+02  0.51100000000E-03 0. -1.
         11   -1    0    0    0    0 -0.00000000000E+00 -0.00000000000E+00 -0.45593999997E+02  0.45594000000E+02  0.51100000000E-03 0.  1.
         23    2    1    2    0    0  0.00000000000E+00  0.00000000000E+00  0.00000000000E+00  0.91188000000E+02  0.91188000000E+02 0.  0.
    9900012    2    3    3    0    0  0.15105318091E+02  0.13776907081E+02  0.30623751556E+02  0.54366973905E+02  0.39999748610E+02 0.  0.
        -12    1    3    3    0    0 -0.15105318091E+02 -0.13776907081E+02 -0.30623751556E+02  0.36821026095E+02  0.00000000000E+00 0.  1.
         11    1    4    4    0    0 -0.57981941027E+01  0.35177267844E-01  0.15818879966E+02  0.16848063863E+02  0.51100000000E-03 0. -1.
        -11    1    4    4    0    0  0.25948510986E+02  0.13846717893E+02  0.12221736429E+02  0.31850081012E+02  0.51100000000E-03 0.  1.
        -12    1    4    4    0    0 -0.50449987929E+01 -0.10498808015E+00  0.25831351602E+01  0.56688290302E+01  0.00000000000E+00 0.  1.
</event>
<event>
 8    1  0.2497772E-006  0.9118800E+02  0.7816164E-02  0.1184000E+00
        -11   -1    0    0    0    0  0.00000000000E+00  0.00000000000E+00  0.45593999997E+02  0.45594000000E+02  0.51100000000E-03 0. -1.
         11   -1    0    0    0    0 -0.00000000000E+00 -0.00000000000E+00 -0.45593999997E+02  0.45594000000E+02  0.51100000000E-03 0.  1.
         23    2    1    2    0    0  0.00000000000E+00  0.00000000000E+00 -0.17763568394E-14  0.91188000000E+02  0.91188000000E+02 0.  0.
    9900012    2    3    3    0    0  0.13034459430E+02 -0.31006528780E+02  0.14982599907E+02  0.54367078507E+02  0.39999987073E+02 0.  0.
        -12    1    3    3    0    0 -0.13034459430E+02  0.31006528780E+02 -0.14982599907E+02  0.36820921493E+02  0.00000000000E+00 0.  1.
         11    1    4    4    0    0  0.83456449177E+01 -0.18780943848E+02  0.99176851712E+01  0.22819599478E+02  0.51100000000E-03 0. -1.
        -11    1    4    4    0    0  0.15682138127E+02 -0.12431742248E+02  0.18789954151E+01  0.20099957602E+02  0.51100000000E-03 0.  1.
        -12    1    4    4    0    0 -0.10993323614E+02  0.20615731615E+00  0.31859193206E+01  0.11447521428E+02  0.00000000000E+00 0.  1.
</event>
<event>
 8    1  0.2497772E-006  0.9118800E+02  0.7816164E-02  0.1184000E+00
        -11   -1    0    0    0    0  0.00000000000E+00  0.00000000000E+00  0.45593999997E+02  0.45594000000E+02  0.51100000000E-03 0.  1.
         11   -1    0    0    0    0 -0.00000000000E+00 -0.00000000000E+00 -0.45593999997E+02  0.45594000000E+02  0.51100000000E-03 0. -1.
         23    2    1    2    0    0  0.71054273576E-14 -0.35527136788E-14 -0.44408920985E-15  0.91188000000E+02  0.91188000000E+02 0.  0.
    9900012    2    3    3    0    0 -0.32681103325E+02  0.16827426791E+02 -0.21358964824E+01  0.54367097502E+02  0.40000030376E+02 0.  0.
        -12    1    3    3    0    0  0.32681103325E+02 -0.16827426791E+02  0.21358964824E+01  0.36820902498E+02  0.00000000000E+00 0.  1.
         11    1    4    4    0    0 -0.44848767847E+01  0.19256483685E+02  0.18041784072E+01  0.19854000697E+02  0.51100000000E-03 0. -1.
        -11    1    4    4    0    0  0.53827398690E+00  0.14246158396E+01 -0.52751790668E+01  0.54906086751E+01  0.51100000000E-03 0.  1.
         12    1    4    4    0    0 -0.28734500528E+02 -0.38536727339E+01  0.13351041772E+01  0.29022488130E+02  0.00000000000E+00 0. -1.
</event>
<event>
 8    1  0.2497772E-006  0.9118800E+02  0.7816164E-02  0.1184000E+00
        -11   -1    0    0    0    0  0.00000000000E+00  0.00000000000E+00  0.45593999997E+02  0.45594000000E+02  0.51100000000E-03 0.  1.
         11   -1    0    0    0    0 -0.00000000000E+00 -0.00000000000E+00 -0.45593999997E+02  0.45594000000E+02  0.51100000000E-03 0. -1.
         23    2    1    2    0    0  0.35527136788E-14  0.35527136788E-14  0.17763568394E-14  0.91188000000E+02  0.91188000000E+02 0.  0.
    9900012    2    3    3    0    0  0.17543445590E+02 -0.28420388617E+02 -0.15501292619E+02  0.54367067840E+02  0.39999962754E+02 0.  0.
        -12    1    3    3    0    0 -0.17543445590E+02  0.28420388617E+02  0.15501292619E+02  0.36820932160E+02  0.00000000000E+00 0.  1.
         11    1    4    4    0    0  0.23794827081E+02 -0.12915958431E+02 -0.17083206579E+02  0.32013305442E+02  0.51100000000E-03 0. -1.
        -11    1    4    4    0    0 -0.89373160024E+01 -0.12424438702E+02  0.59052101290E+01  0.16404688395E+02  0.51100000000E-03 0.  1.
         12    1    4    4    0    0  0.26859345113E+01 -0.30799914833E+01 -0.43232961690E+01  0.59490740037E+01  0.00000000000E+00 0. -1.
</event>
<event>
 8    1  0.2497772E-006  0.9118800E+02  0.7816164E-02  0.1184000E+00
        -11   -1    0    0    0    0  0.00000000000E+00  0.00000000000E+00  0.45593999997E+02  0.45594000000E+02  0.51100000000E-03 0. -1.
         11   -1    0    0    0    0 -0.00000000000E+00 -0.00000000000E+00 -0.45593999997E+02  0.45594000000E+02  0.51100000000E-03 0.  1.
         23    2    1    2    0    0  0.00000000000E+00 -0.17763568394E-14 -0.71054273576E-14  0.91188000000E+02  0.91188000000E+02 0.  0.
    9900012    2    3    3    0    0  0.65008340336E+01 -0.71581495692E+01  0.35528577155E+02  0.54367085522E+02  0.40000003064E+02 0.  0.
        -12    1    3    3    0    0 -0.65008340336E+01  0.71581495692E+01 -0.35528577155E+02  0.36820914478E+02  0.00000000000E+00 0.  1.
         11    1    4    4    0    0  0.68782663600E+01 -0.16408675305E+02  0.81969451366E+01  0.19589412529E+02  0.51100000000E-03 0. -1.
        -11    1    4    4    0    0  0.65821096226E+01  0.10823318131E+02  0.23455792593E+02  0.26657880427E+02  0.51100000000E-03 0.  1.
         12    1    4    4    0    0 -0.69595419490E+01 -0.15727923948E+01  0.38758394253E+01  0.81197925656E+01  0.00000000000E+00 0. -1.
</event>
<event>
 8    1  0.2497772E-006  0.9118800E+02  0.7816164E-02  0.1184000E+00
        -11   -1    0    0    0    0  0.00000000000E+00  0.00000000000E+00  0.45593999997E+02  0.45594000000E+02  0.51100000000E-03 0.  1.
         11   -1    0    0    0    0 -0.00000000000E+00 -0.00000000000E+00 -0.45593999997E+02  0.45594000000E+02  0.51100000000E-03 0. -1.
         23    2    1    2    0    0  0.00000000000E+00  0.17763568394E-14  0.00000000000E+00  0.91188000000E+02  0.91188000000E+02 0.  0.
    9900012    2    3    3    0    0  0.21124771648E+02  0.15402641959E+02 -0.25928411401E+02  0.54367083739E+02  0.39999999001E+02 0.  0.
        -12    1    3    3    0    0 -0.21124771648E+02 -0.15402641959E+02  0.25928411401E+02  0.36820916261E+02  0.00000000000E+00 0.  1.
         11    1    4    4    0    0  0.51819798560E+00  0.13681062642E+02  0.49890719414E+00  0.13699960322E+02  0.51100000000E-03 0. -1.
        -11    1    4    4    0    0  0.54620626071E+01  0.11533615411E+02 -0.12595448204E+02  0.17930525037E+02  0.51100000000E-03 0.  1.
         12    1    4    4    0    0  0.15144511056E+02 -0.98120360942E+01 -0.13831870391E+02  0.22736598381E+02  0.00000000000E+00 0. -1.
</event>
<event>
 8    1  0.2497772E-006  0.9118800E+02  0.7816164E-02  0.1184000E+00
        -11   -1    0    0    0    0  0.00000000000E+00  0.00000000000E+00  0.45593999997E+02  0.45594000000E+02  0.51100000000E-03 0. -1.
         11   -1    0    0    0    0 -0.00000000000E+00 -0.00000000000E+00 -0.45593999997E+02  0.45594000000E+02  0.51100000000E-03 0.  1.
         23    2    1    2    0    0 -0.44408920985E-15  0.00000000000E+00  0.00000000000E+00  0.91188000000E+02  0.91188000000E+02 0.  0.
    9900012    2    3    3    0    0  0.28587963764E+00  0.38780173769E+01  0.36615007971E+02  0.54367088080E+02  0.40000008895E+02 0.  0.
        -12    1    3    3    0    0 -0.28587963764E+00 -0.38780173769E+01 -0.36615007971E+02  0.36820911920E+02  0.00000000000E+00 0.  1.
         11    1    4    4    0    0  0.21431509382E+00 -0.28314674872E+00  0.13489341390E+02  0.13494014763E+02  0.51100000000E-03 0. -1.
        -11    1    4    4    0    0  0.10435984588E+02 -0.61947555545E+01  0.23243527970E+02  0.26221105306E+02  0.51100000000E-03 0.  1.
        -12    1    4    4    0    0 -0.10364420045E+02  0.10355919680E+02 -0.11786138852E+00  0.14651968011E+02  0.00000000000E+00 0.  1.
</event>
<event>
 8    1  0.2497772E-006  0.9118800E+02  0.7816164E-02  0.1184000E+00
        -11   -1    0    0    0    0  0.00000000000E+00  0.00000000000E+00  0.45593999997E+02  0.45594000000E+02  0.51100000000E-03 0. -1.
         11   -1    0    0    0    0 -0.00000000000E+00 -0.00000000000E+00 -0.45593999997E+02  0.45594000000E+02  0.51100000000E-03 0.  1.
         23    2    1    2    0    0  0.00000000000E+00 -0.17763568394E-14 -0.35527136788E-14  0.91188000000E+02  0.91188000000E+02 0.  0.
    9900012    2    3    3    0    0 -0.24205637666E+02 -0.94066805624E+01  0.26103276816E+02  0.54367087538E+02  0.40000007660E+02 0.  0.
        -12    1    3    3    0    0  0.24205637666E+02  0.94066805624E+01 -0.26103276816E+02  0.36820912462E+02  0.00000000000E+00 0.  1.
         11    1    4    4    0    0 -0.30814182484E+01  0.18666850239E+01  0.63145227214E+01  0.72699964828E+01  0.51100000000E-03 0. -1.
        -11    1    4    4    0    0 -0.17778820353E+02  0.10358509008E+02  0.69377251865E+01  0.21714446643E+02  0.51100000000E-03 0.  1.
        -12    1    4    4    0    0 -0.33453990645E+01 -0.21631874594E+02  0.12851028908E+02  0.25382644412E+02  0.00000000000E+00 0.  1.
</event>
<event>
 8    1  0.2497772E-006  0.9118800E+02  0.7816164E-02  0.1184000E+00
        -11   -1    0    0    0    0  0.00000000000E+00  0.00000000000E+00  0.45593999997E+02  0.45594000000E+02  0.51100000000E-03 0. -1.
         11   -1    0    0    0    0 -0.00000000000E+00 -0.00000000000E+00 -0.45593999997E+02  0.45594000000E+02  0.51100000000E-03 0.  1.
         23    2    1    2    0    0  0.00000000000E+00  0.00000000000E+00  0.00000000000E+00  0.91188000000E+02  0.91188000000E+02 0.  0.
    9900012    2    3    3    0    0  0.12880801464E+02 -0.29910322521E+02 -0.17182481757E+02  0.54367080416E+02  0.39999991425E+02 0.  0.
         12    1    3    3    0    0 -0.12880801464E+02  0.29910322521E+02  0.17182481757E+02  0.36820919584E+02  0.00000000000E+00 0. -1.
         11    1    4    4    0    0  0.20321898276E+02 -0.10394363267E+02 -0.60451246804E+01  0.23612832738E+02  0.51100000000E-03 0. -1.
        -11    1    4    4    0    0 -0.65908997096E+01 -0.30368799794E+01 -0.12225855062E+02  0.14217388341E+02  0.51100000000E-03 0.  1.
         12    1    4    4    0    0 -0.85019710297E+00 -0.16479079275E+02  0.10884979855E+01  0.16536859337E+02  0.00000000000E+00 0. -1.
</event>
<event>
 8    1  0.2497772E-006  0.9118800E+02  0.7816164E-02  0.1184000E+00
        -11   -1    0    0    0    0  0.00000000000E+00  0.00000000000E+00  0.45593999997E+02  0.45594000000E+02  0.51100000000E-03 0. -1.
         11   -1    0    0    0    0 -0.00000000000E+00 -0.00000000000E+00 -0.45593999997E+02  0.45594000000E+02  0.51100000000E-03 0.  1.
         23    2    1    2    0    0  0.00000000000E+00  0.00000000000E+00  0.22204460493E-15  0.91188000000E+02  0.91188000000E+02 0.  0.
    9900012    2    3    3    0    0 -0.41329404828E+01  0.36564373404E+02 -0.13219911370E+01  0.54367051342E+02  0.39999925145E+02 0.  0.
         12    1    3    3    0    0  0.41329404828E+01 -0.36564373404E+02  0.13219911370E+01  0.36820948658E+02  0.00000000000E+00 0. -1.
         11    1    4    4    0    0 -0.59655450984E+01  0.60574644062E+01 -0.10288750834E+02  0.13346872193E+02  0.51100000000E-03 0. -1.
        -11    1    4    4    0    0  0.73402865936E+01  0.14865365530E+02 -0.70035962001E+01  0.17997479257E+02  0.51100000000E-03 0.  1.
         12    1    4    4    0    0 -0.55076819780E+01  0.15641543468E+02  0.15970355897E+02  0.23022699892E+02  0.00000000000E+00 0. -1.
</event>
<event>
 8    1  0.2497772E-006  0.9118800E+02  0.7816164E-02  0.1184000E+00
        -11   -1    0    0    0    0  0.00000000000E+00  0.00000000000E+00  0.45593999997E+02  0.45594000000E+02  0.51100000000E-03 0. -1.
         11   -1    0    0    0    0 -0.00000000000E+00 -0.00000000000E+00 -0.45593999997E+02  0.45594000000E+02  0.51100000000E-03 0.  1.
         23    2    1    2    0    0  0.00000000000E+00  0.88817841970E-15  0.00000000000E+00  0.91188000000E+02  0.91188000000E+02 0.  0.
    9900012    2    3    3    0    0  0.65346907327E+01  0.31742658386E+01 -0.36097103342E+02  0.54367095391E+02  0.40000025562E+02 0.  0.
         12    1    3    3    0    0 -0.65346907327E+01 -0.31742658386E+01  0.36097103342E+02  0.36820904609E+02  0.00000000000E+00 0. -1.
         11    1    4    4    0    0  0.46515524572E+01  0.30528140752E-01  0.13435262142E+01  0.48417904931E+01  0.51100000000E-03 0. -1.
        -11    1    4    4    0    0  0.13998207272E+02 -0.54602982068E+01 -0.28405203603E+02  0.32134409211E+02  0.51100000000E-03 0.  1.
         12    1    4    4    0    0 -0.12115068996E+02  0.86040359047E+01 -0.90354259527E+01  0.17390895686E+02  0.00000000000E+00 0. -1.
</event>
<event>
 8    1  0.2497772E-006  0.9118800E+02  0.7816164E-02  0.1184000E+00
        -11   -1    0    0    0    0  0.00000000000E+00  0.00000000000E+00  0.45593999997E+02  0.45594000000E+02  0.51100000000E-03 0.  1.
         11   -1    0    0    0    0 -0.00000000000E+00 -0.00000000000E+00 -0.45593999997E+02  0.45594000000E+02  0.51100000000E-03 0. -1.
         23    2    1    2    0    0  0.00000000000E+00 -0.35527136788E-14 -0.17763568394E-14  0.91188000000E+02  0.91188000000E+02 0.  0.
    9900012    2    3    3    0    0 -0.22543730920E+02 -0.26722046894E+02 -0.11553868979E+02  0.54367089061E+02  0.40000011132E+02 0.  0.
         12    1    3    3    0    0  0.22543730920E+02  0.26722046894E+02  0.11553868979E+02  0.36820910939E+02  0.00000000000E+00 0. -1.
         11    1    4    4    0    0 -0.15366596359E+02 -0.20530774514E+01 -0.23029092797E+01  0.15673251166E+02  0.51100000000E-03 0. -1.
        -11    1    4    4    0    0 -0.27453458398E+01 -0.29116613091E+02 -0.12284112518E+02  0.31720868562E+02  0.51100000000E-03 0.  1.
        -12    1    4    4    0    0 -0.44317887210E+01  0.44476436489E+01  0.30331528193E+01  0.69729693332E+01  0.00000000000E+00 0.  1.
</event>
<event>
 8    1  0.2497772E-006  0.9118800E+02  0.7816164E-02  0.1184000E+00
        -11   -1    0    0    0    0  0.00000000000E+00  0.00000000000E+00  0.45593999997E+02  0.45594000000E+02  0.51100000000E-03 0.  1.
         11   -1    0    0    0    0 -0.00000000000E+00 -0.00000000000E+00 -0.45593999997E+02  0.45594000000E+02  0.51100000000E-03 0. -1.
         23    2    1    2    0    0 -0.35527136788E-14  0.17763568394E-14  0.00000000000E+00  0.91188000000E+02  0.91188000000E+02 0.  0.
    9900012    2    3    3    0    0 -0.20665508349E+02  0.12804670477E+02  0.27654233269E+02  0.54367089649E+02  0.40000012473E+02 0.  0.
         12    1    3    3    0    0  0.20665508349E+02 -0.12804670477E+02 -0.27654233269E+02  0.36820910351E+02  0.00000000000E+00 0. -1.
         11    1    4    4    0    0 -0.16728844645E+02  0.29143153008E+01 -0.44622246396E+01  0.17557304059E+02  0.51100000000E-03 0. -1.
        -11    1    4    4    0    0  0.15194770899E+01  0.10427866289E+02  0.12050133521E+02  0.16007964396E+02  0.51100000000E-03 0.  1.
        -12    1    4    4    0    0 -0.54561407940E+01 -0.53751111237E+00  0.20066324388E+02  0.20801821194E+02  0.00000000000E+00 0.  1.
</event>
<event>
 8    1  0.2497772E-006  0.9118800E+02  0.7816164E-02  0.1184000E+00
        -11   -1    0    0    0    0  0.00000000000E+00  0.00000000000E+00  0.45593999997E+02  0.45594000000E+02  0.51100000000E-03 0. -1.
         11   -1    0    0    0    0 -0.00000000000E+00 -0.00000000000E+00 -0.45593999997E+02  0.45594000000E+02  0.51100000000E-03 0.  1.
         23    2    1    2    0    0  0.00000000000E+00  0.17763568394E-14  0.00000000000E+00  0.91188000000E+02  0.91188000000E+02 0.  0.
    9900012    2    3    3    0    0 -0.60782437872E+01  0.14059910697E+02 -0.33483619873E+02  0.54367096479E+02  0.40000028043E+02 0.  0.
         12    1    3    3    0    0  0.60782437872E+01 -0.14059910697E+02  0.33483619873E+02  0.36820903521E+02  0.00000000000E+00 0. -1.
         11    1    4    4    0    0  0.60734828056E+01  0.12262405566E+02 -0.10176281543E+02  0.17053166567E+02  0.51100000000E-03 0. -1.
        -11    1    4    4    0    0 -0.12107573769E+02  0.12390632594E+02 -0.19434414348E+02  0.26034929997E+02  0.51100000000E-03 0.  1.
         12    1    4    4    0    0 -0.44152824014E-01 -0.10593127463E+02 -0.38729239818E+01  0.11278999915E+02  0.00000000000E+00 0. -1.
</event>
<event>
 8    1  0.2497772E-006  0.9118800E+02  0.7816164E-02  0.1184000E+00
        -11   -1    0    0    0    0  0.00000000000E+00  0.00000000000E+00  0.45593999997E+02  0.45594000000E+02  0.51100000000E-03 0.  1.
         11   -1    0    0    0    0 -0.00000000000E+00 -0.00000000000E+00 -0.45593999997E+02  0.45594000000E+02  0.51100000000E-03 0. -1.
         23    2    1    2    0    0  0.35527136788E-14  0.00000000000E+00 -0.71054273576E-14  0.91188000000E+02  0.91188000000E+02 0.  0.
    9900012    2    3    3    0    0  0.94553186089E+01 -0.28653333140E+02 -0.21103639281E+02  0.54367080118E+02  0.39999990745E+02 0.  0.
         12    1    3    3    0    0 -0.94553186089E+01  0.28653333140E+02  0.21103639281E+02  0.36820919882E+02  0.00000000000E+00 0. -1.
         11    1    4    4    0    0  0.64328217727E+00  0.82033303554E+00  0.51535910907E+01  0.52579710574E+01  0.51100000000E-03 0. -1.
        -11    1    4    4    0    0  0.20456161201E+01  0.49368936463E+01 -0.75673072084E-01  0.53444542154E+01  0.51100000000E-03 0.  1.
         12    1    4    4    0    0  0.67664203115E+01 -0.34410559822E+02 -0.26181557300E+02  0.43764654845E+02  0.00000000000E+00 0. -1.
</event>
<event>
 8    1  0.2497772E-006  0.9118800E+02  0.7816164E-02  0.1184000E+00
        -11   -1    0    0    0    0  0.00000000000E+00  0.00000000000E+00  0.45593999997E+02  0.45594000000E+02  0.51100000000E-03 0.  1.
         11   -1    0    0    0    0 -0.00000000000E+00 -0.00000000000E+00 -0.45593999997E+02  0.45594000000E+02  0.51100000000E-03 0. -1.
         23    2    1    2    0    0 -0.17763568394E-14  0.35527136788E-14 -0.35527136788E-14  0.91188000000E+02  0.91188000000E+02 0.  0.
    9900012    2    3    3    0    0 -0.14452295496E+02  0.25381077777E+02 -0.22421243785E+02  0.54367080307E+02  0.39999991175E+02 0.  0.
        -12    1    3    3    0    0  0.14452295496E+02 -0.25381077777E+02  0.22421243785E+02  0.36820919693E+02  0.00000000000E+00 0.  1.
         11    1    4    4    0    0 -0.16427758688E+02  0.90221856763E+01  0.45406420047E+01  0.19284411320E+02  0.51100000000E-03 0. -1.
        -11    1    4    4    0    0  0.83782143084E+01  0.10264295825E+02 -0.19144385878E+02  0.23282133809E+02  0.51100000000E-03 0.  1.
        -12    1    4    4    0    0 -0.64027511167E+01  0.60945962753E+01 -0.78174999113E+01  0.11800535178E+02  0.00000000000E+00 0.  1.
</event>
<event>
 8    1  0.2497772E-006  0.9118800E+02  0.7816164E-02  0.1184000E+00
        -11   -1    0    0    0    0  0.00000000000E+00  0.00000000000E+00  0.45593999997E+02  0.45594000000E+02  0.51100000000E-03 0. -1.
         11   -1    0    0    0    0 -0.00000000000E+00 -0.00000000000E+00 -0.45593999997E+02  0.45594000000E+02  0.51100000000E-03 0.  1.
         23    2    1    2    0    0  0.71054273576E-14 -0.22204460493E-15  0.22204460493E-15  0.91188000000E+02  0.91188000000E+02 0.  0.
    9900012    2    3    3    0    0 -0.36764690051E+02 -0.11890060812E+01 -0.16504230247E+01  0.54367081133E+02  0.39999993060E+02 0.  0.
        -12    1    3    3    0    0  0.36764690051E+02  0.11890060812E+01  0.16504230247E+01  0.36820918867E+02  0.00000000000E+00 0.  1.
         11    1    4    4    0    0 -0.22241849843E+02 -0.81773047974E+01  0.19213395574E+01  0.23775191779E+02  0.51100000000E-03 0. -1.
        -11    1    4    4    0    0  0.67975618502E+01  0.74064282115E+00 -0.47787611143E+01  0.83421793882E+01  0.51100000000E-03 0.  1.
        -12    1    4    4    0    0 -0.21320402059E+02  0.62476558950E+01  0.12069985322E+01  0.22249709966E+02  0.00000000000E+00 0.  1.
</event>
<event>
 8    1  0.2497772E-006  0.9118800E+02  0.7816164E-02  0.1184000E+00
        -11   -1    0    0    0    0  0.00000000000E+00  0.00000000000E+00  0.45593999997E+02  0.45594000000E+02  0.51100000000E-03 0.  1.
         11   -1    0    0    0    0 -0.00000000000E+00 -0.00000000000E+00 -0.45593999997E+02  0.45594000000E+02  0.51100000000E-03 0. -1.
         23    2    1    2    0    0  0.00000000000E+00  0.88817841970E-15  0.00000000000E+00  0.91188000000E+02  0.91188000000E+02 0.  0.
    9900012    2    3    3    0    0  0.29667209809E+01  0.71730592295E+01  0.35993406879E+02  0.54367088131E+02  0.40000009013E+02 0.  0.
         12    1    3    3    0    0 -0.29667209809E+01 -0.71730592295E+01 -0.35993406879E+02  0.36820911869E+02  0.00000000000E+00 0. -1.
         11    1    4    4    0    0  0.76412238768E+01 -0.89957984895E+01  0.10407694959E+02  0.15736353053E+02  0.51100000000E-03 0. -1.
        -11    1    4    4    0    0 -0.12755509163E+02  0.10167356801E+02  0.23071830372E+02  0.28255751898E+02  0.51100000000E-03 0.  1.
         12    1    4    4    0    0  0.80810062672E+01  0.60015009182E+01  0.25138815479E+01  0.10374983181E+02  0.00000000000E+00 0. -1.
</event>
<event>
 8    1  0.2497772E-006  0.9118800E+02  0.7816164E-02  0.1184000E+00
        -11   -1    0    0    0    0  0.00000000000E+00  0.00000000000E+00  0.45593999997E+02  0.45594000000E+02  0.51100000000E-03 0.  1.
         11   -1    0    0    0    0 -0.00000000000E+00 -0.00000000000E+00 -0.45593999997E+02  0.45594000000E+02  0.51100000000E-03 0. -1.
         23    2    1    2    0    0  0.00000000000E+00 -0.35527136788E-14  0.26645352591E-14  0.91188000000E+02  0.91188000000E+02 0.  0.
    9900012    2    3    3    0    0  0.27144098482E+02  0.24329827526E+02 -0.51995555026E+01  0.54367109635E+02  0.40000058035E+02 0.  0.
         12    1    3    3    0    0 -0.27144098482E+02 -0.24329827526E+02  0.51995555026E+01  0.36820890365E+02  0.00000000000E+00 0. -1.
         11    1    4    4    0    0  0.22146919739E+02  0.92572660982E+01 -0.46123427544E+01  0.24442928128E+02  0.51100000000E-03 0. -1.
        -11    1    4    4    0    0  0.76101654293E+01 -0.13121981434E+01  0.81036629445E+01  0.11194008898E+02  0.51100000000E-03 0.  1.
        -12    1    4    4    0    0 -0.26129866866E+01  0.16384759572E+02 -0.86908756927E+01  0.18730172609E+02  0.00000000000E+00 0.  1.
</event>
<event>
 8    1  0.2497772E-006  0.9118800E+02  0.7816164E-02  0.1184000E+00
        -11   -1    0    0    0    0  0.00000000000E+00  0.00000000000E+00  0.45593999997E+02  0.45594000000E+02  0.51100000000E-03 0. -1.
         11   -1    0    0    0    0 -0.00000000000E+00 -0.00000000000E+00 -0.45593999997E+02  0.45594000000E+02  0.51100000000E-03 0.  1.
         23    2    1    2    0    0  0.00000000000E+00  0.71054273576E-14  0.00000000000E+00  0.91188000000E+02  0.91188000000E+02 0.  0.
    9900012    2    3    3    0    0 -0.10410127618E+02  0.34607468070E+02 -0.70521040662E+01  0.54367085087E+02  0.40000002073E+02 0.  0.
        -12    1    3    3    0    0  0.10410127618E+02 -0.34607468070E+02  0.70521040662E+01  0.36820914913E+02  0.00000000000E+00 0.  1.
         11    1    4    4    0    0  0.12322149444E+00  0.16514332998E+02  0.97479562644E+01  0.19177096483E+02  0.51100000000E-03 0. -1.
        -11    1    4    4    0    0  0.13425037468E+01  0.13361785957E+02 -0.17879286433E+02  0.22360870374E+02  0.51100000000E-03 0.  1.
        -12    1    4    4    0    0 -0.11875852859E+02  0.47313491146E+01  0.10792261025E+01  0.12829118230E+02  0.00000000000E+00 0.  1.
</event>
<event>
 8    1  0.2497772E-006  0.9118800E+02  0.7816164E-02  0.1184000E+00
        -11   -1    0    0    0    0  0.00000000000E+00  0.00000000000E+00  0.45593999997E+02  0.45594000000E+02  0.51100000000E-03 0.  1.
         11   -1    0    0    0    0 -0.00000000000E+00 -0.00000000000E+00 -0.45593999997E+02  0.45594000000E+02  0.51100000000E-03 0. -1.
         23    2    1    2    0    0  0.00000000000E+00  0.35527136788E-14  0.35527136788E-14  0.91188000000E+02  0.91188000000E+02 0.  0.
    9900012    2    3    3    0    0 -0.22335319401E+02  0.17658200029E+02 -0.23347398696E+02  0.54367088184E+02  0.40000009134E+02 0.  0.
        -12    1    3    3    0    0  0.22335319401E+02 -0.17658200029E+02  0.23347398696E+02  0.36820911816E+02  0.00000000000E+00 0.  1.
         11    1    4    4    0    0 -0.41490979016E+01  0.11400422901E+02  0.60835433766E+01  0.13571814765E+02  0.51100000000E-03 0. -1.
        -11    1    4    4    0    0  0.37007351697E+01 -0.23640491293E+01 -0.25634930923E+01  0.50848467212E+01  0.51100000000E-03 0.  1.
         12    1    4    4    0    0 -0.21886956670E+02  0.86218262572E+01 -0.26867448981E+02  0.35710426699E+02  0.00000000000E+00 0. -1.
</event>
<event>
 8    1  0.2497772E-006  0.9118800E+02  0.7816164E-02  0.1184000E+00
        -11   -1    0    0    0    0  0.00000000000E+00  0.00000000000E+00  0.45593999997E+02  0.45594000000E+02  0.51100000000E-03 0. -1.
         11   -1    0    0    0    0 -0.00000000000E+00 -0.00000000000E+00 -0.45593999997E+02  0.45594000000E+02  0.51100000000E-03 0.  1.
         23    2    1    2    0    0  0.00000000000E+00  0.35527136788E-14  0.00000000000E+00  0.91188000000E+02  0.91188000000E+02 0.  0.
    9900012    2    3    3    0    0  0.17282877168E+02  0.28024315491E+02 -0.16483918605E+02  0.54367086452E+02  0.40000005184E+02 0.  0.
        -12    1    3    3    0    0 -0.17282877168E+02 -0.28024315491E+02  0.16483918605E+02  0.36820913548E+02  0.00000000000E+00 0.  1.
         11    1    4    4    0    0 -0.28962143930E-01  0.66121687059E+01  0.61893898662E+01  0.90570503465E+01  0.51100000000E-03 0. -1.
        -11    1    4    4    0    0  0.49880404351E+01 -0.62448191412E+01 -0.91492808058E+01  0.12148565883E+02  0.51100000000E-03 0.  1.
        -12    1    4    4    0    0  0.12323798877E+02  0.27656965926E+02 -0.13524027665E+02  0.33161470222E+02  0.00000000000E+00 0.  1.
</event>
<event>
 8    1  0.2497772E-006  0.9118800E+02  0.7816164E-02  0.1184000E+00
        -11   -1    0    0    0    0  0.00000000000E+00  0.00000000000E+00  0.45593999997E+02  0.45594000000E+02  0.51100000000E-03 0.  1.
         11   -1    0    0    0    0 -0.00000000000E+00 -0.00000000000E+00 -0.45593999997E+02  0.45594000000E+02  0.51100000000E-03 0. -1.
         23    2    1    2    0    0  0.00000000000E+00 -0.35527136788E-14 -0.35527136788E-14  0.91188000000E+02  0.91188000000E+02 0.  0.
    9900012    2    3    3    0    0  0.24644561939E+02 -0.20846819574E+02 -0.17715468365E+02  0.54367052988E+02  0.39999928896E+02 0.  0.
        -12    1    3    3    0    0 -0.24644561939E+02  0.20846819574E+02  0.17715468365E+02  0.36820947012E+02  0.00000000000E+00 0.  1.
         11    1    4    4    0    0  0.19232280324E+02 -0.77239422061E+01 -0.40339076103E+01  0.21114267700E+02  0.51100000000E-03 0.  1.
        -11    1    4    4    0    0  0.11289016886E+02 -0.17808531333E+02 -0.14649322319E+02  0.25674663292E+02  0.51100000000E-03 0. -1.
         12    1    4    4    0    0 -0.58767352712E+01  0.46856539655E+01  0.96776156377E+00  0.75781219953E+01  0.00000000000E+00 0. -1.
</event>
<event>
 8    1  0.2497772E-006  0.9118800E+02  0.7816164E-02  0.1184000E+00
        -11   -1    0    0    0    0  0.00000000000E+00  0.00000000000E+00  0.45593999997E+02  0.45594000000E+02  0.51100000000E-03 0.  1.
         11   -1    0    0    0    0 -0.00000000000E+00 -0.00000000000E+00 -0.45593999997E+02  0.45594000000E+02  0.51100000000E-03 0. -1.
         23    2    1    2    0    0 -0.35527136788E-14 -0.35527136788E-14 -0.17763568394E-14  0.91188000000E+02  0.91188000000E+02 0.  0.
    9900012    2    3    3    0    0 -0.20947220406E+02 -0.25755378822E+02  0.15926559667E+02  0.54367070031E+02  0.39999967749E+02 0.  0.
        -12    1    3    3    0    0  0.20947220406E+02  0.25755378822E+02 -0.15926559667E+02  0.36820929969E+02  0.00000000000E+00 0.  1.
         11    1    4    4    0    0  0.16780223111E+01 -0.19129248521E+02  0.10527987044E+02  0.21899370295E+02  0.51100000000E-03 0. -1.
        -11    1    4    4    0    0  0.11237302875E+01 -0.20857596274E+01 -0.54678426774E+01  0.59590659325E+01  0.51100000000E-03 0.  1.
        -12    1    4    4    0    0 -0.23748973005E+02 -0.45403706733E+01  0.10866415300E+02  0.26508633803E+02  0.00000000000E+00 0.  1.
</event>
<event>
 8    1  0.2497772E-006  0.9118800E+02  0.7816164E-02  0.1184000E+00
        -11   -1    0    0    0    0  0.00000000000E+00  0.00000000000E+00  0.45593999997E+02  0.45594000000E+02  0.51100000000E-03 0.  1.
         11   -1    0    0    0    0 -0.00000000000E+00 -0.00000000000E+00 -0.45593999997E+02  0.45594000000E+02  0.51100000000E-03 0. -1.
         23    2    1    2    0    0  0.35527136788E-14  0.17763568394E-14  0.35527136788E-14  0.91188000000E+02  0.91188000000E+02 0.  0.
    9900012    2    3    3    0    0 -0.17508537870E+02 -0.65339805937E+01 -0.31725983569E+02  0.54367084284E+02  0.40000000241E+02 0.  0.
        -12    1    3    3    0    0  0.17508537870E+02  0.65339805937E+01  0.31725983569E+02  0.36820915716E+02  0.00000000000E+00 0.  1.
         11    1    4    4    0    0 -0.76186757847E+01 -0.22343036686E+01 -0.29972309487E+02  0.31006058599E+02  0.51100000000E-03 0.  1.
        -11    1    4    4    0    0 -0.13022025744E+02 -0.62626691811E+01 -0.76894902746E+01  0.16368336528E+02  0.51100000000E-03 0. -1.
        -12    1    4    4    0    0  0.31321636583E+01  0.19629922561E+01  0.59358161919E+01  0.69926891569E+01  0.00000000000E+00 0.  1.
</event>
<event>
 8    1  0.2497772E-006  0.9118800E+02  0.7816164E-02  0.1184000E+00
        -11   -1    0    0    0    0  0.00000000000E+00  0.00000000000E+00  0.45593999997E+02  0.45594000000E+02  0.51100000000E-03 0.  1.
         11   -1    0    0    0    0 -0.00000000000E+00 -0.00000000000E+00 -0.45593999997E+02  0.45594000000E+02  0.51100000000E-03 0. -1.
         23    2    1    2    0    0  0.00000000000E+00  0.00000000000E+00  0.00000000000E+00  0.91188000000E+02  0.91188000000E+02 0.  0.
    9900012    2    3    3    0    0 -0.15411074059E+02 -0.12507247380E+02 -0.31013678059E+02  0.54367072969E+02  0.39999974448E+02 0.  0.
        -12    1    3    3    0    0  0.15411074059E+02  0.12507247380E+02  0.31013678059E+02  0.36820927031E+02  0.00000000000E+00 0.  1.
         11    1    4    4    0    0 -0.43145840786E+01 -0.62983594257E+01 -0.15713449815E+02  0.17469901906E+02  0.51100000000E-03 0. -1.
        -11    1    4    4    0    0 -0.22631801845E+01 -0.47502706922E+01 -0.23906380720E+02  0.24478604854E+02  0.51100000000E-03 0.  1.
        -12    1    4    4    0    0 -0.88333097957E+01 -0.14586172618E+01  0.86061524764E+01  0.12418566210E+02  0.00000000000E+00 0.  1.
</event>
<event>
 8    1  0.2497772E-006  0.9118800E+02  0.7816164E-02  0.1184000E+00
        -11   -1    0    0    0    0  0.00000000000E+00  0.00000000000E+00  0.45593999997E+02  0.45594000000E+02  0.51100000000E-03 0.  1.
         11   -1    0    0    0    0 -0.00000000000E+00 -0.00000000000E+00 -0.45593999997E+02  0.45594000000E+02  0.51100000000E-03 0. -1.
         23    2    1    2    0    0  0.35527136788E-14 -0.44408920985E-15  0.00000000000E+00  0.91188000000E+02  0.91188000000E+02 0.  0.
    9900012    2    3    3    0    0 -0.25688210767E+02  0.26166743318E+01  0.26249727782E+02  0.54367090647E+02  0.40000014748E+02 0.  0.
         12    1    3    3    0    0  0.25688210767E+02 -0.26166743318E+01 -0.26249727782E+02  0.36820909353E+02  0.00000000000E+00 0. -1.
         11    1    4    4    0    0 -0.25538673709E+02 -0.48955873181E+01  0.11255778576E+02  0.28335193340E+02  0.51100000000E-03 0. -1.
        -11    1    4    4    0    0 -0.57260041756E+01  0.12111049422E+02  0.65350911332E+01  0.14905437206E+02  0.51100000000E-03 0.  1.
        -12    1    4    4    0    0  0.55764671176E+01 -0.45987877722E+01  0.84588580729E+01  0.11126460101E+02  0.00000000000E+00 0.  1.
</event>
<event>
 8    1  0.2497772E-006  0.9118800E+02  0.7816164E-02  0.1184000E+00
        -11   -1    0    0    0    0  0.00000000000E+00  0.00000000000E+00  0.45593999997E+02  0.45594000000E+02  0.51100000000E-03 0. -1.
         11   -1    0    0    0    0 -0.00000000000E+00 -0.00000000000E+00 -0.45593999997E+02  0.45594000000E+02  0.51100000000E-03 0.  1.
         23    2    1    2    0    0  0.00000000000E+00  0.00000000000E+00 -0.35527136788E-14  0.91188000000E+02  0.91188000000E+02 0.  0.
    9900012    2    3    3    0    0 -0.21141625906E+02 -0.13009473571E+02  0.27194944887E+02  0.54367085074E+02  0.40000002044E+02 0.  0.
         12    1    3    3    0    0  0.21141625906E+02  0.13009473571E+02 -0.27194944887E+02  0.36820914926E+02  0.00000000000E+00 0. -1.
         11    1    4    4    0    0 -0.36683746156E+01  0.17583470183E+01  0.31916117018E+01  0.51706036469E+01  0.51100000000E-03 0. -1.
        -11    1    4    4    0    0 -0.27520462427E+02 -0.15525196771E+02  0.12700066162E+02  0.34054357544E+02  0.51100000000E-03 0.  1.
        -12    1    4    4    0    0  0.10047211136E+02  0.75737618156E+00  0.11303267023E+02  0.15142123883E+02  0.00000000000E+00 0.  1.
</event>
<event>
 8    1  0.2497772E-006  0.9118800E+02  0.7816164E-02  0.1184000E+00
        -11   -1    0    0    0    0  0.00000000000E+00  0.00000000000E+00  0.45593999997E+02  0.45594000000E+02  0.51100000000E-03 0. -1.
         11   -1    0    0    0    0 -0.00000000000E+00 -0.00000000000E+00 -0.45593999997E+02  0.45594000000E+02  0.51100000000E-03 0.  1.
         23    2    1    2    0    0  0.00000000000E+00  0.17763568394E-14  0.00000000000E+00  0.91188000000E+02  0.91188000000E+02 0.  0.
    9900012    2    3    3    0    0  0.28441470172E+02  0.51381567324E+01 -0.22813628496E+02  0.54367088478E+02  0.40000009803E+02 0.  0.
         12    1    3    3    0    0 -0.28441470172E+02 -0.51381567324E+01  0.22813628496E+02  0.36820911522E+02  0.00000000000E+00 0. -1.
         11    1    4    4    0    0  0.85377008170E+01  0.15178862535E+02 -0.22303108842E+02  0.28296976294E+02  0.51100000000E-03 0.  1.
        -11    1    4    4    0    0  0.33831063557E+01 -0.46431652918E+01  0.52275510648E+01  0.77673472265E+01  0.51100000000E-03 0. -1.
         12    1    4    4    0    0  0.16520663000E+02 -0.53975405105E+01 -0.57380707190E+01  0.18302764957E+02  0.00000000000E+00 0. -1.
</event>
<event>
 8    1  0.2497772E-006  0.9118800E+02  0.7816164E-02  0.1184000E+00
        -11   -1    0    0    0    0  0.00000000000E+00  0.00000000000E+00  0.45593999997E+02  0.45594000000E+02  0.51100000000E-03 0.  1.
         11   -1    0    0    0    0 -0.00000000000E+00 -0.00000000000E+00 -0.45593999997E+02  0.45594000000E+02  0.51100000000E-03 0. -1.
         23    2    1    2    0    0 -0.17763568394E-14  0.00000000000E+00  0.00000000000E+00  0.91188000000E+02  0.91188000000E+02 0.  0.
    9900012    2    3    3    0    0 -0.78528985518E+01 -0.22636818876E+02 -0.27958652757E+02  0.54367084090E+02  0.39999999799E+02 0.  0.
        -12    1    3    3    0    0  0.78528985518E+01  0.22636818876E+02  0.27958652757E+02  0.36820915910E+02  0.00000000000E+00 0.  1.
         11    1    4    4    0    0  0.10161100715E+02  0.99239136472E+00 -0.76869858882E+01  0.12779771542E+02  0.51100000000E-03 0. -1.
        -11    1    4    4    0    0  0.45720945125E+01 -0.23377777725E+01 -0.41985594363E+01  0.66330351082E+01  0.51100000000E-03 0.  1.
         12    1    4    4    0    0 -0.22586093779E+02 -0.21291432469E+02 -0.16073107432E+02  0.34954277439E+02  0.00000000000E+00 0. -1.
</event>
<event>
 8    1  0.2497772E-006  0.9118800E+02  0.7816164E-02  0.1184000E+00
        -11   -1    0    0    0    0  0.00000000000E+00  0.00000000000E+00  0.45593999997E+02  0.45594000000E+02  0.51100000000E-03 0.  1.
         11   -1    0    0    0    0 -0.00000000000E+00 -0.00000000000E+00 -0.45593999997E+02  0.45594000000E+02  0.51100000000E-03 0. -1.
         23    2    1    2    0    0  0.35527136788E-14  0.00000000000E+00  0.00000000000E+00  0.91188000000E+02  0.91188000000E+02 0.  0.
    9900012    2    3    3    0    0  0.24301805166E+02  0.26626033481E+02  0.75006448005E+01  0.54367040403E+02  0.39999900206E+02 0.  0.
         12    1    3    3    0    0 -0.24301805166E+02 -0.26626033481E+02 -0.75006448005E+01  0.36820959597E+02  0.00000000000E+00 0. -1.
         11    1    4    4    0    0  0.11726571476E+02  0.13219398878E+02  0.77750893758E+01  0.19305879942E+02  0.51100000000E-03 0. -1.
        -11    1    4    4    0    0 -0.59852092888E+01  0.15151085009E+02  0.13617953102E+01  0.16347250347E+02  0.51100000000E-03 0.  1.
         12    1    4    4    0    0  0.18560442979E+02 -0.17444504059E+01 -0.16362398854E+01  0.18713910114E+02  0.00000000000E+00 0. -1.
</event>
<event>
 8    1  0.2497772E-006  0.9118800E+02  0.7816164E-02  0.1184000E+00
        -11   -1    0    0    0    0  0.00000000000E+00  0.00000000000E+00  0.45593999997E+02  0.45594000000E+02  0.51100000000E-03 0.  1.
         11   -1    0    0    0    0 -0.00000000000E+00 -0.00000000000E+00 -0.45593999997E+02  0.45594000000E+02  0.51100000000E-03 0. -1.
         23    2    1    2    0    0  0.00000000000E+00 -0.35527136788E-14  0.00000000000E+00  0.91188000000E+02  0.91188000000E+02 0.  0.
    9900012    2    3    3    0    0  0.30665914112E+02 -0.13844282979E+02  0.14957193019E+02  0.54367080912E+02  0.39999992554E+02 0.  0.
         12    1    3    3    0    0 -0.30665914112E+02  0.13844282979E+02 -0.14957193019E+02  0.36820919088E+02  0.00000000000E+00 0. -1.
         11    1    4    4    0    0  0.38569074841E+01  0.76103773669E+01 -0.75781913812E+01  0.11411510149E+02  0.51100000000E-03 0. -1.
        -11    1    4    4    0    0  0.82043902061E+01 -0.23852882651E+01  0.10988409496E+02  0.13919294604E+02  0.51100000000E-03 0.  1.
         12    1    4    4    0    0  0.18604616422E+02 -0.19069372080E+02  0.11546974904E+02  0.29036276159E+02  0.00000000000E+00 0. -1.
</event>
<event>
 8    1  0.2497772E-006  0.9118800E+02  0.7816164E-02  0.1184000E+00
        -11   -1    0    0    0    0  0.00000000000E+00  0.00000000000E+00  0.45593999997E+02  0.45594000000E+02  0.51100000000E-03 0. -1.
         11   -1    0    0    0    0 -0.00000000000E+00 -0.00000000000E+00 -0.45593999997E+02  0.45594000000E+02  0.51100000000E-03 0.  1.
         23    2    1    2    0    0  0.00000000000E+00  0.00000000000E+00 -0.17763568394E-14  0.91188000000E+02  0.91188000000E+02 0.  0.
    9900012    2    3    3    0    0  0.17572473199E+02 -0.28309301184E+02  0.15670708782E+02  0.54367089343E+02  0.40000011775E+02 0.  0.
        -12    1    3    3    0    0 -0.17572473199E+02  0.28309301184E+02 -0.15670708782E+02  0.36820910657E+02  0.00000000000E+00 0.  1.
         11    1    4    4    0    0  0.21659171513E+02 -0.57599171199E+01  0.17167708716E+02  0.28231659156E+02  0.51100000000E-03 0. -1.
        -11    1    4    4    0    0 -0.27472874670E+01 -0.17531537454E+02 -0.65246891823E+01  0.18906981862E+02  0.51100000000E-03 0.  1.
        -12    1    4    4    0    0 -0.13394108469E+01 -0.50178466104E+01  0.50276892486E+01  0.72284483260E+01  0.00000000000E+00 0.  1.
</event>
<event>
 8    1  0.2497772E-006  0.9118800E+02  0.7816164E-02  0.1184000E+00
        -11   -1    0    0    0    0  0.00000000000E+00  0.00000000000E+00  0.45593999997E+02  0.45594000000E+02  0.51100000000E-03 0.  1.
         11   -1    0    0    0    0 -0.00000000000E+00 -0.00000000000E+00 -0.45593999997E+02  0.45594000000E+02  0.51100000000E-03 0. -1.
         23    2    1    2    0    0  0.00000000000E+00  0.00000000000E+00  0.00000000000E+00  0.91188000000E+02  0.91188000000E+02 0.  0.
    9900012    2    3    3    0    0  0.21033256116E+02 -0.20278825886E+02 -0.22408751109E+02  0.54367071598E+02  0.39999971321E+02 0.  0.
        -12    1    3    3    0    0 -0.21033256116E+02  0.20278825886E+02  0.22408751109E+02  0.36820928402E+02  0.00000000000E+00 0.  1.
         11    1    4    4    0    0  0.10673704849E+01 -0.13171470749E+02 -0.20938661913E+02  0.24759937084E+02  0.51100000000E-03 0.  1.
        -11    1    4    4    0    0  0.45132813917E+01 -0.43542443953E+01 -0.99541786215E+01  0.11764983020E+02  0.51100000000E-03 0. -1.
        -12    1    4    4    0    0  0.15452604240E+02 -0.27531107413E+01  0.84840894255E+01  0.17842151494E+02  0.00000000000E+00 0.  1.
</event>
<event>
 8    1  0.2497772E-006  0.9118800E+02  0.7816164E-02  0.1184000E+00
        -11   -1    0    0    0    0  0.00000000000E+00  0.00000000000E+00  0.45593999997E+02  0.45594000000E+02  0.51100000000E-03 0.  1.
         11   -1    0    0    0    0 -0.00000000000E+00 -0.00000000000E+00 -0.45593999997E+02  0.45594000000E+02  0.51100000000E-03 0. -1.
         23    2    1    2    0    0 -0.11926223897E-14  0.00000000000E+00  0.00000000000E+00  0.91188000000E+02  0.91188000000E+02 0.  0.
    9900012    2    3    3    0    0  0.66225527322E-02  0.27941161786E+02  0.23980639251E+02  0.54367087128E+02  0.40000006726E+02 0.  0.
         12    1    3    3    0    0 -0.66225527322E-02 -0.27941161786E+02 -0.23980639251E+02  0.36820912872E+02  0.00000000000E+00 0. -1.
         11    1    4    4    0    0  0.12155789775E+01  0.13442641606E+02 -0.50990596649E+01  0.14428536146E+02  0.51100000000E-03 0. -1.
        -11    1    4    4    0    0  0.82194376365E+01  0.10895403028E+02  0.63183447245E+01  0.15039629069E+02  0.51100000000E-03 0.  1.
         12    1    4    4    0    0 -0.94283940613E+01  0.36031171520E+01  0.22761354192E+02  0.24898921913E+02  0.00000000000E+00 0. -1.
</event>
<event>
 8    1  0.2497772E-006  0.9118800E+02  0.7816164E-02  0.1184000E+00
        -11   -1    0    0    0    0  0.00000000000E+00  0.00000000000E+00  0.45593999997E+02  0.45594000000E+02  0.51100000000E-03 0. -1.
         11   -1    0    0    0    0 -0.00000000000E+00 -0.00000000000E+00 -0.45593999997E+02  0.45594000000E+02  0.51100000000E-03 0.  1.
         23    2    1    2    0    0  0.71054273576E-14 -0.88817841970E-15  0.88817841970E-15  0.91188000000E+02  0.91188000000E+02 0.  0.
    9900012    2    3    3    0    0  0.36297389024E+02 -0.57482928260E+01  0.22883161123E+01  0.54367085957E+02  0.40000004055E+02 0.  0.
        -12    1    3    3    0    0 -0.36297389024E+02  0.57482928260E+01 -0.22883161123E+01  0.36820914043E+02  0.00000000000E+00 0.  1.
         11    1    4    4    0    0 -0.31678079987E+01 -0.86084271411E+00  0.14949342661E+01  0.36070606338E+01  0.51100000000E-03 0. -1.
        -11    1    4    4    0    0 -0.33070733272E-01 -0.82181351084E+01 -0.64727084822E+01  0.10461108626E+02  0.51100000000E-03 0.  1.
         12    1    4    4    0    0  0.39498267756E+02  0.33306849964E+01  0.72660903284E+01  0.40298916697E+02  0.00000000000E+00 0. -1.
</event>
<event>
 8    1  0.2497772E-006  0.9118800E+02  0.7816164E-02  0.1184000E+00
        -11   -1    0    0    0    0  0.00000000000E+00  0.00000000000E+00  0.45593999997E+02  0.45594000000E+02  0.51100000000E-03 0.  1.
         11   -1    0    0    0    0 -0.00000000000E+00 -0.00000000000E+00 -0.45593999997E+02  0.45594000000E+02  0.51100000000E-03 0. -1.
         23    2    1    2    0    0  0.00000000000E+00  0.00000000000E+00 -0.26645352591E-14  0.91188000000E+02  0.91188000000E+02 0.  0.
    9900012    2    3    3    0    0 -0.29273533235E+02  0.22179251090E+02  0.26310115555E+01  0.54367066432E+02  0.39999959546E+02 0.  0.
         12    1    3    3    0    0  0.29273533235E+02 -0.22179251090E+02 -0.26310115555E+01  0.36820933568E+02  0.00000000000E+00 0. -1.
         11    1    4    4    0    0 -0.74187760353E+01  0.18511897802E+02 -0.12539749301E+02  0.23557884262E+02  0.51100000000E-03 0. -1.
        -11    1    4    4    0    0  0.17325839570E+01  0.17769799686E+01  0.38426331705E+01  0.45744218128E+01  0.51100000000E-03 0.  1.
         12    1    4    4    0    0 -0.23587341157E+02  0.18903733195E+01  0.11328127686E+02  0.26234760357E+02  0.00000000000E+00 0. -1.
</event>
<event>
 8    1  0.2497772E-006  0.9118800E+02  0.7816164E-02  0.1184000E+00
        -11   -1    0    0    0    0  0.00000000000E+00  0.00000000000E+00  0.45593999997E+02  0.45594000000E+02  0.51100000000E-03 0.  1.
         11   -1    0    0    0    0 -0.00000000000E+00 -0.00000000000E+00 -0.45593999997E+02  0.45594000000E+02  0.51100000000E-03 0. -1.
         23    2    1    2    0    0  0.11102230246E-14  0.00000000000E+00 -0.35527136788E-14  0.91188000000E+02  0.91188000000E+02 0.  0.
    9900012    2    3    3    0    0 -0.13005167837E+01  0.30805083549E+02  0.20127957467E+02  0.54367093056E+02  0.40000020241E+02 0.  0.
         12    1    3    3    0    0  0.13005167837E+01 -0.30805083549E+02 -0.20127957467E+02  0.36820906944E+02  0.00000000000E+00 0. -1.
         11    1    4    4    0    0 -0.11209835826E+02  0.12358538418E+02  0.88865722403E+01  0.18904101606E+02  0.51100000000E-03 0. -1.
        -11    1    4    4    0    0  0.60718747328E+01  0.51396642610E+01  0.18274072310E+02  0.19930517568E+02  0.51100000000E-03 0.  1.
        -12    1    4    4    0    0  0.38374443093E+01  0.13306880869E+02 -0.70326870831E+01  0.15532473882E+02  0.00000000000E+00 0.  1.
</event>
<event>
 8    1  0.2497772E-006  0.9118800E+02  0.7816164E-02  0.1184000E+00
        -11   -1    0    0    0    0  0.00000000000E+00  0.00000000000E+00  0.45593999997E+02  0.45594000000E+02  0.51100000000E-03 0.  1.
         11   -1    0    0    0    0 -0.00000000000E+00 -0.00000000000E+00 -0.45593999997E+02  0.45594000000E+02  0.51100000000E-03 0. -1.
         23    2    1    2    0    0  0.00000000000E+00  0.17763568394E-14  0.00000000000E+00  0.91188000000E+02  0.91188000000E+02 0.  0.
    9900012    2    3    3    0    0  0.25534176638E+02 -0.93412874353E+01  0.24829972841E+02  0.54367063309E+02  0.39999952426E+02 0.  0.
         12    1    3    3    0    0 -0.25534176638E+02  0.93412874353E+01 -0.24829972841E+02  0.36820936691E+02  0.00000000000E+00 0. -1.
         11    1    4    4    0    0 -0.36144999244E+01 -0.36559143693E+01  0.40502438944E+01  0.65448296726E+01  0.51100000000E-03 0. -1.
        -11    1    4    4    0    0 -0.19458145437E+01 -0.11273321144E+02  0.46333127804E+01  0.12342671973E+02  0.51100000000E-03 0.  1.
        -12    1    4    4    0    0  0.31094491106E+02  0.55879480776E+01  0.16146416166E+02  0.35479561664E+02  0.00000000000E+00 0.  1.
</event>
<event>
 8    1  0.2497772E-006  0.9118800E+02  0.7816164E-02  0.1184000E+00
        -11   -1    0    0    0    0  0.00000000000E+00  0.00000000000E+00  0.45593999997E+02  0.45594000000E+02  0.51100000000E-03 0. -1.
         11   -1    0    0    0    0 -0.00000000000E+00 -0.00000000000E+00 -0.45593999997E+02  0.45594000000E+02  0.51100000000E-03 0.  1.
         23    2    1    2    0    0  0.14155343564E-14  0.71054273576E-14  0.35527136788E-14  0.91188000000E+02  0.91188000000E+02 0.  0.
    9900012    2    3    3    0    0 -0.12655317104E+00  0.32640119463E+02  0.17040720106E+02  0.54367088061E+02  0.40000008853E+02 0.  0.
        -12    1    3    3    0    0  0.12655317104E+00 -0.32640119463E+02 -0.17040720106E+02  0.36820911939E+02  0.00000000000E+00 0.  1.
         11    1    4    4    0    0 -0.11838615745E+02  0.63236105740E+01 -0.72340330140E+00  0.13441137826E+02  0.51100000000E-03 0. -1.
        -11    1    4    4    0    0  0.39057572122E+01 -0.38362187474E+01  0.10379038370E+01  0.55721412684E+01  0.51100000000E-03 0.  1.
        -12    1    4    4    0    0  0.78063053619E+01  0.30152727637E+02  0.16726219571E+02  0.35353808967E+02  0.00000000000E+00 0.  1.
</event>
<event>
 8    1  0.2497772E-006  0.9118800E+02  0.7816164E-02  0.1184000E+00
        -11   -1    0    0    0    0  0.00000000000E+00  0.00000000000E+00  0.45593999997E+02  0.45594000000E+02  0.51100000000E-03 0. -1.
         11   -1    0    0    0    0 -0.00000000000E+00 -0.00000000000E+00 -0.45593999997E+02  0.45594000000E+02  0.51100000000E-03 0.  1.
         23    2    1    2    0    0  0.00000000000E+00  0.35527136788E-14  0.00000000000E+00  0.91188000000E+02  0.91188000000E+02 0.  0.
    9900012    2    3    3    0    0 -0.25830800427E+02 -0.18482026382E+02 -0.18626976032E+02  0.54367084938E+02  0.40000001734E+02 0.  0.
         12    1    3    3    0    0  0.25830800427E+02  0.18482026382E+02  0.18626976032E+02  0.36820915062E+02  0.00000000000E+00 0. -1.
         11    1    4    4    0    0 -0.20373690267E+02 -0.21195406960E+02 -0.35448577170E+01  0.29612472842E+02  0.51100000000E-03 0. -1.
        -11    1    4    4    0    0  0.90182869566E+00  0.88872032429E+01 -0.23418148997E+01  0.92347048552E+01  0.51100000000E-03 0.  1.
        -12    1    4    4    0    0 -0.63589388557E+01 -0.61738226645E+01 -0.12740303416E+02  0.15519907242E+02  0.00000000000E+00 0.  1.
</event>
<event>
 8    1  0.2497772E-006  0.9118800E+02  0.7816164E-02  0.1184000E+00
        -11   -1    0    0    0    0  0.00000000000E+00  0.00000000000E+00  0.45593999997E+02  0.45594000000E+02  0.51100000000E-03 0.  1.
         11   -1    0    0    0    0 -0.00000000000E+00 -0.00000000000E+00 -0.45593999997E+02  0.45594000000E+02  0.51100000000E-03 0. -1.
         23    2    1    2    0    0  0.72164496601E-15  0.00000000000E+00  0.00000000000E+00  0.91188000000E+02  0.91188000000E+02 0.  0.
    9900012    2    3    3    0    0  0.45141507740E+00  0.15661570069E+02  0.33321065877E+02  0.54367055094E+02  0.39999933698E+02 0.  0.
         12    1    3    3    0    0 -0.45141507740E+00 -0.15661570069E+02 -0.33321065877E+02  0.36820944906E+02  0.00000000000E+00 0. -1.
         11    1    4    4    0    0 -0.13764795623E+02  0.13512803597E+02  0.10836479704E+02  0.22124528294E+02  0.51100000000E-03 0. -1.
        -11    1    4    4    0    0 -0.34675184241E+01  0.49306241897E-01  0.97539723198E+01  0.10352105651E+02  0.51100000000E-03 0.  1.
        -12    1    4    4    0    0  0.17683729124E+02  0.20994602299E+01  0.12730613853E+02  0.21890421149E+02  0.00000000000E+00 0.  1.
</event>
<event>
 8    1  0.2497772E-006  0.9118800E+02  0.7816164E-02  0.1184000E+00
        -11   -1    0    0    0    0  0.00000000000E+00  0.00000000000E+00  0.45593999997E+02  0.45594000000E+02  0.51100000000E-03 0.  1.
         11   -1    0    0    0    0 -0.00000000000E+00 -0.00000000000E+00 -0.45593999997E+02  0.45594000000E+02  0.51100000000E-03 0. -1.
         23    2    1    2    0    0  0.35527136788E-14 -0.17763568394E-14 -0.35527136788E-14  0.91188000000E+02  0.91188000000E+02 0.  0.
    9900012    2    3    3    0    0 -0.26782783889E+02 -0.15334555216E+02  0.20082639117E+02  0.54367102531E+02  0.40000041840E+02 0.  0.
         12    1    3    3    0    0  0.26782783889E+02  0.15334555216E+02 -0.20082639117E+02  0.36820897469E+02  0.00000000000E+00 0. -1.
         11    1    4    4    0    0  0.11798096661E+01 -0.56645351377E+01  0.16152685341E+00  0.57883504006E+01  0.51100000000E-03 0. -1.
        -11    1    4    4    0    0  0.52809193539E+00  0.65731562476E+01 -0.42436887773E+01  0.78418211435E+01  0.51100000000E-03 0.  1.
        -12    1    4    4    0    0 -0.28490685491E+02 -0.16243176326E+02  0.24164801041E+02  0.40736930987E+02  0.00000000000E+00 0.  1.
</event>
<event>
 8    1  0.2497772E-006  0.9118800E+02  0.7816164E-02  0.1184000E+00
        -11   -1    0    0    0    0  0.00000000000E+00  0.00000000000E+00  0.45593999997E+02  0.45594000000E+02  0.51100000000E-03 0. -1.
         11   -1    0    0    0    0 -0.00000000000E+00 -0.00000000000E+00 -0.45593999997E+02  0.45594000000E+02  0.51100000000E-03 0.  1.
         23    2    1    2    0    0 -0.35527136788E-14  0.00000000000E+00  0.35527136788E-14  0.91188000000E+02  0.91188000000E+02 0.  0.
    9900012    2    3    3    0    0  0.25693331522E+02 -0.17145370905E+02 -0.20041631048E+02  0.54367109146E+02  0.40000056921E+02 0.  0.
         12    1    3    3    0    0 -0.25693331522E+02  0.17145370905E+02  0.20041631048E+02  0.36820890854E+02  0.00000000000E+00 0. -1.
         11    1    4    4    0    0  0.14984761105E+02 -0.15202186339E+02  0.59743480007E+01  0.22166243911E+02  0.51100000000E-03 0. -1.
        -11    1    4    4    0    0  0.32809058647E+01 -0.36131473443E+00  0.15221314624E+01  0.36348006933E+01  0.51100000000E-03 0.  1.
        -12    1    4    4    0    0  0.74276645528E+01 -0.15818698324E+01 -0.27538110511E+02  0.28566064542E+02  0.00000000000E+00 0.  1.
</event>
<event>
 8    1  0.2497772E-006  0.9118800E+02  0.7816164E-02  0.1184000E+00
        -11   -1    0    0    0    0  0.00000000000E+00  0.00000000000E+00  0.45593999997E+02  0.45594000000E+02  0.51100000000E-03 0.  1.
         11   -1    0    0    0    0 -0.00000000000E+00 -0.00000000000E+00 -0.45593999997E+02  0.45594000000E+02  0.51100000000E-03 0. -1.
         23    2    1    2    0    0  0.00000000000E+00  0.71054273576E-14 -0.17763568394E-14  0.91188000000E+02  0.91188000000E+02 0.  0.
    9900012    2    3    3    0    0 -0.21185123438E+02  0.28146669736E+02  0.10711716600E+02  0.54367009453E+02  0.39999829649E+02 0.  0.
         12    1    3    3    0    0  0.21185123438E+02 -0.28146669736E+02 -0.10711716600E+02  0.36820990547E+02  0.00000000000E+00 0. -1.
         11    1    4    4    0    0 -0.12066671769E+02  0.70236308865E+01 -0.16127678198E+01  0.14054784904E+02  0.51100000000E-03 0. -1.
        -11    1    4    4    0    0 -0.12572904368E+02 -0.38552712689E+01  0.36856325132E+01  0.13657412936E+02  0.51100000000E-03 0.  1.
         12    1    4    4    0    0  0.34544526986E+01  0.24978310119E+02  0.86388519069E+01  0.26654811613E+02  0.00000000000E+00 0. -1.
</event>
<event>
 8    1  0.2497772E-006  0.9118800E+02  0.7816164E-02  0.1184000E+00
        -11   -1    0    0    0    0  0.00000000000E+00  0.00000000000E+00  0.45593999997E+02  0.45594000000E+02  0.51100000000E-03 0. -1.
         11   -1    0    0    0    0 -0.00000000000E+00 -0.00000000000E+00 -0.45593999997E+02  0.45594000000E+02  0.51100000000E-03 0.  1.
         23    2    1    2    0    0 -0.35527136788E-14  0.35527136788E-14  0.88817841970E-15  0.91188000000E+02  0.91188000000E+02 0.  0.
    9900012    2    3    3    0    0 -0.25812012041E+02  0.25995777411E+02 -0.37066849329E+01  0.54367083091E+02  0.39999997523E+02 0.  0.
         12    1    3    3    0    0  0.25812012041E+02 -0.25995777411E+02  0.37066849329E+01  0.36820916909E+02  0.00000000000E+00 0. -1.
         11    1    4    4    0    0 -0.19237798974E+02  0.29747677843E+02  0.67044886014E+01  0.36055060867E+02  0.51100000000E-03 0.  1.
        -11    1    4    4    0    0 -0.57600141224E+01 -0.21328106818E+01  0.14517755466E+01  0.63114417207E+01  0.51100000000E-03 0. -1.
         12    1    4    4    0    0 -0.81419894397E+00 -0.16190897499E+01 -0.11862949081E+02  0.12000580504E+02  0.00000000000E+00 0. -1.
</event>
<event>
 8    1  0.2497772E-006  0.9118800E+02  0.7816164E-02  0.1184000E+00
        -11   -1    0    0    0    0  0.00000000000E+00  0.00000000000E+00  0.45593999997E+02  0.45594000000E+02  0.51100000000E-03 0. -1.
         11   -1    0    0    0    0 -0.00000000000E+00 -0.00000000000E+00 -0.45593999997E+02  0.45594000000E+02  0.51100000000E-03 0.  1.
         23    2    1    2    0    0  0.00000000000E+00  0.00000000000E+00  0.35527136788E-14  0.91188000000E+02  0.91188000000E+02 0.  0.
    9900012    2    3    3    0    0  0.26851714752E+02  0.30469371586E+01 -0.25009633273E+02  0.54367079756E+02  0.39999989919E+02 0.  0.
         12    1    3    3    0    0 -0.26851714752E+02 -0.30469371586E+01  0.25009633273E+02  0.36820920244E+02  0.00000000000E+00 0. -1.
         11    1    4    4    0    0 -0.10438840187E+01  0.22656117273E+01  0.23593314094E+01  0.34335310256E+01  0.51100000000E-03 0. -1.
        -11    1    4    4    0    0  0.12228968129E+02 -0.33854765100E+01  0.58480662517E+01  0.13971721149E+02  0.51100000000E-03 0.  1.
        -12    1    4    4    0    0  0.15666630642E+02  0.41668019413E+01 -0.33217030934E+02  0.36961827581E+02  0.00000000000E+00 0.  1.
</event>
<event>
 8    1  0.2497772E-006  0.9118800E+02  0.7816164E-02  0.1184000E+00
        -11   -1    0    0    0    0  0.00000000000E+00  0.00000000000E+00  0.45593999997E+02  0.45594000000E+02  0.51100000000E-03 0. -1.
         11   -1    0    0    0    0 -0.00000000000E+00 -0.00000000000E+00 -0.45593999997E+02  0.45594000000E+02  0.51100000000E-03 0.  1.
         23    2    1    2    0    0 -0.35527136788E-14 -0.35527136788E-14  0.00000000000E+00  0.91188000000E+02  0.91188000000E+02 0.  0.
    9900012    2    3    3    0    0  0.31381400268E+02 -0.16122647314E+02 -0.10537940700E+02  0.54367078863E+02  0.39999987883E+02 0.  0.
         12    1    3    3    0    0 -0.31381400268E+02  0.16122647314E+02  0.10537940700E+02  0.36820921137E+02  0.00000000000E+00 0. -1.
         11    1    4    4    0    0  0.58469298664E+01  0.27462058336E+00 -0.11188401796E+02  0.12627047966E+02  0.51100000000E-03 0. -1.
        -11    1    4    4    0    0  0.17604044358E+02 -0.37262011244E+01 -0.12435674495E+02  0.21873110272E+02  0.51100000000E-03 0.  1.
         12    1    4    4    0    0  0.79304260440E+01 -0.12671066773E+02  0.13086135591E+02  0.19866920625E+02  0.00000000000E+00 0. -1.
</event>
<event>
 8    1  0.2497772E-006  0.9118800E+02  0.7816164E-02  0.1184000E+00
        -11   -1    0    0    0    0  0.00000000000E+00  0.00000000000E+00  0.45593999997E+02  0.45594000000E+02  0.51100000000E-03 0.  1.
         11   -1    0    0    0    0 -0.00000000000E+00 -0.00000000000E+00 -0.45593999997E+02  0.45594000000E+02  0.51100000000E-03 0. -1.
         23    2    1    2    0    0 -0.88817841970E-15 -0.35527136788E-14  0.00000000000E+00  0.91188000000E+02  0.91188000000E+02 0.  0.
    9900012    2    3    3    0    0 -0.18617843370E+01  0.12676506214E+02 -0.34519850600E+02  0.54367080183E+02  0.39999990893E+02 0.  0.
        -12    1    3    3    0    0  0.18617843370E+01 -0.12676506214E+02  0.34519850600E+02  0.36820919817E+02  0.00000000000E+00 0.  1.
         11    1    4    4    0    0 -0.98262141092E+01 -0.10459095080E+02 -0.13667312732E+02  0.19817734259E+02  0.51100000000E-03 0. -1.
        -11    1    4    4    0    0 -0.33441200389E+01  0.33831235716E+01 -0.30162298993E+01  0.56326110289E+01  0.51100000000E-03 0.  1.
         12    1    4    4    0    0  0.11308549811E+02  0.19752477723E+02 -0.17836307969E+02  0.28916734895E+02  0.00000000000E+00 0. -1.
</event>
<event>
 8    1  0.2497772E-006  0.9118800E+02  0.7816164E-02  0.1184000E+00
        -11   -1    0    0    0    0  0.00000000000E+00  0.00000000000E+00  0.45593999997E+02  0.45594000000E+02  0.51100000000E-03 0.  1.
         11   -1    0    0    0    0 -0.00000000000E+00 -0.00000000000E+00 -0.45593999997E+02  0.45594000000E+02  0.51100000000E-03 0. -1.
         23    2    1    2    0    0  0.17763568394E-14  0.00000000000E+00  0.71054273576E-14  0.91188000000E+02  0.91188000000E+02 0.  0.
    9900012    2    3    3    0    0  0.11590503465E+02  0.50946667639E+01  0.34575797660E+02  0.54367065956E+02  0.39999958461E+02 0.  0.
         12    1    3    3    0    0 -0.11590503465E+02 -0.50946667639E+01 -0.34575797660E+02  0.36820934044E+02  0.00000000000E+00 0. -1.
         11    1    4    4    0    0  0.27153249321E+01  0.81519966216E+01  0.76349683727E+01  0.11494380397E+02  0.51100000000E-03 0.  1.
        -11    1    4    4    0    0  0.11592993651E+02  0.15310202849E+01  0.32875921512E+02  0.34893663328E+02  0.51100000000E-03 0. -1.
         12    1    4    4    0    0 -0.27178151190E+01 -0.45883501426E+01 -0.59350922245E+01  0.79790222312E+01  0.00000000000E+00 0. -1.
</event>
<event>
 8    1  0.2497772E-006  0.9118800E+02  0.7816164E-02  0.1184000E+00
        -11   -1    0    0    0    0  0.00000000000E+00  0.00000000000E+00  0.45593999997E+02  0.45594000000E+02  0.51100000000E-03 0. -1.
         11   -1    0    0    0    0 -0.00000000000E+00 -0.00000000000E+00 -0.45593999997E+02  0.45594000000E+02  0.51100000000E-03 0.  1.
         23    2    1    2    0    0 -0.17763568394E-14  0.00000000000E+00  0.00000000000E+00  0.91188000000E+02  0.91188000000E+02 0.  0.
    9900012    2    3    3    0    0 -0.14014658894E+02  0.24510521985E+02 -0.23634789158E+02  0.54367087322E+02  0.40000007169E+02 0.  0.
         12    1    3    3    0    0  0.14014658894E+02 -0.24510521985E+02  0.23634789158E+02  0.36820912678E+02  0.00000000000E+00 0. -1.
         11    1    4    4    0    0  0.23490421331E+01  0.15834911002E+01  0.33587095652E+01  0.43939018209E+01  0.51100000000E-03 0. -1.
        -11    1    4    4    0    0 -0.20817580461E+02  0.26133341651E+02 -0.28887117496E+02  0.44167734373E+02  0.51100000000E-03 0.  1.
        -12    1    4    4    0    0  0.44538794345E+01 -0.32063107663E+01  0.18936187735E+01  0.58054511286E+01  0.00000000000E+00 0.  1.
</event>
<event>
 8    1  0.2497772E-006  0.9118800E+02  0.7816164E-02  0.1184000E+00
        -11   -1    0    0    0    0  0.00000000000E+00  0.00000000000E+00  0.45593999997E+02  0.45594000000E+02  0.51100000000E-03 0.  1.
         11   -1    0    0    0    0 -0.00000000000E+00 -0.00000000000E+00 -0.45593999997E+02  0.45594000000E+02  0.51100000000E-03 0. -1.
         23    2    1    2    0    0  0.00000000000E+00  0.71054273576E-14  0.00000000000E+00  0.91188000000E+02  0.91188000000E+02 0.  0.
    9900012    2    3    3    0    0  0.22092794413E+02 -0.29005368771E+02 -0.51357665360E+01  0.54367094519E+02  0.40000023576E+02 0.  0.
        -12    1    3    3    0    0 -0.22092794413E+02  0.29005368771E+02  0.51357665360E+01  0.36820905481E+02  0.00000000000E+00 0.  1.
         11    1    4    4    0    0  0.37492589459E+01 -0.28410351719E+00  0.23468100309E+01  0.44322877879E+01  0.51100000000E-03 0. -1.
        -11    1    4    4    0    0  0.27920854370E+02 -0.13502050549E+02 -0.76834647996E+01  0.31951762226E+02  0.51100000000E-03 0.  1.
         12    1    4    4    0    0 -0.95773189028E+01 -0.15219214705E+02  0.20088823261E+00  0.17983044505E+02  0.00000000000E+00 0. -1.
</event>
<event>
 8    1  0.2497772E-006  0.9118800E+02  0.7816164E-02  0.1184000E+00
        -11   -1    0    0    0    0  0.00000000000E+00  0.00000000000E+00  0.45593999997E+02  0.45594000000E+02  0.51100000000E-03 0. -1.
         11   -1    0    0    0    0 -0.00000000000E+00 -0.00000000000E+00 -0.45593999997E+02  0.45594000000E+02  0.51100000000E-03 0.  1.
         23    2    1    2    0    0  0.00000000000E+00 -0.35527136788E-14  0.88817841970E-15  0.91188000000E+02  0.91188000000E+02 0.  0.
    9900012    2    3    3    0    0  0.18668518101E+02  0.30887154454E+02 -0.72972835483E+01  0.54367078969E+02  0.39999988126E+02 0.  0.
         12    1    3    3    0    0 -0.18668518101E+02 -0.30887154454E+02  0.72972835483E+01  0.36820921031E+02  0.00000000000E+00 0. -1.
         11    1    4    4    0    0  0.11461784588E+02  0.11873772284E+02 -0.17587375230E+02  0.24117934031E+02  0.51100000000E-03 0. -1.
        -11    1    4    4    0    0  0.13909343649E+02  0.15150332311E+02  0.61074619235E+01  0.21454684833E+02  0.51100000000E-03 0.  1.
         12    1    4    4    0    0 -0.67026101354E+01  0.38630498592E+01  0.41826297581E+01  0.87944601048E+01  0.00000000000E+00 0. -1.
</event>
<event>
 8    1  0.2497772E-006  0.9118800E+02  0.7816164E-02  0.1184000E+00
        -11   -1    0    0    0    0  0.00000000000E+00  0.00000000000E+00  0.45593999997E+02  0.45594000000E+02  0.51100000000E-03 0. -1.
         11   -1    0    0    0    0 -0.00000000000E+00 -0.00000000000E+00 -0.45593999997E+02  0.45594000000E+02  0.51100000000E-03 0.  1.
         23    2    1    2    0    0  0.71054273576E-14  0.00000000000E+00  0.17763568394E-14  0.91188000000E+02  0.91188000000E+02 0.  0.
    9900012    2    3    3    0    0 -0.34633816927E+02 -0.67948239043E+01 -0.10493292097E+02  0.54367080866E+02  0.39999992451E+02 0.  0.
         12    1    3    3    0    0  0.34633816927E+02  0.67948239043E+01  0.10493292097E+02  0.36820919134E+02  0.00000000000E+00 0. -1.
         11    1    4    4    0    0  0.13128952998E+00  0.62050863039E+01  0.12980668620E+01  0.63407657912E+01  0.51100000000E-03 0. -1.
        -11    1    4    4    0    0 -0.17682261485E+01 -0.12655936107E+02 -0.73177315063E+01  0.14725777980E+02  0.51100000000E-03 0.  1.
        -12    1    4    4    0    0 -0.32996880308E+02 -0.34397410124E+00 -0.44736274527E+01  0.33300537095E+02  0.00000000000E+00 0.  1.
</event>
<event>
 8    1  0.2497772E-006  0.9118800E+02  0.7816164E-02  0.1184000E+00
        -11   -1    0    0    0    0  0.00000000000E+00  0.00000000000E+00  0.45593999997E+02  0.45594000000E+02  0.51100000000E-03 0.  1.
         11   -1    0    0    0    0 -0.00000000000E+00 -0.00000000000E+00 -0.45593999997E+02  0.45594000000E+02  0.51100000000E-03 0. -1.
         23    2    1    2    0    0  0.00000000000E+00  0.00000000000E+00  0.00000000000E+00  0.91188000000E+02  0.91188000000E+02 0.  0.
    9900012    2    3    3    0    0 -0.26442823139E+02 -0.22195303523E+02 -0.12803560783E+02  0.54367006494E+02  0.39999822903E+02 0.  0.
        -12    1    3    3    0    0  0.26442823139E+02  0.22195303523E+02  0.12803560783E+02  0.36820993506E+02  0.00000000000E+00 0.  1.
         11    1    4    4    0    0 -0.12730038782E+02 -0.15926940596E+02 -0.15379252867E+02  0.25539043504E+02  0.51100000000E-03 0. -1.
        -11    1    4    4    0    0  0.83702492793E+00  0.55556083818E+01 -0.59925871268E+01  0.82144078274E+01  0.51100000000E-03 0.  1.
         12    1    4    4    0    0 -0.14549809285E+02 -0.11823971310E+02  0.85682792107E+01  0.20613555162E+02  0.00000000000E+00 0. -1.
</event>
<event>
 8    1  0.2497772E-006  0.9118800E+02  0.7816164E-02  0.1184000E+00
        -11   -1    0    0    0    0  0.00000000000E+00  0.00000000000E+00  0.45593999997E+02  0.45594000000E+02  0.51100000000E-03 0.  1.
         11   -1    0    0    0    0 -0.00000000000E+00 -0.00000000000E+00 -0.45593999997E+02  0.45594000000E+02  0.51100000000E-03 0. -1.
         23    2    1    2    0    0 -0.35527136788E-14 -0.88817841970E-15 -0.35527136788E-14  0.91188000000E+02  0.91188000000E+02 0.  0.
    9900012    2    3    3    0    0  0.19390299822E+02  0.20724440888E+01  0.31233020963E+02  0.54367077277E+02  0.39999984269E+02 0.  0.
         12    1    3    3    0    0 -0.19390299822E+02 -0.20724440888E+01 -0.31233020963E+02  0.36820922723E+02  0.00000000000E+00 0. -1.
         11    1    4    4    0    0  0.48607433178E+01 -0.10429936987E+02  0.11868536420E+02  0.16530957872E+02  0.51100000000E-03 0. -1.
        -11    1    4    4    0    0  0.17560704001E+02  0.24624763550E+01  0.20708069300E+02  0.27262909772E+02  0.51100000000E-03 0.  1.
        -12    1    4    4    0    0 -0.30311474968E+01  0.10039904721E+02 -0.13435847581E+01  0.10573209633E+02  0.00000000000E+00 0.  1.
</event>
<event>
 8    1  0.2497772E-006  0.9118800E+02  0.7816164E-02  0.1184000E+00
        -11   -1    0    0    0    0  0.00000000000E+00  0.00000000000E+00  0.45593999997E+02  0.45594000000E+02  0.51100000000E-03 0. -1.
         11   -1    0    0    0    0 -0.00000000000E+00 -0.00000000000E+00 -0.45593999997E+02  0.45594000000E+02  0.51100000000E-03 0.  1.
         23    2    1    2    0    0  0.00000000000E+00  0.44408920985E-15  0.00000000000E+00  0.91188000000E+02  0.91188000000E+02 0.  0.
    9900012    2    3    3    0    0  0.30713164912E+02  0.31979065736E+01 -0.20056294540E+02  0.54367081271E+02  0.39999993373E+02 0.  0.
         12    1    3    3    0    0 -0.30713164912E+02 -0.31979065736E+01  0.20056294540E+02  0.36820918729E+02  0.00000000000E+00 0. -1.
         11    1    4    4    0    0 -0.11125381173E+01  0.31685738787E+01 -0.15487803591E+01  0.36981512069E+01  0.51100000000E-03 0. -1.
        -11    1    4    4    0    0  0.29581676781E+02  0.12676362896E+02 -0.19756878747E+02  0.37763739692E+02  0.51100000000E-03 0.  1.
        -12    1    4    4    0    0  0.22440262481E+01 -0.12647030201E+02  0.12493645658E+01  0.12905190371E+02  0.00000000000E+00 0.  1.
</event>
<event>
 8    1  0.2497772E-006  0.9118800E+02  0.7816164E-02  0.1184000E+00
        -11   -1    0    0    0    0  0.00000000000E+00  0.00000000000E+00  0.45593999997E+02  0.45594000000E+02  0.51100000000E-03 0. -1.
         11   -1    0    0    0    0 -0.00000000000E+00 -0.00000000000E+00 -0.45593999997E+02  0.45594000000E+02  0.51100000000E-03 0.  1.
         23    2    1    2    0    0  0.00000000000E+00 -0.35527136788E-14  0.00000000000E+00  0.91188000000E+02  0.91188000000E+02 0.  0.
    9900012    2    3    3    0    0  0.21861137796E+02 -0.25472455156E+02 -0.15133561322E+02  0.54367082091E+02  0.39999995242E+02 0.  0.
         12    1    3    3    0    0 -0.21861137796E+02  0.25472455156E+02  0.15133561322E+02  0.36820917909E+02  0.00000000000E+00 0. -1.
         11    1    4    4    0    0  0.80719320683E+01 -0.27730745865E+02 -0.93685362561E+01  0.30363132668E+02  0.51100000000E-03 0. -1.
        -11    1    4    4    0    0  0.81958684841E+01  0.10229617526E+02 -0.56279820736E+01  0.14265045300E+02  0.51100000000E-03 0.  1.
        -12    1    4    4    0    0  0.55933372437E+01 -0.79713268164E+01 -0.13704299214E+00  0.97389041230E+01  0.00000000000E+00 0.  1.
</event>
<event>
 8    1  0.2497772E-006  0.9118800E+02  0.7816164E-02  0.1184000E+00
        -11   -1    0    0    0    0  0.00000000000E+00  0.00000000000E+00  0.45593999997E+02  0.45594000000E+02  0.51100000000E-03 0. -1.
         11   -1    0    0    0    0 -0.00000000000E+00 -0.00000000000E+00 -0.45593999997E+02  0.45594000000E+02  0.51100000000E-03 0.  1.
         23    2    1    2    0    0  0.35527136788E-14 -0.17763568394E-14  0.00000000000E+00  0.91188000000E+02  0.91188000000E+02 0.  0.
    9900012    2    3    3    0    0 -0.30849421405E+02 -0.11669209464E+02  0.16368320616E+02  0.54367093299E+02  0.40000020793E+02 0.  0.
        -12    1    3    3    0    0  0.30849421405E+02  0.11669209464E+02 -0.16368320616E+02  0.36820906701E+02  0.00000000000E+00 0.  1.
         11    1    4    4    0    0 -0.72858646949E+01 -0.15332549778E+02  0.11435012101E+02  0.20467789550E+02  0.51100000000E-03 0. -1.
        -11    1    4    4    0    0  0.19594782732E+01 -0.59272418433E+01  0.14825074095E+01  0.64163525038E+01  0.51100000000E-03 0.  1.
         12    1    4    4    0    0 -0.25523034983E+02  0.95905821577E+01  0.34508011060E+01  0.27482951245E+02  0.00000000000E+00 0. -1.
</event>
<event>
 8    1  0.2497772E-006  0.9118800E+02  0.7816164E-02  0.1184000E+00
        -11   -1    0    0    0    0  0.00000000000E+00  0.00000000000E+00  0.45593999997E+02  0.45594000000E+02  0.51100000000E-03 0.  1.
         11   -1    0    0    0    0 -0.00000000000E+00 -0.00000000000E+00 -0.45593999997E+02  0.45594000000E+02  0.51100000000E-03 0. -1.
         23    2    1    2    0    0  0.00000000000E+00  0.71054273576E-14 -0.17763568394E-14  0.91188000000E+02  0.91188000000E+02 0.  0.
    9900012    2    3    3    0    0  0.28689332267E+01  0.34775013403E+02 -0.11757814960E+02  0.54367101753E+02  0.40000040067E+02 0.  0.
        -12    1    3    3    0    0 -0.28689332267E+01 -0.34775013403E+02  0.11757814960E+02  0.36820898247E+02  0.00000000000E+00 0.  1.
         11    1    4    4    0    0  0.10232643117E+02  0.17881451513E+02 -0.18932226620E+02  0.27980037499E+02  0.51100000000E-03 0. -1.
        -11    1    4    4    0    0  0.21263105124E+01 -0.26454148368E+01  0.23722075395E+01  0.41408676537E+01  0.51100000000E-03 0.  1.
        -12    1    4    4    0    0 -0.94900204027E+01  0.19538976727E+02  0.48022041205E+01  0.22246196601E+02  0.00000000000E+00 0.  1.
</event>
<event>
 8    1  0.2497772E-006  0.9118800E+02  0.7816164E-02  0.1184000E+00
        -11   -1    0    0    0    0  0.00000000000E+00  0.00000000000E+00  0.45593999997E+02  0.45594000000E+02  0.51100000000E-03 0.  1.
         11   -1    0    0    0    0 -0.00000000000E+00 -0.00000000000E+00 -0.45593999997E+02  0.45594000000E+02  0.51100000000E-03 0. -1.
         23    2    1    2    0    0  0.00000000000E+00 -0.35527136788E-14  0.44408920985E-15  0.91188000000E+02  0.91188000000E+02 0.  0.
    9900012    2    3    3    0    0 -0.22626068007E+02  0.28958718837E+02  0.22878405616E+01  0.54367074366E+02  0.39999977632E+02 0.  0.
        -12    1    3    3    0    0  0.22626068007E+02 -0.28958718837E+02 -0.22878405616E+01  0.36820925634E+02  0.00000000000E+00 0.  1.
         11    1    4    4    0    0 -0.90657077880E+01  0.18643438989E+01  0.34827625495E+01  0.98890075896E+01  0.51100000000E-03 0. -1.
        -11    1    4    4    0    0 -0.22236193294E+02  0.11697732038E+02  0.52477551301E+01  0.25667570224E+02  0.51100000000E-03 0.  1.
        -12    1    4    4    0    0  0.86758330748E+01  0.15396642899E+02 -0.64426771180E+01  0.18810496553E+02  0.00000000000E+00 0.  1.
</event>
<event>
 8    1  0.2497772E-006  0.9118800E+02  0.7816164E-02  0.1184000E+00
        -11   -1    0    0    0    0  0.00000000000E+00  0.00000000000E+00  0.45593999997E+02  0.45594000000E+02  0.51100000000E-03 0. -1.
         11   -1    0    0    0    0 -0.00000000000E+00 -0.00000000000E+00 -0.45593999997E+02  0.45594000000E+02  0.51100000000E-03 0.  1.
         23    2    1    2    0    0  0.00000000000E+00  0.44408920985E-15  0.88817841970E-15  0.91188000000E+02  0.91188000000E+02 0.  0.
    9900012    2    3    3    0    0 -0.36675719899E+02 -0.10564747231E+01  0.30909143479E+01  0.54367104839E+02  0.40000047101E+02 0.  0.
        -12    1    3    3    0    0  0.36675719899E+02  0.10564747231E+01 -0.30909143479E+01  0.36820895161E+02  0.00000000000E+00 0.  1.
         11    1    4    4    0    0 -0.25575491937E+02 -0.14939860732E+02 -0.38777677363E+01  0.29872099179E+02  0.51100000000E-03 0. -1.
        -11    1    4    4    0    0 -0.22966327286E+01  0.10233361197E+01 -0.44934662389E+01  0.51490754320E+01  0.51100000000E-03 0.  1.
        -12    1    4    4    0    0 -0.88035952338E+01  0.12860049889E+02  0.11462148323E+02  0.19345930228E+02  0.00000000000E+00 0.  1.
</event>
<event>
 8    1  0.2497772E-006  0.9118800E+02  0.7816164E-02  0.1184000E+00
        -11   -1    0    0    0    0  0.00000000000E+00  0.00000000000E+00  0.45593999997E+02  0.45594000000E+02  0.51100000000E-03 0. -1.
         11   -1    0    0    0    0 -0.00000000000E+00 -0.00000000000E+00 -0.45593999997E+02  0.45594000000E+02  0.51100000000E-03 0.  1.
         23    2    1    2    0    0 -0.17763568394E-14 -0.17763568394E-14  0.00000000000E+00  0.91188000000E+02  0.91188000000E+02 0.  0.
    9900012    2    3    3    0    0 -0.51995460249E+01  0.10348603188E+02  0.34952132608E+02  0.54367076049E+02  0.39999981468E+02 0.  0.
        -12    1    3    3    0    0  0.51995460249E+01 -0.10348603188E+02 -0.34952132608E+02  0.36820923951E+02  0.00000000000E+00 0.  1.
         11    1    4    4    0    0  0.87024674320E+00  0.67422233591E+01  0.15044211901E+02  0.16508882978E+02  0.51100000000E-03 0. -1.
        -11    1    4    4    0    0 -0.17038949150E+02  0.97449368539E+01  0.12362836984E+02  0.23197614553E+02  0.51100000000E-03 0.  1.
        -12    1    4    4    0    0  0.10969156381E+02 -0.61385570249E+01  0.75450837226E+01  0.14660578517E+02  0.00000000000E+00 0.  1.
</event>
<event>
 8    1  0.2497772E-006  0.9118800E+02  0.7816164E-02  0.1184000E+00
        -11   -1    0    0    0    0  0.00000000000E+00  0.00000000000E+00  0.45593999997E+02  0.45594000000E+02  0.51100000000E-03 0. -1.
         11   -1    0    0    0    0 -0.00000000000E+00 -0.00000000000E+00 -0.45593999997E+02  0.45594000000E+02  0.51100000000E-03 0.  1.
         23    2    1    2    0    0  0.00000000000E+00  0.00000000000E+00  0.00000000000E+00  0.91188000000E+02  0.91188000000E+02 0.  0.
    9900012    2    3    3    0    0 -0.21569115383E+02  0.20872227143E+02 -0.21328493152E+02  0.54367065405E+02  0.39999957204E+02 0.  0.
        -12    1    3    3    0    0  0.21569115383E+02 -0.20872227143E+02  0.21328493152E+02  0.36820934595E+02  0.00000000000E+00 0.  1.
         11    1    4    4    0    0 -0.19873012804E+02  0.54681178863E+01 -0.14480886857E+02  0.25189939174E+02  0.51100000000E-03 0. -1.
        -11    1    4    4    0    0 -0.11369364510E+02  0.17866432677E+01 -0.13279269260E+01  0.11585246381E+02  0.51100000000E-03 0.  1.
        -12    1    4    4    0    0  0.96732619313E+01  0.13617465989E+02 -0.55196793688E+01  0.17591879851E+02  0.00000000000E+00 0.  1.
</event>
<event>
 8    1  0.2497772E-006  0.9118800E+02  0.7816164E-02  0.1184000E+00
        -11   -1    0    0    0    0  0.00000000000E+00  0.00000000000E+00  0.45593999997E+02  0.45594000000E+02  0.51100000000E-03 0.  1.
         11   -1    0    0    0    0 -0.00000000000E+00 -0.00000000000E+00 -0.45593999997E+02  0.45594000000E+02  0.51100000000E-03 0. -1.
         23    2    1    2    0    0 -0.44408920985E-15 -0.13322676296E-14  0.00000000000E+00  0.91188000000E+02  0.91188000000E+02 0.  0.
    9900012    2    3    3    0    0  0.29993286867E+01 -0.14188334917E+01  0.36671072808E+02  0.54367127632E+02  0.40000099063E+02 0.  0.
         12    1    3    3    0    0 -0.29993286867E+01  0.14188334917E+01 -0.36671072808E+02  0.36820872368E+02  0.00000000000E+00 0. -1.
         11    1    4    4    0    0 -0.22568243213E+01  0.38230681827E+01 -0.18621294572E+00  0.44433975591E+01  0.51100000000E-03 0. -1.
        -11    1    4    4    0    0 -0.55928490731E+01  0.95538086208E+01  0.30893638511E+01  0.11493449838E+02  0.51100000000E-03 0.  1.
         12    1    4    4    0    0  0.10849002081E+02 -0.14795710295E+02  0.33767921903E+02  0.38430280235E+02  0.00000000000E+00 0. -1.
</event>
<event>
 8    1  0.2497772E-006  0.9118800E+02  0.7816164E-02  0.1184000E+00
        -11   -1    0    0    0    0  0.00000000000E+00  0.00000000000E+00  0.45593999997E+02  0.45594000000E+02  0.51100000000E-03 0.  1.
         11   -1    0    0    0    0 -0.00000000000E+00 -0.00000000000E+00 -0.45593999997E+02  0.45594000000E+02  0.51100000000E-03 0. -1.
         23    2    1    2    0    0  0.00000000000E+00  0.00000000000E+00  0.35527136788E-14  0.91188000000E+02  0.91188000000E+02 0.  0.
    9900012    2    3    3    0    0 -0.72194454645E+01 -0.18771323787E+02 -0.30843084987E+02  0.54367097227E+02  0.40000029748E+02 0.  0.
        -12    1    3    3    0    0  0.72194454645E+01  0.18771323787E+02  0.30843084987E+02  0.36820902773E+02  0.00000000000E+00 0.  1.
         11    1    4    4    0    0 -0.58404282756E+01  0.25132010018E+01 -0.30493628378E+02  0.31149448689E+02  0.51100000000E-03 0. -1.
        -11    1    4    4    0    0  0.22856065793E+01 -0.84347182489E+00  0.19020706739E+00  0.24436900671E+01  0.51100000000E-03 0.  1.
         12    1    4    4    0    0 -0.36646237682E+01 -0.20441052964E+02 -0.53966367592E+00  0.20773958470E+02  0.00000000000E+00 0. -1.
</event>
<event>
 8    1  0.2497772E-006  0.9118800E+02  0.7816164E-02  0.1184000E+00
        -11   -1    0    0    0    0  0.00000000000E+00  0.00000000000E+00  0.45593999997E+02  0.45594000000E+02  0.51100000000E-03 0. -1.
         11   -1    0    0    0    0 -0.00000000000E+00 -0.00000000000E+00 -0.45593999997E+02  0.45594000000E+02  0.51100000000E-03 0.  1.
         23    2    1    2    0    0  0.44408920985E-15  0.00000000000E+00  0.00000000000E+00  0.91188000000E+02  0.91188000000E+02 0.  0.
    9900012    2    3    3    0    0  0.23263230827E+01 -0.33828946925E+02 -0.14351664153E+02  0.54367086200E+02  0.40000004610E+02 0.  0.
        -12    1    3    3    0    0 -0.23263230827E+01  0.33828946925E+02  0.14351664153E+02  0.36820913800E+02  0.00000000000E+00 0.  1.
         11    1    4    4    0    0 -0.13224856720E+02 -0.23865218803E+02 -0.66845266535E+01  0.28091429309E+02  0.51100000000E-03 0. -1.
        -11    1    4    4    0    0  0.79280661720E+01 -0.78698862469E+00  0.45707060884E+01  0.91850388530E+01  0.51100000000E-03 0.  1.
         12    1    4    4    0    0  0.76231136308E+01 -0.91767394967E+01 -0.12237843588E+02  0.17090618037E+02  0.00000000000E+00 0. -1.
</event>
<event>
 8    1  0.2497772E-006  0.9118800E+02  0.7816164E-02  0.1184000E+00
        -11   -1    0    0    0    0  0.00000000000E+00  0.00000000000E+00  0.45593999997E+02  0.45594000000E+02  0.51100000000E-03 0.  1.
         11   -1    0    0    0    0 -0.00000000000E+00 -0.00000000000E+00 -0.45593999997E+02  0.45594000000E+02  0.51100000000E-03 0. -1.
         23    2    1    2    0    0  0.00000000000E+00  0.35527136788E-14  0.00000000000E+00  0.91188000000E+02  0.91188000000E+02 0.  0.
    9900012    2    3    3    0    0  0.98752686260E+01 -0.27914354899E+02  0.21887153616E+02  0.54367087012E+02  0.40000006461E+02 0.  0.
         12    1    3    3    0    0 -0.98752686260E+01  0.27914354899E+02 -0.21887153616E+02  0.36820912988E+02  0.00000000000E+00 0. -1.
         11    1    4    4    0    0 -0.77623396300E+01 -0.27761136615E+02  0.85806888385E+01  0.30075951255E+02  0.51100000000E-03 0. -1.
        -11    1    4    4    0    0  0.99522783497E+01 -0.49227008412E+01  0.57428889104E+01  0.12500464040E+02  0.51100000000E-03 0.  1.
         12    1    4    4    0    0  0.76853299063E+01  0.47694825571E+01  0.75635758668E+01  0.11790671716E+02  0.00000000000E+00 0. -1.
</event>
<event>
 8    1  0.2497772E-006  0.9118800E+02  0.7816164E-02  0.1184000E+00
        -11   -1    0    0    0    0  0.00000000000E+00  0.00000000000E+00  0.45593999997E+02  0.45594000000E+02  0.51100000000E-03 0.  1.
         11   -1    0    0    0    0 -0.00000000000E+00 -0.00000000000E+00 -0.45593999997E+02  0.45594000000E+02  0.51100000000E-03 0. -1.
         23    2    1    2    0    0  0.00000000000E+00 -0.35527136788E-14  0.17763568394E-14  0.91188000000E+02  0.91188000000E+02 0.  0.
    9900012    2    3    3    0    0 -0.27527588865E+02  0.22287921620E+02 -0.10062826023E+02  0.54367081130E+02  0.39999993051E+02 0.  0.
        -12    1    3    3    0    0  0.27527588865E+02 -0.22287921620E+02  0.10062826023E+02  0.36820918870E+02  0.00000000000E+00 0.  1.
         11    1    4    4    0    0 -0.93115126720E+01  0.20826676393E+02 -0.58281266451E+01  0.23546162708E+02  0.51100000000E-03 0. -1.
        -11    1    4    4    0    0 -0.28447239777E+01  0.74953146609E+01  0.71672717720E+01  0.10753696169E+02  0.51100000000E-03 0.  1.
        -12    1    4    4    0    0 -0.15371352216E+02 -0.60340694333E+01 -0.11401971150E+02  0.20067222253E+02  0.00000000000E+00 0.  1.
</event>
<event>
 8    1  0.2497772E-006  0.9118800E+02  0.7816164E-02  0.1184000E+00
        -11   -1    0    0    0    0  0.00000000000E+00  0.00000000000E+00  0.45593999997E+02  0.45594000000E+02  0.51100000000E-03 0.  1.
         11   -1    0    0    0    0 -0.00000000000E+00 -0.00000000000E+00 -0.45593999997E+02  0.45594000000E+02  0.51100000000E-03 0. -1.
         23    2    1    2    0    0 -0.35527136788E-14  0.00000000000E+00  0.00000000000E+00  0.91188000000E+02  0.91188000000E+02 0.  0.
    9900012    2    3    3    0    0  0.20873443551E+02 -0.36494334449E+01  0.30112508394E+02  0.54367052539E+02  0.39999927874E+02 0.  0.
         12    1    3    3    0    0 -0.20873443551E+02  0.36494334449E+01 -0.30112508394E+02  0.36820947461E+02  0.00000000000E+00 0. -1.
         11    1    4    4    0    0  0.44624106924E+01  0.92763605492E+01  0.96669363788E+01  0.14121389218E+02  0.51100000000E-03 0. -1.
        -11    1    4    4    0    0 -0.76890823478E+01 -0.11988416143E+01  0.57810076172E+01  0.96942899637E+01  0.51100000000E-03 0.  1.
        -12    1    4    4    0    0  0.24100115207E+02 -0.11726952380E+02  0.14664564398E+02  0.30551373358E+02  0.00000000000E+00 0.  1.
</event>
<event>
 8    1  0.2497772E-006  0.9118800E+02  0.7816164E-02  0.1184000E+00
        -11   -1    0    0    0    0  0.00000000000E+00  0.00000000000E+00  0.45593999997E+02  0.45594000000E+02  0.51100000000E-03 0.  1.
         11   -1    0    0    0    0 -0.00000000000E+00 -0.00000000000E+00 -0.45593999997E+02  0.45594000000E+02  0.51100000000E-03 0. -1.
         23    2    1    2    0    0  0.00000000000E+00 -0.35527136788E-14  0.00000000000E+00  0.91188000000E+02  0.91188000000E+02 0.  0.
    9900012    2    3    3    0    0  0.20008285080E+02 -0.28926369068E+02 -0.10895546894E+02  0.54367092333E+02  0.40000018592E+02 0.  0.
        -12    1    3    3    0    0 -0.20008285080E+02  0.28926369068E+02  0.10895546894E+02  0.36820907667E+02  0.00000000000E+00 0.  1.
         11    1    4    4    0    0 -0.24963362675E+01  0.61752543174E+01 -0.73944655951E+01  0.99520642252E+01  0.51100000000E-03 0. -1.
        -11    1    4    4    0    0  0.72015700849E+01 -0.21433309308E+01  0.17090190948E+01  0.77056619245E+01  0.51100000000E-03 0.  1.
         12    1    4    4    0    0  0.15303051263E+02 -0.32958292455E+02 -0.52101003936E+01  0.36709366183E+02  0.00000000000E+00 0. -1.
</event>
<event>
 8    1  0.2497772E-006  0.9118800E+02  0.7816164E-02  0.1184000E+00
        -11   -1    0    0    0    0  0.00000000000E+00  0.00000000000E+00  0.45593999997E+02  0.45594000000E+02  0.51100000000E-03 0. -1.
         11   -1    0    0    0    0 -0.00000000000E+00 -0.00000000000E+00 -0.45593999997E+02  0.45594000000E+02  0.51100000000E-03 0.  1.
         23    2    1    2    0    0  0.00000000000E+00  0.00000000000E+00  0.35527136788E-14  0.91188000000E+02  0.91188000000E+02 0.  0.
    9900012    2    3    3    0    0  0.34752581668E+02  0.16162597216E+01  0.12059155677E+02  0.54367116473E+02  0.40000073624E+02 0.  0.
        -12    1    3    3    0    0 -0.34752581668E+02 -0.16162597216E+01 -0.12059155677E+02  0.36820883527E+02  0.00000000000E+00 0.  1.
         11    1    4    4    0    0  0.52230205363E+01  0.12606539414E+02  0.78230404253E+01  0.15729104910E+02  0.51100000000E-03 0. -1.
        -11    1    4    4    0    0  0.95032859717E+01 -0.58662837046E+00 -0.84665119058E+01  0.12741208782E+02  0.51100000000E-03 0.  1.
        -12    1    4    4    0    0  0.20026275160E+02 -0.10403651322E+02  0.12702627158E+02  0.25896802781E+02  0.00000000000E+00 0.  1.
</event>
<event>
 8    1  0.2497772E-006  0.9118800E+02  0.7816164E-02  0.1184000E+00
        -11   -1    0    0    0    0  0.00000000000E+00  0.00000000000E+00  0.45593999997E+02  0.45594000000E+02  0.51100000000E-03 0.  1.
         11   -1    0    0    0    0 -0.00000000000E+00 -0.00000000000E+00 -0.45593999997E+02  0.45594000000E+02  0.51100000000E-03 0. -1.
         23    2    1    2    0    0  0.00000000000E+00  0.00000000000E+00  0.00000000000E+00  0.91188000000E+02  0.91188000000E+02 0.  0.
    9900012    2    3    3    0    0  0.97204435408E+01 -0.32750372543E+02  0.13737644638E+02  0.54366853840E+02  0.39999474895E+02 0.  0.
         12    1    3    3    0    0 -0.97204435408E+01  0.32750372543E+02 -0.13737644638E+02  0.36821146160E+02  0.00000000000E+00 0. -1.
         11    1    4    4    0    0 -0.56658396161E+01 -0.21963795700E+02  0.61204205592E+01  0.23494033459E+02  0.51100000000E-03 0. -1.
        -11    1    4    4    0    0  0.38945043851E+01 -0.46909977270E+01  0.14804632152E+02  0.16010926191E+02  0.51100000000E-03 0.  1.
         12    1    4    4    0    0  0.11491778772E+02 -0.60955791161E+01 -0.71874080728E+01  0.14861894190E+02  0.00000000000E+00 0. -1.
</event>
<event>
 8    1  0.2497772E-006  0.9118800E+02  0.7816164E-02  0.1184000E+00
        -11   -1    0    0    0    0  0.00000000000E+00  0.00000000000E+00  0.45593999997E+02  0.45594000000E+02  0.51100000000E-03 0. -1.
         11   -1    0    0    0    0 -0.00000000000E+00 -0.00000000000E+00 -0.45593999997E+02  0.45594000000E+02  0.51100000000E-03 0.  1.
         23    2    1    2    0    0 -0.35527136788E-14  0.17763568394E-14  0.00000000000E+00  0.91188000000E+02  0.91188000000E+02 0.  0.
    9900012    2    3    3    0    0  0.29904603427E+02 -0.14739914259E+02 -0.15627802655E+02  0.54367101120E+02  0.40000038624E+02 0.  0.
         12    1    3    3    0    0 -0.29904603427E+02  0.14739914259E+02  0.15627802655E+02  0.36820898880E+02  0.00000000000E+00 0. -1.
         11    1    4    4    0    0  0.22210180315E+02  0.44428188683E+01 -0.64477465323E+01  0.23550035769E+02  0.51100000000E-03 0. -1.
        -11    1    4    4    0    0  0.10234762349E+02 -0.54301773100E+01 -0.11857103402E+02  0.16577939779E+02  0.51100000000E-03 0.  1.
         12    1    4    4    0    0 -0.25403392363E+01 -0.13752555817E+02  0.26770472798E+01  0.14239125573E+02  0.00000000000E+00 0. -1.
</event>
<event>
 8    1  0.2497772E-006  0.9118800E+02  0.7816164E-02  0.1184000E+00
        -11   -1    0    0    0    0  0.00000000000E+00  0.00000000000E+00  0.45593999997E+02  0.45594000000E+02  0.51100000000E-03 0.  1.
         11   -1    0    0    0    0 -0.00000000000E+00 -0.00000000000E+00 -0.45593999997E+02  0.45594000000E+02  0.51100000000E-03 0. -1.
         23    2    1    2    0    0 -0.88817841970E-15 -0.35527136788E-14  0.00000000000E+00  0.91188000000E+02  0.91188000000E+02 0.  0.
    9900012    2    3    3    0    0  0.70118090889E+01  0.26837181464E+02 -0.24215275526E+02  0.54367090935E+02  0.40000015404E+02 0.  0.
        -12    1    3    3    0    0 -0.70118090889E+01 -0.26837181464E+02  0.24215275526E+02  0.36820909065E+02  0.00000000000E+00 0.  1.
         11    1    4    4    0    0 -0.11778604285E+02  0.14379312144E+02 -0.89518806856E+01  0.20630955012E+02  0.51100000000E-03 0.  1.
        -11    1    4    4    0    0  0.15423204539E+02  0.17088486721E+02 -0.15897942405E+02  0.27975635643E+02  0.51100000000E-03 0. -1.
         12    1    4    4    0    0  0.33672088352E+01 -0.46306174013E+01  0.63454756492E+00  0.57605002794E+01  0.00000000000E+00 0. -1.
</event>
<event>
 8    1  0.2497772E-006  0.9118800E+02  0.7816164E-02  0.1184000E+00
        -11   -1    0    0    0    0  0.00000000000E+00  0.00000000000E+00  0.45593999997E+02  0.45594000000E+02  0.51100000000E-03 0.  1.
         11   -1    0    0    0    0 -0.00000000000E+00 -0.00000000000E+00 -0.45593999997E+02  0.45594000000E+02  0.51100000000E-03 0. -1.
         23    2    1    2    0    0  0.00000000000E+00  0.00000000000E+00  0.00000000000E+00  0.91188000000E+02  0.91188000000E+02 0.  0.
    9900012    2    3    3    0    0  0.19028176127E+02 -0.27939005271E+02 -0.14598450026E+02  0.54367160175E+02  0.40000173251E+02 0.  0.
        -12    1    3    3    0    0 -0.19028176127E+02  0.27939005271E+02  0.14598450026E+02  0.36820839825E+02  0.00000000000E+00 0.  1.
         11    1    4    4    0    0 -0.34170229438E+01  0.14069313926E+01 -0.81303888923E+01  0.89307740730E+01  0.51100000000E-03 0. -1.
        -11    1    4    4    0    0  0.12720251264E+02 -0.51087523512E+01 -0.12590940090E+02  0.18612789029E+02  0.51100000000E-03 0.  1.
        -12    1    4    4    0    0  0.97249478060E+01 -0.24237184313E+02  0.61228789567E+01  0.26823597073E+02  0.00000000000E+00 0.  1.
</event>
<event>
 8    1  0.2497772E-006  0.9118800E+02  0.7816164E-02  0.1184000E+00
        -11   -1    0    0    0    0  0.00000000000E+00  0.00000000000E+00  0.45593999997E+02  0.45594000000E+02  0.51100000000E-03 0. -1.
         11   -1    0    0    0    0 -0.00000000000E+00 -0.00000000000E+00 -0.45593999997E+02  0.45594000000E+02  0.51100000000E-03 0.  1.
         23    2    1    2    0    0 -0.44408920985E-15  0.13322676296E-14  0.71054273576E-14  0.91188000000E+02  0.91188000000E+02 0.  0.
    9900012    2    3    3    0    0  0.35053647637E+01 -0.22464407960E+01 -0.36584758427E+02  0.54367100669E+02  0.40000037596E+02 0.  0.
         12    1    3    3    0    0 -0.35053647637E+01  0.22464407960E+01  0.36584758427E+02  0.36820899331E+02  0.00000000000E+00 0. -1.
         11    1    4    4    0    0  0.10092697874E+02 -0.11368181773E+02 -0.78475232870E+01  0.17107943454E+02  0.51100000000E-03 0. -1.
        -11    1    4    4    0    0  0.43469151656E+01 -0.44701593174E+01 -0.66838527264E+01  0.91406719288E+01  0.51100000000E-03 0.  1.
         12    1    4    4    0    0 -0.10934248276E+02  0.13591900295E+02 -0.22053382413E+02  0.28118485287E+02  0.00000000000E+00 0. -1.
</event>
<event>
 8    1  0.2497772E-006  0.9118800E+02  0.7816164E-02  0.1184000E+00
        -11   -1    0    0    0    0  0.00000000000E+00  0.00000000000E+00  0.45593999997E+02  0.45594000000E+02  0.51100000000E-03 0.  1.
         11   -1    0    0    0    0 -0.00000000000E+00 -0.00000000000E+00 -0.45593999997E+02  0.45594000000E+02  0.51100000000E-03 0. -1.
         23    2    1    2    0    0 -0.35527136788E-14  0.35527136788E-14  0.00000000000E+00  0.91188000000E+02  0.91188000000E+02 0.  0.
    9900012    2    3    3    0    0  0.18530611290E+02 -0.24623934524E+02  0.20150886272E+02  0.54367083067E+02  0.39999997468E+02 0.  0.
         12    1    3    3    0    0 -0.18530611290E+02  0.24623934524E+02 -0.20150886272E+02  0.36820916933E+02  0.00000000000E+00 0. -1.
         11    1    4    4    0    0  0.51851406020E+01  0.78566708957E+01  0.15050919792E+02  0.17752271614E+02  0.51100000000E-03 0. -1.
        -11    1    4    4    0    0  0.29363862551E+01 -0.10103235626E+02  0.56225613009E+01  0.11929414495E+02  0.51100000000E-03 0.  1.
        -12    1    4    4    0    0  0.10409084433E+02 -0.22377369794E+02 -0.52259482039E+00  0.24685396958E+02  0.00000000000E+00 0.  1.
</event>
<event>
 8    1  0.2497772E-006  0.9118800E+02  0.7816164E-02  0.1184000E+00
        -11   -1    0    0    0    0  0.00000000000E+00  0.00000000000E+00  0.45593999997E+02  0.45594000000E+02  0.51100000000E-03 0. -1.
         11   -1    0    0    0    0 -0.00000000000E+00 -0.00000000000E+00 -0.45593999997E+02  0.45594000000E+02  0.51100000000E-03 0.  1.
         23    2    1    2    0    0  0.00000000000E+00  0.88817841970E-15 -0.44408920985E-15  0.91188000000E+02  0.91188000000E+02 0.  0.
    9900012    2    3    3    0    0 -0.36377324256E+02 -0.46414035493E+01  0.33055083693E+01  0.54367099244E+02  0.40000034346E+02 0.  0.
         12    1    3    3    0    0  0.36377324256E+02  0.46414035493E+01 -0.33055083693E+01  0.36820900756E+02  0.00000000000E+00 0. -1.
         11    1    4    4    0    0 -0.17982727777E+02 -0.82563460791E+01  0.20200099632E+02  0.28277018482E+02  0.51100000000E-03 0. -1.
        -11    1    4    4    0    0 -0.14088435881E+02  0.55725711827E+01 -0.12955019696E+02  0.19934144344E+02  0.51100000000E-03 0.  1.
         12    1    4    4    0    0 -0.43061605988E+01 -0.19576286528E+01 -0.39395715664E+01  0.61559364172E+01  0.00000000000E+00 0. -1.
</event>
<event>
 8    1  0.2497772E-006  0.9118800E+02  0.7816164E-02  0.1184000E+00
        -11   -1    0    0    0    0  0.00000000000E+00  0.00000000000E+00  0.45593999997E+02  0.45594000000E+02  0.51100000000E-03 0. -1.
         11   -1    0    0    0    0 -0.00000000000E+00 -0.00000000000E+00 -0.45593999997E+02  0.45594000000E+02  0.51100000000E-03 0.  1.
         23    2    1    2    0    0  0.00000000000E+00  0.00000000000E+00  0.00000000000E+00  0.91188000000E+02  0.91188000000E+02 0.  0.
    9900012    2    3    3    0    0  0.34196744590E+02  0.10560890691E+02 -0.86505137829E+01  0.54367066532E+02  0.39999959773E+02 0.  0.
         12    1    3    3    0    0 -0.34196744590E+02 -0.10560890691E+02  0.86505137829E+01  0.36820933468E+02  0.00000000000E+00 0. -1.
         11    1    4    4    0    0 -0.67599828441E+01 -0.38173270168E+00 -0.93213964138E+01  0.11520916599E+02  0.51100000000E-03 0. -1.
        -11    1    4    4    0    0  0.17741934888E+02  0.15965572640E+01  0.86798993565E-01  0.17813836841E+02  0.51100000000E-03 0.  1.
         12    1    4    4    0    0  0.23214792547E+02  0.93460661287E+01  0.58408363734E+00  0.25032313093E+02  0.00000000000E+00 0. -1.
</event>
<event>
 8    1  0.2497772E-006  0.9118800E+02  0.7816164E-02  0.1184000E+00
        -11   -1    0    0    0    0  0.00000000000E+00  0.00000000000E+00  0.45593999997E+02  0.45594000000E+02  0.51100000000E-03 0.  1.
         11   -1    0    0    0    0 -0.00000000000E+00 -0.00000000000E+00 -0.45593999997E+02  0.45594000000E+02  0.51100000000E-03 0. -1.
         23    2    1    2    0    0  0.00000000000E+00  0.00000000000E+00  0.00000000000E+00  0.91188000000E+02  0.91188000000E+02 0.  0.
    9900012    2    3    3    0    0  0.15951079504E+02  0.76888160696E+01 -0.32283472753E+02  0.54367116756E+02  0.40000074269E+02 0.  0.
        -12    1    3    3    0    0 -0.15951079504E+02 -0.76888160696E+01  0.32283472753E+02  0.36820883244E+02  0.00000000000E+00 0.  1.
         11    1    4    4    0    0  0.69620556220E+01  0.14928093048E+02 -0.11496874464E+02  0.20087217409E+02  0.51100000000E-03 0. -1.
        -11    1    4    4    0    0  0.15716633392E+02 -0.51224239500E+00 -0.62816569954E+01  0.16933226873E+02  0.51100000000E-03 0.  1.
         12    1    4    4    0    0 -0.67276095098E+01 -0.67270345837E+01 -0.14504941293E+02  0.17346672474E+02  0.00000000000E+00 0. -1.
</event>
<event>
 8    1  0.2497772E-006  0.9118800E+02  0.7816164E-02  0.1184000E+00
        -11   -1    0    0    0    0  0.00000000000E+00  0.00000000000E+00  0.45593999997E+02  0.45594000000E+02  0.51100000000E-03 0. -1.
         11   -1    0    0    0    0 -0.00000000000E+00 -0.00000000000E+00 -0.45593999997E+02  0.45594000000E+02  0.51100000000E-03 0.  1.
         23    2    1    2    0    0  0.35527136788E-14 -0.44408920985E-15  0.00000000000E+00  0.91188000000E+02  0.91188000000E+02 0.  0.
    9900012    2    3    3    0    0 -0.22205287691E+02  0.25505197564E+01  0.29260860290E+02  0.54367110585E+02  0.40000060200E+02 0.  0.
        -12    1    3    3    0    0  0.22205287691E+02 -0.25505197564E+01 -0.29260860290E+02  0.36820889415E+02  0.00000000000E+00 0.  1.
         11    1    4    4    0    0 -0.13737558167E+02  0.55328741458E+01 -0.75535293879E+00  0.14829152337E+02  0.51100000000E-03 0. -1.
        -11    1    4    4    0    0 -0.42886222195E+01  0.99647048915E+01  0.19605876258E+02  0.22407097274E+02  0.51100000000E-03 0.  1.
        -12    1    4    4    0    0 -0.41791073043E+01 -0.12947059281E+02  0.10410336970E+02  0.17130860974E+02  0.00000000000E+00 0.  1.
</event>
<event>
 8    1  0.2497772E-006  0.9118800E+02  0.7816164E-02  0.1184000E+00
        -11   -1    0    0    0    0  0.00000000000E+00  0.00000000000E+00  0.45593999997E+02  0.45594000000E+02  0.51100000000E-03 0. -1.
         11   -1    0    0    0    0 -0.00000000000E+00 -0.00000000000E+00 -0.45593999997E+02  0.45594000000E+02  0.51100000000E-03 0.  1.
         23    2    1    2    0    0  0.00000000000E+00  0.26645352591E-14  0.00000000000E+00  0.91188000000E+02  0.91188000000E+02 0.  0.
    9900012    2    3    3    0    0 -0.48092643424E+00 -0.46311315206E+01 -0.36525332470E+02  0.54367101295E+02  0.40000039022E+02 0.  0.
         12    1    3    3    0    0  0.48092643424E+00  0.46311315206E+01  0.36525332470E+02  0.36820898705E+02  0.00000000000E+00 0. -1.
         11    1    4    4    0    0  0.61645723347E+01 -0.13847403584E+02 -0.13640643082E+02  0.20391657168E+02  0.51100000000E-03 0. -1.
        -11    1    4    4    0    0 -0.53148972608E+01  0.97289044376E+01 -0.27231031655E+02  0.29401170039E+02  0.51100000000E-03 0.  1.
        -12    1    4    4    0    0 -0.13306015082E+01 -0.51263237372E+00  0.43463422672E+01  0.45742740875E+01  0.00000000000E+00 0.  1.
</event>
<event>
 8    1  0.2497772E-006  0.9118800E+02  0.7816164E-02  0.1184000E+00
        -11   -1    0    0    0    0  0.00000000000E+00  0.00000000000E+00  0.45593999997E+02  0.45594000000E+02  0.51100000000E-03 0.  1.
         11   -1    0    0    0    0 -0.00000000000E+00 -0.00000000000E+00 -0.45593999997E+02  0.45594000000E+02  0.51100000000E-03 0. -1.
         23    2    1    2    0    0 -0.17763568394E-14 -0.35527136788E-14  0.00000000000E+00  0.91188000000E+02  0.91188000000E+02 0.  0.
    9900012    2    3    3    0    0 -0.68543161712E+01 -0.22052061826E+02 -0.28679354869E+02  0.54367075560E+02  0.39999980353E+02 0.  0.
        -12    1    3    3    0    0  0.68543161712E+01  0.22052061826E+02  0.28679354869E+02  0.36820924440E+02  0.00000000000E+00 0.  1.
         11    1    4    4    0    0 -0.84379350416E+01 -0.59911122326E+01 -0.63603285246E+01  0.12146849499E+02  0.51100000000E-03 0. -1.
        -11    1    4    4    0    0 -0.13995617165E+02 -0.11140021272E+02 -0.53647910338E+01  0.18675073142E+02  0.51100000000E-03 0.  1.
         12    1    4    4    0    0  0.15579236036E+02 -0.49209283214E+01 -0.16954235311E+02  0.23545152919E+02  0.00000000000E+00 0. -1.
</event>
<event>
 8    1  0.2497772E-006  0.9118800E+02  0.7816164E-02  0.1184000E+00
        -11   -1    0    0    0    0  0.00000000000E+00  0.00000000000E+00  0.45593999997E+02  0.45594000000E+02  0.51100000000E-03 0.  1.
         11   -1    0    0    0    0 -0.00000000000E+00 -0.00000000000E+00 -0.45593999997E+02  0.45594000000E+02  0.51100000000E-03 0. -1.
         23    2    1    2    0    0  0.00000000000E+00 -0.35527136788E-14  0.35527136788E-14  0.91188000000E+02  0.91188000000E+02 0.  0.
    9900012    2    3    3    0    0  0.23678668972E+02  0.18609157473E+02 -0.21184895339E+02  0.54367083435E+02  0.39999998306E+02 0.  0.
        -12    1    3    3    0    0 -0.23678668972E+02 -0.18609157473E+02  0.21184895339E+02  0.36820916565E+02  0.00000000000E+00 0.  1.
         11    1    4    4    0    0  0.16006517146E+01 -0.73531395014E+01 -0.21153219818E+01  0.78169900720E+01  0.51100000000E-03 0.  1.
        -11    1    4    4    0    0  0.10930481153E+02  0.25335295423E+02 -0.21671579612E+02  0.35085751746E+02  0.51100000000E-03 0. -1.
        -12    1    4    4    0    0  0.11147536105E+02  0.62700155110E+00  0.26020062547E+01  0.11464341617E+02  0.00000000000E+00 0.  1.
</event>
<event>
 8    1  0.2497772E-006  0.9118800E+02  0.7816164E-02  0.1184000E+00
        -11   -1    0    0    0    0  0.00000000000E+00  0.00000000000E+00  0.45593999997E+02  0.45594000000E+02  0.51100000000E-03 0. -1.
         11   -1    0    0    0    0 -0.00000000000E+00 -0.00000000000E+00 -0.45593999997E+02  0.45594000000E+02  0.51100000000E-03 0.  1.
         23    2    1    2    0    0  0.00000000000E+00  0.17763568394E-14  0.71054273576E-14  0.91188000000E+02  0.91188000000E+02 0.  0.
    9900012    2    3    3    0    0 -0.12204323451E+02  0.12833705494E+02 -0.32282047918E+02  0.54367080330E+02  0.39999991228E+02 0.  0.
         12    1    3    3    0    0  0.12204323451E+02 -0.12833705494E+02  0.32282047918E+02  0.36820919670E+02  0.00000000000E+00 0. -1.
         11    1    4    4    0    0  0.50438996539E+00 -0.11645487939E+02 -0.61432508612E+01  0.13176165223E+02  0.51100000000E-03 0. -1.
        -11    1    4    4    0    0  0.16366074717E+00  0.16276543848E+02 -0.16271464558E+02  0.23015499638E+02  0.51100000000E-03 0.  1.
         12    1    4    4    0    0 -0.12872374164E+02  0.82026495846E+01 -0.98673324985E+01  0.18175415468E+02  0.00000000000E+00 0. -1.
</event>
<event>
 8    1  0.2497772E-006  0.9118800E+02  0.7816164E-02  0.1184000E+00
        -11   -1    0    0    0    0  0.00000000000E+00  0.00000000000E+00  0.45593999997E+02  0.45594000000E+02  0.51100000000E-03 0.  1.
         11   -1    0    0    0    0 -0.00000000000E+00 -0.00000000000E+00 -0.45593999997E+02  0.45594000000E+02  0.51100000000E-03 0. -1.
         23    2    1    2    0    0  0.00000000000E+00  0.00000000000E+00  0.17763568394E-14  0.91188000000E+02  0.91188000000E+02 0.  0.
    9900012    2    3    3    0    0  0.32531589515E+02  0.11916816171E+02 -0.12468826581E+02  0.54366994305E+02  0.39999795117E+02 0.  0.
        -12    1    3    3    0    0 -0.32531589515E+02 -0.11916816171E+02  0.12468826581E+02  0.36821005695E+02  0.00000000000E+00 0.  1.
         11    1    4    4    0    0  0.11175702008E+01  0.63334895419E+01 -0.73606487698E+01  0.97745180702E+01  0.51100000000E-03 0. -1.
        -11    1    4    4    0    0 -0.11295445858E+01 -0.23466213628E-01  0.87187084478E+01  0.87916038863E+01  0.51100000000E-03 0.  1.
         12    1    4    4    0    0  0.32543563901E+02  0.56067928428E+01 -0.13826886259E+02  0.35800872349E+02  0.00000000000E+00 0. -1.
</event>
<event>
 8    1  0.2497772E-006  0.9118800E+02  0.7816164E-02  0.1184000E+00
        -11   -1    0    0    0    0  0.00000000000E+00  0.00000000000E+00  0.45593999997E+02  0.45594000000E+02  0.51100000000E-03 0. -1.
         11   -1    0    0    0    0 -0.00000000000E+00 -0.00000000000E+00 -0.45593999997E+02  0.45594000000E+02  0.51100000000E-03 0.  1.
         23    2    1    2    0    0  0.00000000000E+00  0.17763568394E-14  0.17763568394E-14  0.91188000000E+02  0.91188000000E+02 0.  0.
    9900012    2    3    3    0    0 -0.34657946048E+02 -0.90745417510E+01  0.85005669543E+01  0.54367079713E+02  0.39999989821E+02 0.  0.
        -12    1    3    3    0    0  0.34657946048E+02  0.90745417510E+01 -0.85005669543E+01  0.36820920287E+02  0.00000000000E+00 0.  1.
         11    1    4    4    0    0 -0.20207381639E+02 -0.21018110774E+02  0.12755379510E+02  0.31824502508E+02  0.51100000000E-03 0. -1.
        -11    1    4    4    0    0 -0.15304359953E+02  0.73771931080E+01 -0.52685432677E+01  0.17787747472E+02  0.51100000000E-03 0.  1.
         12    1    4    4    0    0  0.85379554356E+00  0.45663759148E+01  0.10137307125E+01  0.47548297322E+01  0.00000000000E+00 0. -1.
</event>
<event>
 8    1  0.2497772E-006  0.9118800E+02  0.7816164E-02  0.1184000E+00
        -11   -1    0    0    0    0  0.00000000000E+00  0.00000000000E+00  0.45593999997E+02  0.45594000000E+02  0.51100000000E-03 0. -1.
         11   -1    0    0    0    0 -0.00000000000E+00 -0.00000000000E+00 -0.45593999997E+02  0.45594000000E+02  0.51100000000E-03 0.  1.
         23    2    1    2    0    0 -0.35527136788E-14  0.00000000000E+00  0.88817841970E-15  0.91188000000E+02  0.91188000000E+02 0.  0.
    9900012    2    3    3    0    0  0.29725900254E+02  0.21727265526E+02 -0.27883553324E+00  0.54367068963E+02  0.39999965315E+02 0.  0.
         12    1    3    3    0    0 -0.29725900254E+02 -0.21727265526E+02  0.27883553324E+00  0.36820931037E+02  0.00000000000E+00 0. -1.
         11    1    4    4    0    0  0.78606049470E+01  0.58955166331E+01 -0.58119809070E+01  0.11416012825E+02  0.51100000000E-03 0. -1.
        -11    1    4    4    0    0  0.66130862617E+01  0.22033102666E+02 -0.48174263201E+01  0.23503151269E+02  0.51100000000E-03 0.  1.
         12    1    4    4    0    0  0.15252209045E+02 -0.62013537724E+01  0.10350571694E+02  0.19447904868E+02  0.00000000000E+00 0. -1.
</event>
<event>
 8    1  0.2497772E-006  0.9118800E+02  0.7816164E-02  0.1184000E+00
        -11   -1    0    0    0    0  0.00000000000E+00  0.00000000000E+00  0.45593999997E+02  0.45594000000E+02  0.51100000000E-03 0. -1.
         11   -1    0    0    0    0 -0.00000000000E+00 -0.00000000000E+00 -0.45593999997E+02  0.45594000000E+02  0.51100000000E-03 0.  1.
         23    2    1    2    0    0 -0.88817841970E-15 -0.71054273576E-14  0.00000000000E+00  0.91188000000E+02  0.91188000000E+02 0.  0.
    9900012    2    3    3    0    0  0.55499721186E+01  0.33597048035E+02  0.14007738713E+02  0.54367074278E+02  0.39999977432E+02 0.  0.
        -12    1    3    3    0    0 -0.55499721186E+01 -0.33597048035E+02 -0.14007738713E+02  0.36820925722E+02  0.00000000000E+00 0.  1.
         11    1    4    4    0    0  0.46705250204E+00  0.22415367683E+02  0.24074328304E+02  0.32897418287E+02  0.51100000000E-03 0. -1.
        -11    1    4    4    0    0  0.25478842383E+01  0.70072952413E+01  0.25981781558E+01  0.78958489525E+01  0.51100000000E-03 0.  1.
        -12    1    4    4    0    0  0.25350353783E+01  0.41743851102E+01 -0.12664767747E+02  0.13573807038E+02  0.00000000000E+00 0.  1.
</event>
<event>
 8    1  0.2497772E-006  0.9118800E+02  0.7816164E-02  0.1184000E+00
        -11   -1    0    0    0    0  0.00000000000E+00  0.00000000000E+00  0.45593999997E+02  0.45594000000E+02  0.51100000000E-03 0.  1.
         11   -1    0    0    0    0 -0.00000000000E+00 -0.00000000000E+00 -0.45593999997E+02  0.45594000000E+02  0.51100000000E-03 0. -1.
         23    2    1    2    0    0  0.00000000000E+00 -0.17763568394E-14  0.00000000000E+00  0.91188000000E+02  0.91188000000E+02 0.  0.
    9900012    2    3    3    0    0 -0.15001898472E+02  0.46919253119E+01  0.33297278723E+02  0.54367083509E+02  0.39999998476E+02 0.  0.
         12    1    3    3    0    0  0.15001898472E+02 -0.46919253119E+01 -0.33297278723E+02  0.36820916491E+02  0.00000000000E+00 0. -1.
         11    1    4    4    0    0 -0.38196188161E+01 -0.75544735665E+01  0.31176248807E+01  0.90210389604E+01  0.51100000000E-03 0. -1.
        -11    1    4    4    0    0 -0.11960580105E+02 -0.50766216175E+01  0.33803167743E+01  0.13425874469E+02  0.51100000000E-03 0.  1.
        -12    1    4    4    0    0  0.77830044850E+00  0.17323020496E+02  0.26799337067E+02  0.31920170080E+02  0.00000000000E+00 0.  1.
</event>
<event>
 8    1  0.2497772E-006  0.9118800E+02  0.7816164E-02  0.1184000E+00
        -11   -1    0    0    0    0  0.00000000000E+00  0.00000000000E+00  0.45593999997E+02  0.45594000000E+02  0.51100000000E-03 0.  1.
         11   -1    0    0    0    0 -0.00000000000E+00 -0.00000000000E+00 -0.45593999997E+02  0.45594000000E+02  0.51100000000E-03 0. -1.
         23    2    1    2    0    0  0.17763568394E-14 -0.88817841970E-15  0.00000000000E+00  0.91188000000E+02  0.91188000000E+02 0.  0.
    9900012    2    3    3    0    0  0.15543781482E+02 -0.63227846709E+01 -0.32774852643E+02  0.54367113067E+02  0.40000065859E+02 0.  0.
        -12    1    3    3    0    0 -0.15543781482E+02  0.63227846709E+01  0.32774852643E+02  0.36820886933E+02  0.00000000000E+00 0.  1.
         11    1    4    4    0    0 -0.91452744432E+01  0.24328129270E-01 -0.12844095588E+02  0.15767289819E+02  0.51100000000E-03 0. -1.
        -11    1    4    4    0    0  0.94608231475E+01 -0.30392382045E+01  0.34352453240E+01  0.10514040812E+02  0.51100000000E-03 0.  1.
         12    1    4    4    0    0  0.15228232778E+02 -0.33078745957E+01 -0.23366002380E+02  0.28085782437E+02  0.00000000000E+00 0. -1.
</event>
<event>
 8    1  0.2497772E-006  0.9118800E+02  0.7816164E-02  0.1184000E+00
        -11   -1    0    0    0    0  0.00000000000E+00  0.00000000000E+00  0.45593999997E+02  0.45594000000E+02  0.51100000000E-03 0. -1.
         11   -1    0    0    0    0 -0.00000000000E+00 -0.00000000000E+00 -0.45593999997E+02  0.45594000000E+02  0.51100000000E-03 0.  1.
         23    2    1    2    0    0  0.00000000000E+00 -0.17763568394E-14  0.00000000000E+00  0.91188000000E+02  0.91188000000E+02 0.  0.
    9900012    2    3    3    0    0  0.27983749106E+02 -0.13693581241E+02 -0.19625898720E+02  0.54367078206E+02  0.39999986386E+02 0.  0.
         12    1    3    3    0    0 -0.27983749106E+02  0.13693581241E+02  0.19625898720E+02  0.36820921794E+02  0.00000000000E+00 0. -1.
         11    1    4    4    0    0 -0.56074952978E+00 -0.14364999571E+02 -0.10091695497E+02  0.17564451912E+02  0.51100000000E-03 0. -1.
        -11    1    4    4    0    0  0.78200073025E+01  0.95723806216E+01 -0.67298633321E+01  0.14073878133E+02  0.51100000000E-03 0.  1.
         12    1    4    4    0    0  0.20724491333E+02 -0.89009622920E+01 -0.28043398910E+01  0.22728748161E+02  0.00000000000E+00 0. -1.
</event>
<event>
 8    1  0.2497772E-006  0.9118800E+02  0.7816164E-02  0.1184000E+00
        -11   -1    0    0    0    0  0.00000000000E+00  0.00000000000E+00  0.45593999997E+02  0.45594000000E+02  0.51100000000E-03 0. -1.
         11   -1    0    0    0    0 -0.00000000000E+00 -0.00000000000E+00 -0.45593999997E+02  0.45594000000E+02  0.51100000000E-03 0.  1.
         23    2    1    2    0    0  0.00000000000E+00 -0.17763568394E-14  0.00000000000E+00  0.91188000000E+02  0.91188000000E+02 0.  0.
    9900012    2    3    3    0    0 -0.22064134641E+02  0.14729989897E+02 -0.25533791910E+02  0.54367174790E+02  0.40000206568E+02 0.  0.
         12    1    3    3    0    0  0.22064134641E+02 -0.14729989897E+02  0.25533791910E+02  0.36820825210E+02  0.00000000000E+00 0. -1.
         11    1    4    4    0    0  0.27031620726E+01 -0.36429382517E+01 -0.24502072533E+01  0.51557346849E+01  0.51100000000E-03 0.  1.
        -11    1    4    4    0    0 -0.63262995028E+01  0.15096309079E+00  0.70412885476E+01  0.94670269845E+01  0.51100000000E-03 0. -1.
        -12    1    4    4    0    0 -0.18440997211E+02  0.18221965058E+02 -0.30124873204E+02  0.39744413120E+02  0.00000000000E+00 0.  1.
</event>
<event>
 8    1  0.2497772E-006  0.9118800E+02  0.7816164E-02  0.1184000E+00
        -11   -1    0    0    0    0  0.00000000000E+00  0.00000000000E+00  0.45593999997E+02  0.45594000000E+02  0.51100000000E-03 0.  1.
         11   -1    0    0    0    0 -0.00000000000E+00 -0.00000000000E+00 -0.45593999997E+02  0.45594000000E+02  0.51100000000E-03 0. -1.
         23    2    1    2    0    0  0.00000000000E+00  0.00000000000E+00  0.00000000000E+00  0.91188000000E+02  0.91188000000E+02 0.  0.
    9900012    2    3    3    0    0 -0.14982867579E+02 -0.23856994119E+02  0.23709457917E+02  0.54367070028E+02  0.39999967742E+02 0.  0.
         12    1    3    3    0    0  0.14982867579E+02  0.23856994119E+02 -0.23709457917E+02  0.36820929972E+02  0.00000000000E+00 0. -1.
         11    1    4    4    0    0  0.52703895115E+00 -0.61538455408E+01  0.22360514803E+02  0.23197849201E+02  0.51100000000E-03 0. -1.
        -11    1    4    4    0    0 -0.18611244095E+02 -0.68169325345E+01  0.91690187529E+00  0.19841614986E+02  0.51100000000E-03 0.  1.
        -12    1    4    4    0    0  0.31013375653E+01 -0.10886216044E+02  0.43204123813E+00  0.11327605841E+02  0.00000000000E+00 0.  1.
</event>
<event>
 8    1  0.2497772E-006  0.9118800E+02  0.7816164E-02  0.1184000E+00
        -11   -1    0    0    0    0  0.00000000000E+00  0.00000000000E+00  0.45593999997E+02  0.45594000000E+02  0.51100000000E-03 0. -1.
         11   -1    0    0    0    0 -0.00000000000E+00 -0.00000000000E+00 -0.45593999997E+02  0.45594000000E+02  0.51100000000E-03 0.  1.
         23    2    1    2    0    0  0.35527136788E-14  0.00000000000E+00  0.00000000000E+00  0.91188000000E+02  0.91188000000E+02 0.  0.
    9900012    2    3    3    0    0 -0.27417344552E+02 -0.51672207602E+01  0.24028505905E+02  0.54367081371E+02  0.39999993601E+02 0.  0.
        -12    1    3    3    0    0  0.27417344552E+02  0.51672207602E+01 -0.24028505905E+02  0.36820918629E+02  0.00000000000E+00 0.  1.
         11    1    4    4    0    0 -0.58806497562E+01  0.42690049608E+01 -0.33786082240E+01  0.80138279681E+01  0.51100000000E-03 0.  1.
        -11    1    4    4    0    0 -0.15432660729E+01  0.84390519233E+01  0.86800571802E+00  0.86228012690E+01  0.51100000000E-03 0. -1.
         12    1    4    4    0    0 -0.19993428723E+02 -0.17875277644E+02  0.26539108411E+02  0.37730452134E+02  0.00000000000E+00 0. -1.
</event>
<event>
 8    1  0.2497772E-006  0.9118800E+02  0.7816164E-02  0.1184000E+00
        -11   -1    0    0    0    0  0.00000000000E+00  0.00000000000E+00  0.45593999997E+02  0.45594000000E+02  0.51100000000E-03 0. -1.
         11   -1    0    0    0    0 -0.00000000000E+00 -0.00000000000E+00 -0.45593999997E+02  0.45594000000E+02  0.51100000000E-03 0.  1.
         23    2    1    2    0    0  0.00000000000E+00  0.00000000000E+00  0.35527136788E-14  0.91188000000E+02  0.91188000000E+02 0.  0.
    9900012    2    3    3    0    0  0.18110380026E+02  0.20340777288E+02 -0.24780065817E+02  0.54367017569E+02  0.39999848151E+02 0.  0.
         12    1    3    3    0    0 -0.18110380026E+02 -0.20340777288E+02  0.24780065817E+02  0.36820982431E+02  0.00000000000E+00 0. -1.
         11    1    4    4    0    0  0.18770478046E+02  0.24568311622E+02 -0.46356093512E+01  0.31263743480E+02  0.51100000000E-03 0. -1.
        -11    1    4    4    0    0 -0.26195943794E+01 -0.37617098900E+01 -0.20544620007E+02  0.21049801602E+02  0.51100000000E-03 0.  1.
         12    1    4    4    0    0  0.19594963587E+01 -0.46582444479E+00  0.40016354144E+00  0.20534724866E+01  0.00000000000E+00 0. -1.
</event>
<event>
 8    1  0.2497772E-006  0.9118800E+02  0.7816164E-02  0.1184000E+00
        -11   -1    0    0    0    0  0.00000000000E+00  0.00000000000E+00  0.45593999997E+02  0.45594000000E+02  0.51100000000E-03 0.  1.
         11   -1    0    0    0    0 -0.00000000000E+00 -0.00000000000E+00 -0.45593999997E+02  0.45594000000E+02  0.51100000000E-03 0. -1.
         23    2    1    2    0    0  0.00000000000E+00  0.35527136788E-14  0.00000000000E+00  0.91188000000E+02  0.91188000000E+02 0.  0.
    9900012    2    3    3    0    0 -0.28928845858E+02  0.22607734808E+02 -0.27908122816E+01  0.54367130523E+02  0.40000105653E+02 0.  0.
         12    1    3    3    0    0  0.28928845858E+02 -0.22607734808E+02  0.27908122816E+01  0.36820869477E+02  0.00000000000E+00 0. -1.
         11    1    4    4    0    0 -0.65417709429E+01 -0.63451428352E+01 -0.98772851250E+00  0.91668540157E+01  0.51100000000E-03 0. -1.
        -11    1    4    4    0    0 -0.14038708449E+02  0.40468414510E+01 -0.99747378504E+01  0.17690609263E+02  0.51100000000E-03 0.  1.
        -12    1    4    4    0    0 -0.83483664665E+01  0.24906036193E+02  0.81716540813E+01  0.27509667245E+02  0.00000000000E+00 0.  1.
</event>
<event>
 8    1  0.2497772E-006  0.9118800E+02  0.7816164E-02  0.1184000E+00
        -11   -1    0    0    0    0  0.00000000000E+00  0.00000000000E+00  0.45593999997E+02  0.45594000000E+02  0.51100000000E-03 0.  1.
         11   -1    0    0    0    0 -0.00000000000E+00 -0.00000000000E+00 -0.45593999997E+02  0.45594000000E+02  0.51100000000E-03 0. -1.
         23    2    1    2    0    0 -0.35527136788E-14 -0.88817841970E-15  0.35527136788E-14  0.91188000000E+02  0.91188000000E+02 0.  0.
    9900012    2    3    3    0    0  0.29499743721E+02 -0.72895788460E+01  0.20794391166E+02  0.54367088233E+02  0.40000009246E+02 0.  0.
        -12    1    3    3    0    0 -0.29499743721E+02  0.72895788460E+01 -0.20794391166E+02  0.36820911767E+02  0.00000000000E+00 0.  1.
         11    1    4    4    0    0 -0.14568734244E+01  0.47355457290E+01  0.81560640566E+01  0.95430212555E+01  0.51100000000E-03 0. -1.
        -11    1    4    4    0    0  0.26530166069E+02 -0.16555530006E+02  0.18381440351E+02  0.36274131762E+02  0.51100000000E-03 0.  1.
         12    1    4    4    0    0  0.44264510759E+01  0.45304054307E+01 -0.57431132415E+01  0.85499352161E+01  0.00000000000E+00 0. -1.
</event>
<event>
 8    1  0.2497772E-006  0.9118800E+02  0.7816164E-02  0.1184000E+00
        -11   -1    0    0    0    0  0.00000000000E+00  0.00000000000E+00  0.45593999997E+02  0.45594000000E+02  0.51100000000E-03 0.  1.
         11   -1    0    0    0    0 -0.00000000000E+00 -0.00000000000E+00 -0.45593999997E+02  0.45594000000E+02  0.51100000000E-03 0. -1.
         23    2    1    2    0    0  0.00000000000E+00  0.71054273576E-14  0.00000000000E+00  0.91188000000E+02  0.91188000000E+02 0.  0.
    9900012    2    3    3    0    0  0.70535314519E+01  0.32532835230E+02  0.15736740985E+02  0.54367045493E+02  0.39999911809E+02 0.  0.
        -12    1    3    3    0    0 -0.70535314519E+01 -0.32532835230E+02 -0.15736740985E+02  0.36820954507E+02  0.00000000000E+00 0.  1.
         11    1    4    4    0    0 -0.71964594119E+01  0.28837513323E+02  0.18120652292E+02  0.34810188774E+02  0.51100000000E-03 0. -1.
        -11    1    4    4    0    0  0.11523957726E+02  0.13819887997E+01 -0.71248389022E+01  0.13618914213E+02  0.51100000000E-03 0.  1.
        -12    1    4    4    0    0  0.27260331382E+01  0.23133331064E+01  0.47409275950E+01  0.59379425050E+01  0.00000000000E+00 0.  1.
</event>
<event>
 8    1  0.2497772E-006  0.9118800E+02  0.7816164E-02  0.1184000E+00
        -11   -1    0    0    0    0  0.00000000000E+00  0.00000000000E+00  0.45593999997E+02  0.45594000000E+02  0.51100000000E-03 0. -1.
         11   -1    0    0    0    0 -0.00000000000E+00 -0.00000000000E+00 -0.45593999997E+02  0.45594000000E+02  0.51100000000E-03 0.  1.
         23    2    1    2    0    0  0.17763568394E-14  0.00000000000E+00 -0.35527136788E-14  0.91188000000E+02  0.91188000000E+02 0.  0.
    9900012    2    3    3    0    0 -0.12736949638E+02 -0.22285434190E+02  0.26399016831E+02  0.54367101685E+02  0.40000039910E+02 0.  0.
        -12    1    3    3    0    0  0.12736949638E+02  0.22285434190E+02 -0.26399016831E+02  0.36820898315E+02  0.00000000000E+00 0.  1.
         11    1    4    4    0    0 -0.18593491435E+02 -0.26514085683E+02  0.17747589114E+02  0.36928194959E+02  0.51100000000E-03 0. -1.
        -11    1    4    4    0    0 -0.16491292971E+00 -0.27384652604E+01  0.77085029559E+01  0.81821394720E+01  0.51100000000E-03 0.  1.
         12    1    4    4    0    0  0.60214547271E+01  0.69671167528E+01  0.94292476113E+00  0.92567672534E+01  0.00000000000E+00 0. -1.
</event>
<event>
 8    1  0.2497772E-006  0.9118800E+02  0.7816164E-02  0.1184000E+00
        -11   -1    0    0    0    0  0.00000000000E+00  0.00000000000E+00  0.45593999997E+02  0.45594000000E+02  0.51100000000E-03 0.  1.
         11   -1    0    0    0    0 -0.00000000000E+00 -0.00000000000E+00 -0.45593999997E+02  0.45594000000E+02  0.51100000000E-03 0. -1.
         23    2    1    2    0    0  0.00000000000E+00  0.00000000000E+00  0.00000000000E+00  0.91188000000E+02  0.91188000000E+02 0.  0.
    9900012    2    3    3    0    0 -0.34845858423E+02  0.74981197607E+01 -0.92372524860E+01  0.54367048319E+02  0.39999918253E+02 0.  0.
        -12    1    3    3    0    0  0.34845858423E+02 -0.74981197607E+01  0.92372524860E+01  0.36820951681E+02  0.00000000000E+00 0.  1.
         11    1    4    4    0    0  0.42758470300E+01  0.18129146414E+01  0.40402110377E+01  0.61557154589E+01  0.51100000000E-03 0.  1.
        -11    1    4    4    0    0  0.15409769232E+00  0.67949310799E+01 -0.38241264214E+01  0.77986394728E+01  0.51100000000E-03 0. -1.
         12    1    4    4    0    0 -0.39275803146E+02 -0.11097259607E+01 -0.94533371022E+01  0.40412693387E+02  0.00000000000E+00 0. -1.
</event>
<event>
 8    1  0.2497772E-006  0.9118800E+02  0.7816164E-02  0.1184000E+00
        -11   -1    0    0    0    0  0.00000000000E+00  0.00000000000E+00  0.45593999997E+02  0.45594000000E+02  0.51100000000E-03 0.  1.
         11   -1    0    0    0    0 -0.00000000000E+00 -0.00000000000E+00 -0.45593999997E+02  0.45594000000E+02  0.51100000000E-03 0. -1.
         23    2    1    2    0    0  0.17763568394E-14  0.17763568394E-14  0.00000000000E+00  0.91188000000E+02  0.91188000000E+02 0.  0.
    9900012    2    3    3    0    0  0.11466967659E+02  0.11191055836E+02 -0.33151916509E+02  0.54367073257E+02  0.39999975104E+02 0.  0.
        -12    1    3    3    0    0 -0.11466967659E+02 -0.11191055836E+02  0.33151916509E+02  0.36820926743E+02  0.00000000000E+00 0.  1.
         11    1    4    4    0    0 -0.25599336919E+01  0.61538912847E+01 -0.22386990194E+02  0.23358102848E+02  0.51100000000E-03 0. -1.
        -11    1    4    4    0    0  0.11964795762E+02  0.19458503842E+01  0.62183625871E+01  0.13623901969E+02  0.51100000000E-03 0.  1.
        -12    1    4    4    0    0  0.20621055893E+01  0.30913141670E+01 -0.16983288902E+02  0.17385068440E+02  0.00000000000E+00 0.  1.
</event>
<event>
 8    1  0.2497772E-006  0.9118800E+02  0.7816164E-02  0.1184000E+00
        -11   -1    0    0    0    0  0.00000000000E+00  0.00000000000E+00  0.45593999997E+02  0.45594000000E+02  0.51100000000E-03 0.  1.
         11   -1    0    0    0    0 -0.00000000000E+00 -0.00000000000E+00 -0.45593999997E+02  0.45594000000E+02  0.51100000000E-03 0. -1.
         23    2    1    2    0    0  0.00000000000E+00  0.00000000000E+00  0.00000000000E+00  0.91188000000E+02  0.91188000000E+02 0.  0.
    9900012    2    3    3    0    0  0.34321978943E+02 -0.47127101545E+01  0.12472863647E+02  0.54367079274E+02  0.39999988820E+02 0.  0.
        -12    1    3    3    0    0 -0.34321978943E+02  0.47127101545E+01 -0.12472863647E+02  0.36820920726E+02  0.00000000000E+00 0.  1.
         11    1    4    4    0    0  0.71946083957E+01 -0.42045824637E+01 -0.38556969322E+01  0.91819008248E+01  0.51100000000E-03 0. -1.
        -11    1    4    4    0    0  0.21945800188E+01 -0.81823356249E+01  0.17103504173E+02  0.19086556866E+02  0.51100000000E-03 0.  1.
        -12    1    4    4    0    0  0.24932790529E+02  0.76742079341E+01 -0.77494359425E+00  0.26098621583E+02  0.00000000000E+00 0.  1.
</event>
<event>
 8    1  0.2497772E-006  0.9118800E+02  0.7816164E-02  0.1184000E+00
        -11   -1    0    0    0    0  0.00000000000E+00  0.00000000000E+00  0.45593999997E+02  0.45594000000E+02  0.51100000000E-03 0.  1.
         11   -1    0    0    0    0 -0.00000000000E+00 -0.00000000000E+00 -0.45593999997E+02  0.45594000000E+02  0.51100000000E-03 0. -1.
         23    2    1    2    0    0  0.17763568394E-14 -0.35527136788E-14  0.00000000000E+00  0.91188000000E+02  0.91188000000E+02 0.  0.
    9900012    2    3    3    0    0  0.96158385580E+01 -0.31073220753E+02 -0.17255997743E+02  0.54367097550E+02  0.40000030485E+02 0.  0.
        -12    1    3    3    0    0 -0.96158385580E+01  0.31073220753E+02  0.17255997743E+02  0.36820902450E+02  0.00000000000E+00 0.  1.
         11    1    4    4    0    0  0.44227188958E+01 -0.33090278490E+02 -0.25283056338E+02  0.41877916746E+02  0.51100000000E-03 0. -1.
        -11    1    4    4    0    0  0.47501878393E+01 -0.14536312624E+01  0.16843075942E+01  0.52453999551E+01  0.51100000000E-03 0.  1.
         12    1    4    4    0    0  0.44293182294E+00  0.34706889995E+01  0.63427510003E+01  0.72437808487E+01  0.00000000000E+00 0. -1.
</event>
<event>
 8    1  0.2497772E-006  0.9118800E+02  0.7816164E-02  0.1184000E+00
        -11   -1    0    0    0    0  0.00000000000E+00  0.00000000000E+00  0.45593999997E+02  0.45594000000E+02  0.51100000000E-03 0. -1.
         11   -1    0    0    0    0 -0.00000000000E+00 -0.00000000000E+00 -0.45593999997E+02  0.45594000000E+02  0.51100000000E-03 0.  1.
         23    2    1    2    0    0 -0.35527136788E-14 -0.35527136788E-14 -0.17763568394E-14  0.91188000000E+02  0.91188000000E+02 0.  0.
    9900012    2    3    3    0    0 -0.26638721015E+02 -0.20104377060E+02 -0.15555469681E+02  0.54367081064E+02  0.39999992901E+02 0.  0.
         12    1    3    3    0    0  0.26638721015E+02  0.20104377060E+02  0.15555469681E+02  0.36820918936E+02  0.00000000000E+00 0. -1.
         11    1    4    4    0    0 -0.13868642229E+02  0.10255698500E+02 -0.22842709486E+01  0.17399324212E+02  0.51100000000E-03 0. -1.
        -11    1    4    4    0    0 -0.15822685666E+01 -0.61003541208E+01 -0.72052840295E+01  0.95725656134E+01  0.51100000000E-03 0.  1.
         12    1    4    4    0    0 -0.11187810219E+02 -0.24259721439E+02 -0.60659147033E+01  0.27395191239E+02  0.00000000000E+00 0. -1.
</event>
<event>
 8    1  0.2497772E-006  0.9118800E+02  0.7816164E-02  0.1184000E+00
        -11   -1    0    0    0    0  0.00000000000E+00  0.00000000000E+00  0.45593999997E+02  0.45594000000E+02  0.51100000000E-03 0. -1.
         11   -1    0    0    0    0 -0.00000000000E+00 -0.00000000000E+00 -0.45593999997E+02  0.45594000000E+02  0.51100000000E-03 0.  1.
         23    2    1    2    0    0  0.88817841970E-15 -0.17763568394E-14  0.00000000000E+00  0.91188000000E+02  0.91188000000E+02 0.  0.
    9900012    2    3    3    0    0  0.69996749489E+01  0.10082555462E+02 -0.34714927657E+02  0.54367087786E+02  0.40000008227E+02 0.  0.
         12    1    3    3    0    0 -0.69996749489E+01 -0.10082555462E+02  0.34714927657E+02  0.36820912214E+02  0.00000000000E+00 0. -1.
         11    1    4    4    0    0 -0.31058565588E+01 -0.54365550565E+01  0.93132898695E+00  0.63300750224E+01  0.51100000000E-03 0. -1.
        -11    1    4    4    0    0  0.45215035287E+01  0.17373170557E+02 -0.77953227790E+01  0.19571359351E+02  0.51100000000E-03 0.  1.
         12    1    4    4    0    0  0.55840279789E+01 -0.18540600384E+01 -0.27850933865E+02  0.28465653413E+02  0.00000000000E+00 0. -1.
</event>
<event>
 8    1  0.2497772E-006  0.9118800E+02  0.7816164E-02  0.1184000E+00
        -11   -1    0    0    0    0  0.00000000000E+00  0.00000000000E+00  0.45593999997E+02  0.45594000000E+02  0.51100000000E-03 0.  1.
         11   -1    0    0    0    0 -0.00000000000E+00 -0.00000000000E+00 -0.45593999997E+02  0.45594000000E+02  0.51100000000E-03 0. -1.
         23    2    1    2    0    0  0.00000000000E+00  0.00000000000E+00  0.00000000000E+00  0.91188000000E+02  0.91188000000E+02 0.  0.
    9900012    2    3    3    0    0  0.34136879179E+02 -0.78577384296E+01 -0.11345030861E+02  0.54367077978E+02  0.39999985867E+02 0.  0.
         12    1    3    3    0    0 -0.34136879179E+02  0.78577384296E+01  0.11345030861E+02  0.36820922022E+02  0.00000000000E+00 0. -1.
         11    1    4    4    0    0  0.55950359113E+01  0.72354461626E+01 -0.90033005320E+01  0.12834154774E+02  0.51100000000E-03 0. -1.
        -11    1    4    4    0    0  0.16958510671E+02 -0.22531287465E+01 -0.12761963696E+02  0.21343275076E+02  0.51100000000E-03 0.  1.
        -12    1    4    4    0    0  0.11583332597E+02 -0.12840055846E+02  0.10420233366E+02  0.20189648129E+02  0.00000000000E+00 0.  1.
</event>
<event>
 8    1  0.2497772E-006  0.9118800E+02  0.7816164E-02  0.1184000E+00
        -11   -1    0    0    0    0  0.00000000000E+00  0.00000000000E+00  0.45593999997E+02  0.45594000000E+02  0.51100000000E-03 0.  1.
         11   -1    0    0    0    0 -0.00000000000E+00 -0.00000000000E+00 -0.45593999997E+02  0.45594000000E+02  0.51100000000E-03 0. -1.
         23    2    1    2    0    0 -0.35527136788E-14  0.00000000000E+00 -0.35527136788E-14  0.91188000000E+02  0.91188000000E+02 0.  0.
    9900012    2    3    3    0    0 -0.16178695490E+02 -0.16799177230E+02  0.28492418251E+02  0.54367076042E+02  0.39999981452E+02 0.  0.
         12    1    3    3    0    0  0.16178695490E+02  0.16799177230E+02 -0.28492418251E+02  0.36820923958E+02  0.00000000000E+00 0. -1.
         11    1    4    4    0    0 -0.13605914618E+02 -0.17966050544E+02  0.13468483766E+02  0.26254522276E+02  0.51100000000E-03 0. -1.
        -11    1    4    4    0    0 -0.45657085232E+01 -0.62725961219E+01  0.18197676234E+02  0.19782481569E+02  0.51100000000E-03 0.  1.
        -12    1    4    4    0    0  0.19929276514E+01  0.74394694354E+01 -0.31737417495E+01  0.83300721964E+01  0.00000000000E+00 0.  1.
</event>
<event>
 8    1  0.2497772E-006  0.9118800E+02  0.7816164E-02  0.1184000E+00
        -11   -1    0    0    0    0  0.00000000000E+00  0.00000000000E+00  0.45593999997E+02  0.45594000000E+02  0.51100000000E-03 0. -1.
         11   -1    0    0    0    0 -0.00000000000E+00 -0.00000000000E+00 -0.45593999997E+02  0.45594000000E+02  0.51100000000E-03 0.  1.
         23    2    1    2    0    0  0.00000000000E+00 -0.35527136788E-14  0.00000000000E+00  0.91188000000E+02  0.91188000000E+02 0.  0.
    9900012    2    3    3    0    0  0.85845288401E+01  0.29124447038E+02  0.20829197787E+02  0.54367040872E+02  0.39999901275E+02 0.  0.
        -12    1    3    3    0    0 -0.85845288401E+01 -0.29124447038E+02 -0.20829197787E+02  0.36820959128E+02  0.00000000000E+00 0.  1.
         11    1    4    4    0    0  0.18288905168E+02  0.92449308215E+01  0.11846634121E+02  0.23670562697E+02  0.51100000000E-03 0.  1.
        -11    1    4    4    0    0 -0.23193474978E+00  0.19550534204E+02  0.38838110826E+01  0.19933920090E+02  0.51100000000E-03 0. -1.
         12    1    4    4    0    0 -0.94724415783E+01  0.32898201307E+00  0.50987525829E+01  0.10762558084E+02  0.00000000000E+00 0. -1.
</event>
<event>
 8    1  0.2497772E-006  0.9118800E+02  0.7816164E-02  0.1184000E+00
        -11   -1    0    0    0    0  0.00000000000E+00  0.00000000000E+00  0.45593999997E+02  0.45594000000E+02  0.51100000000E-03 0.  1.
         11   -1    0    0    0    0 -0.00000000000E+00 -0.00000000000E+00 -0.45593999997E+02  0.45594000000E+02  0.51100000000E-03 0. -1.
         23    2    1    2    0    0  0.35527136788E-14  0.88817841970E-15 -0.35527136788E-14  0.91188000000E+02  0.91188000000E+02 0.  0.
    9900012    2    3    3    0    0 -0.19597372347E+02 -0.64245569527E+01  0.30503308681E+02  0.54367030765E+02  0.39999878234E+02 0.  0.
         12    1    3    3    0    0  0.19597372347E+02  0.64245569527E+01 -0.30503308681E+02  0.36820969235E+02  0.00000000000E+00 0. -1.
         11    1    4    4    0    0  0.45276001999E+01 -0.44273656947E+01  0.87009527767E+01  0.10761380490E+02  0.51100000000E-03 0. -1.
        -11    1    4    4    0    0 -0.43659198212E+01 -0.10949156881E+02 -0.13669315561E+01  0.11866498828E+02  0.51100000000E-03 0.  1.
        -12    1    4    4    0    0 -0.19759052726E+02  0.89519656235E+01  0.23169287460E+02  0.31739151447E+02  0.00000000000E+00 0.  1.
</event>
<event>
 8    1  0.2497772E-006  0.9118800E+02  0.7816164E-02  0.1184000E+00
        -11   -1    0    0    0    0  0.00000000000E+00  0.00000000000E+00  0.45593999997E+02  0.45594000000E+02  0.51100000000E-03 0.  1.
         11   -1    0    0    0    0 -0.00000000000E+00 -0.00000000000E+00 -0.45593999997E+02  0.45594000000E+02  0.51100000000E-03 0. -1.
         23    2    1    2    0    0  0.00000000000E+00  0.35527136788E-14 -0.35527136788E-14  0.91188000000E+02  0.91188000000E+02 0.  0.
    9900012    2    3    3    0    0  0.10370251728E+02 -0.16105829234E+02  0.31445789558E+02  0.54367115475E+02  0.40000071349E+02 0.  0.
         12    1    3    3    0    0 -0.10370251728E+02  0.16105829234E+02 -0.31445789558E+02  0.36820884525E+02  0.00000000000E+00 0. -1.
         11    1    4    4    0    0 -0.45376632115E+01 -0.82184229293E+01  0.25964055845E+02  0.27609148105E+02  0.51100000000E-03 0. -1.
        -11    1    4    4    0    0  0.78165418810E+01  0.13464028930E+01  0.11249847700E+02  0.13764817517E+02  0.51100000000E-03 0.  1.
         12    1    4    4    0    0  0.70913730587E+01 -0.92338091979E+01 -0.57681139871E+01  0.12993149854E+02  0.00000000000E+00 0. -1.
</event>
<event>
 8    1  0.2497772E-006  0.9118800E+02  0.7816164E-02  0.1184000E+00
        -11   -1    0    0    0    0  0.00000000000E+00  0.00000000000E+00  0.45593999997E+02  0.45594000000E+02  0.51100000000E-03 0. -1.
         11   -1    0    0    0    0 -0.00000000000E+00 -0.00000000000E+00 -0.45593999997E+02  0.45594000000E+02  0.51100000000E-03 0.  1.
         23    2    1    2    0    0  0.00000000000E+00  0.35527136788E-14  0.00000000000E+00  0.91188000000E+02  0.91188000000E+02 0.  0.
    9900012    2    3    3    0    0  0.22600636001E+02 -0.15163868302E+02  0.24800165428E+02  0.54367084004E+02  0.39999999603E+02 0.  0.
        -12    1    3    3    0    0 -0.22600636001E+02  0.15163868302E+02 -0.24800165428E+02  0.36820915996E+02  0.00000000000E+00 0.  1.
         11    1    4    4    0    0  0.13915695730E+02 -0.27108575028E+01  0.19338643701E+02  0.23978708817E+02  0.51100000000E-03 0. -1.
        -11    1    4    4    0    0 -0.13095977230E+01  0.63451242782E+01  0.63609022175E+01  0.90794672522E+01  0.51100000000E-03 0.  1.
        -12    1    4    4    0    0  0.99945379941E+01 -0.18798135077E+02 -0.89938048998E+00  0.21308907935E+02  0.00000000000E+00 0.  1.
</event>
<event>
 8    1  0.2497772E-006  0.9118800E+02  0.7816164E-02  0.1184000E+00
        -11   -1    0    0    0    0  0.00000000000E+00  0.00000000000E+00  0.45593999997E+02  0.45594000000E+02  0.51100000000E-03 0.  1.
         11   -1    0    0    0    0 -0.00000000000E+00 -0.00000000000E+00 -0.45593999997E+02  0.45594000000E+02  0.51100000000E-03 0. -1.
         23    2    1    2    0    0  0.00000000000E+00  0.00000000000E+00  0.17763568394E-14  0.91188000000E+02  0.91188000000E+02 0.  0.
    9900012    2    3    3    0    0 -0.19993190783E+02  0.30748237242E+02  0.32554831702E+01  0.54367082822E+02  0.39999996909E+02 0.  0.
         12    1    3    3    0    0  0.19993190783E+02 -0.30748237242E+02 -0.32554831702E+01  0.36820917178E+02  0.00000000000E+00 0. -1.
         11    1    4    4    0    0  0.48828224838E+01  0.44590884187E+01 -0.12242688715E+02  0.13914339804E+02  0.51100000000E-03 0. -1.
        -11    1    4    4    0    0 -0.25017370446E+02  0.23686333147E+02  0.15654432993E+02  0.37841412164E+02  0.51100000000E-03 0.  1.
        -12    1    4    4    0    0  0.14135717905E+00  0.26028156759E+01 -0.15626110704E+00  0.26113308538E+01  0.00000000000E+00 0.  1.
</event>
<event>
 8    1  0.2497772E-006  0.9118800E+02  0.7816164E-02  0.1184000E+00
        -11   -1    0    0    0    0  0.00000000000E+00  0.00000000000E+00  0.45593999997E+02  0.45594000000E+02  0.51100000000E-03 0.  1.
         11   -1    0    0    0    0 -0.00000000000E+00 -0.00000000000E+00 -0.45593999997E+02  0.45594000000E+02  0.51100000000E-03 0. -1.
         23    2    1    2    0    0  0.00000000000E+00 -0.88817841970E-15  0.00000000000E+00  0.91188000000E+02  0.91188000000E+02 0.  0.
    9900012    2    3    3    0    0  0.43216243328E+01 -0.37362362073E+01 -0.36375042627E+02  0.54367087138E+02  0.40000006748E+02 0.  0.
        -12    1    3    3    0    0 -0.43216243328E+01  0.37362362073E+01  0.36375042627E+02  0.36820912862E+02  0.00000000000E+00 0.  1.
         11    1    4    4    0    0  0.91791818669E+01 -0.75671924544E+01 -0.19042634717E+02  0.22453100423E+02  0.51100000000E-03 0. -1.
        -11    1    4    4    0    0 -0.60654062956E+01  0.56464962218E+01 -0.23740387409E+02  0.25145140042E+02  0.51100000000E-03 0.  1.
        -12    1    4    4    0    0  0.12078487615E+01 -0.18155399746E+01  0.64079794988E+01  0.67688466734E+01  0.00000000000E+00 0.  1.
</event>
<event>
 8    1  0.2497772E-006  0.9118800E+02  0.7816164E-02  0.1184000E+00
        -11   -1    0    0    0    0  0.00000000000E+00  0.00000000000E+00  0.45593999997E+02  0.45594000000E+02  0.51100000000E-03 0.  1.
         11   -1    0    0    0    0 -0.00000000000E+00 -0.00000000000E+00 -0.45593999997E+02  0.45594000000E+02  0.51100000000E-03 0. -1.
         23    2    1    2    0    0  0.00000000000E+00  0.00000000000E+00  0.00000000000E+00  0.91188000000E+02  0.91188000000E+02 0.  0.
    9900012    2    3    3    0    0  0.25379867872E+02 -0.23275001800E+02 -0.13035179511E+02  0.54367091444E+02  0.40000016566E+02 0.  0.
         12    1    3    3    0    0 -0.25379867872E+02  0.23275001800E+02  0.13035179511E+02  0.36820908556E+02  0.00000000000E+00 0. -1.
         11    1    4    4    0    0  0.13747141644E+02 -0.44787839039E+01  0.60985905745E+01  0.15691915622E+02  0.51100000000E-03 0. -1.
        -11    1    4    4    0    0  0.11172912102E+02 -0.96586268925E+01  0.26893004630E+01  0.15011841178E+02  0.51100000000E-03 0.  1.
         12    1    4    4    0    0  0.45981412603E+00 -0.91375910037E+01 -0.21823070548E+02  0.23663334645E+02  0.00000000000E+00 0. -1.
</event>
<event>
 8    1  0.2497772E-006  0.9118800E+02  0.7816164E-02  0.1184000E+00
        -11   -1    0    0    0    0  0.00000000000E+00  0.00000000000E+00  0.45593999997E+02  0.45594000000E+02  0.51100000000E-03 0.  1.
         11   -1    0    0    0    0 -0.00000000000E+00 -0.00000000000E+00 -0.45593999997E+02  0.45594000000E+02  0.51100000000E-03 0. -1.
         23    2    1    2    0    0  0.35527136788E-14  0.00000000000E+00 -0.35527136788E-14  0.91188000000E+02  0.91188000000E+02 0.  0.
    9900012    2    3    3    0    0 -0.16955076784E+02 -0.15005786684E+02  0.29036725537E+02  0.54367086205E+02  0.40000004622E+02 0.  0.
         12    1    3    3    0    0  0.16955076784E+02  0.15005786684E+02 -0.29036725537E+02  0.36820913795E+02  0.00000000000E+00 0. -1.
         11    1    4    4    0    0  0.31988344563E+01  0.66472901429E+01  0.28871919402E+01  0.79217981345E+01  0.51100000000E-03 0. -1.
        -11    1    4    4    0    0 -0.17760461255E+02 -0.49408298972E+01  0.22649525260E+02  0.29203540519E+02  0.51100000000E-03 0.  1.
        -12    1    4    4    0    0 -0.23934499859E+01 -0.16712246930E+02  0.35000083364E+01  0.17241747552E+02  0.00000000000E+00 0.  1.
</event>
<event>
 8    1  0.2497772E-006  0.9118800E+02  0.7816164E-02  0.1184000E+00
        -11   -1    0    0    0    0  0.00000000000E+00  0.00000000000E+00  0.45593999997E+02  0.45594000000E+02  0.51100000000E-03 0.  1.
         11   -1    0    0    0    0 -0.00000000000E+00 -0.00000000000E+00 -0.45593999997E+02  0.45594000000E+02  0.51100000000E-03 0. -1.
         23    2    1    2    0    0 -0.71054273576E-14 -0.35527136788E-14  0.13322676296E-14  0.91188000000E+02  0.91188000000E+02 0.  0.
    9900012    2    3    3    0    0 -0.27499271725E+02 -0.24290525616E+02  0.30888943048E+01  0.54367070515E+02  0.39999968854E+02 0.  0.
         12    1    3    3    0    0  0.27499271725E+02  0.24290525616E+02 -0.30888943048E+01  0.36820929485E+02  0.00000000000E+00 0. -1.
         11    1    4    4    0    0 -0.16190302440E+02 -0.15146283563E+02  0.11169396005E+02  0.24825213116E+02  0.51100000000E-03 0. -1.
        -11    1    4    4    0    0 -0.53864937714E+01 -0.14609289562E+02  0.29836798682E+01  0.15853958574E+02  0.51100000000E-03 0.  1.
         12    1    4    4    0    0 -0.59224755134E+01  0.54650475093E+01 -0.11064181568E+02  0.13687898825E+02  0.00000000000E+00 0. -1.
</event>
<event>
 8    1  0.2497772E-006  0.9118800E+02  0.7816164E-02  0.1184000E+00
        -11   -1    0    0    0    0  0.00000000000E+00  0.00000000000E+00  0.45593999997E+02  0.45594000000E+02  0.51100000000E-03 0.  1.
         11   -1    0    0    0    0 -0.00000000000E+00 -0.00000000000E+00 -0.45593999997E+02  0.45594000000E+02  0.51100000000E-03 0. -1.
         23    2    1    2    0    0  0.22204460493E-15 -0.17763568394E-14  0.71054273576E-14  0.91188000000E+02  0.91188000000E+02 0.  0.
    9900012    2    3    3    0    0  0.81775766284E+00 -0.99237256551E+01  0.35448978728E+02  0.54367093556E+02  0.40000021380E+02 0.  0.
         12    1    3    3    0    0 -0.81775766284E+00  0.99237256551E+01 -0.35448978728E+02  0.36820906444E+02  0.00000000000E+00 0. -1.
         11    1    4    4    0    0  0.29443754285E+01  0.49058650073E+01 -0.52368932976E+01  0.77564108842E+01  0.51100000000E-03 0. -1.
        -11    1    4    4    0    0  0.59747786336E+01 -0.12662058295E+02  0.29262076608E+02  0.32439094126E+02  0.51100000000E-03 0.  1.
         12    1    4    4    0    0 -0.81013963993E+01 -0.21675323670E+01  0.11423795417E+02  0.14171588546E+02  0.00000000000E+00 0. -1.
</event>
<event>
 8    1  0.2497772E-006  0.9118800E+02  0.7816164E-02  0.1184000E+00
        -11   -1    0    0    0    0  0.00000000000E+00  0.00000000000E+00  0.45593999997E+02  0.45594000000E+02  0.51100000000E-03 0. -1.
         11   -1    0    0    0    0 -0.00000000000E+00 -0.00000000000E+00 -0.45593999997E+02  0.45594000000E+02  0.51100000000E-03 0.  1.
         23    2    1    2    0    0  0.35527136788E-14  0.00000000000E+00  0.00000000000E+00  0.91188000000E+02  0.91188000000E+02 0.  0.
    9900012    2    3    3    0    0  0.27398070593E+02 -0.16468214035E+02 -0.18273562946E+02  0.54367089521E+02  0.40000012182E+02 0.  0.
        -12    1    3    3    0    0 -0.27398070593E+02  0.16468214035E+02  0.18273562946E+02  0.36820910479E+02  0.00000000000E+00 0.  1.
         11    1    4    4    0    0  0.16996253226E+02 -0.16493376284E+02 -0.87848654764E+01  0.25260204802E+02  0.51100000000E-03 0. -1.
        -11    1    4    4    0    0  0.14386712106E+02  0.69921256523E+01 -0.12737940861E+02  0.20448042547E+02  0.51100000000E-03 0.  1.
        -12    1    4    4    0    0 -0.39848947391E+01 -0.69669634041E+01  0.32492433907E+01  0.86588421725E+01  0.00000000000E+00 0.  1.
</event>
<event>
 8    1  0.2497772E-006  0.9118800E+02  0.7816164E-02  0.1184000E+00
        -11   -1    0    0    0    0  0.00000000000E+00  0.00000000000E+00  0.45593999997E+02  0.45594000000E+02  0.51100000000E-03 0. -1.
         11   -1    0    0    0    0 -0.00000000000E+00 -0.00000000000E+00 -0.45593999997E+02  0.45594000000E+02  0.51100000000E-03 0.  1.
         23    2    1    2    0    0  0.11102230246E-14  0.35527136788E-14 -0.35527136788E-14  0.91188000000E+02  0.91188000000E+02 0.  0.
    9900012    2    3    3    0    0 -0.17144961971E+01 -0.27443570886E+02  0.24488572662E+02  0.54367091929E+02  0.40000017670E+02 0.  0.
        -12    1    3    3    0    0  0.17144961971E+01  0.27443570886E+02 -0.24488572662E+02  0.36820908071E+02  0.00000000000E+00 0.  1.
         11    1    4    4    0    0 -0.58131150931E+01 -0.31951313942E+02  0.20311398822E+02  0.38304460472E+02  0.51100000000E-03 0. -1.
        -11    1    4    4    0    0  0.61243680402E+01 -0.16225750079E+01 -0.24662465573E+01  0.67987503184E+01  0.51100000000E-03 0.  1.
        -12    1    4    4    0    0 -0.20257491442E+01  0.61303180643E+01  0.66434203975E+01  0.92638811382E+01  0.00000000000E+00 0.  1.
</event>
<event>
 8    1  0.2497772E-006  0.9118800E+02  0.7816164E-02  0.1184000E+00
        -11   -1    0    0    0    0  0.00000000000E+00  0.00000000000E+00  0.45593999997E+02  0.45594000000E+02  0.51100000000E-03 0. -1.
         11   -1    0    0    0    0 -0.00000000000E+00 -0.00000000000E+00 -0.45593999997E+02  0.45594000000E+02  0.51100000000E-03 0.  1.
         23    2    1    2    0    0  0.00000000000E+00  0.00000000000E+00 -0.17763568394E-14  0.91188000000E+02  0.91188000000E+02 0.  0.
    9900012    2    3    3    0    0 -0.68803404896E+01 -0.35687901107E+02  0.59002547715E+01  0.54367104071E+02  0.40000045351E+02 0.  0.
         12    1    3    3    0    0  0.68803404896E+01  0.35687901107E+02 -0.59002547715E+01  0.36820895929E+02  0.00000000000E+00 0. -1.
         11    1    4    4    0    0 -0.48785064480E+01 -0.23069803987E+02 -0.66684178689E+01  0.24504764400E+02  0.51100000000E-03 0. -1.
        -11    1    4    4    0    0 -0.12058286212E+02 -0.10815480139E+02  0.10865111395E+02  0.19504551338E+02  0.51100000000E-03 0.  1.
         12    1    4    4    0    0  0.10056452170E+02 -0.18026169804E+01  0.17035612457E+01  0.10357788333E+02  0.00000000000E+00 0. -1.
</event>
<event>
 8    1  0.2497772E-006  0.9118800E+02  0.7816164E-02  0.1184000E+00
        -11   -1    0    0    0    0  0.00000000000E+00  0.00000000000E+00  0.45593999997E+02  0.45594000000E+02  0.51100000000E-03 0.  1.
         11   -1    0    0    0    0 -0.00000000000E+00 -0.00000000000E+00 -0.45593999997E+02  0.45594000000E+02  0.51100000000E-03 0. -1.
         23    2    1    2    0    0 -0.88817841970E-15 -0.17763568394E-14  0.71054273576E-14  0.91188000000E+02  0.91188000000E+02 0.  0.
    9900012    2    3    3    0    0  0.46395084263E+01  0.10452295117E+02 -0.35000042701E+02  0.54367102391E+02  0.40000041521E+02 0.  0.
        -12    1    3    3    0    0 -0.46395084263E+01 -0.10452295117E+02  0.35000042701E+02  0.36820897609E+02  0.00000000000E+00 0.  1.
         11    1    4    4    0    0 -0.24835840737E+00  0.76445738841E+01 -0.44729893947E+01  0.88605206480E+01  0.51100000000E-03 0. -1.
        -11    1    4    4    0    0  0.10621580432E+01 -0.11437438983E+02  0.12822746512E+00  0.11487368400E+02  0.51100000000E-03 0.  1.
         12    1    4    4    0    0  0.38257087905E+01  0.14245160216E+02 -0.30655280771E+02  0.34019213343E+02  0.00000000000E+00 0. -1.
</event>
<event>
 8    1  0.2497772E-006  0.9118800E+02  0.7816164E-02  0.1184000E+00
        -11   -1    0    0    0    0  0.00000000000E+00  0.00000000000E+00  0.45593999997E+02  0.45594000000E+02  0.51100000000E-03 0.  1.
         11   -1    0    0    0    0 -0.00000000000E+00 -0.00000000000E+00 -0.45593999997E+02  0.45594000000E+02  0.51100000000E-03 0. -1.
         23    2    1    2    0    0  0.00000000000E+00  0.88817841970E-15  0.00000000000E+00  0.91188000000E+02  0.91188000000E+02 0.  0.
    9900012    2    3    3    0    0 -0.32075740354E+02  0.48832401019E+01  0.17409122622E+02  0.54367126794E+02  0.40000097153E+02 0.  0.
        -12    1    3    3    0    0  0.32075740354E+02 -0.48832401019E+01 -0.17409122622E+02  0.36820873206E+02  0.00000000000E+00 0.  1.
         11    1    4    4    0    0 -0.95153208562E+01  0.97587132781E+01 -0.32794390474E+01  0.14018863598E+02  0.51100000000E-03 0. -1.
        -11    1    4    4    0    0 -0.93847323536E+01  0.10178821454E+02  0.12761704383E+02  0.18829304463E+02  0.51100000000E-03 0.  1.
        -12    1    4    4    0    0 -0.13175687144E+02 -0.15054294630E+02  0.79268572865E+01  0.21518958734E+02  0.00000000000E+00 0.  1.
</event>
<event>
 8    1  0.2497772E-006  0.9118800E+02  0.7816164E-02  0.1184000E+00
        -11   -1    0    0    0    0  0.00000000000E+00  0.00000000000E+00  0.45593999997E+02  0.45594000000E+02  0.51100000000E-03 0. -1.
         11   -1    0    0    0    0 -0.00000000000E+00 -0.00000000000E+00 -0.45593999997E+02  0.45594000000E+02  0.51100000000E-03 0.  1.
         23    2    1    2    0    0  0.00000000000E+00 -0.35527136788E-14 -0.35527136788E-14  0.91188000000E+02  0.91188000000E+02 0.  0.
    9900012    2    3    3    0    0  0.11513712179E+02  0.20634659961E+02  0.28238715119E+02  0.54367084865E+02  0.40000001566E+02 0.  0.
        -12    1    3    3    0    0 -0.11513712179E+02 -0.20634659961E+02 -0.28238715119E+02  0.36820915135E+02  0.00000000000E+00 0.  1.
         11    1    4    4    0    0 -0.74886468438E+01  0.56443543425E+01  0.12666781120E+02  0.15760263694E+02  0.51100000000E-03 0.  1.
        -11    1    4    4    0    0  0.25153026478E+02  0.13420879664E+02  0.15048767557E+02  0.32237558177E+02  0.51100000000E-03 0. -1.
         12    1    4    4    0    0 -0.61506674545E+01  0.15694259544E+01  0.52316644132E+00  0.63692629941E+01  0.00000000000E+00 0. -1.
</event>
<event>
 8    1  0.2497772E-006  0.9118800E+02  0.7816164E-02  0.1184000E+00
        -11   -1    0    0    0    0  0.00000000000E+00  0.00000000000E+00  0.45593999997E+02  0.45594000000E+02  0.51100000000E-03 0.  1.
         11   -1    0    0    0    0 -0.00000000000E+00 -0.00000000000E+00 -0.45593999997E+02  0.45594000000E+02  0.51100000000E-03 0. -1.
         23    2    1    2    0    0 -0.35527136788E-14  0.00000000000E+00  0.00000000000E+00  0.91188000000E+02  0.91188000000E+02 0.  0.
    9900012    2    3    3    0    0 -0.29156309077E+02  0.53126989146E+01 -0.21850963938E+02  0.54367085375E+02  0.40000002730E+02 0.  0.
        -12    1    3    3    0    0  0.29156309077E+02 -0.53126989146E+01  0.21850963938E+02  0.36820914625E+02  0.00000000000E+00 0.  1.
         11    1    4    4    0    0 -0.10806490969E+02  0.45515780071E+01 -0.14693225739E+02  0.18798616765E+02  0.51100000000E-03 0. -1.
        -11    1    4    4    0    0 -0.44662821336E+01  0.57604750130E+00 -0.17618017556E+02  0.18184445268E+02  0.51100000000E-03 0.  1.
        -12    1    4    4    0    0 -0.13883535975E+02  0.18507340627E+00  0.10460279357E+02  0.17384023342E+02  0.00000000000E+00 0.  1.
</event>
<event>
 8    1  0.2497772E-006  0.9118800E+02  0.7816164E-02  0.1184000E+00
        -11   -1    0    0    0    0  0.00000000000E+00  0.00000000000E+00  0.45593999997E+02  0.45594000000E+02  0.51100000000E-03 0. -1.
         11   -1    0    0    0    0 -0.00000000000E+00 -0.00000000000E+00 -0.45593999997E+02  0.45594000000E+02  0.51100000000E-03 0.  1.
         23    2    1    2    0    0  0.00000000000E+00  0.22204460493E-14  0.00000000000E+00  0.91188000000E+02  0.91188000000E+02 0.  0.
    9900012    2    3    3    0    0  0.56098272699E+01  0.12307408960E+01 -0.36370258286E+02  0.54367074251E+02  0.39999977371E+02 0.  0.
         12    1    3    3    0    0 -0.56098272699E+01 -0.12307408960E+01  0.36370258286E+02  0.36820925749E+02  0.00000000000E+00 0. -1.
         11    1    4    4    0    0 -0.33999428433E+01 -0.90593031988E+01 -0.42194838279E+01  0.10556260219E+02  0.51100000000E-03 0. -1.
        -11    1    4    4    0    0 -0.85850599670E+01  0.13426153990E+01 -0.16391821466E+02  0.18552565375E+02  0.51100000000E-03 0.  1.
         12    1    4    4    0    0  0.17594830080E+02  0.89474286958E+01 -0.15758952993E+02  0.25258248657E+02  0.00000000000E+00 0. -1.
</event>
<event>
 8    1  0.2497772E-006  0.9118800E+02  0.7816164E-02  0.1184000E+00
        -11   -1    0    0    0    0  0.00000000000E+00  0.00000000000E+00  0.45593999997E+02  0.45594000000E+02  0.51100000000E-03 0. -1.
         11   -1    0    0    0    0 -0.00000000000E+00 -0.00000000000E+00 -0.45593999997E+02  0.45594000000E+02  0.51100000000E-03 0.  1.
         23    2    1    2    0    0  0.00000000000E+00  0.00000000000E+00  0.00000000000E+00  0.91188000000E+02  0.91188000000E+02 0.  0.
    9900012    2    3    3    0    0  0.13338523661E+02 -0.19324870109E+02 -0.28362339165E+02  0.54366958447E+02  0.39999713370E+02 0.  0.
         12    1    3    3    0    0 -0.13338523661E+02  0.19324870109E+02  0.28362339165E+02  0.36821041553E+02  0.00000000000E+00 0. -1.
         11    1    4    4    0    0  0.91789848872E+01 -0.12007882307E+02  0.28110725177E+01  0.15373520417E+02  0.51100000000E-03 0. -1.
        -11    1    4    4    0    0 -0.60602057004E+00 -0.75858301114E+01 -0.15670361597E+00  0.76116118986E+01  0.51100000000E-03 0.  1.
         12    1    4    4    0    0  0.47655593437E+01  0.26884230931E+00 -0.31016708067E+02  0.31381826131E+02  0.00000000000E+00 0. -1.
</event>
<event>
 8    1  0.2497772E-006  0.9118800E+02  0.7816164E-02  0.1184000E+00
        -11   -1    0    0    0    0  0.00000000000E+00  0.00000000000E+00  0.45593999997E+02  0.45594000000E+02  0.51100000000E-03 0. -1.
         11   -1    0    0    0    0 -0.00000000000E+00 -0.00000000000E+00 -0.45593999997E+02  0.45594000000E+02  0.51100000000E-03 0.  1.
         23    2    1    2    0    0  0.00000000000E+00 -0.35527136788E-14  0.35527136788E-14  0.91188000000E+02  0.91188000000E+02 0.  0.
    9900012    2    3    3    0    0 -0.11286686868E+02 -0.30475278405E+02  0.17310356014E+02  0.54367077692E+02  0.39999985214E+02 0.  0.
        -12    1    3    3    0    0  0.11286686868E+02  0.30475278405E+02 -0.17310356014E+02  0.36820922308E+02  0.00000000000E+00 0.  1.
         11    1    4    4    0    0  0.54362174758E+00 -0.63405263228E+00 -0.24606329217E+01  0.25985114934E+01  0.51100000000E-03 0.  1.
        -11    1    4    4    0    0 -0.19342343828E+01 -0.36088719868E+02  0.14805524314E+02  0.39055607982E+02  0.51100000000E-03 0. -1.
         12    1    4    4    0    0 -0.98960742333E+01  0.62474940955E+01  0.49654646217E+01  0.12712958216E+02  0.00000000000E+00 0. -1.
</event>
<event>
 8    1  0.2497772E-006  0.9118800E+02  0.7816164E-02  0.1184000E+00
        -11   -1    0    0    0    0  0.00000000000E+00  0.00000000000E+00  0.45593999997E+02  0.45594000000E+02  0.51100000000E-03 0. -1.
         11   -1    0    0    0    0 -0.00000000000E+00 -0.00000000000E+00 -0.45593999997E+02  0.45594000000E+02  0.51100000000E-03 0.  1.
         23    2    1    2    0    0  0.17763568394E-14  0.00000000000E+00  0.00000000000E+00  0.91188000000E+02  0.91188000000E+02 0.  0.
    9900012    2    3    3    0    0 -0.14103967767E+02 -0.48828866752E+01 -0.33660284390E+02  0.54367092431E+02  0.40000018814E+02 0.  0.
         12    1    3    3    0    0  0.14103967767E+02  0.48828866752E+01  0.33660284390E+02  0.36820907569E+02  0.00000000000E+00 0. -1.
         11    1    4    4    0    0  0.26823619038E+01 -0.61271314217E+01 -0.85096383076E+01  0.10823619969E+02  0.51100000000E-03 0. -1.
        -11    1    4    4    0    0  0.53651539231E+01 -0.92094623617E+01 -0.47609125725E+01  0.11673275564E+02  0.51100000000E-03 0.  1.
         12    1    4    4    0    0 -0.22151483594E+02  0.10453707108E+02 -0.20389733509E+02  0.31870196898E+02  0.00000000000E+00 0. -1.
</event>
<event>
 8    1  0.2497772E-006  0.9118800E+02  0.7816164E-02  0.1184000E+00
        -11   -1    0    0    0    0  0.00000000000E+00  0.00000000000E+00  0.45593999997E+02  0.45594000000E+02  0.51100000000E-03 0. -1.
         11   -1    0    0    0    0 -0.00000000000E+00 -0.00000000000E+00 -0.45593999997E+02  0.45594000000E+02  0.51100000000E-03 0.  1.
         23    2    1    2    0    0  0.00000000000E+00  0.88817841970E-15  0.17763568394E-14  0.91188000000E+02  0.91188000000E+02 0.  0.
    9900012    2    3    3    0    0  0.34135280829E+02  0.45703317272E+01  0.13025872413E+02  0.54367099936E+02  0.40000035925E+02 0.  0.
        -12    1    3    3    0    0 -0.34135280829E+02 -0.45703317272E+01 -0.13025872413E+02  0.36820900064E+02  0.00000000000E+00 0.  1.
         11    1    4    4    0    0  0.14104052562E+02 -0.15520742453E+01  0.74042551325E+01  0.16004881364E+02  0.51100000000E-03 0. -1.
        -11    1    4    4    0    0  0.20319101368E+02 -0.90484136882E+01  0.64709800938E+01  0.23164914296E+02  0.51100000000E-03 0.  1.
         12    1    4    4    0    0 -0.28787310122E+00  0.15170819661E+02 -0.84936281367E+00  0.15197304277E+02  0.00000000000E+00 0. -1.
</event>
<event>
 8    1  0.2497772E-006  0.9118800E+02  0.7816164E-02  0.1184000E+00
        -11   -1    0    0    0    0  0.00000000000E+00  0.00000000000E+00  0.45593999997E+02  0.45594000000E+02  0.51100000000E-03 0.  1.
         11   -1    0    0    0    0 -0.00000000000E+00 -0.00000000000E+00 -0.45593999997E+02  0.45594000000E+02  0.51100000000E-03 0. -1.
         23    2    1    2    0    0  0.00000000000E+00  0.00000000000E+00  0.00000000000E+00  0.91188000000E+02  0.91188000000E+02 0.  0.
    9900012    2    3    3    0    0 -0.13989509634E+02 -0.26933334941E+02  0.20848673266E+02  0.54367107998E+02  0.40000054304E+02 0.  0.
        -12    1    3    3    0    0  0.13989509634E+02  0.26933334941E+02 -0.20848673266E+02  0.36820892002E+02  0.00000000000E+00 0.  1.
         11    1    4    4    0    0 -0.23009631586E+02 -0.23954779220E+02  0.22139432073E+01  0.33289279625E+02  0.51100000000E-03 0. -1.
        -11    1    4    4    0    0  0.39035051793E+01  0.15607534339E-01  0.67803083539E+01  0.78236933679E+01  0.51100000000E-03 0.  1.
         12    1    4    4    0    0  0.51166167719E+01 -0.29941632553E+01  0.11854421705E+02  0.13254135006E+02  0.00000000000E+00 0. -1.
</event>
<event>
 8    1  0.2497772E-006  0.9118800E+02  0.7816164E-02  0.1184000E+00
        -11   -1    0    0    0    0  0.00000000000E+00  0.00000000000E+00  0.45593999997E+02  0.45594000000E+02  0.51100000000E-03 0.  1.
         11   -1    0    0    0    0 -0.00000000000E+00 -0.00000000000E+00 -0.45593999997E+02  0.45594000000E+02  0.51100000000E-03 0. -1.
         23    2    1    2    0    0 -0.17763568394E-14 -0.71054273576E-14 -0.17763568394E-14  0.91188000000E+02  0.91188000000E+02 0.  0.
    9900012    2    3    3    0    0 -0.12241041076E+02 -0.31493604135E+02 -0.14631813034E+02  0.54367080122E+02  0.39999990754E+02 0.  0.
        -12    1    3    3    0    0  0.12241041076E+02  0.31493604135E+02  0.14631813034E+02  0.36820919878E+02  0.00000000000E+00 0.  1.
         11    1    4    4    0    0 -0.11836105439E+01 -0.15531317557E+02 -0.61307273203E+01  0.16739431792E+02  0.51100000000E-03 0. -1.
        -11    1    4    4    0    0  0.39684600938E+01  0.76571981325E+01 -0.27184649058E+01  0.90427545837E+01  0.51100000000E-03 0.  1.
         12    1    4    4    0    0 -0.15025890626E+02 -0.23619484710E+02 -0.57826208082E+01  0.28584893746E+02  0.00000000000E+00 0. -1.
</event>
<event>
 8    1  0.2497772E-006  0.9118800E+02  0.7816164E-02  0.1184000E+00
        -11   -1    0    0    0    0  0.00000000000E+00  0.00000000000E+00  0.45593999997E+02  0.45594000000E+02  0.51100000000E-03 0.  1.
         11   -1    0    0    0    0 -0.00000000000E+00 -0.00000000000E+00 -0.45593999997E+02  0.45594000000E+02  0.51100000000E-03 0. -1.
         23    2    1    2    0    0 -0.88817841970E-15  0.88817841970E-15  0.00000000000E+00  0.91188000000E+02  0.91188000000E+02 0.  0.
    9900012    2    3    3    0    0  0.60431930745E+01 -0.73489002095E+01 -0.35570415286E+02  0.54367068990E+02  0.39999965377E+02 0.  0.
        -12    1    3    3    0    0 -0.60431930745E+01  0.73489002095E+01  0.35570415286E+02  0.36820931010E+02  0.00000000000E+00 0.  1.
         11    1    4    4    0    0  0.30787285366E+01 -0.14886439263E+01 -0.29226509922E+01  0.44985018867E+01  0.51100000000E-03 0. -1.
        -11    1    4    4    0    0 -0.14702594982E+02 -0.89663925530E+01 -0.25025525314E+02  0.30378272040E+02  0.51100000000E-03 0.  1.
         12    1    4    4    0    0  0.17667059520E+02  0.31061362698E+01 -0.76222389789E+01  0.19490295063E+02  0.00000000000E+00 0. -1.
</event>
<event>
 8    1  0.2497772E-006  0.9118800E+02  0.7816164E-02  0.1184000E+00
        -11   -1    0    0    0    0  0.00000000000E+00  0.00000000000E+00  0.45593999997E+02  0.45594000000E+02  0.51100000000E-03 0. -1.
         11   -1    0    0    0    0 -0.00000000000E+00 -0.00000000000E+00 -0.45593999997E+02  0.45594000000E+02  0.51100000000E-03 0.  1.
         23    2    1    2    0    0  0.00000000000E+00  0.17763568394E-14  0.17763568394E-14  0.91188000000E+02  0.91188000000E+02 0.  0.
    9900012    2    3    3    0    0 -0.33114144845E+02  0.10389787662E+02  0.12299768303E+02  0.54367101359E+02  0.40000039167E+02 0.  0.
        -12    1    3    3    0    0  0.33114144845E+02 -0.10389787662E+02 -0.12299768303E+02  0.36820898641E+02  0.00000000000E+00 0.  1.
         11    1    4    4    0    0 -0.20303943977E+02 -0.33900509774E+01 -0.20149572795E+01  0.20683390432E+02  0.51100000000E-03 0. -1.
        -11    1    4    4    0    0  0.21080537068E+01 -0.47006434884E+00 -0.49852405025E+01  0.54329986243E+01  0.51100000000E-03 0.  1.
        -12    1    4    4    0    0 -0.14918254575E+02  0.14249902988E+02  0.19299966085E+02  0.28250712303E+02  0.00000000000E+00 0.  1.
</event>
<event>
 8    1  0.2497772E-006  0.9118800E+02  0.7816164E-02  0.1184000E+00
        -11   -1    0    0    0    0  0.00000000000E+00  0.00000000000E+00  0.45593999997E+02  0.45594000000E+02  0.51100000000E-03 0. -1.
         11   -1    0    0    0    0 -0.00000000000E+00 -0.00000000000E+00 -0.45593999997E+02  0.45594000000E+02  0.51100000000E-03 0.  1.
         23    2    1    2    0    0  0.88817841970E-15  0.00000000000E+00  0.00000000000E+00  0.91188000000E+02  0.91188000000E+02 0.  0.
    9900012    2    3    3    0    0 -0.16134656573E+01 -0.23795697804E+02  0.28052482054E+02  0.54367078572E+02  0.39999987221E+02 0.  0.
        -12    1    3    3    0    0  0.16134656573E+01  0.23795697804E+02 -0.28052482054E+02  0.36820921428E+02  0.00000000000E+00 0.  1.
         11    1    4    4    0    0  0.72425556111E+01  0.65852387668E+01  0.73601655232E+01  0.12247122853E+02  0.51100000000E-03 0. -1.
        -11    1    4    4    0    0  0.29931994209E+01 -0.21917947162E+02  0.12163961463E+02  0.25245150213E+02  0.51100000000E-03 0.  1.
         12    1    4    4    0    0 -0.11849220689E+02 -0.84629894091E+01  0.85283550684E+01  0.16874805506E+02  0.00000000000E+00 0. -1.
</event>
<event>
 8    1  0.2497772E-006  0.9118800E+02  0.7816164E-02  0.1184000E+00
        -11   -1    0    0    0    0  0.00000000000E+00  0.00000000000E+00  0.45593999997E+02  0.45594000000E+02  0.51100000000E-03 0.  1.
         11   -1    0    0    0    0 -0.00000000000E+00 -0.00000000000E+00 -0.45593999997E+02  0.45594000000E+02  0.51100000000E-03 0. -1.
         23    2    1    2    0    0 -0.44408920985E-15  0.71054273576E-14  0.17763568394E-14  0.91188000000E+02  0.91188000000E+02 0.  0.
    9900012    2    3    3    0    0 -0.31903963474E+01 -0.35240049606E+02  0.10185276516E+02  0.54367087698E+02  0.40000008024E+02 0.  0.
        -12    1    3    3    0    0  0.31903963474E+01  0.35240049606E+02 -0.10185276516E+02  0.36820912302E+02  0.00000000000E+00 0.  1.
         11    1    4    4    0    0  0.75027267823E+01  0.18610933655E+01 -0.88974827917E+00  0.77811457990E+01  0.51100000000E-03 0. -1.
        -11    1    4    4    0    0  0.98376605097E-03 -0.18086145160E+02  0.16082870544E+02  0.24202631529E+02  0.51100000000E-03 0.  1.
         12    1    4    4    0    0 -0.10694106896E+02 -0.19014997812E+02 -0.50078457487E+01  0.22383310370E+02  0.00000000000E+00 0. -1.
</event>
<event>
 8    1  0.2497772E-006  0.9118800E+02  0.7816164E-02  0.1184000E+00
        -11   -1    0    0    0    0  0.00000000000E+00  0.00000000000E+00  0.45593999997E+02  0.45594000000E+02  0.51100000000E-03 0.  1.
         11   -1    0    0    0    0 -0.00000000000E+00 -0.00000000000E+00 -0.45593999997E+02  0.45594000000E+02  0.51100000000E-03 0. -1.
         23    2    1    2    0    0 -0.17763568394E-14  0.31086244690E-14  0.71054273576E-14  0.91188000000E+02  0.91188000000E+02 0.  0.
    9900012    2    3    3    0    0  0.12336761679E+02 -0.29883866962E+01 -0.34563765624E+02  0.54367081517E+02  0.39999993935E+02 0.  0.
        -12    1    3    3    0    0 -0.12336761679E+02  0.29883866962E+01  0.34563765624E+02  0.36820918483E+02  0.00000000000E+00 0.  1.
         11    1    4    4    0    0  0.10028468672E+02  0.93861123302E+01 -0.15849459683E+02  0.20973189102E+02  0.51100000000E-03 0. -1.
        -11    1    4    4    0    0  0.23989279185E+01  0.50027635503E+01  0.24026328525E+01  0.60460849467E+01  0.51100000000E-03 0.  1.
         12    1    4    4    0    0 -0.90634911492E-01 -0.17377262577E+02 -0.21116938794E+02  0.27347807469E+02  0.00000000000E+00 0. -1.
</event>
<event>
 8    1  0.2497772E-006  0.9118800E+02  0.7816164E-02  0.1184000E+00
        -11   -1    0    0    0    0  0.00000000000E+00  0.00000000000E+00  0.45593999997E+02  0.45594000000E+02  0.51100000000E-03 0.  1.
         11   -1    0    0    0    0 -0.00000000000E+00 -0.00000000000E+00 -0.45593999997E+02  0.45594000000E+02  0.51100000000E-03 0. -1.
         23    2    1    2    0    0  0.00000000000E+00 -0.17763568394E-14  0.35527136788E-14  0.91188000000E+02  0.91188000000E+02 0.  0.
    9900012    2    3    3    0    0  0.19524895357E+02 -0.10439196490E+02 -0.29420757771E+02  0.54367090861E+02  0.40000015235E+02 0.  0.
        -12    1    3    3    0    0 -0.19524895357E+02  0.10439196490E+02  0.29420757771E+02  0.36820909139E+02  0.00000000000E+00 0.  1.
         11    1    4    4    0    0 -0.50590395977E+01  0.44845725957E+01 -0.71650647648E+01  0.98510621946E+01  0.51100000000E-03 0. -1.
        -11    1    4    4    0    0  0.14805566238E+02 -0.65186799602E+00  0.17532339117E+01  0.14923255440E+02  0.51100000000E-03 0.  1.
         12    1    4    4    0    0  0.97783687163E+01 -0.14271901090E+02 -0.24008926918E+02  0.29592773226E+02  0.00000000000E+00 0. -1.
</event>
<event>
 8    1  0.2497772E-006  0.9118800E+02  0.7816164E-02  0.1184000E+00
        -11   -1    0    0    0    0  0.00000000000E+00  0.00000000000E+00  0.45593999997E+02  0.45594000000E+02  0.51100000000E-03 0. -1.
         11   -1    0    0    0    0 -0.00000000000E+00 -0.00000000000E+00 -0.45593999997E+02  0.45594000000E+02  0.51100000000E-03 0.  1.
         23    2    1    2    0    0  0.00000000000E+00  0.44408920985E-15 -0.35527136788E-14  0.91188000000E+02  0.91188000000E+02 0.  0.
    9900012    2    3    3    0    0  0.33537109573E+02 -0.38418472322E+01  0.14706608024E+02  0.54367057206E+02  0.39999938512E+02 0.  0.
        -12    1    3    3    0    0 -0.33537109573E+02  0.38418472322E+01 -0.14706608024E+02  0.36820942794E+02  0.00000000000E+00 0.  1.
         11    1    4    4    0    0  0.32642420427E+01 -0.52259135061E+01  0.20510561496E+02  0.21416082303E+02  0.51100000000E-03 0.  1.
        -11    1    4    4    0    0  0.20096396076E+02  0.39756062772E+01  0.87698594740E+00  0.20504625945E+02  0.51100000000E-03 0. -1.
        -12    1    4    4    0    0  0.10176471454E+02 -0.25915400033E+01 -0.66809394195E+01  0.12446348958E+02  0.00000000000E+00 0.  1.
</event>
<event>
 8    1  0.2497772E-006  0.9118800E+02  0.7816164E-02  0.1184000E+00
        -11   -1    0    0    0    0  0.00000000000E+00  0.00000000000E+00  0.45593999997E+02  0.45594000000E+02  0.51100000000E-03 0. -1.
         11   -1    0    0    0    0 -0.00000000000E+00 -0.00000000000E+00 -0.45593999997E+02  0.45594000000E+02  0.51100000000E-03 0.  1.
         23    2    1    2    0    0  0.00000000000E+00  0.00000000000E+00  0.00000000000E+00  0.91188000000E+02  0.91188000000E+02 0.  0.
    9900012    2    3    3    0    0 -0.86334164406E+00  0.10015453698E+02 -0.35422096907E+02  0.54367087181E+02  0.40000006846E+02 0.  0.
         12    1    3    3    0    0  0.86334164406E+00 -0.10015453698E+02  0.35422096907E+02  0.36820912819E+02  0.00000000000E+00 0. -1.
         11    1    4    4    0    0  0.21951364847E+01  0.21280968599E+02 -0.22410142892E+02  0.30982458802E+02  0.51100000000E-03 0. -1.
        -11    1    4    4    0    0  0.42640405818E+01 -0.29875866376E+01 -0.10973992993E+02  0.12146449624E+02  0.51100000000E-03 0.  1.
         12    1    4    4    0    0 -0.73225187106E+01 -0.82779282636E+01 -0.20379610222E+01  0.11238178755E+02  0.00000000000E+00 0. -1.
</event>
<event>
 8    1  0.2497772E-006  0.9118800E+02  0.7816164E-02  0.1184000E+00
        -11   -1    0    0    0    0  0.00000000000E+00  0.00000000000E+00  0.45593999997E+02  0.45594000000E+02  0.51100000000E-03 0. -1.
         11   -1    0    0    0    0 -0.00000000000E+00 -0.00000000000E+00 -0.45593999997E+02  0.45594000000E+02  0.51100000000E-03 0.  1.
         23    2    1    2    0    0  0.35527136788E-14  0.22204460493E-15 -0.35527136788E-14  0.91188000000E+02  0.91188000000E+02 0.  0.
    9900012    2    3    3    0    0 -0.23304669871E+02 -0.13714954196E+01  0.28474407993E+02  0.54367074590E+02  0.39999978144E+02 0.  0.
        -12    1    3    3    0    0  0.23304669871E+02  0.13714954196E+01 -0.28474407993E+02  0.36820925410E+02  0.00000000000E+00 0.  1.
         11    1    4    4    0    0 -0.11743695015E+02 -0.13769061535E+01  0.78615715970E+01  0.14199103895E+02  0.51100000000E-03 0. -1.
        -11    1    4    4    0    0 -0.23000257960E+02 -0.14301611527E+00  0.12909026454E+02  0.26375657036E+02  0.51100000000E-03 0.  1.
         12    1    4    4    0    0  0.11439283105E+02  0.14842684913E+00  0.77038099422E+01  0.13792313660E+02  0.00000000000E+00 0. -1.
</event>
<event>
 8    1  0.2497772E-006  0.9118800E+02  0.7816164E-02  0.1184000E+00
        -11   -1    0    0    0    0  0.00000000000E+00  0.00000000000E+00  0.45593999997E+02  0.45594000000E+02  0.51100000000E-03 0.  1.
         11   -1    0    0    0    0 -0.00000000000E+00 -0.00000000000E+00 -0.45593999997E+02  0.45594000000E+02  0.51100000000E-03 0. -1.
         23    2    1    2    0    0 -0.35527136788E-14  0.00000000000E+00  0.00000000000E+00  0.91188000000E+02  0.91188000000E+02 0.  0.
    9900012    2    3    3    0    0 -0.31637691993E+02 -0.44011085609E+01 -0.18315698471E+02  0.54367107538E+02  0.40000053254E+02 0.  0.
         12    1    3    3    0    0  0.31637691993E+02  0.44011085609E+01  0.18315698471E+02  0.36820892462E+02  0.00000000000E+00 0. -1.
         11    1    4    4    0    0 -0.12805890132E+02 -0.12894188057E+02 -0.75375716053E+01  0.19673990284E+02  0.51100000000E-03 0. -1.
        -11    1    4    4    0    0 -0.16384324666E+02 -0.46344011570E+01 -0.12645833249E+02  0.21209452319E+02  0.51100000000E-03 0.  1.
        -12    1    4    4    0    0 -0.24474771948E+01  0.13127480654E+02  0.18677063835E+01  0.13483664934E+02  0.00000000000E+00 0.  1.
</event>
<event>
 8    1  0.2497772E-006  0.9118800E+02  0.7816164E-02  0.1184000E+00
        -11   -1    0    0    0    0  0.00000000000E+00  0.00000000000E+00  0.45593999997E+02  0.45594000000E+02  0.51100000000E-03 0.  1.
         11   -1    0    0    0    0 -0.00000000000E+00 -0.00000000000E+00 -0.45593999997E+02  0.45594000000E+02  0.51100000000E-03 0. -1.
         23    2    1    2    0    0  0.35527136788E-14 -0.88817841970E-15  0.35527136788E-14  0.91188000000E+02  0.91188000000E+02 0.  0.
    9900012    2    3    3    0    0 -0.29495469708E+02  0.31641866292E+01 -0.21812513857E+02  0.54367074277E+02  0.39999977430E+02 0.  0.
        -12    1    3    3    0    0  0.29495469708E+02 -0.31641866292E+01  0.21812513857E+02  0.36820925723E+02  0.00000000000E+00 0.  1.
         11    1    4    4    0    0 -0.46419179200E+01 -0.95200014430E+01  0.34037564616E+01  0.11124899450E+02  0.51100000000E-03 0. -1.
        -11    1    4    4    0    0 -0.21658746966E+02  0.12682879834E+02 -0.89218285179E+01  0.26637488346E+02  0.51100000000E-03 0.  1.
         12    1    4    4    0    0 -0.31948048219E+01  0.13082381455E-02 -0.16294441800E+02  0.16604686481E+02  0.00000000000E+00 0. -1.
</event>
<event>
 8    1  0.2497772E-006  0.9118800E+02  0.7816164E-02  0.1184000E+00
        -11   -1    0    0    0    0  0.00000000000E+00  0.00000000000E+00  0.45593999997E+02  0.45594000000E+02  0.51100000000E-03 0. -1.
         11   -1    0    0    0    0 -0.00000000000E+00 -0.00000000000E+00 -0.45593999997E+02  0.45594000000E+02  0.51100000000E-03 0.  1.
         23    2    1    2    0    0 -0.24424906542E-14  0.00000000000E+00  0.71054273576E-14  0.91188000000E+02  0.91188000000E+02 0.  0.
    9900012    2    3    3    0    0 -0.69007907655E+00 -0.13808364435E+02 -0.34126723802E+02  0.54367076397E+02  0.39999982263E+02 0.  0.
         12    1    3    3    0    0  0.69007907655E+00  0.13808364435E+02  0.34126723802E+02  0.36820923603E+02  0.00000000000E+00 0. -1.
         11    1    4    4    0    0 -0.92951651780E+01 -0.61225787927E+01  0.12951836918E+01  0.11205515063E+02  0.51100000000E-03 0. -1.
        -11    1    4    4    0    0  0.14738214647E+02 -0.17067650604E+01 -0.28570401158E+02  0.32193102376E+02  0.51100000000E-03 0.  1.
        -12    1    4    4    0    0 -0.61331285454E+01 -0.59790205820E+01 -0.68515063353E+01  0.10968458959E+02  0.00000000000E+00 0.  1.
</event>
<event>
 8    1  0.2497772E-006  0.9118800E+02  0.7816164E-02  0.1184000E+00
        -11   -1    0    0    0    0  0.00000000000E+00  0.00000000000E+00  0.45593999997E+02  0.45594000000E+02  0.51100000000E-03 0.  1.
         11   -1    0    0    0    0 -0.00000000000E+00 -0.00000000000E+00 -0.45593999997E+02  0.45594000000E+02  0.51100000000E-03 0. -1.
         23    2    1    2    0    0  0.35527136788E-14  0.35527136788E-14  0.17763568394E-14  0.91188000000E+02  0.91188000000E+02 0.  0.
    9900012    2    3    3    0    0  0.29258006816E+02  0.19860809911E+02  0.10261529748E+02  0.54367058595E+02  0.39999941679E+02 0.  0.
         12    1    3    3    0    0 -0.29258006816E+02 -0.19860809911E+02 -0.10261529748E+02  0.36820941405E+02  0.00000000000E+00 0. -1.
         11    1    4    4    0    0  0.54114559378E+01 -0.60872085867E+01 -0.83541134321E+01  0.11667440818E+02  0.51100000000E-03 0. -1.
        -11    1    4    4    0    0  0.16598001466E+02  0.67764786815E+01  0.83809177709E+01  0.19790252624E+02  0.51100000000E-03 0.  1.
         12    1    4    4    0    0  0.72485494121E+01  0.19171539816E+02  0.10234725409E+02  0.22909365153E+02  0.00000000000E+00 0. -1.
</event>
<event>
 8    1  0.2497772E-006  0.9118800E+02  0.7816164E-02  0.1184000E+00
        -11   -1    0    0    0    0  0.00000000000E+00  0.00000000000E+00  0.45593999997E+02  0.45594000000E+02  0.51100000000E-03 0.  1.
         11   -1    0    0    0    0 -0.00000000000E+00 -0.00000000000E+00 -0.45593999997E+02  0.45594000000E+02  0.51100000000E-03 0. -1.
         23    2    1    2    0    0  0.00000000000E+00  0.88817841970E-15 -0.33306690739E-15  0.91188000000E+02  0.91188000000E+02 0.  0.
    9900012    2    3    3    0    0 -0.36311953722E+02  0.60778178208E+01 -0.52877610322E+00  0.54367116568E+02  0.40000073839E+02 0.  0.
         12    1    3    3    0    0  0.36311953722E+02 -0.60778178208E+01  0.52877610322E+00  0.36820883432E+02  0.00000000000E+00 0. -1.
         11    1    4    4    0    0 -0.75433482162E+01  0.42206042531E+01 -0.14535358475E+02  0.16911305355E+02  0.51100000000E-03 0. -1.
        -11    1    4    4    0    0 -0.34046156319E+01  0.15989279557E+01 -0.46408026692E+01  0.59736946594E+01  0.51100000000E-03 0.  1.
        -12    1    4    4    0    0 -0.25363989874E+02  0.25828561201E+00  0.18647385041E+02  0.31482116553E+02  0.00000000000E+00 0.  1.
</event>
<event>
 8    1  0.2497772E-006  0.9118800E+02  0.7816164E-02  0.1184000E+00
        -11   -1    0    0    0    0  0.00000000000E+00  0.00000000000E+00  0.45593999997E+02  0.45594000000E+02  0.51100000000E-03 0.  1.
         11   -1    0    0    0    0 -0.00000000000E+00 -0.00000000000E+00 -0.45593999997E+02  0.45594000000E+02  0.51100000000E-03 0. -1.
         23    2    1    2    0    0  0.35527136788E-14  0.00000000000E+00 -0.74940054162E-15  0.91188000000E+02  0.91188000000E+02 0.  0.
    9900012    2    3    3    0    0 -0.23459236487E+02 -0.28379864010E+02  0.16837351684E+00  0.54367071068E+02  0.39999970115E+02 0.  0.
         12    1    3    3    0    0  0.23459236487E+02  0.28379864010E+02 -0.16837351684E+00  0.36820928932E+02  0.00000000000E+00 0. -1.
         11    1    4    4    0    0 -0.26606608541E+01  0.21576879689E+01 -0.37745226612E+01  0.50972301432E+01  0.51100000000E-03 0. -1.
        -11    1    4    4    0    0 -0.17391411592E+02 -0.27103664974E+02 -0.10631912309E+02  0.33913233579E+02  0.51100000000E-03 0.  1.
        -12    1    4    4    0    0 -0.34071640404E+01 -0.34338870045E+01  0.14574808487E+02  0.15356607346E+02  0.00000000000E+00 0.  1.
</event>
<event>
 8    1  0.2497772E-006  0.9118800E+02  0.7816164E-02  0.1184000E+00
        -11   -1    0    0    0    0  0.00000000000E+00  0.00000000000E+00  0.45593999997E+02  0.45594000000E+02  0.51100000000E-03 0.  1.
         11   -1    0    0    0    0 -0.00000000000E+00 -0.00000000000E+00 -0.45593999997E+02  0.45594000000E+02  0.51100000000E-03 0. -1.
         23    2    1    2    0    0  0.35527136788E-14  0.00000000000E+00  0.00000000000E+00  0.91188000000E+02  0.91188000000E+02 0.  0.
    9900012    2    3    3    0    0  0.31278668881E+02 -0.77711611510E+01 -0.17805431301E+02  0.54367089413E+02  0.40000011936E+02 0.  0.
        -12    1    3    3    0    0 -0.31278668881E+02  0.77711611510E+01  0.17805431301E+02  0.36820910587E+02  0.00000000000E+00 0.  1.
         11    1    4    4    0    0  0.47709264493E+01  0.41144766171E+00 -0.12964235489E+02  0.13820362891E+02  0.51100000000E-03 0. -1.
        -11    1    4    4    0    0 -0.13405372542E+01 -0.10217840518E+01 -0.11009982244E+02  0.11138258035E+02  0.51100000000E-03 0.  1.
         12    1    4    4    0    0  0.27848279686E+02 -0.71608247609E+01  0.61687864322E+01  0.29408468487E+02  0.00000000000E+00 0. -1.
</event>
<event>
 8    1  0.2497772E-006  0.9118800E+02  0.7816164E-02  0.1184000E+00
        -11   -1    0    0    0    0  0.00000000000E+00  0.00000000000E+00  0.45593999997E+02  0.45594000000E+02  0.51100000000E-03 0. -1.
         11   -1    0    0    0    0 -0.00000000000E+00 -0.00000000000E+00 -0.45593999997E+02  0.45594000000E+02  0.51100000000E-03 0.  1.
         23    2    1    2    0    0  0.88817841970E-15 -0.35527136788E-14  0.71054273576E-14  0.91188000000E+02  0.91188000000E+02 0.  0.
    9900012    2    3    3    0    0  0.53439197414E+01 -0.25515702541E+02  0.26003292519E+02  0.54367085071E+02  0.40000002036E+02 0.  0.
        -12    1    3    3    0    0 -0.53439197414E+01  0.25515702541E+02 -0.26003292519E+02  0.36820914929E+02  0.00000000000E+00 0.  1.
         11    1    4    4    0    0  0.23264173961E+01 -0.11996241753E+02  0.24321827098E+02  0.27218988000E+02  0.51100000000E-03 0. -1.
        -11    1    4    4    0    0  0.22959154312E-01 -0.13538767841E+02 -0.88661916982E+01  0.16183575540E+02  0.51100000000E-03 0.  1.
        -12    1    4    4    0    0  0.29945431910E+01  0.19307053313E-01  0.10547657120E+02  0.10964521531E+02  0.00000000000E+00 0.  1.
</event>
<event>
 8    1  0.2497772E-006  0.9118800E+02  0.7816164E-02  0.1184000E+00
        -11   -1    0    0    0    0  0.00000000000E+00  0.00000000000E+00  0.45593999997E+02  0.45594000000E+02  0.51100000000E-03 0.  1.
         11   -1    0    0    0    0 -0.00000000000E+00 -0.00000000000E+00 -0.45593999997E+02  0.45594000000E+02  0.51100000000E-03 0. -1.
         23    2    1    2    0    0  0.00000000000E+00  0.17763568394E-14  0.35527136788E-14  0.91188000000E+02  0.91188000000E+02 0.  0.
    9900012    2    3    3    0    0  0.18991717332E+02 -0.52687090850E+01 -0.31102065384E+02  0.54367040021E+02  0.39999899336E+02 0.  0.
        -12    1    3    3    0    0 -0.18991717332E+02  0.52687090850E+01  0.31102065384E+02  0.36820959979E+02  0.00000000000E+00 0.  1.
         11    1    4    4    0    0  0.15128533004E+02  0.72232766208E+01 -0.11123691343E+02  0.20119263042E+02  0.51100000000E-03 0. -1.
        -11    1    4    4    0    0  0.80680672229E+01 -0.16439973079E+02 -0.62386329000E+01  0.19346497468E+02  0.51100000000E-03 0.  1.
         12    1    4    4    0    0 -0.42048828944E+01  0.39479873735E+01 -0.13739741141E+02  0.14901279511E+02  0.00000000000E+00 0. -1.
</event>
<event>
 8    1  0.2497772E-006  0.9118800E+02  0.7816164E-02  0.1184000E+00
        -11   -1    0    0    0    0  0.00000000000E+00  0.00000000000E+00  0.45593999997E+02  0.45594000000E+02  0.51100000000E-03 0.  1.
         11   -1    0    0    0    0 -0.00000000000E+00 -0.00000000000E+00 -0.45593999997E+02  0.45594000000E+02  0.51100000000E-03 0. -1.
         23    2    1    2    0    0 -0.17763568394E-14 -0.71054273576E-14 -0.22204460493E-15  0.91188000000E+02  0.91188000000E+02 0.  0.
    9900012    2    3    3    0    0 -0.83344406831E+01 -0.35826957374E+02 -0.16573222517E+01  0.54367075335E+02  0.39999979841E+02 0.  0.
         12    1    3    3    0    0  0.83344406831E+01  0.35826957374E+02  0.16573222517E+01  0.36820924665E+02  0.00000000000E+00 0. -1.
         11    1    4    4    0    0  0.17231707616E+01  0.58530210335E-01 -0.10634197931E+02  0.10773064056E+02  0.51100000000E-03 0. -1.
        -11    1    4    4    0    0  0.11649828063E+01 -0.29503228250E+02  0.41771901668E+01  0.29820237760E+02  0.51100000000E-03 0.  1.
        -12    1    4    4    0    0 -0.11222594251E+02 -0.63822593342E+01  0.47996855126E+01  0.13773773519E+02  0.00000000000E+00 0.  1.
</event>
<event>
 8    1  0.2497772E-006  0.9118800E+02  0.7816164E-02  0.1184000E+00
        -11   -1    0    0    0    0  0.00000000000E+00  0.00000000000E+00  0.45593999997E+02  0.45594000000E+02  0.51100000000E-03 0.  1.
         11   -1    0    0    0    0 -0.00000000000E+00 -0.00000000000E+00 -0.45593999997E+02  0.45594000000E+02  0.51100000000E-03 0. -1.
         23    2    1    2    0    0 -0.35527136788E-14 -0.35527136788E-14  0.00000000000E+00  0.91188000000E+02  0.91188000000E+02 0.  0.
    9900012    2    3    3    0    0 -0.23610349541E+02  0.27619840268E+02 -0.59558324583E+01  0.54367134691E+02  0.40000115154E+02 0.  0.
        -12    1    3    3    0    0  0.23610349541E+02 -0.27619840268E+02  0.59558324583E+01  0.36820865309E+02  0.00000000000E+00 0.  1.
         11    1    4    4    0    0 -0.19757267293E+02 -0.30761866683E+01 -0.48010680097E+01  0.20563627832E+02  0.51100000000E-03 0. -1.
        -11    1    4    4    0    0 -0.19500205864E+00  0.51583163708E+01  0.51013496914E+01  0.72574115578E+01  0.51100000000E-03 0.  1.
         12    1    4    4    0    0 -0.36580801887E+01  0.25537710565E+02 -0.62561141400E+01  0.26546095301E+02  0.00000000000E+00 0. -1.
</event>
<event>
 8    1  0.2497772E-006  0.9118800E+02  0.7816164E-02  0.1184000E+00
        -11   -1    0    0    0    0  0.00000000000E+00  0.00000000000E+00  0.45593999997E+02  0.45594000000E+02  0.51100000000E-03 0. -1.
         11   -1    0    0    0    0 -0.00000000000E+00 -0.00000000000E+00 -0.45593999997E+02  0.45594000000E+02  0.51100000000E-03 0.  1.
         23    2    1    2    0    0  0.00000000000E+00  0.00000000000E+00 -0.26645352591E-14  0.91188000000E+02  0.91188000000E+02 0.  0.
    9900012    2    3    3    0    0  0.25113214647E+02 -0.25919025881E+02 -0.73013118346E+01  0.54367100947E+02  0.40000038230E+02 0.  0.
        -12    1    3    3    0    0 -0.25113214647E+02  0.25919025881E+02  0.73013118346E+01  0.36820899053E+02  0.00000000000E+00 0.  1.
         11    1    4    4    0    0  0.81347329157E+01 -0.24243184385E+02  0.97854914607E+01  0.27379950915E+02  0.51100000000E-03 0. -1.
        -11    1    4    4    0    0  0.18531480816E+02 -0.26058457549E+01 -0.13860619975E+02  0.23287829433E+02  0.51100000000E-03 0.  1.
         12    1    4    4    0    0 -0.15529990852E+01  0.93000425850E+00 -0.32261833207E+01  0.36993205995E+01  0.00000000000E+00 0. -1.
</event>
<event>
 8    1  0.2497772E-006  0.9118800E+02  0.7816164E-02  0.1184000E+00
        -11   -1    0    0    0    0  0.00000000000E+00  0.00000000000E+00  0.45593999997E+02  0.45594000000E+02  0.51100000000E-03 0. -1.
         11   -1    0    0    0    0 -0.00000000000E+00 -0.00000000000E+00 -0.45593999997E+02  0.45594000000E+02  0.51100000000E-03 0.  1.
         23    2    1    2    0    0 -0.35527136788E-14  0.88817841970E-15  0.00000000000E+00  0.91188000000E+02  0.91188000000E+02 0.  0.
    9900012    2    3    3    0    0  0.29004592152E+02 -0.30709433955E+01  0.22474049898E+02  0.54367082330E+02  0.39999995789E+02 0.  0.
        -12    1    3    3    0    0 -0.29004592152E+02  0.30709433955E+01 -0.22474049898E+02  0.36820917670E+02  0.00000000000E+00 0.  1.
         11    1    4    4    0    0  0.11642036646E+02 -0.14648377313E+02  0.29152137710E+01  0.18937012615E+02  0.51100000000E-03 0. -1.
        -11    1    4    4    0    0  0.64788571199E+01 -0.16155002402E+01 -0.28333577924E+01  0.72535058590E+01  0.51100000000E-03 0.  1.
        -12    1    4    4    0    0  0.10883698386E+02  0.13192934158E+02  0.22392193919E+02  0.28176563857E+02  0.00000000000E+00 0.  1.
</event>
<event>
 8    1  0.2497772E-006  0.9118800E+02  0.7816164E-02  0.1184000E+00
        -11   -1    0    0    0    0  0.00000000000E+00  0.00000000000E+00  0.45593999997E+02  0.45594000000E+02  0.51100000000E-03 0.  1.
         11   -1    0    0    0    0 -0.00000000000E+00 -0.00000000000E+00 -0.45593999997E+02  0.45594000000E+02  0.51100000000E-03 0. -1.
         23    2    1    2    0    0  0.00000000000E+00  0.00000000000E+00  0.00000000000E+00  0.91188000000E+02  0.91188000000E+02 0.  0.
    9900012    2    3    3    0    0 -0.24735347402E+02 -0.16253036404E+02  0.21903917984E+02  0.54367078956E+02  0.39999988097E+02 0.  0.
         12    1    3    3    0    0  0.24735347402E+02  0.16253036404E+02 -0.21903917984E+02  0.36820921044E+02  0.00000000000E+00 0. -1.
         11    1    4    4    0    0 -0.15499113017E+02  0.75034429297E+00  0.59220147113E+01  0.16608906628E+02  0.51100000000E-03 0. -1.
        -11    1    4    4    0    0 -0.10398549499E+02 -0.13374552215E+02  0.23710688253E+02  0.29141125859E+02  0.51100000000E-03 0.  1.
        -12    1    4    4    0    0  0.11623151143E+01 -0.36288284822E+01 -0.77287849803E+01  0.86170464691E+01  0.00000000000E+00 0.  1.
</event>
<event>
 8    1  0.2497772E-006  0.9118800E+02  0.7816164E-02  0.1184000E+00
        -11   -1    0    0    0    0  0.00000000000E+00  0.00000000000E+00  0.45593999997E+02  0.45594000000E+02  0.51100000000E-03 0.  1.
         11   -1    0    0    0    0 -0.00000000000E+00 -0.00000000000E+00 -0.45593999997E+02  0.45594000000E+02  0.51100000000E-03 0. -1.
         23    2    1    2    0    0  0.17763568394E-14 -0.35527136788E-14 -0.35527136788E-14  0.91188000000E+02  0.91188000000E+02 0.  0.
    9900012    2    3    3    0    0 -0.10351642562E+02  0.16366671400E+02  0.31316999542E+02  0.54367097013E+02  0.40000029261E+02 0.  0.
         12    1    3    3    0    0  0.10351642562E+02 -0.16366671400E+02 -0.31316999542E+02  0.36820902987E+02  0.00000000000E+00 0. -1.
         11    1    4    4    0    0 -0.14831159396E+02  0.80868530877E+01  0.27733619973E+02  0.32473283772E+02  0.51100000000E-03 0. -1.
        -11    1    4    4    0    0 -0.56722794646E+01  0.90429275745E+01  0.46779146364E+01  0.11654706305E+02  0.51100000000E-03 0.  1.
         12    1    4    4    0    0  0.10151796298E+02 -0.76310926195E+00 -0.10945350674E+01  0.10239106936E+02  0.00000000000E+00 0. -1.
</event>
<event>
 8    1  0.2497772E-006  0.9118800E+02  0.7816164E-02  0.1184000E+00
        -11   -1    0    0    0    0  0.00000000000E+00  0.00000000000E+00  0.45593999997E+02  0.45594000000E+02  0.51100000000E-03 0.  1.
         11   -1    0    0    0    0 -0.00000000000E+00 -0.00000000000E+00 -0.45593999997E+02  0.45594000000E+02  0.51100000000E-03 0. -1.
         23    2    1    2    0    0  0.00000000000E+00  0.00000000000E+00  0.35527136788E-14  0.91188000000E+02  0.91188000000E+02 0.  0.
    9900012    2    3    3    0    0  0.16866804699E+02 -0.18138075058E+02 -0.27245211455E+02  0.54367076399E+02  0.39999982268E+02 0.  0.
        -12    1    3    3    0    0 -0.16866804699E+02  0.18138075058E+02  0.27245211455E+02  0.36820923601E+02  0.00000000000E+00 0.  1.
         11    1    4    4    0    0  0.16689067670E+02 -0.82694863748E+01 -0.30444344610E+02  0.35689879568E+02  0.51100000000E-03 0. -1.
        -11    1    4    4    0    0 -0.20095814428E+01  0.34078628822E+01 -0.17691782769E+01  0.43338134519E+01  0.51100000000E-03 0.  1.
         12    1    4    4    0    0  0.21873184724E+01 -0.13276451566E+02  0.49683114325E+01  0.14343383379E+02  0.00000000000E+00 0. -1.
</event>
<event>
 8    1  0.2497772E-006  0.9118800E+02  0.7816164E-02  0.1184000E+00
        -11   -1    0    0    0    0  0.00000000000E+00  0.00000000000E+00  0.45593999997E+02  0.45594000000E+02  0.51100000000E-03 0.  1.
         11   -1    0    0    0    0 -0.00000000000E+00 -0.00000000000E+00 -0.45593999997E+02  0.45594000000E+02  0.51100000000E-03 0. -1.
         23    2    1    2    0    0 -0.17763568394E-14 -0.35527136788E-14 -0.71054273576E-14  0.91188000000E+02  0.91188000000E+02 0.  0.
    9900012    2    3    3    0    0  0.14739433935E+02  0.22051162373E+02  0.25539678630E+02  0.54367083943E+02  0.39999999465E+02 0.  0.
         12    1    3    3    0    0 -0.14739433935E+02 -0.22051162373E+02 -0.25539678630E+02  0.36820916057E+02  0.00000000000E+00 0. -1.
         11    1    4    4    0    0 -0.62216769893E+01  0.44577906491E+01  0.45710536790E+01  0.89149141346E+01  0.51100000000E-03 0. -1.
        -11    1    4    4    0    0  0.19625444422E+02  0.25543211359E+02  0.17688585337E+02  0.36749146477E+02  0.51100000000E-03 0.  1.
         12    1    4    4    0    0  0.13356665021E+01 -0.79498396355E+01  0.32800396144E+01  0.87030233314E+01  0.00000000000E+00 0. -1.
</event>
<event>
 8    1  0.2497772E-006  0.9118800E+02  0.7816164E-02  0.1184000E+00
        -11   -1    0    0    0    0  0.00000000000E+00  0.00000000000E+00  0.45593999997E+02  0.45594000000E+02  0.51100000000E-03 0.  1.
         11   -1    0    0    0    0 -0.00000000000E+00 -0.00000000000E+00 -0.45593999997E+02  0.45594000000E+02  0.51100000000E-03 0. -1.
         23    2    1    2    0    0  0.88817841970E-15  0.00000000000E+00  0.00000000000E+00  0.91188000000E+02  0.91188000000E+02 0.  0.
    9900012    2    3    3    0    0 -0.33623705134E+01 -0.24655267420E+02  0.27140220186E+02  0.54367091554E+02  0.40000016816E+02 0.  0.
         12    1    3    3    0    0  0.33623705134E+01  0.24655267420E+02 -0.27140220186E+02  0.36820908446E+02  0.00000000000E+00 0. -1.
         11    1    4    4    0    0 -0.46785627523E+01 -0.42511209974E+01  0.15388422403E+02  0.16636241267E+02  0.51100000000E-03 0. -1.
        -11    1    4    4    0    0 -0.91675929436E+01 -0.66431798776E+01  0.16297535317E+02  0.19844048401E+02  0.51100000000E-03 0.  1.
         12    1    4    4    0    0  0.10483785182E+02 -0.13760966545E+02 -0.45457375343E+01  0.17886801887E+02  0.00000000000E+00 0. -1.
</event>
<event>
 8    1  0.2497772E-006  0.9118800E+02  0.7816164E-02  0.1184000E+00
        -11   -1    0    0    0    0  0.00000000000E+00  0.00000000000E+00  0.45593999997E+02  0.45594000000E+02  0.51100000000E-03 0.  1.
         11   -1    0    0    0    0 -0.00000000000E+00 -0.00000000000E+00 -0.45593999997E+02  0.45594000000E+02  0.51100000000E-03 0. -1.
         23    2    1    2    0    0  0.00000000000E+00  0.22204460493E-15 -0.88817841970E-15  0.91188000000E+02  0.91188000000E+02 0.  0.
    9900012    2    3    3    0    0 -0.36189047101E+02 -0.19610227013E+01 -0.65029906182E+01  0.54367059938E+02  0.39999944740E+02 0.  0.
         12    1    3    3    0    0  0.36189047101E+02  0.19610227013E+01  0.65029906182E+01  0.36820940062E+02  0.00000000000E+00 0. -1.
         11    1    4    4    0    0 -0.12189516188E+02 -0.10778548520E+01 -0.14816989911E+02  0.19216900537E+02  0.51100000000E-03 0. -1.
        -11    1    4    4    0    0 -0.94905592356E+01 -0.84849937013E+01 -0.53600811106E+01  0.13812903478E+02  0.51100000000E-03 0.  1.
        -12    1    4    4    0    0 -0.14508971678E+02  0.76018258519E+01  0.13674080403E+02  0.21337255923E+02  0.00000000000E+00 0.  1.
</event>
<event>
 8    1  0.2497772E-006  0.9118800E+02  0.7816164E-02  0.1184000E+00
        -11   -1    0    0    0    0  0.00000000000E+00  0.00000000000E+00  0.45593999997E+02  0.45594000000E+02  0.51100000000E-03 0.  1.
         11   -1    0    0    0    0 -0.00000000000E+00 -0.00000000000E+00 -0.45593999997E+02  0.45594000000E+02  0.51100000000E-03 0. -1.
         23    2    1    2    0    0  0.00000000000E+00  0.17763568394E-14  0.17763568394E-14  0.91188000000E+02  0.91188000000E+02 0.  0.
    9900012    2    3    3    0    0 -0.31540967574E+02 -0.13735309790E+02 -0.13125946878E+02  0.54367056883E+02  0.39999937777E+02 0.  0.
        -12    1    3    3    0    0  0.31540967574E+02  0.13735309790E+02  0.13125946878E+02  0.36820943117E+02  0.00000000000E+00 0.  1.
         11    1    4    4    0    0 -0.39074112069E+01  0.66649172024E+01 -0.16154334912E+01  0.78929468059E+01  0.51100000000E-03 0. -1.
        -11    1    4    4    0    0 -0.25307075909E+02 -0.27932633768E+01 -0.28209236877E+00  0.25462324869E+02  0.51100000000E-03 0.  1.
        -12    1    4    4    0    0 -0.23264804582E+01 -0.17606963616E+02 -0.11228421018E+02  0.21011785208E+02  0.00000000000E+00 0.  1.
</event>
<event>
 8    1  0.2497772E-006  0.9118800E+02  0.7816164E-02  0.1184000E+00
        -11   -1    0    0    0    0  0.00000000000E+00  0.00000000000E+00  0.45593999997E+02  0.45594000000E+02  0.51100000000E-03 0.  1.
         11   -1    0    0    0    0 -0.00000000000E+00 -0.00000000000E+00 -0.45593999997E+02  0.45594000000E+02  0.51100000000E-03 0. -1.
         23    2    1    2    0    0  0.35527136788E-14 -0.17763568394E-14 -0.35527136788E-14  0.91188000000E+02  0.91188000000E+02 0.  0.
    9900012    2    3    3    0    0  0.28479528709E+02 -0.12518951540E+02 -0.19697006132E+02  0.54367085376E+02  0.40000002732E+02 0.  0.
        -12    1    3    3    0    0 -0.28479528709E+02  0.12518951540E+02  0.19697006132E+02  0.36820914624E+02  0.00000000000E+00 0.  1.
         11    1    4    4    0    0  0.12337253010E+02 -0.21611702529E+01 -0.96582044128E+01  0.15816427581E+02  0.51100000000E-03 0. -1.
        -11    1    4    4    0    0  0.24309327171E+02 -0.11157895541E+01 -0.34825424799E+01  0.24582849229E+02  0.51100000000E-03 0.  1.
         12    1    4    4    0    0 -0.81670514714E+01 -0.92419917331E+01 -0.65562592394E+01  0.13967808566E+02  0.00000000000E+00 0. -1.
</event>
<event>
 8    1  0.2497772E-006  0.9118800E+02  0.7816164E-02  0.1184000E+00
        -11   -1    0    0    0    0  0.00000000000E+00  0.00000000000E+00  0.45593999997E+02  0.45594000000E+02  0.51100000000E-03 0. -1.
         11   -1    0    0    0    0 -0.00000000000E+00 -0.00000000000E+00 -0.45593999997E+02  0.45594000000E+02  0.51100000000E-03 0.  1.
         23    2    1    2    0    0  0.00000000000E+00  0.17763568394E-14  0.00000000000E+00  0.91188000000E+02  0.91188000000E+02 0.  0.
    9900012    2    3    3    0    0 -0.11956585965E+02 -0.11803138722E+02 -0.32764405135E+02  0.54367078291E+02  0.39999986580E+02 0.  0.
         12    1    3    3    0    0  0.11956585965E+02  0.11803138722E+02  0.32764405135E+02  0.36820921709E+02  0.00000000000E+00 0. -1.
         11    1    4    4    0    0 -0.93029456087E+00  0.52979426867E+01  0.18683373919E+01  0.56942365207E+01  0.51100000000E-03 0. -1.
        -11    1    4    4    0    0 -0.14214899775E+02 -0.22191539461E+02 -0.20736665213E+02  0.33534118203E+02  0.51100000000E-03 0.  1.
        -12    1    4    4    0    0  0.31886083709E+01  0.50904580520E+01 -0.13896077314E+02  0.15138723567E+02  0.00000000000E+00 0.  1.
</event>
<event>
 8    1  0.2497772E-006  0.9118800E+02  0.7816164E-02  0.1184000E+00
        -11   -1    0    0    0    0  0.00000000000E+00  0.00000000000E+00  0.45593999997E+02  0.45594000000E+02  0.51100000000E-03 0.  1.
         11   -1    0    0    0    0 -0.00000000000E+00 -0.00000000000E+00 -0.45593999997E+02  0.45594000000E+02  0.51100000000E-03 0. -1.
         23    2    1    2    0    0 -0.35527136788E-14 -0.17763568394E-14 -0.71054273576E-14  0.91188000000E+02  0.91188000000E+02 0.  0.
    9900012    2    3    3    0    0  0.88180128222E+01 -0.14683180794E+02 -0.32594921952E+02  0.54367053713E+02  0.39999930550E+02 0.  0.
        -12    1    3    3    0    0 -0.88180128222E+01  0.14683180794E+02  0.32594921952E+02  0.36820946287E+02  0.00000000000E+00 0.  1.
         11    1    4    4    0    0 -0.67821272137E+01 -0.87867231669E+01 -0.10698268791E+02  0.15416118479E+02  0.51100000000E-03 0.  1.
        -11    1    4    4    0    0 -0.75102142269E+01 -0.30221010213E+01 -0.97901908062E+01  0.12703710033E+02  0.51100000000E-03 0. -1.
         12    1    4    4    0    0  0.23110354263E+02 -0.28743566060E+01 -0.12106462355E+02  0.26247225202E+02  0.00000000000E+00 0. -1.
</event>
<event>
 8    1  0.2497772E-006  0.9118800E+02  0.7816164E-02  0.1184000E+00
        -11   -1    0    0    0    0  0.00000000000E+00  0.00000000000E+00  0.45593999997E+02  0.45594000000E+02  0.51100000000E-03 0.  1.
         11   -1    0    0    0    0 -0.00000000000E+00 -0.00000000000E+00 -0.45593999997E+02  0.45594000000E+02  0.51100000000E-03 0. -1.
         23    2    1    2    0    0  0.00000000000E+00  0.00000000000E+00  0.00000000000E+00  0.91188000000E+02  0.91188000000E+02 0.  0.
    9900012    2    3    3    0    0 -0.24123851016E+02 -0.21153031154E+02  0.18065605199E+02  0.54367122688E+02  0.40000087791E+02 0.  0.
         12    1    3    3    0    0  0.24123851016E+02  0.21153031154E+02 -0.18065605199E+02  0.36820877312E+02  0.00000000000E+00 0. -1.
         11    1    4    4    0    0 -0.98501301294E+01 -0.21340600675E+01 -0.56919195074E+01  0.11574853082E+02  0.51100000000E-03 0. -1.
        -11    1    4    4    0    0  0.74061973294E+01 -0.35312415793E+01  0.21336874536E+01  0.84778563554E+01  0.51100000000E-03 0.  1.
        -12    1    4    4    0    0 -0.21679918216E+02 -0.15487729507E+02  0.21623837253E+02  0.34314413250E+02  0.00000000000E+00 0.  1.
</event>
<event>
 8    1  0.2497772E-006  0.9118800E+02  0.7816164E-02  0.1184000E+00
        -11   -1    0    0    0    0  0.00000000000E+00  0.00000000000E+00  0.45593999997E+02  0.45594000000E+02  0.51100000000E-03 0.  1.
         11   -1    0    0    0    0 -0.00000000000E+00 -0.00000000000E+00 -0.45593999997E+02  0.45594000000E+02  0.51100000000E-03 0. -1.
         23    2    1    2    0    0  0.00000000000E+00 -0.35527136788E-14  0.00000000000E+00  0.91188000000E+02  0.91188000000E+02 0.  0.
    9900012    2    3    3    0    0  0.19383333239E+00 -0.16630120685E+02 -0.32850893647E+02  0.54367086123E+02  0.40000004434E+02 0.  0.
        -12    1    3    3    0    0 -0.19383333239E+00  0.16630120685E+02  0.32850893647E+02  0.36820913877E+02  0.00000000000E+00 0.  1.
         11    1    4    4    0    0  0.29346859913E+01 -0.76014027118E+01 -0.15239920960E+02  0.17281461055E+02  0.51100000000E-03 0. -1.
        -11    1    4    4    0    0  0.30534239359E+01 -0.97728858752E+00  0.85370784303E+01  0.91192214087E+01  0.51100000000E-03 0.  1.
         12    1    4    4    0    0 -0.57942765948E+01 -0.80514293858E+01 -0.26148051117E+02  0.27966403659E+02  0.00000000000E+00 0. -1.
</event>
<event>
 8    1  0.2497772E-006  0.9118800E+02  0.7816164E-02  0.1184000E+00
        -11   -1    0    0    0    0  0.00000000000E+00  0.00000000000E+00  0.45593999997E+02  0.45594000000E+02  0.51100000000E-03 0. -1.
         11   -1    0    0    0    0 -0.00000000000E+00 -0.00000000000E+00 -0.45593999997E+02  0.45594000000E+02  0.51100000000E-03 0.  1.
         23    2    1    2    0    0  0.00000000000E+00 -0.71054273576E-14 -0.19984014443E-14  0.91188000000E+02  0.91188000000E+02 0.  0.
    9900012    2    3    3    0    0  0.16003647131E+02 -0.33133508692E+02  0.13546515095E+01  0.54367065731E+02  0.39999957947E+02 0.  0.
         12    1    3    3    0    0 -0.16003647131E+02  0.33133508692E+02 -0.13546515095E+01  0.36820934269E+02  0.00000000000E+00 0. -1.
         11    1    4    4    0    0  0.72179548932E+01 -0.15750590690E+01 -0.12851050434E+02  0.14823264871E+02  0.51100000000E-03 0. -1.
        -11    1    4    4    0    0  0.83096190611E+01 -0.85885357050E+01 -0.10009735325E+01  0.11992275129E+02  0.51100000000E-03 0.  1.
         12    1    4    4    0    0  0.47607317665E+00 -0.22969913918E+02  0.15206675476E+02  0.27551525731E+02  0.00000000000E+00 0. -1.
</event>
<event>
 8    1  0.2497772E-006  0.9118800E+02  0.7816164E-02  0.1184000E+00
        -11   -1    0    0    0    0  0.00000000000E+00  0.00000000000E+00  0.45593999997E+02  0.45594000000E+02  0.51100000000E-03 0. -1.
         11   -1    0    0    0    0 -0.00000000000E+00 -0.00000000000E+00 -0.45593999997E+02  0.45594000000E+02  0.51100000000E-03 0.  1.
         23    2    1    2    0    0 -0.35527136788E-14  0.00000000000E+00  0.00000000000E+00  0.91188000000E+02  0.91188000000E+02 0.  0.
    9900012    2    3    3    0    0  0.88703676177E+01 -0.22515902962E+02 -0.27751232185E+02  0.54367079375E+02  0.39999989051E+02 0.  0.
         12    1    3    3    0    0 -0.88703676177E+01  0.22515902962E+02  0.27751232185E+02  0.36820920625E+02  0.00000000000E+00 0. -1.
         11    1    4    4    0    0  0.14961127944E+02 -0.82520126399E+01 -0.12560037001E+02  0.21205791466E+02  0.51100000000E-03 0.  1.
        -11    1    4    4    0    0 -0.12259904716E+02 -0.31072147280E+01 -0.15990373775E+02  0.20387547688E+02  0.51100000000E-03 0. -1.
        -12    1    4    4    0    0  0.61691443897E+01 -0.11156675594E+02  0.79917859058E+00  0.12773740221E+02  0.00000000000E+00 0.  1.
</event>
<event>
 8    1  0.2497772E-006  0.9118800E+02  0.7816164E-02  0.1184000E+00
        -11   -1    0    0    0    0  0.00000000000E+00  0.00000000000E+00  0.45593999997E+02  0.45594000000E+02  0.51100000000E-03 0.  1.
         11   -1    0    0    0    0 -0.00000000000E+00 -0.00000000000E+00 -0.45593999997E+02  0.45594000000E+02  0.51100000000E-03 0. -1.
         23    2    1    2    0    0  0.44408920985E-15  0.00000000000E+00  0.00000000000E+00  0.91188000000E+02  0.91188000000E+02 0.  0.
    9900012    2    3    3    0    0  0.36665799543E+01 -0.22445364275E+02 -0.28957573371E+02  0.54367092331E+02  0.40000018587E+02 0.  0.
        -12    1    3    3    0    0 -0.36665799543E+01  0.22445364275E+02  0.28957573371E+02  0.36820907669E+02  0.00000000000E+00 0.  1.
         11    1    4    4    0    0 -0.42931443943E+01 -0.46066100929E+01 -0.15290676505E+01  0.64799686326E+01  0.51100000000E-03 0. -1.
        -11    1    4    4    0    0  0.11274671794E+02 -0.50095630910E+01  0.46460541699E+01  0.13183313925E+02  0.51100000000E-03 0.  1.
        -12    1    4    4    0    0 -0.33149474456E+01 -0.12829191091E+02 -0.32074559891E+02  0.34703809774E+02  0.00000000000E+00 0.  1.
</event>
<event>
 8    1  0.2497772E-006  0.9118800E+02  0.7816164E-02  0.1184000E+00
        -11   -1    0    0    0    0  0.00000000000E+00  0.00000000000E+00  0.45593999997E+02  0.45594000000E+02  0.51100000000E-03 0. -1.
         11   -1    0    0    0    0 -0.00000000000E+00 -0.00000000000E+00 -0.45593999997E+02  0.45594000000E+02  0.51100000000E-03 0.  1.
         23    2    1    2    0    0  0.00000000000E+00  0.00000000000E+00  0.00000000000E+00  0.91188000000E+02  0.91188000000E+02 0.  0.
    9900012    2    3    3    0    0 -0.35240209953E+02  0.66402880538E+01 -0.83554980716E+01  0.54367079710E+02  0.39999989816E+02 0.  0.
        -12    1    3    3    0    0  0.35240209953E+02 -0.66402880538E+01  0.83554980716E+01  0.36820920290E+02  0.00000000000E+00 0.  1.
         11    1    4    4    0    0 -0.31808738026E+02  0.62452400022E+01 -0.73032647759E+01  0.33228549685E+02  0.51100000000E-03 0. -1.
        -11    1    4    4    0    0 -0.17769005255E+01 -0.30451564581E+01  0.93848387823E+01  0.10025245761E+02  0.51100000000E-03 0.  1.
         12    1    4    4    0    0 -0.16545714008E+01  0.34402045097E+01 -0.10437072078E+02  0.11113284265E+02  0.00000000000E+00 0. -1.
</event>
<event>
 8    1  0.2497772E-006  0.9118800E+02  0.7816164E-02  0.1184000E+00
        -11   -1    0    0    0    0  0.00000000000E+00  0.00000000000E+00  0.45593999997E+02  0.45594000000E+02  0.51100000000E-03 0.  1.
         11   -1    0    0    0    0 -0.00000000000E+00 -0.00000000000E+00 -0.45593999997E+02  0.45594000000E+02  0.51100000000E-03 0. -1.
         23    2    1    2    0    0  0.00000000000E+00  0.00000000000E+00  0.22204460493E-14  0.91188000000E+02  0.91188000000E+02 0.  0.
    9900012    2    3    3    0    0 -0.12111532963E+02  0.34742185803E+02 -0.14368418338E+01  0.54367174105E+02  0.40000205008E+02 0.  0.
        -12    1    3    3    0    0  0.12111532963E+02 -0.34742185803E+02  0.14368418338E+01  0.36820825895E+02  0.00000000000E+00 0.  1.
         11    1    4    4    0    0 -0.10230444330E+02  0.28069694833E+02 -0.11021545643E+02  0.31844061108E+02  0.51100000000E-03 0. -1.
        -11    1    4    4    0    0 -0.74791847571E+00  0.80721623700E+01  0.14871750831E+02  0.16937773183E+02  0.51100000000E-03 0.  1.
        -12    1    4    4    0    0 -0.11331701574E+01 -0.13996714000E+01 -0.52870470213E+01  0.55853398142E+01  0.00000000000E+00 0.  1.
</event>
<event>
 8    1  0.2497772E-006  0.9118800E+02  0.7816164E-02  0.1184000E+00
        -11   -1    0    0    0    0  0.00000000000E+00  0.00000000000E+00  0.45593999997E+02  0.45594000000E+02  0.51100000000E-03 0. -1.
         11   -1    0    0    0    0 -0.00000000000E+00 -0.00000000000E+00 -0.45593999997E+02  0.45594000000E+02  0.51100000000E-03 0.  1.
         23    2    1    2    0    0 -0.88817841970E-15 -0.35527136788E-14  0.00000000000E+00  0.91188000000E+02  0.91188000000E+02 0.  0.
    9900012    2    3    3    0    0 -0.72620153786E+01 -0.31842027589E+02  0.17003779608E+02  0.54367080548E+02  0.39999991725E+02 0.  0.
        -12    1    3    3    0    0  0.72620153786E+01  0.31842027589E+02 -0.17003779608E+02  0.36820919452E+02  0.00000000000E+00 0.  1.
         11    1    4    4    0    0  0.13248047264E+01  0.43368436400E+01 -0.27503206321E-01  0.45347631700E+01  0.51100000000E-03 0. -1.
        -11    1    4    4    0    0 -0.76457059252E+01 -0.30500619697E+02 -0.42960691931E+00  0.31447244448E+02  0.51100000000E-03 0.  1.
         12    1    4    4    0    0 -0.94111417978E+00 -0.56782515321E+01  0.17460889734E+02  0.18385072930E+02  0.00000000000E+00 0. -1.
</event>
<event>
 8    1  0.2497772E-006  0.9118800E+02  0.7816164E-02  0.1184000E+00
        -11   -1    0    0    0    0  0.00000000000E+00  0.00000000000E+00  0.45593999997E+02  0.45594000000E+02  0.51100000000E-03 0.  1.
         11   -1    0    0    0    0 -0.00000000000E+00 -0.00000000000E+00 -0.45593999997E+02  0.45594000000E+02  0.51100000000E-03 0. -1.
         23    2    1    2    0    0  0.00000000000E+00  0.00000000000E+00  0.00000000000E+00  0.91188000000E+02  0.91188000000E+02 0.  0.
    9900012    2    3    3    0    0 -0.12962722641E+02 -0.19716888230E+02 -0.28266443644E+02  0.54367086160E+02  0.40000004518E+02 0.  0.
        -12    1    3    3    0    0  0.12962722641E+02  0.19716888230E+02  0.28266443644E+02  0.36820913840E+02  0.00000000000E+00 0.  1.
         11    1    4    4    0    0  0.43918089050E+01  0.70599066558E+01 -0.11047684814E+02  0.13826843727E+02  0.51100000000E-03 0. -1.
        -11    1    4    4    0    0 -0.18137439537E+02 -0.16621690114E+02 -0.58723014824E+01  0.25292908495E+02  0.51100000000E-03 0.  1.
        -12    1    4    4    0    0  0.78290799065E+00 -0.10155104772E+02 -0.11346457348E+02  0.15247333937E+02  0.00000000000E+00 0.  1.
</event>
<event>
 8    1  0.2497772E-006  0.9118800E+02  0.7816164E-02  0.1184000E+00
        -11   -1    0    0    0    0  0.00000000000E+00  0.00000000000E+00  0.45593999997E+02  0.45594000000E+02  0.51100000000E-03 0.  1.
         11   -1    0    0    0    0 -0.00000000000E+00 -0.00000000000E+00 -0.45593999997E+02  0.45594000000E+02  0.51100000000E-03 0. -1.
         23    2    1    2    0    0 -0.35527136788E-14 -0.35527136788E-14 -0.35527136788E-14  0.91188000000E+02  0.91188000000E+02 0.  0.
    9900012    2    3    3    0    0 -0.20380445888E+02  0.19543659300E+02  0.23631817487E+02  0.54367082152E+02  0.39999995382E+02 0.  0.
         12    1    3    3    0    0  0.20380445888E+02 -0.19543659300E+02 -0.23631817487E+02  0.36820917848E+02  0.00000000000E+00 0. -1.
         11    1    4    4    0    0 -0.10980298737E+02  0.49987045188E+01 -0.27226457915E+01  0.12367975080E+02  0.51100000000E-03 0. -1.
        -11    1    4    4    0    0  0.37625905677E+01  0.68515790641E+01 -0.34324112447E+01  0.85371348043E+01  0.51100000000E-03 0.  1.
        -12    1    4    4    0    0 -0.13162737719E+02  0.76933757167E+01  0.29786874523E+02  0.33461972268E+02  0.00000000000E+00 0.  1.
</event>
<event>
 8    1  0.2497772E-006  0.9118800E+02  0.7816164E-02  0.1184000E+00
        -11   -1    0    0    0    0  0.00000000000E+00  0.00000000000E+00  0.45593999997E+02  0.45594000000E+02  0.51100000000E-03 0.  1.
         11   -1    0    0    0    0 -0.00000000000E+00 -0.00000000000E+00 -0.45593999997E+02  0.45594000000E+02  0.51100000000E-03 0. -1.
         23    2    1    2    0    0  0.00000000000E+00  0.17763568394E-14 -0.71054273576E-14  0.91188000000E+02  0.91188000000E+02 0.  0.
    9900012    2    3    3    0    0  0.14084693515E+02  0.43860510847E+01 -0.33736687718E+02  0.54367080216E+02  0.39999990969E+02 0.  0.
        -12    1    3    3    0    0 -0.14084693515E+02 -0.43860510847E+01  0.33736687718E+02  0.36820919784E+02  0.00000000000E+00 0.  1.
         11    1    4    4    0    0  0.11109203320E+02  0.18507850443E+02 -0.18638782277E+02  0.28519451808E+02  0.51100000000E-03 0.  1.
        -11    1    4    4    0    0 -0.31221410055E+01 -0.96757234612E+01 -0.15216186335E+02  0.18300265457E+02  0.51100000000E-03 0. -1.
        -12    1    4    4    0    0  0.60976312006E+01 -0.44460758975E+01  0.11828089323E+00  0.75473629510E+01  0.00000000000E+00 0.  1.
</event>
<event>
 8    1  0.2497772E-006  0.9118800E+02  0.7816164E-02  0.1184000E+00
        -11   -1    0    0    0    0  0.00000000000E+00  0.00000000000E+00  0.45593999997E+02  0.45594000000E+02  0.51100000000E-03 0. -1.
         11   -1    0    0    0    0 -0.00000000000E+00 -0.00000000000E+00 -0.45593999997E+02  0.45594000000E+02  0.51100000000E-03 0.  1.
         23    2    1    2    0    0 -0.17763568394E-14 -0.35527136788E-14  0.00000000000E+00  0.91188000000E+02  0.91188000000E+02 0.  0.
    9900012    2    3    3    0    0  0.99712209946E+01 -0.20702160428E+02 -0.28771075727E+02  0.54367088917E+02  0.40000010803E+02 0.  0.
         12    1    3    3    0    0 -0.99712209946E+01  0.20702160428E+02  0.28771075727E+02  0.36820911083E+02  0.00000000000E+00 0. -1.
         11    1    4    4    0    0  0.84231217536E+01  0.63198227927E+01 -0.97721878644E+01  0.14366098849E+02  0.51100000000E-03 0. -1.
        -11    1    4    4    0    0  0.49333072932E+01  0.58459355516E+00 -0.93025098366E+01  0.10545897780E+02  0.51100000000E-03 0.  1.
         12    1    4    4    0    0 -0.33852080522E+01 -0.27606576776E+02 -0.96963780259E+01  0.29455092288E+02  0.00000000000E+00 0. -1.
</event>
<event>
 8    1  0.2497772E-006  0.9118800E+02  0.7816164E-02  0.1184000E+00
        -11   -1    0    0    0    0  0.00000000000E+00  0.00000000000E+00  0.45593999997E+02  0.45594000000E+02  0.51100000000E-03 0. -1.
         11   -1    0    0    0    0 -0.00000000000E+00 -0.00000000000E+00 -0.45593999997E+02  0.45594000000E+02  0.51100000000E-03 0.  1.
         23    2    1    2    0    0  0.71054273576E-14 -0.71054273576E-14  0.88817841970E-15  0.91188000000E+02  0.91188000000E+02 0.  0.
    9900012    2    3    3    0    0 -0.28407211770E+02  0.23071499637E+02 -0.40639774381E+01  0.54367086260E+02  0.40000004748E+02 0.  0.
        -12    1    3    3    0    0  0.28407211770E+02 -0.23071499637E+02  0.40639774381E+01  0.36820913740E+02  0.00000000000E+00 0.  1.
         11    1    4    4    0    0 -0.30122964486E+02  0.19690187522E+02 -0.69346533112E+01  0.36649500554E+02  0.51100000000E-03 0.  1.
        -11    1    4    4    0    0 -0.55056148650E+01  0.63962170538E+01  0.47296597754E+01  0.96743511148E+01  0.51100000000E-03 0. -1.
        -12    1    4    4    0    0  0.72213675815E+01 -0.30149049390E+01 -0.18589839024E+01  0.80432345911E+01  0.00000000000E+00 0.  1.
</event>
<event>
 8    1  0.2497772E-006  0.9118800E+02  0.7816164E-02  0.1184000E+00
        -11   -1    0    0    0    0  0.00000000000E+00  0.00000000000E+00  0.45593999997E+02  0.45594000000E+02  0.51100000000E-03 0. -1.
         11   -1    0    0    0    0 -0.00000000000E+00 -0.00000000000E+00 -0.45593999997E+02  0.45594000000E+02  0.51100000000E-03 0.  1.
         23    2    1    2    0    0  0.00000000000E+00  0.00000000000E+00 -0.66613381478E-15  0.91188000000E+02  0.91188000000E+02 0.  0.
    9900012    2    3    3    0    0 -0.45453437516E+01  0.36511239557E+02 -0.14358863908E+01  0.54366911837E+02  0.39999607112E+02 0.  0.
        -12    1    3    3    0    0  0.45453437516E+01 -0.36511239557E+02  0.14358863908E+01  0.36821088163E+02  0.00000000000E+00 0.  1.
         11    1    4    4    0    0 -0.71671288426E+01 -0.34721658713E+01 -0.62683049370E+01  0.10134856621E+02  0.51100000000E-03 0. -1.
        -11    1    4    4    0    0 -0.50928586743E+01  0.24688155591E+01  0.34064989349E+00  0.56699472972E+01  0.51100000000E-03 0.  1.
         12    1    4    4    0    0  0.77146437653E+01  0.37514589869E+02  0.44917686527E+01  0.38562107918E+02  0.00000000000E+00 0. -1.
</event>
<event>
 8    1  0.2497772E-006  0.9118800E+02  0.7816164E-02  0.1184000E+00
        -11   -1    0    0    0    0  0.00000000000E+00  0.00000000000E+00  0.45593999997E+02  0.45594000000E+02  0.51100000000E-03 0.  1.
         11   -1    0    0    0    0 -0.00000000000E+00 -0.00000000000E+00 -0.45593999997E+02  0.45594000000E+02  0.51100000000E-03 0. -1.
         23    2    1    2    0    0  0.00000000000E+00 -0.11102230246E-14  0.35527136788E-14  0.91188000000E+02  0.91188000000E+02 0.  0.
    9900012    2    3    3    0    0  0.20170994319E+02 -0.13097047756E+01 -0.30776542814E+02  0.54367083037E+02  0.39999997400E+02 0.  0.
        -12    1    3    3    0    0 -0.20170994319E+02  0.13097047756E+01  0.30776542814E+02  0.36820916963E+02  0.00000000000E+00 0.  1.
         11    1    4    4    0    0 -0.10064727425E+01  0.12326171885E+00 -0.16322149870E+01  0.19215376285E+01  0.51100000000E-03 0. -1.
        -11    1    4    4    0    0 -0.39622845039E+01 -0.79065584078E+01  0.45219216112E+01  0.99328314022E+01  0.51100000000E-03 0.  1.
        -12    1    4    4    0    0  0.25139751565E+02  0.64735919133E+01 -0.33666249438E+02  0.42512714007E+02  0.00000000000E+00 0.  1.
</event>
<event>
 8    1  0.2497772E-006  0.9118800E+02  0.7816164E-02  0.1184000E+00
        -11   -1    0    0    0    0  0.00000000000E+00  0.00000000000E+00  0.45593999997E+02  0.45594000000E+02  0.51100000000E-03 0. -1.
         11   -1    0    0    0    0 -0.00000000000E+00 -0.00000000000E+00 -0.45593999997E+02  0.45594000000E+02  0.51100000000E-03 0.  1.
         23    2    1    2    0    0  0.35527136788E-14  0.00000000000E+00  0.00000000000E+00  0.91188000000E+02  0.91188000000E+02 0.  0.
    9900012    2    3    3    0    0 -0.26939349409E+02  0.17438016268E+02  0.18054409281E+02  0.54367154648E+02  0.40000160650E+02 0.  0.
        -12    1    3    3    0    0  0.26939349409E+02 -0.17438016268E+02 -0.18054409281E+02  0.36820845352E+02  0.00000000000E+00 0.  1.
         11    1    4    4    0    0 -0.11929056919E+02  0.19255693226E+00  0.14531468792E+02  0.18801677124E+02  0.51100000000E-03 0. -1.
        -11    1    4    4    0    0  0.38494952247E+01  0.15748425350E+02 -0.51498787756E+00  0.16220256695E+02  0.51100000000E-03 0.  1.
        -12    1    4    4    0    0 -0.18859787715E+02  0.14970339860E+01  0.40379283657E+01  0.19345220828E+02  0.00000000000E+00 0.  1.
</event>
<event>
 8    1  0.2497772E-006  0.9118800E+02  0.7816164E-02  0.1184000E+00
        -11   -1    0    0    0    0  0.00000000000E+00  0.00000000000E+00  0.45593999997E+02  0.45594000000E+02  0.51100000000E-03 0.  1.
         11   -1    0    0    0    0 -0.00000000000E+00 -0.00000000000E+00 -0.45593999997E+02  0.45594000000E+02  0.51100000000E-03 0. -1.
         23    2    1    2    0    0  0.00000000000E+00  0.00000000000E+00  0.71054273576E-14  0.91188000000E+02  0.91188000000E+02 0.  0.
    9900012    2    3    3    0    0 -0.53146079113E+01  0.16910924686E+02 -0.32273134419E+02  0.54367086972E+02  0.40000006370E+02 0.  0.
        -12    1    3    3    0    0  0.53146079113E+01 -0.16910924686E+02  0.32273134419E+02  0.36820913028E+02  0.00000000000E+00 0.  1.
         11    1    4    4    0    0  0.25086904500E+01  0.11687812427E+01 -0.30189846171E+02  0.30316437612E+02  0.51100000000E-03 0. -1.
        -11    1    4    4    0    0 -0.99462240935E+01  0.26461875161E+01  0.12597600659E+01  0.10369024919E+02  0.51100000000E-03 0.  1.
        -12    1    4    4    0    0  0.21229257322E+01  0.13095955927E+02 -0.33430483134E+01  0.13681624441E+02  0.00000000000E+00 0.  1.
</event>
<event>
 8    1  0.2497772E-006  0.9118800E+02  0.7816164E-02  0.1184000E+00
        -11   -1    0    0    0    0  0.00000000000E+00  0.00000000000E+00  0.45593999997E+02  0.45594000000E+02  0.51100000000E-03 0.  1.
         11   -1    0    0    0    0 -0.00000000000E+00 -0.00000000000E+00 -0.45593999997E+02  0.45594000000E+02  0.51100000000E-03 0. -1.
         23    2    1    2    0    0  0.00000000000E+00  0.00000000000E+00  0.44408920985E-15  0.91188000000E+02  0.91188000000E+02 0.  0.
    9900012    2    3    3    0    0  0.34962048524E+02 -0.11088772471E+02 -0.32365018946E+01  0.54367073118E+02  0.39999974787E+02 0.  0.
         12    1    3    3    0    0 -0.34962048524E+02  0.11088772471E+02  0.32365018946E+01  0.36820926882E+02  0.00000000000E+00 0. -1.
         11    1    4    4    0    0 -0.19856466621E+01 -0.97811878877E+01 -0.53659042056E+00  0.99951167428E+01  0.51100000000E-03 0. -1.
        -11    1    4    4    0    0  0.30354335956E+02 -0.98819805799E+01  0.31458303397E+01  0.32077024492E+02  0.51100000000E-03 0.  1.
         12    1    4    4    0    0  0.65933592308E+01  0.85743959970E+01 -0.58457418137E+01  0.12294931883E+02  0.00000000000E+00 0. -1.
</event>
<event>
 8    1  0.2497772E-006  0.9118800E+02  0.7816164E-02  0.1184000E+00
        -11   -1    0    0    0    0  0.00000000000E+00  0.00000000000E+00  0.45593999997E+02  0.45594000000E+02  0.51100000000E-03 0. -1.
         11   -1    0    0    0    0 -0.00000000000E+00 -0.00000000000E+00 -0.45593999997E+02  0.45594000000E+02  0.51100000000E-03 0.  1.
         23    2    1    2    0    0  0.88817841970E-15  0.35527136788E-14  0.71054273576E-14  0.91188000000E+02  0.91188000000E+02 0.  0.
    9900012    2    3    3    0    0 -0.49717050470E+01 -0.19320763262E+02 -0.30947855597E+02  0.54367088684E+02  0.40000010272E+02 0.  0.
         12    1    3    3    0    0  0.49717050470E+01  0.19320763262E+02  0.30947855597E+02  0.36820911316E+02  0.00000000000E+00 0. -1.
         11    1    4    4    0    0 -0.23370981009E+01  0.47087454915E+01 -0.71599130496E+01  0.88824921489E+01  0.51100000000E-03 0. -1.
        -11    1    4    4    0    0 -0.42003598348E+01  0.21512871032E+01  0.47702531400E+01  0.67101694631E+01  0.51100000000E-03 0.  1.
        -12    1    4    4    0    0  0.15657528887E+01 -0.26180795857E+02 -0.28558195688E+02  0.38774427072E+02  0.00000000000E+00 0.  1.
</event>
<event>
 8    1  0.2497772E-006  0.9118800E+02  0.7816164E-02  0.1184000E+00
        -11   -1    0    0    0    0  0.00000000000E+00  0.00000000000E+00  0.45593999997E+02  0.45594000000E+02  0.51100000000E-03 0.  1.
         11   -1    0    0    0    0 -0.00000000000E+00 -0.00000000000E+00 -0.45593999997E+02  0.45594000000E+02  0.51100000000E-03 0. -1.
         23    2    1    2    0    0  0.00000000000E+00  0.17763568394E-14  0.71054273576E-14  0.91188000000E+02  0.91188000000E+02 0.  0.
    9900012    2    3    3    0    0  0.84269789050E+01  0.15625023840E+02  0.32258716086E+02  0.54367080580E+02  0.39999991798E+02 0.  0.
         12    1    3    3    0    0 -0.84269789050E+01 -0.15625023840E+02 -0.32258716086E+02  0.36820919420E+02  0.00000000000E+00 0. -1.
         11    1    4    4    0    0  0.33315657459E+01  0.11414935486E+02 -0.54586401984E+01  0.13084220861E+02  0.51100000000E-03 0. -1.
        -11    1    4    4    0    0 -0.87164617849E+00  0.52355285565E+01  0.33467274621E+02  0.33885527842E+02  0.51100000000E-03 0.  1.
         12    1    4    4    0    0  0.59670593376E+01 -0.10254402024E+01  0.42500816631E+01  0.73973318764E+01  0.00000000000E+00 0. -1.
</event>
<event>
 8    1  0.2497772E-006  0.9118800E+02  0.7816164E-02  0.1184000E+00
        -11   -1    0    0    0    0  0.00000000000E+00  0.00000000000E+00  0.45593999997E+02  0.45594000000E+02  0.51100000000E-03 0.  1.
         11   -1    0    0    0    0 -0.00000000000E+00 -0.00000000000E+00 -0.45593999997E+02  0.45594000000E+02  0.51100000000E-03 0. -1.
         23    2    1    2    0    0 -0.35527136788E-14  0.00000000000E+00  0.00000000000E+00  0.91188000000E+02  0.91188000000E+02 0.  0.
    9900012    2    3    3    0    0 -0.18066478148E+02  0.90988581725E+01  0.30766749342E+02  0.54367085864E+02  0.40000003845E+02 0.  0.
         12    1    3    3    0    0  0.18066478148E+02 -0.90988581725E+01 -0.30766749342E+02  0.36820914136E+02  0.00000000000E+00 0. -1.
         11    1    4    4    0    0  0.40013442064E+01 -0.97621005170E+01  0.24920446483E+01  0.10840647986E+02  0.51100000000E-03 0. -1.
        -11    1    4    4    0    0 -0.21482906970E+02  0.11109227742E+02  0.16005578599E+02  0.29001875447E+02  0.51100000000E-03 0.  1.
         12    1    4    4    0    0 -0.58491538382E+00  0.77517309477E+01  0.12269126095E+02  0.14524562431E+02  0.00000000000E+00 0. -1.
</event>
<event>
 8    1  0.2497772E-006  0.9118800E+02  0.7816164E-02  0.1184000E+00
        -11   -1    0    0    0    0  0.00000000000E+00  0.00000000000E+00  0.45593999997E+02  0.45594000000E+02  0.51100000000E-03 0.  1.
         11   -1    0    0    0    0 -0.00000000000E+00 -0.00000000000E+00 -0.45593999997E+02  0.45594000000E+02  0.51100000000E-03 0. -1.
         23    2    1    2    0    0  0.00000000000E+00 -0.17763568394E-14 -0.17763568394E-14  0.91188000000E+02  0.91188000000E+02 0.  0.
    9900012    2    3    3    0    0 -0.30426535182E+02 -0.15654094443E+02 -0.13599797690E+02  0.54367092716E+02  0.40000019465E+02 0.  0.
        -12    1    3    3    0    0  0.30426535182E+02  0.15654094443E+02  0.13599797690E+02  0.36820907284E+02  0.00000000000E+00 0.  1.
         11    1    4    4    0    0 -0.23678118122E+02 -0.18224121262E+01 -0.11605506515E+01  0.23776487163E+02  0.51100000000E-03 0. -1.
        -11    1    4    4    0    0 -0.61171707812E+01 -0.12160223349E+02  0.38953767177E+01  0.14158558200E+02  0.51100000000E-03 0.  1.
        -12    1    4    4    0    0 -0.63124627895E+00 -0.16714589673E+01 -0.16334623756E+02  0.16432047353E+02  0.00000000000E+00 0.  1.
</event>
<event>
 8    1  0.2497772E-006  0.9118800E+02  0.7816164E-02  0.1184000E+00
        -11   -1    0    0    0    0  0.00000000000E+00  0.00000000000E+00  0.45593999997E+02  0.45594000000E+02  0.51100000000E-03 0. -1.
         11   -1    0    0    0    0 -0.00000000000E+00 -0.00000000000E+00 -0.45593999997E+02  0.45594000000E+02  0.51100000000E-03 0.  1.
         23    2    1    2    0    0  0.00000000000E+00 -0.88817841970E-15  0.13322676296E-14  0.91188000000E+02  0.91188000000E+02 0.  0.
    9900012    2    3    3    0    0  0.36314115186E+02 -0.55608428756E+01 -0.24783499590E+01  0.54367079945E+02  0.39999990350E+02 0.  0.
        -12    1    3    3    0    0 -0.36314115186E+02  0.55608428756E+01  0.24783499590E+01  0.36820920055E+02  0.00000000000E+00 0.  1.
         11    1    4    4    0    0  0.25612797000E+02 -0.81361781887E+01  0.50702020485E+00  0.26878798995E+02  0.51100000000E-03 0. -1.
        -11    1    4    4    0    0  0.34032537633E+01  0.19165363631E+01 -0.13846248119E+02  0.14386585246E+02  0.51100000000E-03 0.  1.
        -12    1    4    4    0    0  0.72980644222E+01  0.65879894996E+00  0.10860877955E+02  0.13101695704E+02  0.00000000000E+00 0.  1.
</event>
<event>
 8    1  0.2497772E-006  0.9118800E+02  0.7816164E-02  0.1184000E+00
        -11   -1    0    0    0    0  0.00000000000E+00  0.00000000000E+00  0.45593999997E+02  0.45594000000E+02  0.51100000000E-03 0. -1.
         11   -1    0    0    0    0 -0.00000000000E+00 -0.00000000000E+00 -0.45593999997E+02  0.45594000000E+02  0.51100000000E-03 0.  1.
         23    2    1    2    0    0  0.19984014443E-14  0.35527136788E-14  0.00000000000E+00  0.91188000000E+02  0.91188000000E+02 0.  0.
    9900012    2    3    3    0    0 -0.10240769433E+01  0.26844909622E+02 -0.25181029869E+02  0.54367052546E+02  0.39999927889E+02 0.  0.
         12    1    3    3    0    0  0.10240769433E+01 -0.26844909622E+02  0.25181029869E+02  0.36820947454E+02  0.00000000000E+00 0. -1.
         11    1    4    4    0    0  0.10633017663E+02  0.16260748502E+02 -0.13553997355E+02  0.23689319345E+02  0.51100000000E-03 0. -1.
        -11    1    4    4    0    0 -0.13595209945E+02  0.15890425133E+02 -0.13303060546E+02  0.24785212618E+02  0.51100000000E-03 0.  1.
        -12    1    4    4    0    0  0.19381153384E+01 -0.53062640138E+01  0.16760280329E+01  0.58925205826E+01  0.00000000000E+00 0.  1.
</event>
<event>
 8    1  0.2497772E-006  0.9118800E+02  0.7816164E-02  0.1184000E+00
        -11   -1    0    0    0    0  0.00000000000E+00  0.00000000000E+00  0.45593999997E+02  0.45594000000E+02  0.51100000000E-03 0.  1.
         11   -1    0    0    0    0 -0.00000000000E+00 -0.00000000000E+00 -0.45593999997E+02  0.45594000000E+02  0.51100000000E-03 0. -1.
         23    2    1    2    0    0  0.10658141036E-13  0.00000000000E+00  0.16653345369E-14  0.91188000000E+02  0.91188000000E+02 0.  0.
    9900012    2    3    3    0    0  0.26432341177E+02  0.25621561237E+02  0.80404007061E+00  0.54367088268E+02  0.40000009325E+02 0.  0.
         12    1    3    3    0    0 -0.26432341177E+02 -0.25621561237E+02 -0.80404007061E+00  0.36820911732E+02  0.00000000000E+00 0. -1.
         11    1    4    4    0    0  0.15179874097E+01  0.32991957551E+01 -0.15015726688E+02  0.15448657762E+02  0.51100000000E-03 0. -1.
        -11    1    4    4    0    0  0.17111518730E+02  0.13202567673E+02  0.16039287365E+02  0.26914133942E+02  0.51100000000E-03 0.  1.
         12    1    4    4    0    0  0.78028350380E+01  0.91197978083E+01 -0.21952060608E+00  0.12004296564E+02  0.00000000000E+00 0. -1.
</event>
<event>
 8    1  0.2497772E-006  0.9118800E+02  0.7816164E-02  0.1184000E+00
        -11   -1    0    0    0    0  0.00000000000E+00  0.00000000000E+00  0.45593999997E+02  0.45594000000E+02  0.51100000000E-03 0. -1.
         11   -1    0    0    0    0 -0.00000000000E+00 -0.00000000000E+00 -0.45593999997E+02  0.45594000000E+02  0.51100000000E-03 0.  1.
         23    2    1    2    0    0  0.00000000000E+00  0.00000000000E+00  0.00000000000E+00  0.91188000000E+02  0.91188000000E+02 0.  0.
    9900012    2    3    3    0    0  0.21685858015E+02  0.11083660218E+02  0.27616317739E+02  0.54367014582E+02  0.39999841343E+02 0.  0.
        -12    1    3    3    0    0 -0.21685858015E+02 -0.11083660218E+02 -0.27616317739E+02  0.36820985418E+02  0.00000000000E+00 0.  1.
         11    1    4    4    0    0  0.19155898862E+01  0.10331021772E+02 -0.41877881277E+01  0.11310926803E+02  0.51100000000E-03 0. -1.
        -11    1    4    4    0    0  0.45866860089E+00 -0.62161252693E+01  0.14311146611E+01  0.63952075559E+01  0.51100000000E-03 0.  1.
         12    1    4    4    0    0  0.19311599528E+02  0.69687637149E+01  0.30372991205E+02  0.36660880224E+02  0.00000000000E+00 0. -1.
</event>
<event>
 8    1  0.2497772E-006  0.9118800E+02  0.7816164E-02  0.1184000E+00
        -11   -1    0    0    0    0  0.00000000000E+00  0.00000000000E+00  0.45593999997E+02  0.45594000000E+02  0.51100000000E-03 0.  1.
         11   -1    0    0    0    0 -0.00000000000E+00 -0.00000000000E+00 -0.45593999997E+02  0.45594000000E+02  0.51100000000E-03 0. -1.
         23    2    1    2    0    0 -0.17763568394E-14  0.00000000000E+00  0.88817841970E-15  0.91188000000E+02  0.91188000000E+02 0.  0.
    9900012    2    3    3    0    0 -0.12468333099E+02 -0.34615014652E+02 -0.14565604170E+01  0.54367080160E+02  0.39999990842E+02 0.  0.
        -12    1    3    3    0    0  0.12468333099E+02  0.34615014652E+02  0.14565604170E+01  0.36820919840E+02  0.00000000000E+00 0.  1.
         11    1    4    4    0    0  0.14102929988E+01 -0.72112490970E+00  0.69396628817E+01  0.71181365996E+01  0.51100000000E-03 0. -1.
        -11    1    4    4    0    0 -0.17674063833E+02 -0.73588781741E+01  0.49121482944E-01  0.19144921874E+02  0.51100000000E-03 0.  1.
         12    1    4    4    0    0  0.37954377358E+01 -0.26535011568E+02 -0.84453447817E+01  0.28104021687E+02  0.00000000000E+00 0. -1.
</event>
<event>
 8    1  0.2497772E-006  0.9118800E+02  0.7816164E-02  0.1184000E+00
        -11   -1    0    0    0    0  0.00000000000E+00  0.00000000000E+00  0.45593999997E+02  0.45594000000E+02  0.51100000000E-03 0.  1.
         11   -1    0    0    0    0 -0.00000000000E+00 -0.00000000000E+00 -0.45593999997E+02  0.45594000000E+02  0.51100000000E-03 0. -1.
         23    2    1    2    0    0  0.00000000000E+00 -0.35527136788E-14  0.00000000000E+00  0.91188000000E+02  0.91188000000E+02 0.  0.
    9900012    2    3    3    0    0 -0.89140912836E+01 -0.23398853080E+02 -0.26996530092E+02  0.54367082224E+02  0.39999995546E+02 0.  0.
        -12    1    3    3    0    0  0.89140912836E+01  0.23398853080E+02  0.26996530092E+02  0.36820917776E+02  0.00000000000E+00 0.  1.
         11    1    4    4    0    0 -0.15741312734E+02 -0.13317570079E+01 -0.69203396892E+01  0.17246843334E+02  0.51100000000E-03 0.  1.
        -11    1    4    4    0    0 -0.61904482564E+01 -0.59962163032E+01 -0.48411319011E+00  0.86319537425E+01  0.51100000000E-03 0. -1.
         12    1    4    4    0    0  0.13017669707E+02 -0.16070879769E+02 -0.19592077212E+02  0.28488285147E+02  0.00000000000E+00 0. -1.
</event>
<event>
 8    1  0.2497772E-006  0.9118800E+02  0.7816164E-02  0.1184000E+00
        -11   -1    0    0    0    0  0.00000000000E+00  0.00000000000E+00  0.45593999997E+02  0.45594000000E+02  0.51100000000E-03 0. -1.
         11   -1    0    0    0    0 -0.00000000000E+00 -0.00000000000E+00 -0.45593999997E+02  0.45594000000E+02  0.51100000000E-03 0.  1.
         23    2    1    2    0    0  0.00000000000E+00  0.00000000000E+00  0.00000000000E+00  0.91188000000E+02  0.91188000000E+02 0.  0.
    9900012    2    3    3    0    0  0.22834390876E+02  0.19265078184E+02 -0.21522727096E+02  0.54367076250E+02  0.39999981927E+02 0.  0.
         12    1    3    3    0    0 -0.22834390876E+02 -0.19265078184E+02  0.21522727096E+02  0.36820923750E+02  0.00000000000E+00 0. -1.
         11    1    4    4    0    0 -0.63494339619E+01  0.10797788808E+02 -0.12371682938E+01  0.12587221315E+02  0.51100000000E-03 0. -1.
        -11    1    4    4    0    0  0.18427077517E+02  0.14266234321E+02 -0.85100299665E+01  0.24809337714E+02  0.51100000000E-03 0.  1.
         12    1    4    4    0    0  0.10756747321E+02 -0.57989449443E+01 -0.11775528836E+02  0.16970517222E+02  0.00000000000E+00 0. -1.
</event>
<event>
 8    1  0.2497772E-006  0.9118800E+02  0.7816164E-02  0.1184000E+00
        -11   -1    0    0    0    0  0.00000000000E+00  0.00000000000E+00  0.45593999997E+02  0.45594000000E+02  0.51100000000E-03 0. -1.
         11   -1    0    0    0    0 -0.00000000000E+00 -0.00000000000E+00 -0.45593999997E+02  0.45594000000E+02  0.51100000000E-03 0.  1.
         23    2    1    2    0    0  0.71054273576E-14  0.35527136788E-14 -0.35527136788E-14  0.91188000000E+02  0.91188000000E+02 0.  0.
    9900012    2    3    3    0    0 -0.23075677099E+02 -0.18418500853E+02  0.22001195778E+02  0.54367073030E+02  0.39999974588E+02 0.  0.
        -12    1    3    3    0    0  0.23075677099E+02  0.18418500853E+02 -0.22001195778E+02  0.36820926970E+02  0.00000000000E+00 0.  1.
         11    1    4    4    0    0  0.79205174813E+01 -0.12698871791E+01  0.49682681825E+01  0.94356186662E+01  0.51100000000E-03 0. -1.
        -11    1    4    4    0    0 -0.25184570233E+02 -0.52254489823E+01  0.34584508453E+01  0.25952432976E+02  0.51100000000E-03 0.  1.
         12    1    4    4    0    0 -0.58116243478E+01 -0.11923164691E+02  0.13574476750E+02  0.18979021388E+02  0.00000000000E+00 0. -1.
</event>
<event>
 8    1  0.2497772E-006  0.9118800E+02  0.7816164E-02  0.1184000E+00
        -11   -1    0    0    0    0  0.00000000000E+00  0.00000000000E+00  0.45593999997E+02  0.45594000000E+02  0.51100000000E-03 0. -1.
         11   -1    0    0    0    0 -0.00000000000E+00 -0.00000000000E+00 -0.45593999997E+02  0.45594000000E+02  0.51100000000E-03 0.  1.
         23    2    1    2    0    0 -0.61062266354E-15  0.61062266354E-15  0.00000000000E+00  0.91188000000E+02  0.91188000000E+02 0.  0.
    9900012    2    3    3    0    0  0.26770539483E+00  0.43447833552E+00 -0.36817382069E+02  0.54367081217E+02  0.39999993251E+02 0.  0.
         12    1    3    3    0    0 -0.26770539483E+00 -0.43447833552E+00  0.36817382069E+02  0.36820918783E+02  0.00000000000E+00 0. -1.
         11    1    4    4    0    0 -0.11899711908E+02  0.52195732180E+00 -0.77633141800E+01  0.14217757568E+02  0.51100000000E-03 0. -1.
        -11    1    4    4    0    0  0.18639979828E+02  0.49688769058E+01 -0.18055196039E+02  0.26422125009E+02  0.51100000000E-03 0.  1.
         12    1    4    4    0    0 -0.64725625258E+01 -0.50563558921E+01 -0.10998871850E+02  0.13727198641E+02  0.00000000000E+00 0. -1.
</event>
<event>
 8    1  0.2497772E-006  0.9118800E+02  0.7816164E-02  0.1184000E+00
        -11   -1    0    0    0    0  0.00000000000E+00  0.00000000000E+00  0.45593999997E+02  0.45594000000E+02  0.51100000000E-03 0. -1.
         11   -1    0    0    0    0 -0.00000000000E+00 -0.00000000000E+00 -0.45593999997E+02  0.45594000000E+02  0.51100000000E-03 0.  1.
         23    2    1    2    0    0 -0.17763568394E-14  0.35527136788E-14 -0.35527136788E-14  0.91188000000E+02  0.91188000000E+02 0.  0.
    9900012    2    3    3    0    0 -0.14484042915E+02  0.12351642917E+02 -0.31518738638E+02  0.54367062108E+02  0.39999949688E+02 0.  0.
         12    1    3    3    0    0  0.14484042915E+02 -0.12351642917E+02  0.31518738638E+02  0.36820937892E+02  0.00000000000E+00 0. -1.
         11    1    4    4    0    0  0.74382437154E+01 -0.69240317767E+00  0.26531172683E+01  0.79275420675E+01  0.51100000000E-03 0. -1.
        -11    1    4    4    0    0  0.75603973433E+00  0.23721308597E+00 -0.12590256622E+02  0.12615166594E+02  0.51100000000E-03 0.  1.
        -12    1    4    4    0    0 -0.22678326365E+02  0.12806833009E+02 -0.21581599284E+02  0.33824353447E+02  0.00000000000E+00 0.  1.
</event>
<event>
 8    1  0.2497772E-006  0.9118800E+02  0.7816164E-02  0.1184000E+00
        -11   -1    0    0    0    0  0.00000000000E+00  0.00000000000E+00  0.45593999997E+02  0.45594000000E+02  0.51100000000E-03 0. -1.
         11   -1    0    0    0    0 -0.00000000000E+00 -0.00000000000E+00 -0.45593999997E+02  0.45594000000E+02  0.51100000000E-03 0.  1.
         23    2    1    2    0    0 -0.71054273576E-14  0.22204460493E-15 -0.35527136788E-14  0.91188000000E+02  0.91188000000E+02 0.  0.
    9900012    2    3    3    0    0 -0.35388152999E+02  0.12836610794E+01 -0.10089839807E+02  0.54367163158E+02  0.40000180050E+02 0.  0.
        -12    1    3    3    0    0  0.35388152999E+02 -0.12836610794E+01  0.10089839807E+02  0.36820836842E+02  0.00000000000E+00 0.  1.
         11    1    4    4    0    0 -0.17407795221E+02 -0.10197925372E+01 -0.15521044198E+02  0.23344680862E+02  0.51100000000E-03 0. -1.
        -11    1    4    4    0    0 -0.22351671890E+02  0.12756188052E+01 -0.18538110799E+01  0.22464662370E+02  0.51100000000E-03 0.  1.
        -12    1    4    4    0    0  0.43713141128E+01  0.10278348113E+01  0.72850154705E+01  0.85578199255E+01  0.00000000000E+00 0.  1.
</event>
<event>
 8    1  0.2497772E-006  0.9118800E+02  0.7816164E-02  0.1184000E+00
        -11   -1    0    0    0    0  0.00000000000E+00  0.00000000000E+00  0.45593999997E+02  0.45594000000E+02  0.51100000000E-03 0.  1.
         11   -1    0    0    0    0 -0.00000000000E+00 -0.00000000000E+00 -0.45593999997E+02  0.45594000000E+02  0.51100000000E-03 0. -1.
         23    2    1    2    0    0  0.00000000000E+00 -0.17763568394E-14  0.00000000000E+00  0.91188000000E+02  0.91188000000E+02 0.  0.
    9900012    2    3    3    0    0  0.20821887849E+02 -0.13111197801E+01  0.30339925435E+02  0.54367066768E+02  0.39999960310E+02 0.  0.
         12    1    3    3    0    0 -0.20821887849E+02  0.13111197801E+01 -0.30339925435E+02  0.36820933232E+02  0.00000000000E+00 0. -1.
         11    1    4    4    0    0  0.28949811990E+01  0.75524683713E+01  0.69081156688E+01  0.10636858418E+02  0.51100000000E-03 0. -1.
        -11    1    4    4    0    0 -0.34618957843E+01 -0.22461698633E+01  0.20778634695E+02  0.21184467459E+02  0.51100000000E-03 0.  1.
         12    1    4    4    0    0  0.21388802434E+02 -0.66174182880E+01  0.26531750719E+01  0.22545740891E+02  0.00000000000E+00 0. -1.
</event>
<event>
 8    1  0.2497772E-006  0.9118800E+02  0.7816164E-02  0.1184000E+00
        -11   -1    0    0    0    0  0.00000000000E+00  0.00000000000E+00  0.45593999997E+02  0.45594000000E+02  0.51100000000E-03 0. -1.
         11   -1    0    0    0    0 -0.00000000000E+00 -0.00000000000E+00 -0.45593999997E+02  0.45594000000E+02  0.51100000000E-03 0.  1.
         23    2    1    2    0    0 -0.88817841970E-15  0.00000000000E+00 -0.35527136788E-14  0.91188000000E+02  0.91188000000E+02 0.  0.
    9900012    2    3    3    0    0  0.52002564861E+01  0.22940473873E+02  0.28327927207E+02  0.54367089245E+02  0.40000011551E+02 0.  0.
        -12    1    3    3    0    0 -0.52002564861E+01 -0.22940473873E+02 -0.28327927207E+02  0.36820910755E+02  0.00000000000E+00 0.  1.
         11    1    4    4    0    0  0.68905245097E+01  0.17533860177E+02  0.19908558038E+02  0.27409236840E+02  0.51100000000E-03 0. -1.
        -11    1    4    4    0    0 -0.51309303841E+01  0.13225197691E+02 -0.10260429589E+01  0.14222695420E+02  0.51100000000E-03 0.  1.
        -12    1    4    4    0    0  0.34406623605E+01 -0.78185839958E+01  0.94454121276E+01  0.12735156985E+02  0.00000000000E+00 0.  1.
</event>
<event>
 8    1  0.2497772E-006  0.9118800E+02  0.7816164E-02  0.1184000E+00
        -11   -1    0    0    0    0  0.00000000000E+00  0.00000000000E+00  0.45593999997E+02  0.45594000000E+02  0.51100000000E-03 0. -1.
         11   -1    0    0    0    0 -0.00000000000E+00 -0.00000000000E+00 -0.45593999997E+02  0.45594000000E+02  0.51100000000E-03 0.  1.
         23    2    1    2    0    0  0.00000000000E+00  0.17763568394E-14  0.35527136788E-14  0.91188000000E+02  0.91188000000E+02 0.  0.
    9900012    2    3    3    0    0  0.20862607168E+02  0.47295128141E+01  0.29969374278E+02  0.54367081164E+02  0.39999993130E+02 0.  0.
        -12    1    3    3    0    0 -0.20862607168E+02 -0.47295128141E+01 -0.29969374278E+02  0.36820918836E+02  0.00000000000E+00 0.  1.
         11    1    4    4    0    0  0.76965389220E+01  0.17285985891E+02  0.56582448716E+01  0.19749879870E+02  0.51100000000E-03 0. -1.
        -11    1    4    4    0    0  0.93988646401E+01  0.51710767599E+00  0.16315524100E+02  0.18836198761E+02  0.51100000000E-03 0.  1.
        -12    1    4    4    0    0  0.37672036057E+01 -0.13073580753E+02  0.79956053066E+01  0.15781002532E+02  0.00000000000E+00 0.  1.
</event>
<event>
 8    1  0.2497772E-006  0.9118800E+02  0.7816164E-02  0.1184000E+00
        -11   -1    0    0    0    0  0.00000000000E+00  0.00000000000E+00  0.45593999997E+02  0.45594000000E+02  0.51100000000E-03 0. -1.
         11   -1    0    0    0    0 -0.00000000000E+00 -0.00000000000E+00 -0.45593999997E+02  0.45594000000E+02  0.51100000000E-03 0.  1.
         23    2    1    2    0    0  0.00000000000E+00  0.00000000000E+00  0.00000000000E+00  0.91188000000E+02  0.91188000000E+02 0.  0.
    9900012    2    3    3    0    0  0.33188426025E+02 -0.15303957402E+02  0.44829942045E+01  0.54367082422E+02  0.39999995999E+02 0.  0.
        -12    1    3    3    0    0 -0.33188426025E+02  0.15303957402E+02 -0.44829942045E+01  0.36820917578E+02  0.00000000000E+00 0.  1.
         11    1    4    4    0    0  0.19911047779E+02  0.39834031605E+01  0.58249183101E+01  0.21124559119E+02  0.51100000000E-03 0. -1.
        -11    1    4    4    0    0 -0.29963979060E+01 -0.53968947587E+00 -0.71284783880E+01  0.77514430612E+01  0.51100000000E-03 0.  1.
         12    1    4    4    0    0  0.16273776152E+02 -0.18747671087E+02  0.57865542825E+01  0.25491080242E+02  0.00000000000E+00 0. -1.
</event>
<event>
 8    1  0.2497772E-006  0.9118800E+02  0.7816164E-02  0.1184000E+00
        -11   -1    0    0    0    0  0.00000000000E+00  0.00000000000E+00  0.45593999997E+02  0.45594000000E+02  0.51100000000E-03 0. -1.
         11   -1    0    0    0    0 -0.00000000000E+00 -0.00000000000E+00 -0.45593999997E+02  0.45594000000E+02  0.51100000000E-03 0.  1.
         23    2    1    2    0    0  0.00000000000E+00  0.00000000000E+00  0.00000000000E+00  0.91188000000E+02  0.91188000000E+02 0.  0.
    9900012    2    3    3    0    0 -0.10408256452E+02 -0.11839457122E+02  0.33275773561E+02  0.54367059580E+02  0.39999943924E+02 0.  0.
        -12    1    3    3    0    0  0.10408256452E+02  0.11839457122E+02 -0.33275773561E+02  0.36820940420E+02  0.00000000000E+00 0.  1.
         11    1    4    4    0    0 -0.14614153178E+02 -0.85781761004E+01  0.40104975975E+02  0.43538117512E+02  0.51100000000E-03 0. -1.
        -11    1    4    4    0    0  0.28378779725E+01 -0.88311276937E+00  0.49017910828E+00  0.30122608402E+01  0.51100000000E-03 0.  1.
         12    1    4    4    0    0  0.13680187535E+01 -0.23781682526E+01 -0.73193815219E+01  0.78166812274E+01  0.00000000000E+00 0. -1.
</event>
<event>
 8    1  0.2497772E-006  0.9118800E+02  0.7816164E-02  0.1184000E+00
        -11   -1    0    0    0    0  0.00000000000E+00  0.00000000000E+00  0.45593999997E+02  0.45594000000E+02  0.51100000000E-03 0. -1.
         11   -1    0    0    0    0 -0.00000000000E+00 -0.00000000000E+00 -0.45593999997E+02  0.45594000000E+02  0.51100000000E-03 0.  1.
         23    2    1    2    0    0 -0.17763568394E-14 -0.35527136788E-14 -0.35527136788E-14  0.91188000000E+02  0.91188000000E+02 0.  0.
    9900012    2    3    3    0    0 -0.84022286794E+01  0.29248415575E+02  0.20729530257E+02  0.54367072729E+02  0.39999973899E+02 0.  0.
        -12    1    3    3    0    0  0.84022286794E+01 -0.29248415575E+02 -0.20729530257E+02  0.36820927271E+02  0.00000000000E+00 0.  1.
         11    1    4    4    0    0 -0.21779737005E+02  0.12717317902E+02  0.67504231385E+01  0.26108529859E+02  0.51100000000E-03 0. -1.
        -11    1    4    4    0    0  0.89172235620E+01  0.15861062397E+02  0.61206462150E+01  0.19197720875E+02  0.51100000000E-03 0.  1.
         12    1    4    4    0    0  0.44602847634E+01  0.67003527594E+00  0.78584609038E+01  0.90608219946E+01  0.00000000000E+00 0. -1.
</event>
<event>
 8    1  0.2497772E-006  0.9118800E+02  0.7816164E-02  0.1184000E+00
        -11   -1    0    0    0    0  0.00000000000E+00  0.00000000000E+00  0.45593999997E+02  0.45594000000E+02  0.51100000000E-03 0. -1.
         11   -1    0    0    0    0 -0.00000000000E+00 -0.00000000000E+00 -0.45593999997E+02  0.45594000000E+02  0.51100000000E-03 0.  1.
         23    2    1    2    0    0  0.00000000000E+00  0.00000000000E+00  0.35527136788E-14  0.91188000000E+02  0.91188000000E+02 0.  0.
    9900012    2    3    3    0    0 -0.91187776553E+01 -0.29353332644E+02  0.20273471589E+02  0.54367029161E+02  0.39999874579E+02 0.  0.
        -12    1    3    3    0    0  0.91187776553E+01  0.29353332644E+02 -0.20273471589E+02  0.36820970839E+02  0.00000000000E+00 0.  1.
         11    1    4    4    0    0  0.35183208980E+01 -0.24507717452E+02  0.20013142619E+02  0.31836027930E+02  0.51100000000E-03 0. -1.
        -11    1    4    4    0    0 -0.86947748201E+01  0.54617411266E+01 -0.35375606166E+01  0.10860205370E+02  0.51100000000E-03 0.  1.
         12    1    4    4    0    0 -0.39423237332E+01 -0.10307356319E+02  0.37978895865E+01  0.11670795860E+02  0.00000000000E+00 0. -1.
</event>
<event>
 8    1  0.2497772E-006  0.9118800E+02  0.7816164E-02  0.1184000E+00
        -11   -1    0    0    0    0  0.00000000000E+00  0.00000000000E+00  0.45593999997E+02  0.45594000000E+02  0.51100000000E-03 0.  1.
         11   -1    0    0    0    0 -0.00000000000E+00 -0.00000000000E+00 -0.45593999997E+02  0.45594000000E+02  0.51100000000E-03 0. -1.
         23    2    1    2    0    0 -0.88817841970E-15  0.00000000000E+00  0.17763568394E-14  0.91188000000E+02  0.91188000000E+02 0.  0.
    9900012    2    3    3    0    0 -0.73964631858E+01  0.33859941487E+02  0.12432867226E+02  0.54367088922E+02  0.40000010815E+02 0.  0.
        -12    1    3    3    0    0  0.73964631858E+01 -0.33859941487E+02 -0.12432867226E+02  0.36820911078E+02  0.00000000000E+00 0.  1.
         11    1    4    4    0    0  0.13395295540E+02  0.22456186099E+02  0.74241389429E+00  0.26158467375E+02  0.51100000000E-03 0. -1.
        -11    1    4    4    0    0 -0.27714764154E+01  0.30466937024E+01 -0.14785331253E+01  0.43760123973E+01  0.51100000000E-03 0.  1.
        -12    1    4    4    0    0 -0.18020282311E+02  0.83570616854E+01  0.13168986457E+02  0.23832609150E+02  0.00000000000E+00 0.  1.
</event>
<event>
 8    1  0.2497772E-006  0.9118800E+02  0.7816164E-02  0.1184000E+00
        -11   -1    0    0    0    0  0.00000000000E+00  0.00000000000E+00  0.45593999997E+02  0.45594000000E+02  0.51100000000E-03 0. -1.
         11   -1    0    0    0    0 -0.00000000000E+00 -0.00000000000E+00 -0.45593999997E+02  0.45594000000E+02  0.51100000000E-03 0.  1.
         23    2    1    2    0    0  0.00000000000E+00  0.26645352591E-14  0.17763568394E-14  0.91188000000E+02  0.91188000000E+02 0.  0.
    9900012    2    3    3    0    0  0.35521116230E+02 -0.56184161523E+01  0.79036001885E+01  0.54367038657E+02  0.39999896226E+02 0.  0.
         12    1    3    3    0    0 -0.35521116230E+02  0.56184161523E+01 -0.79036001885E+01  0.36820961343E+02  0.00000000000E+00 0. -1.
         11    1    4    4    0    0  0.16329033590E+02  0.44365324144E+01 -0.37607024176E+01  0.17333869758E+02  0.51100000000E-03 0.  1.
        -11    1    4    4    0    0  0.40348381730E+01 -0.17314691511E+00  0.17547908854E+02  0.18006637786E+02  0.51100000000E-03 0. -1.
         12    1    4    4    0    0  0.15157244467E+02 -0.98818016516E+01 -0.58836062481E+01  0.19026531113E+02  0.00000000000E+00 0. -1.
</event>
<event>
 8    1  0.2497772E-006  0.9118800E+02  0.7816164E-02  0.1184000E+00
        -11   -1    0    0    0    0  0.00000000000E+00  0.00000000000E+00  0.45593999997E+02  0.45594000000E+02  0.51100000000E-03 0. -1.
         11   -1    0    0    0    0 -0.00000000000E+00 -0.00000000000E+00 -0.45593999997E+02  0.45594000000E+02  0.51100000000E-03 0.  1.
         23    2    1    2    0    0  0.88817841970E-15  0.00000000000E+00  0.00000000000E+00  0.91188000000E+02  0.91188000000E+02 0.  0.
    9900012    2    3    3    0    0 -0.63249986843E+01 -0.15004962831E+02  0.33024864631E+02  0.54366862025E+02  0.39999493554E+02 0.  0.
        -12    1    3    3    0    0  0.63249986843E+01  0.15004962831E+02 -0.33024864631E+02  0.36821137975E+02  0.00000000000E+00 0.  1.
         11    1    4    4    0    0 -0.46495704039E+01 -0.25204764025E+02  0.27574472995E+02  0.37646383567E+02  0.51100000000E-03 0. -1.
        -11    1    4    4    0    0  0.32239657553E+01  0.26042747633E+00  0.45773890254E+01  0.56048432817E+01  0.51100000000E-03 0.  1.
        -12    1    4    4    0    0 -0.48993940357E+01  0.99393737169E+01  0.87300261057E+00  0.11115635176E+02  0.00000000000E+00 0.  1.
</event>
<event>
 8    1  0.2497772E-006  0.9118800E+02  0.7816164E-02  0.1184000E+00
        -11   -1    0    0    0    0  0.00000000000E+00  0.00000000000E+00  0.45593999997E+02  0.45594000000E+02  0.51100000000E-03 0.  1.
         11   -1    0    0    0    0 -0.00000000000E+00 -0.00000000000E+00 -0.45593999997E+02  0.45594000000E+02  0.51100000000E-03 0. -1.
         23    2    1    2    0    0  0.00000000000E+00  0.17763568394E-14  0.35527136788E-14  0.91188000000E+02  0.91188000000E+02 0.  0.
    9900012    2    3    3    0    0  0.28798240565E+02 -0.14395438037E+02 -0.17866499060E+02  0.54367094463E+02  0.40000023448E+02 0.  0.
        -12    1    3    3    0    0 -0.28798240565E+02  0.14395438037E+02  0.17866499060E+02  0.36820905537E+02  0.00000000000E+00 0.  1.
         11    1    4    4    0    0  0.15277003134E+02  0.45352985084E+01 -0.77841990958E+01  0.17735543779E+02  0.51100000000E-03 0. -1.
        -11    1    4    4    0    0 -0.27862432071E+01 -0.60675402535E+01 -0.13985881284E+02  0.15497840865E+02  0.51100000000E-03 0.  1.
         12    1    4    4    0    0  0.16307480638E+02 -0.12863196292E+02  0.39035813197E+01  0.21133709819E+02  0.00000000000E+00 0. -1.
</event>
<event>
 8    1  0.2497772E-006  0.9118800E+02  0.7816164E-02  0.1184000E+00
        -11   -1    0    0    0    0  0.00000000000E+00  0.00000000000E+00  0.45593999997E+02  0.45594000000E+02  0.51100000000E-03 0. -1.
         11   -1    0    0    0    0 -0.00000000000E+00 -0.00000000000E+00 -0.45593999997E+02  0.45594000000E+02  0.51100000000E-03 0.  1.
         23    2    1    2    0    0 -0.17763568394E-14  0.00000000000E+00  0.17763568394E-14  0.91188000000E+02  0.91188000000E+02 0.  0.
    9900012    2    3    3    0    0  0.13537314660E+02  0.32846939524E+02  0.96746674031E+01  0.54367088637E+02  0.40000010165E+02 0.  0.
         12    1    3    3    0    0 -0.13537314660E+02 -0.32846939524E+02 -0.96746674031E+01  0.36820911363E+02  0.00000000000E+00 0. -1.
         11    1    4    4    0    0  0.54433819126E+01  0.23704404783E+01  0.18884303993E+01  0.62302138279E+01  0.51100000000E-03 0. -1.
        -11    1    4    4    0    0  0.17197506874E+02  0.32641165920E+02  0.10561926730E+02  0.38376480451E+02  0.51100000000E-03 0.  1.
         12    1    4    4    0    0 -0.91035741271E+01 -0.21646668740E+01 -0.27756897265E+01  0.97603943578E+01  0.00000000000E+00 0. -1.
</event>
<event>
 8    1  0.2497772E-006  0.9118800E+02  0.7816164E-02  0.1184000E+00
        -11   -1    0    0    0    0  0.00000000000E+00  0.00000000000E+00  0.45593999997E+02  0.45594000000E+02  0.51100000000E-03 0. -1.
         11   -1    0    0    0    0 -0.00000000000E+00 -0.00000000000E+00 -0.45593999997E+02  0.45594000000E+02  0.51100000000E-03 0.  1.
         23    2    1    2    0    0  0.00000000000E+00  0.13322676296E-14  0.00000000000E+00  0.91188000000E+02  0.91188000000E+02 0.  0.
    9900012    2    3    3    0    0  0.15929205339E+02  0.36259192374E+01  0.32998392448E+02  0.54367071478E+02  0.39999971049E+02 0.  0.
        -12    1    3    3    0    0 -0.15929205339E+02 -0.36259192374E+01 -0.32998392448E+02  0.36820928522E+02  0.00000000000E+00 0.  1.
         11    1    4    4    0    0  0.11629991091E+01  0.12634540886E+02  0.18481786706E+02  0.22417864092E+02  0.51100000000E-03 0.  1.
        -11    1    4    4    0    0  0.13021142741E+02  0.31925321067E+00  0.17667768345E+02  0.21949991331E+02  0.51100000000E-03 0. -1.
        -12    1    4    4    0    0  0.17450634883E+01 -0.93278748597E+01 -0.31511626023E+01  0.99992160553E+01  0.00000000000E+00 0.  1.
</event>
<event>
 8    1  0.2497772E-006  0.9118800E+02  0.7816164E-02  0.1184000E+00
        -11   -1    0    0    0    0  0.00000000000E+00  0.00000000000E+00  0.45593999997E+02  0.45594000000E+02  0.51100000000E-03 0.  1.
         11   -1    0    0    0    0 -0.00000000000E+00 -0.00000000000E+00 -0.45593999997E+02  0.45594000000E+02  0.51100000000E-03 0. -1.
         23    2    1    2    0    0  0.00000000000E+00  0.00000000000E+00 -0.17763568394E-14  0.91188000000E+02  0.91188000000E+02 0.  0.
    9900012    2    3    3    0    0  0.12135694114E+02  0.31436302021E+02  0.14841350097E+02  0.54367057195E+02  0.39999938487E+02 0.  0.
        -12    1    3    3    0    0 -0.12135694114E+02 -0.31436302021E+02 -0.14841350097E+02  0.36820942805E+02  0.00000000000E+00 0.  1.
         11    1    4    4    0    0  0.63631775699E+01  0.11324175574E+02 -0.80942991674E+01  0.15305053430E+02  0.51100000000E-03 0. -1.
        -11    1    4    4    0    0  0.10789649465E+02  0.20762726554E+02  0.24388864371E+02  0.33798284795E+02  0.51100000000E-03 0.  1.
        -12    1    4    4    0    0 -0.50171329210E+01 -0.65060010730E+00 -0.14532151062E+01  0.52637189697E+01  0.00000000000E+00 0.  1.
</event>
<event>
 8    1  0.2497772E-006  0.9118800E+02  0.7816164E-02  0.1184000E+00
        -11   -1    0    0    0    0  0.00000000000E+00  0.00000000000E+00  0.45593999997E+02  0.45594000000E+02  0.51100000000E-03 0. -1.
         11   -1    0    0    0    0 -0.00000000000E+00 -0.00000000000E+00 -0.45593999997E+02  0.45594000000E+02  0.51100000000E-03 0.  1.
         23    2    1    2    0    0 -0.71054273576E-14 -0.17763568394E-14  0.35527136788E-14  0.91188000000E+02  0.91188000000E+02 0.  0.
    9900012    2    3    3    0    0 -0.27854958566E+02 -0.12107081058E+02  0.20816150589E+02  0.54366915635E+02  0.39999615772E+02 0.  0.
        -12    1    3    3    0    0  0.27854958566E+02  0.12107081058E+02 -0.20816150589E+02  0.36821084365E+02  0.00000000000E+00 0.  1.
         11    1    4    4    0    0 -0.91632972395E+01 -0.10480623506E+02  0.20444459389E+01  0.14070865106E+02  0.51100000000E-03 0. -1.
        -11    1    4    4    0    0  0.49620728810E+01  0.69605900976E+01 -0.55557381585E+00  0.85662503063E+01  0.51100000000E-03 0.  1.
         12    1    4    4    0    0 -0.23653734207E+02 -0.85870476492E+01  0.19327278466E+02  0.31729800223E+02  0.00000000000E+00 0. -1.
</event>
<event>
 8    1  0.2497772E-006  0.9118800E+02  0.7816164E-02  0.1184000E+00
        -11   -1    0    0    0    0  0.00000000000E+00  0.00000000000E+00  0.45593999997E+02  0.45594000000E+02  0.51100000000E-03 0.  1.
         11   -1    0    0    0    0 -0.00000000000E+00 -0.00000000000E+00 -0.45593999997E+02  0.45594000000E+02  0.51100000000E-03 0. -1.
         23    2    1    2    0    0 -0.44408920985E-15  0.00000000000E+00  0.00000000000E+00  0.91188000000E+02  0.91188000000E+02 0.  0.
    9900012    2    3    3    0    0  0.28121360891E+01 -0.40796125991E+01 -0.36486002303E+02  0.54367085938E+02  0.40000004013E+02 0.  0.
        -12    1    3    3    0    0 -0.28121360891E+01  0.40796125991E+01  0.36486002303E+02  0.36820914062E+02  0.00000000000E+00 0.  1.
         11    1    4    4    0    0  0.85455394265E+01 -0.15222413970E+02 -0.29626981326E+02  0.34387587207E+02  0.51100000000E-03 0. -1.
        -11    1    4    4    0    0 -0.10408800957E+00 -0.15576180476E+01 -0.58456520551E+01  0.60505087808E+01  0.51100000000E-03 0.  1.
        -12    1    4    4    0    0 -0.56293153278E+01  0.12700419419E+02 -0.10133689217E+01  0.13928989950E+02  0.00000000000E+00 0.  1.
</event>
<event>
 8    1  0.2497772E-006  0.9118800E+02  0.7816164E-02  0.1184000E+00
        -11   -1    0    0    0    0  0.00000000000E+00  0.00000000000E+00  0.45593999997E+02  0.45594000000E+02  0.51100000000E-03 0.  1.
         11   -1    0    0    0    0 -0.00000000000E+00 -0.00000000000E+00 -0.45593999997E+02  0.45594000000E+02  0.51100000000E-03 0. -1.
         23    2    1    2    0    0 -0.35527136788E-14  0.71054273576E-14  0.00000000000E+00  0.91188000000E+02  0.91188000000E+02 0.  0.
    9900012    2    3    3    0    0  0.16428139552E+02 -0.17298524777E+02  0.28047503937E+02  0.54367011343E+02  0.39999833958E+02 0.  0.
         12    1    3    3    0    0 -0.16428139552E+02  0.17298524777E+02 -0.28047503937E+02  0.36820988657E+02  0.00000000000E+00 0. -1.
         11    1    4    4    0    0 -0.81994310589E+01  0.22867430556E+01  0.74578537714E+01  0.11317219032E+02  0.51100000000E-03 0. -1.
        -11    1    4    4    0    0 -0.27611775965E+01  0.15806776342E+01  0.20263948845E+01  0.37721240690E+01  0.51100000000E-03 0.  1.
         12    1    4    4    0    0  0.27388748207E+02 -0.21165945467E+02  0.18563255281E+02  0.39277668242E+02  0.00000000000E+00 0. -1.
</event>
<event>
 8    1  0.2497772E-006  0.9118800E+02  0.7816164E-02  0.1184000E+00
        -11   -1    0    0    0    0  0.00000000000E+00  0.00000000000E+00  0.45593999997E+02  0.45594000000E+02  0.51100000000E-03 0.  1.
         11   -1    0    0    0    0 -0.00000000000E+00 -0.00000000000E+00 -0.45593999997E+02  0.45594000000E+02  0.51100000000E-03 0. -1.
         23    2    1    2    0    0  0.00000000000E+00  0.00000000000E+00  0.00000000000E+00  0.91188000000E+02  0.91188000000E+02 0.  0.
    9900012    2    3    3    0    0 -0.33314757310E+02 -0.50699966475E+01  0.14839207708E+02  0.54367081951E+02  0.39999994923E+02 0.  0.
         12    1    3    3    0    0  0.33314757310E+02  0.50699966475E+01 -0.14839207708E+02  0.36820918049E+02  0.00000000000E+00 0. -1.
         11    1    4    4    0    0 -0.12059298112E+02  0.95064559629E+01  0.49184845268E+01  0.16124232268E+02  0.51100000000E-03 0. -1.
        -11    1    4    4    0    0 -0.83097670416E+01 -0.19425237519E+02 -0.16856070707E+00  0.21128665219E+02  0.51100000000E-03 0.  1.
        -12    1    4    4    0    0 -0.12945692157E+02  0.48487849086E+01  0.10089283888E+02  0.17114184464E+02  0.00000000000E+00 0.  1.
</event>
<event>
 8    1  0.2497772E-006  0.9118800E+02  0.7816164E-02  0.1184000E+00
        -11   -1    0    0    0    0  0.00000000000E+00  0.00000000000E+00  0.45593999997E+02  0.45594000000E+02  0.51100000000E-03 0. -1.
         11   -1    0    0    0    0 -0.00000000000E+00 -0.00000000000E+00 -0.45593999997E+02  0.45594000000E+02  0.51100000000E-03 0.  1.
         23    2    1    2    0    0  0.35527136788E-14  0.17763568394E-14 -0.35527136788E-14  0.91188000000E+02  0.91188000000E+02 0.  0.
    9900012    2    3    3    0    0 -0.31671695072E+02  0.24135895489E+01 -0.18624122055E+02  0.54367087389E+02  0.40000007320E+02 0.  0.
         12    1    3    3    0    0  0.31671695072E+02 -0.24135895489E+01  0.18624122055E+02  0.36820912611E+02  0.00000000000E+00 0. -1.
         11    1    4    4    0    0 -0.98694009034E+01  0.89260809499E+01 -0.16521637797E+01  0.13409311717E+02  0.51100000000E-03 0. -1.
        -11    1    4    4    0    0  0.42280630157E+01  0.61609904205E+01 -0.14982689615E+00  0.74737385682E+01  0.51100000000E-03 0.  1.
        -12    1    4    4    0    0 -0.26030357184E+02 -0.12673481822E+02 -0.16822131379E+02  0.33484037103E+02  0.00000000000E+00 0.  1.
</event>
<event>
 8    1  0.2497772E-006  0.9118800E+02  0.7816164E-02  0.1184000E+00
        -11   -1    0    0    0    0  0.00000000000E+00  0.00000000000E+00  0.45593999997E+02  0.45594000000E+02  0.51100000000E-03 0. -1.
         11   -1    0    0    0    0 -0.00000000000E+00 -0.00000000000E+00 -0.45593999997E+02  0.45594000000E+02  0.51100000000E-03 0.  1.
         23    2    1    2    0    0  0.00000000000E+00  0.00000000000E+00  0.00000000000E+00  0.91188000000E+02  0.91188000000E+02 0.  0.
    9900012    2    3    3    0    0  0.11717775037E+02 -0.33674883679E+02 -0.91911404541E+01  0.54367067020E+02  0.39999960887E+02 0.  0.
         12    1    3    3    0    0 -0.11717775037E+02  0.33674883679E+02  0.91911404541E+01  0.36820932980E+02  0.00000000000E+00 0. -1.
         11    1    4    4    0    0  0.70341545978E+01  0.35185196643E+01 -0.11209887798E+02  0.13693826939E+02  0.51100000000E-03 0.  1.
        -11    1    4    4    0    0  0.10183005061E+02 -0.18353904987E+02  0.14429765716E+01  0.21039049455E+02  0.51100000000E-03 0. -1.
        -12    1    4    4    0    0 -0.54993846220E+01 -0.18839498357E+02  0.57577077216E+00  0.19634190626E+02  0.00000000000E+00 0.  1.
</event>
<event>
 8    1  0.2497772E-006  0.9118800E+02  0.7816164E-02  0.1184000E+00
        -11   -1    0    0    0    0  0.00000000000E+00  0.00000000000E+00  0.45593999997E+02  0.45594000000E+02  0.51100000000E-03 0.  1.
         11   -1    0    0    0    0 -0.00000000000E+00 -0.00000000000E+00 -0.45593999997E+02  0.45594000000E+02  0.51100000000E-03 0. -1.
         23    2    1    2    0    0 -0.17763568394E-14  0.00000000000E+00  0.00000000000E+00  0.91188000000E+02  0.91188000000E+02 0.  0.
    9900012    2    3    3    0    0 -0.13896285989E+02 -0.32242148915E+02 -0.11095803124E+02  0.54367085047E+02  0.40000001982E+02 0.  0.
         12    1    3    3    0    0  0.13896285989E+02  0.32242148915E+02  0.11095803124E+02  0.36820914953E+02  0.00000000000E+00 0. -1.
         11    1    4    4    0    0 -0.20925468438E+01 -0.20221430240E+02  0.84954094712E+01  0.22033088199E+02  0.51100000000E-03 0. -1.
        -11    1    4    4    0    0  0.29927243740E+01  0.24100550006E+01 -0.73995817949E+01  0.83377799974E+01  0.51100000000E-03 0.  1.
        -12    1    4    4    0    0 -0.14796463520E+02 -0.14430773676E+02 -0.12191630801E+02  0.23996216851E+02  0.00000000000E+00 0.  1.
</event>
<event>
 8    1  0.2497772E-006  0.9118800E+02  0.7816164E-02  0.1184000E+00
        -11   -1    0    0    0    0  0.00000000000E+00  0.00000000000E+00  0.45593999997E+02  0.45594000000E+02  0.51100000000E-03 0.  1.
         11   -1    0    0    0    0 -0.00000000000E+00 -0.00000000000E+00 -0.45593999997E+02  0.45594000000E+02  0.51100000000E-03 0. -1.
         23    2    1    2    0    0  0.71054273576E-14 -0.17763568394E-14  0.00000000000E+00  0.91188000000E+02  0.91188000000E+02 0.  0.
    9900012    2    3    3    0    0  0.32725789923E+02 -0.15606433654E+02  0.64218476754E+01  0.54367106135E+02  0.40000050055E+02 0.  0.
         12    1    3    3    0    0 -0.32725789923E+02  0.15606433654E+02 -0.64218476754E+01  0.36820893865E+02  0.00000000000E+00 0. -1.
         11    1    4    4    0    0  0.41158534664E+01 -0.52521136641E+01 -0.80354284756E+01  0.10444762264E+02  0.51100000000E-03 0. -1.
        -11    1    4    4    0    0  0.99936835155E+01 -0.18340332413E+02  0.10108365332E+02  0.23203890906E+02  0.51100000000E-03 0.  1.
        -12    1    4    4    0    0  0.18616252941E+02  0.79860124225E+01  0.43489108187E+01  0.20718452965E+02  0.00000000000E+00 0.  1.
</event>
<event>
 8    1  0.2497772E-006  0.9118800E+02  0.7816164E-02  0.1184000E+00
        -11   -1    0    0    0    0  0.00000000000E+00  0.00000000000E+00  0.45593999997E+02  0.45594000000E+02  0.51100000000E-03 0.  1.
         11   -1    0    0    0    0 -0.00000000000E+00 -0.00000000000E+00 -0.45593999997E+02  0.45594000000E+02  0.51100000000E-03 0. -1.
         23    2    1    2    0    0 -0.17763568394E-14  0.00000000000E+00  0.00000000000E+00  0.91188000000E+02  0.91188000000E+02 0.  0.
    9900012    2    3    3    0    0 -0.39815799518E+01  0.36095659486E+02  0.60852743534E+01  0.54367079634E+02  0.39999989643E+02 0.  0.
         12    1    3    3    0    0  0.39815799518E+01 -0.36095659486E+02 -0.60852743534E+01  0.36820920366E+02  0.00000000000E+00 0. -1.
         11    1    4    4    0    0 -0.26018632106E+01 -0.60897791856E+01 -0.46537964486E+01  0.80940054572E+01  0.51100000000E-03 0. -1.
        -11    1    4    4    0    0  0.57571057403E+01  0.30293831851E+02  0.48902488179E+01  0.31221387677E+02  0.51100000000E-03 0.  1.
        -12    1    4    4    0    0 -0.71368224814E+01  0.11891606820E+02  0.58488219841E+01  0.15051686500E+02  0.00000000000E+00 0.  1.
</event>
