<event>
 8    1  0.1254059E-006  0.9118800E+02  0.7816164E-02  0.1184000E+00
        -11   -1    0    0    0    0  0.00000000000E+00  0.00000000000E+00  0.45593999997E+02  0.45594000000E+02  0.51100000000E-03 0.  1.
         11   -1    0    0    0    0 -0.00000000000E+00 -0.00000000000E+00 -0.45593999997E+02  0.45594000000E+02  0.51100000000E-03 0. -1.
         23    2    1    2    0    0  0.35527136788E-14  0.00000000000E+00 -0.44408920985E-15  0.91188000000E+02  0.91188000000E+02 0.  0.
    9900012    2    3    3    0    0  0.27212249297E+02 -0.24804473686E+02 -0.10538455853E+00  0.54367088380E+02  0.40000009580E+02 0.  0.
        -12    1    3    3    0    0 -0.27212249297E+02  0.24804473686E+02  0.10538455853E+00  0.36820911620E+02  0.00000000000E+00 0.  1.
         11    1    4    4    0    0  0.14912099805E+02 -0.85128244683E+01 -0.63954420555E+01  0.18323225163E+02  0.51100000000E-03 0. -1.
        -11    1    4    4    0    0  0.22732026257E+00 -0.19103462535E+02 -0.44796296953E+01  0.19622972195E+02  0.51100000000E-03 0.  1.
        -12    1    4    4    0    0  0.12072829229E+02  0.28118133171E+01  0.10769687192E+02  0.16420891021E+02  0.00000000000E+00 0.  1.
</event>
<event>
 8    1  0.1254059E-006  0.9118800E+02  0.7816164E-02  0.1184000E+00
        -11   -1    0    0    0    0  0.00000000000E+00  0.00000000000E+00  0.45593999997E+02  0.45594000000E+02  0.51100000000E-03 0.  1.
         11   -1    0    0    0    0 -0.00000000000E+00 -0.00000000000E+00 -0.45593999997E+02  0.45594000000E+02  0.51100000000E-03 0. -1.
         23    2    1    2    0    0  0.00000000000E+00  0.35527136788E-14  0.00000000000E+00  0.91188000000E+02  0.91188000000E+02 0.  0.
    9900012    2    3    3    0    0 -0.21158242641E+02 -0.28913483071E+02 -0.84922359223E+01  0.54367098246E+02  0.40000032072E+02 0.  0.
        -12    1    3    3    0    0  0.21158242641E+02  0.28913483071E+02  0.84922359223E+01  0.36820901754E+02  0.00000000000E+00 0.  1.
         11    1    4    4    0    0 -0.19692729723E+02 -0.13379036636E+02 -0.15770440637E+02  0.28557118611E+02  0.51100000000E-03 0. -1.
        -11    1    4    4    0    0 -0.19315963335E+01 -0.43846492939E+01 -0.65027458734E+01  0.80772469308E+01  0.51100000000E-03 0.  1.
        -12    1    4    4    0    0  0.46608341507E+00 -0.11149797141E+02  0.13780950588E+02  0.17732732704E+02  0.00000000000E+00 0.  1.
</event>
<event>
 8    1  0.1254059E-006  0.9118800E+02  0.7816164E-02  0.1184000E+00
        -11   -1    0    0    0    0  0.00000000000E+00  0.00000000000E+00  0.45593999997E+02  0.45594000000E+02  0.51100000000E-03 0. -1.
         11   -1    0    0    0    0 -0.00000000000E+00 -0.00000000000E+00 -0.45593999997E+02  0.45594000000E+02  0.51100000000E-03 0.  1.
         23    2    1    2    0    0 -0.71054273576E-14 -0.17763568394E-14 -0.13322676296E-14  0.91188000000E+02  0.91188000000E+02 0.  0.
    9900012    2    3    3    0    0 -0.35739735202E+02 -0.88047591070E+01 -0.95753844883E+00  0.54367226853E+02  0.40000325255E+02 0.  0.
        -12    1    3    3    0    0  0.35739735202E+02  0.88047591070E+01  0.95753844883E+00  0.36820773147E+02  0.00000000000E+00 0.  1.
         11    1    4    4    0    0 -0.14823215268E+02  0.12763657417E+01  0.31927515232E+01  0.15216782937E+02  0.51100000000E-03 0. -1.
        -11    1    4    4    0    0 -0.23221728107E+02 -0.67445616571E+01 -0.14388457302E+02  0.28138327456E+02  0.51100000000E-03 0.  1.
         12    1    4    4    0    0  0.23052081731E+01 -0.33365631915E+01  0.10238167330E+02  0.11012116460E+02  0.00000000000E+00 0. -1.
</event>
<event>
 8    1  0.1254059E-006  0.9118800E+02  0.7816164E-02  0.1184000E+00
        -11   -1    0    0    0    0  0.00000000000E+00  0.00000000000E+00  0.45593999997E+02  0.45594000000E+02  0.51100000000E-03 0.  1.
         11   -1    0    0    0    0 -0.00000000000E+00 -0.00000000000E+00 -0.45593999997E+02  0.45594000000E+02  0.51100000000E-03 0. -1.
         23    2    1    2    0    0  0.17763568394E-14  0.17763568394E-14 -0.35527136788E-14  0.91188000000E+02  0.91188000000E+02 0.  0.
    9900012    2    3    3    0    0 -0.12583103430E+02 -0.14045601016E+02 -0.31625381048E+02  0.54367107476E+02  0.40000053113E+02 0.  0.
        -12    1    3    3    0    0  0.12583103430E+02  0.14045601016E+02  0.31625381048E+02  0.36820892524E+02  0.00000000000E+00 0.  1.
         11    1    4    4    0    0 -0.40381192825E+01 -0.86216632444E+00 -0.19636372302E+02  0.20065813105E+02  0.51100000000E-03 0. -1.
        -11    1    4    4    0    0 -0.13878231624E+02  0.31770101882E+01 -0.89792613309E+01  0.16832285675E+02  0.51100000000E-03 0.  1.
         12    1    4    4    0    0  0.53332474762E+01 -0.16360444880E+02 -0.30097474147E+01  0.17469008696E+02  0.00000000000E+00 0. -1.
</event>
<event>
 8    1  0.1254059E-006  0.9118800E+02  0.7816164E-02  0.1184000E+00
        -11   -1    0    0    0    0  0.00000000000E+00  0.00000000000E+00  0.45593999997E+02  0.45594000000E+02  0.51100000000E-03 0.  1.
         11   -1    0    0    0    0 -0.00000000000E+00 -0.00000000000E+00 -0.45593999997E+02  0.45594000000E+02  0.51100000000E-03 0. -1.
         23    2    1    2    0    0  0.00000000000E+00 -0.17763568394E-14 -0.35527136788E-14  0.91188000000E+02  0.91188000000E+02 0.  0.
    9900012    2    3    3    0    0 -0.27157698881E+02  0.13923452111E+02  0.20600431204E+02  0.54367069906E+02  0.39999967464E+02 0.  0.
         12    1    3    3    0    0  0.27157698881E+02 -0.13923452111E+02 -0.20600431204E+02  0.36820930094E+02  0.00000000000E+00 0. -1.
         11    1    4    4    0    0 -0.59136693687E+01  0.52626878177E+01  0.22349840278E+02  0.23710392852E+02  0.51100000000E-03 0. -1.
        -11    1    4    4    0    0 -0.17784237457E+02  0.66969742464E+01  0.76226719538E+01  0.20475197043E+02  0.51100000000E-03 0.  1.
        -12    1    4    4    0    0 -0.34597920553E+01  0.19637900474E+01 -0.93720810275E+01  0.10181480010E+02  0.00000000000E+00 0.  1.
</event>
<event>
 8    1  0.1254059E-006  0.9118800E+02  0.7816164E-02  0.1184000E+00
        -11   -1    0    0    0    0  0.00000000000E+00  0.00000000000E+00  0.45593999997E+02  0.45594000000E+02  0.51100000000E-03 0.  1.
         11   -1    0    0    0    0 -0.00000000000E+00 -0.00000000000E+00 -0.45593999997E+02  0.45594000000E+02  0.51100000000E-03 0. -1.
         23    2    1    2    0    0  0.00000000000E+00  0.88817841970E-15  0.35527136788E-14  0.91188000000E+02  0.91188000000E+02 0.  0.
    9900012    2    3    3    0    0 -0.23250506039E+02 -0.55399143085E+01 -0.28008950863E+02  0.54367109054E+02  0.40000056709E+02 0.  0.
        -12    1    3    3    0    0  0.23250506039E+02  0.55399143085E+01  0.28008950863E+02  0.36820890946E+02  0.00000000000E+00 0.  1.
         11    1    4    4    0    0 -0.15850416996E+02 -0.13717898173E+02 -0.63855241234E+01  0.21913269218E+02  0.51100000000E-03 0. -1.
        -11    1    4    4    0    0 -0.41375841052E+01  0.95597499072E+01  0.12621606731E+00  0.10417502161E+02  0.51100000000E-03 0.  1.
         12    1    4    4    0    0 -0.32625049378E+01 -0.13817660428E+01 -0.21749642807E+02  0.22036337675E+02  0.00000000000E+00 0. -1.
</event>
<event>
 8    1  0.1254059E-006  0.9118800E+02  0.7816164E-02  0.1184000E+00
        -11   -1    0    0    0    0  0.00000000000E+00  0.00000000000E+00  0.45593999997E+02  0.45594000000E+02  0.51100000000E-03 0.  1.
         11   -1    0    0    0    0 -0.00000000000E+00 -0.00000000000E+00 -0.45593999997E+02  0.45594000000E+02  0.51100000000E-03 0. -1.
         23    2    1    2    0    0  0.35527136788E-14 -0.35527136788E-14  0.17763568394E-14  0.91188000000E+02  0.91188000000E+02 0.  0.
    9900012    2    3    3    0    0 -0.21923929379E+02  0.28478122044E+02 -0.80073931256E+01  0.54367075796E+02  0.39999980891E+02 0.  0.
        -12    1    3    3    0    0  0.21923929379E+02 -0.28478122044E+02  0.80073931256E+01  0.36820924204E+02  0.00000000000E+00 0.  1.
         11    1    4    4    0    0 -0.15954401972E+02  0.36805789660E+01 -0.12183348629E+02  0.20408909522E+02  0.51100000000E-03 0. -1.
        -11    1    4    4    0    0 -0.12567770707E+02  0.11962311690E+02  0.78834237670E+01  0.19057652848E+02  0.51100000000E-03 0.  1.
        -12    1    4    4    0    0  0.65982432995E+01  0.12835231388E+02 -0.37074682639E+01  0.14900513426E+02  0.00000000000E+00 0.  1.
</event>
<event>
 8    1  0.1254059E-006  0.9118800E+02  0.7816164E-02  0.1184000E+00
        -11   -1    0    0    0    0  0.00000000000E+00  0.00000000000E+00  0.45593999997E+02  0.45594000000E+02  0.51100000000E-03 0.  1.
         11   -1    0    0    0    0 -0.00000000000E+00 -0.00000000000E+00 -0.45593999997E+02  0.45594000000E+02  0.51100000000E-03 0. -1.
         23    2    1    2    0    0 -0.88817841970E-15 -0.71054273576E-14 -0.35527136788E-14  0.91188000000E+02  0.91188000000E+02 0.  0.
    9900012    2    3    3    0    0 -0.47962453344E+01 -0.32752693302E+02 -0.16125688831E+02  0.54367072145E+02  0.39999972568E+02 0.  0.
        -12    1    3    3    0    0  0.47962453344E+01  0.32752693302E+02  0.16125688831E+02  0.36820927855E+02  0.00000000000E+00 0.  1.
         11    1    4    4    0    0 -0.65861440408E+01 -0.17303772511E+02 -0.14842187645E+02  0.23729483155E+02  0.51100000000E-03 0. -1.
        -11    1    4    4    0    0 -0.11010109484E+02 -0.13877228571E+02 -0.79041841363E+00  0.17732025975E+02  0.51100000000E-03 0.  1.
         12    1    4    4    0    0  0.12800008190E+02 -0.15716922197E+01 -0.49308277292E+00  0.12905563015E+02  0.00000000000E+00 0. -1.
</event>
<event>
 8    1  0.1254059E-006  0.9118800E+02  0.7816164E-02  0.1184000E+00
        -11   -1    0    0    0    0  0.00000000000E+00  0.00000000000E+00  0.45593999997E+02  0.45594000000E+02  0.51100000000E-03 0.  1.
         11   -1    0    0    0    0 -0.00000000000E+00 -0.00000000000E+00 -0.45593999997E+02  0.45594000000E+02  0.51100000000E-03 0. -1.
         23    2    1    2    0    0 -0.17763568394E-14 -0.17763568394E-14  0.35527136788E-14  0.91188000000E+02  0.91188000000E+02 0.  0.
    9900012    2    3    3    0    0  0.15733930993E+02  0.14532477389E+02 -0.29950496765E+02  0.54367058403E+02  0.39999941242E+02 0.  0.
        -12    1    3    3    0    0 -0.15733930993E+02 -0.14532477389E+02  0.29950496765E+02  0.36820941597E+02  0.00000000000E+00 0.  1.
         11    1    4    4    0    0  0.21644611517E+01  0.81477148997E+01 -0.26005011502E+02  0.27337351255E+02  0.51100000000E-03 0. -1.
        -11    1    4    4    0    0 -0.39877102804E+01  0.60186471090E+00 -0.72074959257E+01  0.82590600065E+01  0.51100000000E-03 0.  1.
         12    1    4    4    0    0  0.17557180122E+02  0.57828977782E+01  0.32620106626E+01  0.18770647142E+02  0.00000000000E+00 0. -1.
</event>
<event>
 8    1  0.1254059E-006  0.9118800E+02  0.7816164E-02  0.1184000E+00
        -11   -1    0    0    0    0  0.00000000000E+00  0.00000000000E+00  0.45593999997E+02  0.45594000000E+02  0.51100000000E-03 0. -1.
         11   -1    0    0    0    0 -0.00000000000E+00 -0.00000000000E+00 -0.45593999997E+02  0.45594000000E+02  0.51100000000E-03 0.  1.
         23    2    1    2    0    0  0.00000000000E+00  0.00000000000E+00  0.00000000000E+00  0.91188000000E+02  0.91188000000E+02 0.  0.
    9900012    2    3    3    0    0 -0.17896793956E+02  0.18160537313E+02  0.26564627075E+02  0.54367085277E+02  0.40000002507E+02 0.  0.
        -12    1    3    3    0    0  0.17896793956E+02 -0.18160537313E+02 -0.26564627075E+02  0.36820914723E+02  0.00000000000E+00 0.  1.
         11    1    4    4    0    0 -0.16462448462E+01  0.12049529739E+01  0.12247523540E+02  0.12416274276E+02  0.51100000000E-03 0. -1.
        -11    1    4    4    0    0 -0.13325182979E+02  0.10748688452E+02  0.24368151632E+02  0.29780893524E+02  0.51100000000E-03 0.  1.
        -12    1    4    4    0    0 -0.29253661307E+01  0.62068958869E+01 -0.10051048097E+02  0.12169917477E+02  0.00000000000E+00 0.  1.
</event>
<event>
 8    1  0.1254059E-006  0.9118800E+02  0.7816164E-02  0.1184000E+00
        -11   -1    0    0    0    0  0.00000000000E+00  0.00000000000E+00  0.45593999997E+02  0.45594000000E+02  0.51100000000E-03 0.  1.
         11   -1    0    0    0    0 -0.00000000000E+00 -0.00000000000E+00 -0.45593999997E+02  0.45594000000E+02  0.51100000000E-03 0. -1.
         23    2    1    2    0    0  0.00000000000E+00 -0.35527136788E-14  0.00000000000E+00  0.91188000000E+02  0.91188000000E+02 0.  0.
    9900012    2    3    3    0    0  0.17851718225E+02  0.22885169066E+02 -0.22657559976E+02  0.54367084329E+02  0.40000000345E+02 0.  0.
        -12    1    3    3    0    0 -0.17851718225E+02 -0.22885169066E+02  0.22657559976E+02  0.36820915671E+02  0.00000000000E+00 0.  1.
         11    1    4    4    0    0  0.70985688889E+01  0.21319976935E+02 -0.40187320983E+01  0.22827205364E+02  0.51100000000E-03 0.  1.
        -11    1    4    4    0    0  0.12518931851E+02  0.41793472366E+01 -0.22784126587E+02  0.26330723929E+02  0.51100000000E-03 0. -1.
        -12    1    4    4    0    0 -0.17657825150E+01 -0.26141551057E+01  0.41452987089E+01  0.52091550364E+01  0.00000000000E+00 0.  1.
</event>
<event>
 8    1  0.1254059E-006  0.9118800E+02  0.7816164E-02  0.1184000E+00
        -11   -1    0    0    0    0  0.00000000000E+00  0.00000000000E+00  0.45593999997E+02  0.45594000000E+02  0.51100000000E-03 0.  1.
         11   -1    0    0    0    0 -0.00000000000E+00 -0.00000000000E+00 -0.45593999997E+02  0.45594000000E+02  0.51100000000E-03 0. -1.
         23    2    1    2    0    0 -0.71054273576E-14  0.17763568394E-14  0.88817841970E-15  0.91188000000E+02  0.91188000000E+02 0.  0.
    9900012    2    3    3    0    0 -0.33503083717E+02  0.13225750821E+02  0.76421709094E+01  0.54367083668E+02  0.39999998838E+02 0.  0.
         12    1    3    3    0    0  0.33503083717E+02 -0.13225750821E+02 -0.76421709094E+01  0.36820916332E+02  0.00000000000E+00 0. -1.
         11    1    4    4    0    0  0.33835286682E+01  0.43689668068E+01 -0.11457315638E+01  0.56434774993E+01  0.51100000000E-03 0. -1.
        -11    1    4    4    0    0 -0.13592072395E+02 -0.29530437082E+01  0.16415005542E+02  0.21515513156E+02  0.51100000000E-03 0.  1.
         12    1    4    4    0    0 -0.23294539990E+02  0.11809827723E+02 -0.76271030691E+01  0.27208093013E+02  0.00000000000E+00 0. -1.
</event>
<event>
 8    1  0.1254059E-006  0.9118800E+02  0.7816164E-02  0.1184000E+00
        -11   -1    0    0    0    0  0.00000000000E+00  0.00000000000E+00  0.45593999997E+02  0.45594000000E+02  0.51100000000E-03 0. -1.
         11   -1    0    0    0    0 -0.00000000000E+00 -0.00000000000E+00 -0.45593999997E+02  0.45594000000E+02  0.51100000000E-03 0.  1.
         23    2    1    2    0    0 -0.71054273576E-14  0.00000000000E+00  0.00000000000E+00  0.91188000000E+02  0.91188000000E+02 0.  0.
    9900012    2    3    3    0    0  0.27448226029E+02  0.19110726001E+02 -0.15399808199E+02  0.54367094892E+02  0.40000024424E+02 0.  0.
        -12    1    3    3    0    0 -0.27448226029E+02 -0.19110726001E+02  0.15399808199E+02  0.36820905108E+02  0.00000000000E+00 0.  1.
         11    1    4    4    0    0  0.22852918105E+02  0.31100729662E+01 -0.10497156800E+02  0.25340061581E+02  0.51100000000E-03 0. -1.
        -11    1    4    4    0    0 -0.13496511823E+00 -0.55574289869E+01  0.19905340711E+01  0.59046980174E+01  0.51100000000E-03 0.  1.
        -12    1    4    4    0    0  0.47302730426E+01  0.21558082022E+02 -0.68931854696E+01  0.23122335294E+02  0.00000000000E+00 0.  1.
</event>
<event>
 8    1  0.1254059E-006  0.9118800E+02  0.7816164E-02  0.1184000E+00
        -11   -1    0    0    0    0  0.00000000000E+00  0.00000000000E+00  0.45593999997E+02  0.45594000000E+02  0.51100000000E-03 0.  1.
         11   -1    0    0    0    0 -0.00000000000E+00 -0.00000000000E+00 -0.45593999997E+02  0.45594000000E+02  0.51100000000E-03 0. -1.
         23    2    1    2    0    0  0.00000000000E+00  0.88817841970E-15 -0.35527136788E-14  0.91188000000E+02  0.91188000000E+02 0.  0.
    9900012    2    3    3    0    0  0.20889576440E+02 -0.52426815336E+01 -0.29865040175E+02  0.54367072008E+02  0.39999972257E+02 0.  0.
        -12    1    3    3    0    0 -0.20889576440E+02  0.52426815336E+01  0.29865040175E+02  0.36820927992E+02  0.00000000000E+00 0.  1.
         11    1    4    4    0    0 -0.17302128758E+01  0.10043627464E+02 -0.15394530866E+02  0.18462385276E+02  0.51100000000E-03 0.  1.
        -11    1    4    4    0    0  0.13498061155E+02 -0.10642297193E+02 -0.18178156940E+02  0.25018024192E+02  0.51100000000E-03 0. -1.
        -12    1    4    4    0    0  0.91217281611E+01 -0.46440118050E+01  0.37076476313E+01  0.10886662539E+02  0.00000000000E+00 0.  1.
</event>
<event>
 8    1  0.1254059E-006  0.9118800E+02  0.7816164E-02  0.1184000E+00
        -11   -1    0    0    0    0  0.00000000000E+00  0.00000000000E+00  0.45593999997E+02  0.45594000000E+02  0.51100000000E-03 0.  1.
         11   -1    0    0    0    0 -0.00000000000E+00 -0.00000000000E+00 -0.45593999997E+02  0.45594000000E+02  0.51100000000E-03 0. -1.
         23    2    1    2    0    0 -0.35527136788E-14  0.00000000000E+00  0.35527136788E-14  0.91188000000E+02  0.91188000000E+02 0.  0.
    9900012    2    3    3    0    0  0.21085805544E+02 -0.19355882402E+02  0.23162889125E+02  0.54367071011E+02  0.39999969985E+02 0.  0.
         12    1    3    3    0    0 -0.21085805544E+02  0.19355882402E+02 -0.23162889125E+02  0.36820928989E+02  0.00000000000E+00 0. -1.
         11    1    4    4    0    0  0.86492163902E+01 -0.44950756698E+01 -0.71137467344E+01  0.12067312970E+02  0.51100000000E-03 0.  1.
        -11    1    4    4    0    0  0.80524939116E+00 -0.43439218501E+01 -0.31175538330E+01  0.54071458076E+01  0.51100000000E-03 0. -1.
        -12    1    4    4    0    0  0.11631339763E+02 -0.10516884882E+02  0.33394189692E+02  0.36892612234E+02  0.00000000000E+00 0.  1.
</event>
<event>
 8    1  0.1254059E-006  0.9118800E+02  0.7816164E-02  0.1184000E+00
        -11   -1    0    0    0    0  0.00000000000E+00  0.00000000000E+00  0.45593999997E+02  0.45594000000E+02  0.51100000000E-03 0.  1.
         11   -1    0    0    0    0 -0.00000000000E+00 -0.00000000000E+00 -0.45593999997E+02  0.45594000000E+02  0.51100000000E-03 0. -1.
         23    2    1    2    0    0 -0.17763568394E-14  0.17763568394E-14  0.00000000000E+00  0.91188000000E+02  0.91188000000E+02 0.  0.
    9900012    2    3    3    0    0 -0.11933093606E+02  0.74284289754E+01  0.34032335120E+02  0.54367080487E+02  0.39999991585E+02 0.  0.
         12    1    3    3    0    0  0.11933093606E+02 -0.74284289754E+01 -0.34032335120E+02  0.36820919513E+02  0.00000000000E+00 0. -1.
         11    1    4    4    0    0  0.42264153121E+01 -0.13072133407E+01 -0.30436953008E+01  0.53698672660E+01  0.51100000000E-03 0. -1.
        -11    1    4    4    0    0 -0.15116728312E+02  0.17348150365E+02  0.23527983575E+02  0.32909570148E+02  0.51100000000E-03 0.  1.
        -12    1    4    4    0    0 -0.10427806062E+01 -0.86125080488E+01  0.13548046847E+02  0.16087643073E+02  0.00000000000E+00 0.  1.
</event>
<event>
 8    1  0.1254059E-006  0.9118800E+02  0.7816164E-02  0.1184000E+00
        -11   -1    0    0    0    0  0.00000000000E+00  0.00000000000E+00  0.45593999997E+02  0.45594000000E+02  0.51100000000E-03 0.  1.
         11   -1    0    0    0    0 -0.00000000000E+00 -0.00000000000E+00 -0.45593999997E+02  0.45594000000E+02  0.51100000000E-03 0. -1.
         23    2    1    2    0    0  0.00000000000E+00 -0.17763568394E-14 -0.35527136788E-14  0.91188000000E+02  0.91188000000E+02 0.  0.
    9900012    2    3    3    0    0 -0.26532645237E+02 -0.15764541722E+02 -0.20081754010E+02  0.54367097199E+02  0.40000029685E+02 0.  0.
        -12    1    3    3    0    0  0.26532645237E+02  0.15764541722E+02  0.20081754010E+02  0.36820902801E+02  0.00000000000E+00 0.  1.
         11    1    4    4    0    0  0.21802463012E+01 -0.57990188847E+01 -0.49302846634E+01  0.79176891251E+01  0.51100000000E-03 0. -1.
        -11    1    4    4    0    0 -0.26079021104E+02 -0.20416805729E+02 -0.11862831359E+02  0.35180791151E+02  0.51100000000E-03 0.  1.
        -12    1    4    4    0    0 -0.26338704340E+01  0.10451282892E+02 -0.32886379877E+01  0.11268616923E+02  0.00000000000E+00 0.  1.
</event>
<event>
 8    1  0.1254059E-006  0.9118800E+02  0.7816164E-02  0.1184000E+00
        -11   -1    0    0    0    0  0.00000000000E+00  0.00000000000E+00  0.45593999997E+02  0.45594000000E+02  0.51100000000E-03 0.  1.
         11   -1    0    0    0    0 -0.00000000000E+00 -0.00000000000E+00 -0.45593999997E+02  0.45594000000E+02  0.51100000000E-03 0. -1.
         23    2    1    2    0    0  0.00000000000E+00  0.00000000000E+00 -0.35527136788E-14  0.91188000000E+02  0.91188000000E+02 0.  0.
    9900012    2    3    3    0    0  0.65704184200E+01  0.17242962387E+02 -0.31863609232E+02  0.54367085517E+02  0.40000003053E+02 0.  0.
        -12    1    3    3    0    0 -0.65704184200E+01 -0.17242962387E+02  0.31863609232E+02  0.36820914483E+02  0.00000000000E+00 0.  1.
         11    1    4    4    0    0  0.93300715688E+00  0.23960336491E+01 -0.27184519274E+02  0.27305852267E+02  0.51100000000E-03 0. -1.
        -11    1    4    4    0    0  0.10488649494E+02  0.23948119234E+01 -0.78602757456E+01  0.13324069477E+02  0.51100000000E-03 0.  1.
        -12    1    4    4    0    0 -0.48512382309E+01  0.12452116814E+02  0.31811857875E+01  0.13737163774E+02  0.00000000000E+00 0.  1.
</event>
<event>
 8    1  0.1254059E-006  0.9118800E+02  0.7816164E-02  0.1184000E+00
        -11   -1    0    0    0    0  0.00000000000E+00  0.00000000000E+00  0.45593999997E+02  0.45594000000E+02  0.51100000000E-03 0. -1.
         11   -1    0    0    0    0 -0.00000000000E+00 -0.00000000000E+00 -0.45593999997E+02  0.45594000000E+02  0.51100000000E-03 0.  1.
         23    2    1    2    0    0  0.00000000000E+00  0.00000000000E+00  0.00000000000E+00  0.91188000000E+02  0.91188000000E+02 0.  0.
    9900012    2    3    3    0    0  0.17588715485E+02 -0.30278866170E+02 -0.11384514139E+02  0.54367084596E+02  0.40000000954E+02 0.  0.
         12    1    3    3    0    0 -0.17588715485E+02  0.30278866170E+02  0.11384514139E+02  0.36820915404E+02  0.00000000000E+00 0. -1.
         11    1    4    4    0    0  0.15005725927E+01 -0.94039727966E+01 -0.11795944336E+02  0.15160169046E+02  0.51100000000E-03 0. -1.
        -11    1    4    4    0    0 -0.38705362579E+01 -0.16485807449E+02 -0.57155304349E+01  0.17872609954E+02  0.51100000000E-03 0.  1.
         12    1    4    4    0    0  0.19958679151E+02 -0.43890859251E+01  0.61269606317E+01  0.21334305596E+02  0.00000000000E+00 0. -1.
</event>
<event>
 8    1  0.1254059E-006  0.9118800E+02  0.7816164E-02  0.1184000E+00
        -11   -1    0    0    0    0  0.00000000000E+00  0.00000000000E+00  0.45593999997E+02  0.45594000000E+02  0.51100000000E-03 0. -1.
         11   -1    0    0    0    0 -0.00000000000E+00 -0.00000000000E+00 -0.45593999997E+02  0.45594000000E+02  0.51100000000E-03 0.  1.
         23    2    1    2    0    0  0.00000000000E+00  0.00000000000E+00  0.24424906542E-14  0.91188000000E+02  0.91188000000E+02 0.  0.
    9900012    2    3    3    0    0 -0.17090102322E+02  0.32598843405E+02  0.10116611168E+01  0.54367086827E+02  0.40000006039E+02 0.  0.
        -12    1    3    3    0    0  0.17090102322E+02 -0.32598843405E+02 -0.10116611168E+01  0.36820913173E+02  0.00000000000E+00 0.  1.
         11    1    4    4    0    0 -0.20915696475E+01  0.72460802370E+01  0.16412128400E+02  0.18062068023E+02  0.51100000000E-03 0. -1.
        -11    1    4    4    0    0 -0.11011741820E+02  0.11268648980E+02 -0.14859579352E+02  0.21657516167E+02  0.51100000000E-03 0.  1.
        -12    1    4    4    0    0 -0.39867908543E+01  0.14084114188E+02 -0.54088793115E+00  0.14647502638E+02  0.00000000000E+00 0.  1.
</event>
<event>
 8    1  0.1254059E-006  0.9118800E+02  0.7816164E-02  0.1184000E+00
        -11   -1    0    0    0    0  0.00000000000E+00  0.00000000000E+00  0.45593999997E+02  0.45594000000E+02  0.51100000000E-03 0. -1.
         11   -1    0    0    0    0 -0.00000000000E+00 -0.00000000000E+00 -0.45593999997E+02  0.45594000000E+02  0.51100000000E-03 0.  1.
         23    2    1    2    0    0 -0.17763568394E-14  0.00000000000E+00  0.00000000000E+00  0.91188000000E+02  0.91188000000E+02 0.  0.
    9900012    2    3    3    0    0  0.12965928516E+02  0.31100036596E+02  0.14847659317E+02  0.54367074350E+02  0.39999977595E+02 0.  0.
         12    1    3    3    0    0 -0.12965928516E+02 -0.31100036596E+02 -0.14847659317E+02  0.36820925650E+02  0.00000000000E+00 0. -1.
         11    1    4    4    0    0  0.23550635038E+02  0.20780650342E+02  0.15099831965E+02  0.34849286434E+02  0.51100000000E-03 0. -1.
        -11    1    4    4    0    0 -0.78362695519E+01  0.10397675296E+02  0.47092460438E+01  0.13845424176E+02  0.51100000000E-03 0.  1.
         12    1    4    4    0    0 -0.27484369701E+01 -0.78289041877E-01 -0.49614186922E+01  0.56723637394E+01  0.00000000000E+00 0. -1.
</event>
<event>
 8    1  0.1254059E-006  0.9118800E+02  0.7816164E-02  0.1184000E+00
        -11   -1    0    0    0    0  0.00000000000E+00  0.00000000000E+00  0.45593999997E+02  0.45594000000E+02  0.51100000000E-03 0. -1.
         11   -1    0    0    0    0 -0.00000000000E+00 -0.00000000000E+00 -0.45593999997E+02  0.45594000000E+02  0.51100000000E-03 0.  1.
         23    2    1    2    0    0 -0.88817841970E-15  0.71054273576E-14 -0.35527136788E-14  0.91188000000E+02  0.91188000000E+02 0.  0.
    9900012    2    3    3    0    0 -0.45759814340E+01  0.27272498894E+02  0.24311582875E+02  0.54367056721E+02  0.39999937408E+02 0.  0.
        -12    1    3    3    0    0  0.45759814340E+01 -0.27272498894E+02 -0.24311582875E+02  0.36820943279E+02  0.00000000000E+00 0.  1.
         11    1    4    4    0    0  0.23982647176E+01  0.14169202459E+02  0.26254572552E+02  0.29930261478E+02  0.51100000000E-03 0. -1.
        -11    1    4    4    0    0 -0.68356132775E+01  0.51344144159E+00  0.63632784642E+01  0.93531034458E+01  0.51100000000E-03 0.  1.
        -12    1    4    4    0    0 -0.13863287404E+00  0.12589854994E+02 -0.83062681407E+01  0.15083691798E+02  0.00000000000E+00 0.  1.
</event>
<event>
 8    1  0.1254059E-006  0.9118800E+02  0.7816164E-02  0.1184000E+00
        -11   -1    0    0    0    0  0.00000000000E+00  0.00000000000E+00  0.45593999997E+02  0.45594000000E+02  0.51100000000E-03 0. -1.
         11   -1    0    0    0    0 -0.00000000000E+00 -0.00000000000E+00 -0.45593999997E+02  0.45594000000E+02  0.51100000000E-03 0.  1.
         23    2    1    2    0    0  0.00000000000E+00  0.00000000000E+00  0.44408920985E-15  0.91188000000E+02  0.91188000000E+02 0.  0.
    9900012    2    3    3    0    0 -0.36326483233E+02 -0.59044122403E+01  0.11422415496E+01  0.54367079537E+02  0.39999989420E+02 0.  0.
        -12    1    3    3    0    0  0.36326483233E+02  0.59044122403E+01 -0.11422415496E+01  0.36820920463E+02  0.00000000000E+00 0.  1.
         11    1    4    4    0    0 -0.16716081664E+02  0.85900303691E+01 -0.37148054827E+01  0.19157656119E+02  0.51100000000E-03 0. -1.
        -11    1    4    4    0    0 -0.56172017515E+01 -0.11872398830E+01  0.13031437068E+02  0.14240113987E+02  0.51100000000E-03 0.  1.
        -12    1    4    4    0    0 -0.13993199818E+02 -0.13307202726E+02 -0.81743900355E+01  0.20969309431E+02  0.00000000000E+00 0.  1.
</event>
<event>
 8    1  0.1254059E-006  0.9118800E+02  0.7816164E-02  0.1184000E+00
        -11   -1    0    0    0    0  0.00000000000E+00  0.00000000000E+00  0.45593999997E+02  0.45594000000E+02  0.51100000000E-03 0.  1.
         11   -1    0    0    0    0 -0.00000000000E+00 -0.00000000000E+00 -0.45593999997E+02  0.45594000000E+02  0.51100000000E-03 0. -1.
         23    2    1    2    0    0 -0.88817841970E-15  0.00000000000E+00  0.00000000000E+00  0.91188000000E+02  0.91188000000E+02 0.  0.
    9900012    2    3    3    0    0 -0.66371834021E+01 -0.17352805584E+02  0.31790050313E+02  0.54367090668E+02  0.40000014796E+02 0.  0.
         12    1    3    3    0    0  0.66371834021E+01  0.17352805584E+02 -0.31790050313E+02  0.36820909332E+02  0.00000000000E+00 0. -1.
         11    1    4    4    0    0  0.14177965728E+01 -0.74872512008E+01  0.21314509212E+02  0.22635754480E+02  0.51100000000E-03 0. -1.
        -11    1    4    4    0    0  0.32219456236E-01 -0.51812561755E+01  0.18624438939E+02  0.19331740214E+02  0.51100000000E-03 0.  1.
         12    1    4    4    0    0 -0.80871994311E+01 -0.46842982082E+01 -0.81488978383E+01  0.12399595974E+02  0.00000000000E+00 0. -1.
</event>
<event>
 8    1  0.1254059E-006  0.9118800E+02  0.7816164E-02  0.1184000E+00
        -11   -1    0    0    0    0  0.00000000000E+00  0.00000000000E+00  0.45593999997E+02  0.45594000000E+02  0.51100000000E-03 0.  1.
         11   -1    0    0    0    0 -0.00000000000E+00 -0.00000000000E+00 -0.45593999997E+02  0.45594000000E+02  0.51100000000E-03 0. -1.
         23    2    1    2    0    0  0.00000000000E+00 -0.35527136788E-14  0.00000000000E+00  0.91188000000E+02  0.91188000000E+02 0.  0.
    9900012    2    3    3    0    0  0.19615662612E+02 -0.18750328631E+02  0.24888368432E+02  0.54367083028E+02  0.39999997379E+02 0.  0.
         12    1    3    3    0    0 -0.19615662612E+02  0.18750328631E+02 -0.24888368432E+02  0.36820916972E+02  0.00000000000E+00 0. -1.
         11    1    4    4    0    0 -0.68181709182E+01 -0.64491809098E+01  0.22008705493E+02  0.23926188723E+02  0.51100000000E-03 0. -1.
        -11    1    4    4    0    0  0.17233757486E+02 -0.12080604013E+02  0.11544379275E+01  0.21077858468E+02  0.51100000000E-03 0.  1.
         12    1    4    4    0    0  0.92000760441E+01 -0.22054370817E+00  0.17252250110E+01  0.93630358369E+01  0.00000000000E+00 0. -1.
</event>
<event>
 8    1  0.1254059E-006  0.9118800E+02  0.7816164E-02  0.1184000E+00
        -11   -1    0    0    0    0  0.00000000000E+00  0.00000000000E+00  0.45593999997E+02  0.45594000000E+02  0.51100000000E-03 0.  1.
         11   -1    0    0    0    0 -0.00000000000E+00 -0.00000000000E+00 -0.45593999997E+02  0.45594000000E+02  0.51100000000E-03 0. -1.
         23    2    1    2    0    0  0.00000000000E+00  0.13322676296E-14  0.00000000000E+00  0.91188000000E+02  0.91188000000E+02 0.  0.
    9900012    2    3    3    0    0  0.13433159353E+02  0.39231061921E+01 -0.34057884885E+02  0.54367081282E+02  0.39999993398E+02 0.  0.
        -12    1    3    3    0    0 -0.13433159353E+02 -0.39231061921E+01  0.34057884885E+02  0.36820918718E+02  0.00000000000E+00 0.  1.
         11    1    4    4    0    0  0.23930299448E+02 -0.50163412889E+01 -0.22721125156E+02  0.33377723712E+02  0.51100000000E-03 0. -1.
        -11    1    4    4    0    0 -0.10217782743E+02  0.86244190504E+01 -0.13372511289E+02  0.18910519469E+02  0.51100000000E-03 0.  1.
         12    1    4    4    0    0 -0.27935735104E+00  0.31502843067E+00  0.20357515591E+01  0.20788381015E+01  0.00000000000E+00 0. -1.
</event>
<event>
 8    1  0.1254059E-006  0.9118800E+02  0.7816164E-02  0.1184000E+00
        -11   -1    0    0    0    0  0.00000000000E+00  0.00000000000E+00  0.45593999997E+02  0.45594000000E+02  0.51100000000E-03 0.  1.
         11   -1    0    0    0    0 -0.00000000000E+00 -0.00000000000E+00 -0.45593999997E+02  0.45594000000E+02  0.51100000000E-03 0. -1.
         23    2    1    2    0    0  0.00000000000E+00 -0.17763568394E-14  0.00000000000E+00  0.91188000000E+02  0.91188000000E+02 0.  0.
    9900012    2    3    3    0    0 -0.99865996131E+01  0.15741606359E+02  0.31752946019E+02  0.54367083071E+02  0.39999997478E+02 0.  0.
         12    1    3    3    0    0  0.99865996131E+01 -0.15741606359E+02 -0.31752946019E+02  0.36820916929E+02  0.00000000000E+00 0. -1.
         11    1    4    4    0    0 -0.27838624083E+01  0.18000674117E+02  0.15492613092E+02  0.23912239946E+02  0.51100000000E-03 0. -1.
        -11    1    4    4    0    0 -0.34390871208E+01  0.11188142791E+02  0.86284045346E+01  0.14541362536E+02  0.51100000000E-03 0.  1.
         12    1    4    4    0    0 -0.37636500840E+01 -0.13447210548E+02  0.76319283922E+01  0.15913480589E+02  0.00000000000E+00 0. -1.
</event>
<event>
 8    1  0.1254059E-006  0.9118800E+02  0.7816164E-02  0.1184000E+00
        -11   -1    0    0    0    0  0.00000000000E+00  0.00000000000E+00  0.45593999997E+02  0.45594000000E+02  0.51100000000E-03 0.  1.
         11   -1    0    0    0    0 -0.00000000000E+00 -0.00000000000E+00 -0.45593999997E+02  0.45594000000E+02  0.51100000000E-03 0. -1.
         23    2    1    2    0    0  0.71054273576E-14  0.17763568394E-14  0.00000000000E+00  0.91188000000E+02  0.91188000000E+02 0.  0.
    9900012    2    3    3    0    0 -0.34444828358E+02  0.12026428710E+02 -0.49697826578E+01  0.54367083013E+02  0.39999997344E+02 0.  0.
        -12    1    3    3    0    0  0.34444828358E+02 -0.12026428710E+02  0.49697826578E+01  0.36820916987E+02  0.00000000000E+00 0.  1.
         11    1    4    4    0    0 -0.11078566102E+02  0.16192382111E+02 -0.74340378078E+01  0.20980771761E+02  0.51100000000E-03 0. -1.
        -11    1    4    4    0    0 -0.48577132711E+01  0.25682230206E+01  0.10707637496E+02  0.12035225329E+02  0.51100000000E-03 0.  1.
         12    1    4    4    0    0 -0.18508548985E+02 -0.67341764212E+01 -0.82433823458E+01  0.21351085923E+02  0.00000000000E+00 0. -1.
</event>
<event>
 8    1  0.1254059E-006  0.9118800E+02  0.7816164E-02  0.1184000E+00
        -11   -1    0    0    0    0  0.00000000000E+00  0.00000000000E+00  0.45593999997E+02  0.45594000000E+02  0.51100000000E-03 0. -1.
         11   -1    0    0    0    0 -0.00000000000E+00 -0.00000000000E+00 -0.45593999997E+02  0.45594000000E+02  0.51100000000E-03 0.  1.
         23    2    1    2    0    0  0.00000000000E+00 -0.44408920985E-15  0.00000000000E+00  0.91188000000E+02  0.91188000000E+02 0.  0.
    9900012    2    3    3    0    0 -0.36203892332E+02 -0.38339925644E+01  0.55098740013E+01  0.54367081618E+02  0.39999994164E+02 0.  0.
        -12    1    3    3    0    0  0.36203892332E+02  0.38339925644E+01 -0.55098740013E+01  0.36820918382E+02  0.00000000000E+00 0.  1.
         11    1    4    4    0    0 -0.13715023666E+02 -0.57754989221E+01  0.62629265837E+00  0.14894646848E+02  0.51100000000E-03 0. -1.
        -11    1    4    4    0    0 -0.17100073637E+02 -0.82195695488E+01 -0.93671456302E+01  0.21159330317E+02  0.51100000000E-03 0.  1.
         12    1    4    4    0    0 -0.53887950290E+01  0.10161075907E+02  0.14250726973E+02  0.18313104453E+02  0.00000000000E+00 0. -1.
</event>
<event>
 8    1  0.1254059E-006  0.9118800E+02  0.7816164E-02  0.1184000E+00
        -11   -1    0    0    0    0  0.00000000000E+00  0.00000000000E+00  0.45593999997E+02  0.45594000000E+02  0.51100000000E-03 0. -1.
         11   -1    0    0    0    0 -0.00000000000E+00 -0.00000000000E+00 -0.45593999997E+02  0.45594000000E+02  0.51100000000E-03 0.  1.
         23    2    1    2    0    0  0.35527136788E-14 -0.17763568394E-14 -0.35527136788E-14  0.91188000000E+02  0.91188000000E+02 0.  0.
    9900012    2    3    3    0    0  0.22777833678E+02 -0.14304834279E+02 -0.25145949157E+02  0.54367126167E+02  0.40000095722E+02 0.  0.
         12    1    3    3    0    0 -0.22777833678E+02  0.14304834279E+02  0.25145949157E+02  0.36820873833E+02  0.00000000000E+00 0. -1.
         11    1    4    4    0    0  0.17464986273E+01 -0.61615302229E+01 -0.91505217200E+01  0.11169008915E+02  0.51100000000E-03 0. -1.
        -11    1    4    4    0    0 -0.69585788848E+01 -0.14956772637E+01 -0.12276104741E+02  0.14190194447E+02  0.51100000000E-03 0.  1.
         12    1    4    4    0    0  0.27989913936E+02 -0.66476267928E+01 -0.37193226959E+01  0.29007922804E+02  0.00000000000E+00 0. -1.
</event>
<event>
 8    1  0.1254059E-006  0.9118800E+02  0.7816164E-02  0.1184000E+00
        -11   -1    0    0    0    0  0.00000000000E+00  0.00000000000E+00  0.45593999997E+02  0.45594000000E+02  0.51100000000E-03 0. -1.
         11   -1    0    0    0    0 -0.00000000000E+00 -0.00000000000E+00 -0.45593999997E+02  0.45594000000E+02  0.51100000000E-03 0.  1.
         23    2    1    2    0    0  0.17763568394E-14  0.00000000000E+00 -0.35527136788E-14  0.91188000000E+02  0.91188000000E+02 0.  0.
    9900012    2    3    3    0    0  0.10194760169E+02  0.28038735940E+02  0.21579522398E+02  0.54367086989E+02  0.40000006409E+02 0.  0.
        -12    1    3    3    0    0 -0.10194760169E+02 -0.28038735940E+02 -0.21579522398E+02  0.36820913011E+02  0.00000000000E+00 0.  1.
         11    1    4    4    0    0 -0.11292752323E+02  0.14674450055E+02  0.71456491224E+01  0.19847570156E+02  0.51100000000E-03 0. -1.
        -11    1    4    4    0    0  0.94702903151E+01 -0.29150087089E+01  0.44190282580E+00  0.99186164758E+01  0.51100000000E-03 0.  1.
         12    1    4    4    0    0  0.12017222177E+02  0.16279294594E+02  0.13991970449E+02  0.24600900357E+02  0.00000000000E+00 0. -1.
</event>
<event>
 8    1  0.1254059E-006  0.9118800E+02  0.7816164E-02  0.1184000E+00
        -11   -1    0    0    0    0  0.00000000000E+00  0.00000000000E+00  0.45593999997E+02  0.45594000000E+02  0.51100000000E-03 0. -1.
         11   -1    0    0    0    0 -0.00000000000E+00 -0.00000000000E+00 -0.45593999997E+02  0.45594000000E+02  0.51100000000E-03 0.  1.
         23    2    1    2    0    0  0.00000000000E+00 -0.35527136788E-14  0.35527136788E-14  0.91188000000E+02  0.91188000000E+02 0.  0.
    9900012    2    3    3    0    0  0.10072508312E+02  0.22119576174E+02  0.27659514254E+02  0.54367084713E+02  0.40000001219E+02 0.  0.
        -12    1    3    3    0    0 -0.10072508312E+02 -0.22119576174E+02 -0.27659514254E+02  0.36820915287E+02  0.00000000000E+00 0.  1.
         11    1    4    4    0    0 -0.58881469822E+00  0.13074838361E+02  0.11360813446E+02  0.17331075654E+02  0.51100000000E-03 0. -1.
        -11    1    4    4    0    0 -0.76804126866E+01 -0.37383979456E+01 -0.12257574532E+01  0.86294171200E+01  0.51100000000E-03 0.  1.
         12    1    4    4    0    0  0.18341735697E+02  0.12783135758E+02  0.17524458262E+02  0.28406591938E+02  0.00000000000E+00 0. -1.
</event>
<event>
 8    1  0.1254059E-006  0.9118800E+02  0.7816164E-02  0.1184000E+00
        -11   -1    0    0    0    0  0.00000000000E+00  0.00000000000E+00  0.45593999997E+02  0.45594000000E+02  0.51100000000E-03 0. -1.
         11   -1    0    0    0    0 -0.00000000000E+00 -0.00000000000E+00 -0.45593999997E+02  0.45594000000E+02  0.51100000000E-03 0.  1.
         23    2    1    2    0    0  0.35527136788E-14  0.00000000000E+00  0.00000000000E+00  0.91188000000E+02  0.91188000000E+02 0.  0.
    9900012    2    3    3    0    0 -0.22180631825E+02 -0.24351243610E+02 -0.16456548375E+02  0.54367061963E+02  0.39999949357E+02 0.  0.
         12    1    3    3    0    0  0.22180631825E+02  0.24351243610E+02  0.16456548375E+02  0.36820938037E+02  0.00000000000E+00 0. -1.
         11    1    4    4    0    0  0.43552919297E+01 -0.10419340811E+02 -0.87637151153E+01  0.14294542091E+02  0.51100000000E-03 0. -1.
        -11    1    4    4    0    0  0.20729368830E+01 -0.39575893444E+01 -0.86761108567E+01  0.97588155326E+01  0.51100000000E-03 0.  1.
         12    1    4    4    0    0 -0.28608860638E+02 -0.99743134552E+01  0.98327759734E+00  0.30313704339E+02  0.00000000000E+00 0. -1.
</event>
<event>
 8    1  0.1254059E-006  0.9118800E+02  0.7816164E-02  0.1184000E+00
        -11   -1    0    0    0    0  0.00000000000E+00  0.00000000000E+00  0.45593999997E+02  0.45594000000E+02  0.51100000000E-03 0.  1.
         11   -1    0    0    0    0 -0.00000000000E+00 -0.00000000000E+00 -0.45593999997E+02  0.45594000000E+02  0.51100000000E-03 0. -1.
         23    2    1    2    0    0  0.88817841970E-15 -0.72164496601E-15  0.00000000000E+00  0.91188000000E+02  0.91188000000E+02 0.  0.
    9900012    2    3    3    0    0  0.45454480851E+01 -0.44533148709E+00  0.36536558839E+02  0.54367088139E+02  0.40000009031E+02 0.  0.
         12    1    3    3    0    0 -0.45454480851E+01  0.44533148709E+00 -0.36536558839E+02  0.36820911861E+02  0.00000000000E+00 0. -1.
         11    1    4    4    0    0 -0.33163258664E+01 -0.97678479684E+01  0.86976918405E+00  0.10352070802E+02  0.51100000000E-03 0. -1.
        -11    1    4    4    0    0  0.44114979023E+01 -0.40875192443E+01  0.28568446860E+00  0.60208590078E+01  0.51100000000E-03 0.  1.
        -12    1    4    4    0    0  0.34502760492E+01  0.13410035726E+02  0.35381105187E+02  0.37994158330E+02  0.00000000000E+00 0.  1.
</event>
<event>
 8    1  0.1254059E-006  0.9118800E+02  0.7816164E-02  0.1184000E+00
        -11   -1    0    0    0    0  0.00000000000E+00  0.00000000000E+00  0.45593999997E+02  0.45594000000E+02  0.51100000000E-03 0.  1.
         11   -1    0    0    0    0 -0.00000000000E+00 -0.00000000000E+00 -0.45593999997E+02  0.45594000000E+02  0.51100000000E-03 0. -1.
         23    2    1    2    0    0  0.12212453271E-14  0.00000000000E+00  0.88817841970E-15  0.91188000000E+02  0.91188000000E+02 0.  0.
    9900012    2    3    3    0    0  0.76265431688E-01  0.36577593157E+02 -0.42253066115E+01  0.54367090810E+02  0.40000015120E+02 0.  0.
         12    1    3    3    0    0 -0.76265431688E-01 -0.36577593157E+02  0.42253066115E+01  0.36820909190E+02  0.00000000000E+00 0. -1.
         11    1    4    4    0    0 -0.41829427013E+01  0.19092606914E+01 -0.11526436287E+02  0.12409714734E+02  0.51100000000E-03 0. -1.
        -11    1    4    4    0    0 -0.66234590359E+01  0.27242478500E+02  0.35567936546E+01  0.28260814315E+02  0.51100000000E-03 0.  1.
        -12    1    4    4    0    0  0.10882667169E+02  0.74258539662E+01  0.37443360208E+01  0.13696561761E+02  0.00000000000E+00 0.  1.
</event>
<event>
 8    1  0.1254059E-006  0.9118800E+02  0.7816164E-02  0.1184000E+00
        -11   -1    0    0    0    0  0.00000000000E+00  0.00000000000E+00  0.45593999997E+02  0.45594000000E+02  0.51100000000E-03 0.  1.
         11   -1    0    0    0    0 -0.00000000000E+00 -0.00000000000E+00 -0.45593999997E+02  0.45594000000E+02  0.51100000000E-03 0. -1.
         23    2    1    2    0    0  0.00000000000E+00  0.35527136788E-14  0.17763568394E-14  0.91188000000E+02  0.91188000000E+02 0.  0.
    9900012    2    3    3    0    0  0.13963494661E+02  0.31265645814E+02  0.13537381675E+02  0.54367075325E+02  0.39999979817E+02 0.  0.
         12    1    3    3    0    0 -0.13963494661E+02 -0.31265645814E+02 -0.13537381675E+02  0.36820924675E+02  0.00000000000E+00 0. -1.
         11    1    4    4    0    0  0.20780725983E+02  0.27949219779E+02  0.83041199523E+01  0.35804411279E+02  0.51100000000E-03 0. -1.
        -11    1    4    4    0    0 -0.12926615763E+01 -0.26666938279E+01  0.90835230308E+01  0.95547172033E+01  0.51100000000E-03 0.  1.
        -12    1    4    4    0    0 -0.55245697453E+01  0.59831198636E+01 -0.38502613077E+01  0.90079468421E+01  0.00000000000E+00 0.  1.
</event>
<event>
 8    1  0.1254059E-006  0.9118800E+02  0.7816164E-02  0.1184000E+00
        -11   -1    0    0    0    0  0.00000000000E+00  0.00000000000E+00  0.45593999997E+02  0.45594000000E+02  0.51100000000E-03 0. -1.
         11   -1    0    0    0    0 -0.00000000000E+00 -0.00000000000E+00 -0.45593999997E+02  0.45594000000E+02  0.51100000000E-03 0.  1.
         23    2    1    2    0    0 -0.35527136788E-14  0.35527136788E-14  0.00000000000E+00  0.91188000000E+02  0.91188000000E+02 0.  0.
    9900012    2    3    3    0    0  0.29395361408E+02 -0.10558334126E+02 -0.19499091513E+02  0.54367078479E+02  0.39999987009E+02 0.  0.
         12    1    3    3    0    0 -0.29395361408E+02  0.10558334126E+02  0.19499091513E+02  0.36820921521E+02  0.00000000000E+00 0. -1.
         11    1    4    4    0    0  0.15487870283E+02  0.95965295105E+01 -0.14969515660E+02  0.23580795235E+02  0.51100000000E-03 0. -1.
        -11    1    4    4    0    0  0.56997186315E+01 -0.66473777947E+01 -0.10693516449E+02  0.13821205386E+02  0.51100000000E-03 0.  1.
         12    1    4    4    0    0  0.82077724928E+01 -0.13507485842E+02  0.61639405957E+01  0.16965077858E+02  0.00000000000E+00 0. -1.
</event>
<event>
 8    1  0.1254059E-006  0.9118800E+02  0.7816164E-02  0.1184000E+00
        -11   -1    0    0    0    0  0.00000000000E+00  0.00000000000E+00  0.45593999997E+02  0.45594000000E+02  0.51100000000E-03 0.  1.
         11   -1    0    0    0    0 -0.00000000000E+00 -0.00000000000E+00 -0.45593999997E+02  0.45594000000E+02  0.51100000000E-03 0. -1.
         23    2    1    2    0    0  0.00000000000E+00  0.13322676296E-14  0.35527136788E-14  0.91188000000E+02  0.91188000000E+02 0.  0.
    9900012    2    3    3    0    0  0.21570787227E+02 -0.27453024559E+01 -0.29714359979E+02  0.54367099194E+02  0.40000034233E+02 0.  0.
        -12    1    3    3    0    0 -0.21570787227E+02  0.27453024559E+01  0.29714359979E+02  0.36820900806E+02  0.00000000000E+00 0.  1.
         11    1    4    4    0    0  0.38483277129E+01 -0.97072018103E+01 -0.24053205069E+02  0.26222053076E+02  0.51100000000E-03 0. -1.
        -11    1    4    4    0    0 -0.27100296057E+00 -0.53475402838E+01  0.78334763340E+00  0.54114012481E+01  0.51100000000E-03 0.  1.
        -12    1    4    4    0    0  0.17993462475E+02  0.12309439638E+02 -0.64445025434E+01  0.22733644870E+02  0.00000000000E+00 0.  1.
</event>
<event>
 8    1  0.1254059E-006  0.9118800E+02  0.7816164E-02  0.1184000E+00
        -11   -1    0    0    0    0  0.00000000000E+00  0.00000000000E+00  0.45593999997E+02  0.45594000000E+02  0.51100000000E-03 0.  1.
         11   -1    0    0    0    0 -0.00000000000E+00 -0.00000000000E+00 -0.45593999997E+02  0.45594000000E+02  0.51100000000E-03 0. -1.
         23    2    1    2    0    0 -0.11102230246E-14  0.71054273576E-14 -0.88817841970E-15  0.91188000000E+02  0.91188000000E+02 0.  0.
    9900012    2    3    3    0    0 -0.14749562193E+01  0.36480558673E+02  0.47722135336E+01  0.54367072812E+02  0.39999974090E+02 0.  0.
        -12    1    3    3    0    0  0.14749562193E+01 -0.36480558673E+02 -0.47722135336E+01  0.36820927188E+02  0.00000000000E+00 0.  1.
         11    1    4    4    0    0 -0.10618685747E+02 -0.37775080104E+01 -0.26409584109E+01  0.11575867801E+02  0.51100000000E-03 0. -1.
        -11    1    4    4    0    0  0.22402285001E+01  0.69950143286E+01  0.46806293440E+01  0.87096004792E+01  0.51100000000E-03 0.  1.
         12    1    4    4    0    0  0.69035010273E+01  0.33263052355E+02  0.27325426005E+01  0.34081604532E+02  0.00000000000E+00 0. -1.
</event>
<event>
 8    1  0.1254059E-006  0.9118800E+02  0.7816164E-02  0.1184000E+00
        -11   -1    0    0    0    0  0.00000000000E+00  0.00000000000E+00  0.45593999997E+02  0.45594000000E+02  0.51100000000E-03 0.  1.
         11   -1    0    0    0    0 -0.00000000000E+00 -0.00000000000E+00 -0.45593999997E+02  0.45594000000E+02  0.51100000000E-03 0. -1.
         23    2    1    2    0    0  0.00000000000E+00  0.00000000000E+00 -0.17763568394E-14  0.91188000000E+02  0.91188000000E+02 0.  0.
    9900012    2    3    3    0    0 -0.33130409754E+02 -0.67594439282E+01 -0.14576220586E+02  0.54367077425E+02  0.39999984605E+02 0.  0.
        -12    1    3    3    0    0  0.33130409754E+02  0.67594439282E+01  0.14576220586E+02  0.36820922575E+02  0.00000000000E+00 0.  1.
         11    1    4    4    0    0  0.20978510459E+01  0.39926756990E+01 -0.15625055709E+02  0.16262988791E+02  0.51100000000E-03 0. -1.
        -11    1    4    4    0    0 -0.17255246339E+02 -0.19823023635E+01  0.41731325793E+01  0.17863036826E+02  0.51100000000E-03 0.  1.
         12    1    4    4    0    0 -0.17973014462E+02 -0.87698172637E+01 -0.31242974563E+01  0.20241051807E+02  0.00000000000E+00 0. -1.
</event>
<event>
 8    1  0.1254059E-006  0.9118800E+02  0.7816164E-02  0.1184000E+00
        -11   -1    0    0    0    0  0.00000000000E+00  0.00000000000E+00  0.45593999997E+02  0.45594000000E+02  0.51100000000E-03 0. -1.
         11   -1    0    0    0    0 -0.00000000000E+00 -0.00000000000E+00 -0.45593999997E+02  0.45594000000E+02  0.51100000000E-03 0.  1.
         23    2    1    2    0    0  0.88817841970E-15  0.88817841970E-15  0.00000000000E+00  0.91188000000E+02  0.91188000000E+02 0.  0.
    9900012    2    3    3    0    0 -0.55345419063E+01  0.51431333034E+01  0.36037467150E+02  0.54367054698E+02  0.39999932796E+02 0.  0.
        -12    1    3    3    0    0  0.55345419063E+01 -0.51431333034E+01 -0.36037467150E+02  0.36820945302E+02  0.00000000000E+00 0.  1.
         11    1    4    4    0    0 -0.75208242803E+01  0.34631663080E+00  0.36531657042E+02  0.37299392751E+02  0.51100000000E-03 0. -1.
        -11    1    4    4    0    0  0.66439438780E+01  0.82990872769E+01 -0.24704004509E+01  0.10914198025E+02  0.51100000000E-03 0.  1.
        -12    1    4    4    0    0 -0.46576615040E+01 -0.35022706044E+01  0.19762105593E+01  0.61534639226E+01  0.00000000000E+00 0.  1.
</event>
<event>
 8    1  0.1254059E-006  0.9118800E+02  0.7816164E-02  0.1184000E+00
        -11   -1    0    0    0    0  0.00000000000E+00  0.00000000000E+00  0.45593999997E+02  0.45594000000E+02  0.51100000000E-03 0.  1.
         11   -1    0    0    0    0 -0.00000000000E+00 -0.00000000000E+00 -0.45593999997E+02  0.45594000000E+02  0.51100000000E-03 0. -1.
         23    2    1    2    0    0  0.00000000000E+00  0.35527136788E-14  0.00000000000E+00  0.91188000000E+02  0.91188000000E+02 0.  0.
    9900012    2    3    3    0    0  0.17026357175E+02  0.31998202799E+02  0.64805687082E+01  0.54367087575E+02  0.40000007745E+02 0.  0.
         12    1    3    3    0    0 -0.17026357175E+02 -0.31998202799E+02 -0.64805687082E+01  0.36820912425E+02  0.00000000000E+00 0. -1.
         11    1    4    4    0    0  0.70849700016E+01 -0.52141831706E+01  0.70472092992E+01  0.11271542274E+02  0.51100000000E-03 0. -1.
        -11    1    4    4    0    0  0.49311617983E+01  0.64787407831E+01  0.73466041528E+01  0.10966450276E+02  0.51100000000E-03 0.  1.
         12    1    4    4    0    0  0.50102253751E+01  0.30733645187E+02 -0.79132447438E+01  0.32129095025E+02  0.00000000000E+00 0. -1.
</event>
<event>
 8    1  0.1254059E-006  0.9118800E+02  0.7816164E-02  0.1184000E+00
        -11   -1    0    0    0    0  0.00000000000E+00  0.00000000000E+00  0.45593999997E+02  0.45594000000E+02  0.51100000000E-03 0. -1.
         11   -1    0    0    0    0 -0.00000000000E+00 -0.00000000000E+00 -0.45593999997E+02  0.45594000000E+02  0.51100000000E-03 0.  1.
         23    2    1    2    0    0  0.00000000000E+00 -0.17763568394E-14 -0.22204460493E-14  0.91188000000E+02  0.91188000000E+02 0.  0.
    9900012    2    3    3    0    0  0.33907482392E+02  0.14198553000E+02 -0.21128709443E+01  0.54367075337E+02  0.39999979845E+02 0.  0.
        -12    1    3    3    0    0 -0.33907482392E+02 -0.14198553000E+02  0.21128709443E+01  0.36820924663E+02  0.00000000000E+00 0.  1.
         11    1    4    4    0    0  0.21944549408E+02  0.12696248877E+02  0.58922721235E+00  0.25359518395E+02  0.51100000000E-03 0. -1.
        -11    1    4    4    0    0 -0.42497404918E+01  0.98099352003E+00  0.83215320320E+01  0.93952401861E+01  0.51100000000E-03 0.  1.
        -12    1    4    4    0    0  0.16212673476E+02  0.52131060272E+00 -0.11023630189E+02  0.19612316755E+02  0.00000000000E+00 0.  1.
</event>
<event>
 8    1  0.1254059E-006  0.9118800E+02  0.7816164E-02  0.1184000E+00
        -11   -1    0    0    0    0  0.00000000000E+00  0.00000000000E+00  0.45593999997E+02  0.45594000000E+02  0.51100000000E-03 0. -1.
         11   -1    0    0    0    0 -0.00000000000E+00 -0.00000000000E+00 -0.45593999997E+02  0.45594000000E+02  0.51100000000E-03 0.  1.
         23    2    1    2    0    0  0.00000000000E+00  0.00000000000E+00  0.00000000000E+00  0.91188000000E+02  0.91188000000E+02 0.  0.
    9900012    2    3    3    0    0 -0.27626879970E+02 -0.23324105700E+02  0.69656102100E+01  0.54367107436E+02  0.40000053022E+02 0.  0.
        -12    1    3    3    0    0  0.27626879970E+02  0.23324105700E+02 -0.69656102100E+01  0.36820892564E+02  0.00000000000E+00 0.  1.
         11    1    4    4    0    0 -0.28144948859E+02 -0.27962733904E+02  0.97427204866E+01  0.40853068874E+02  0.51100000000E-03 0. -1.
        -11    1    4    4    0    0  0.23907924464E+01  0.23157488322E+01  0.45299247327E+01  0.56212809502E+01  0.51100000000E-03 0.  1.
         12    1    4    4    0    0 -0.18727235582E+01  0.23228793721E+01 -0.73070350093E+01  0.78927576125E+01  0.00000000000E+00 0. -1.
</event>
<event>
 8    1  0.1254059E-006  0.9118800E+02  0.7816164E-02  0.1184000E+00
        -11   -1    0    0    0    0  0.00000000000E+00  0.00000000000E+00  0.45593999997E+02  0.45594000000E+02  0.51100000000E-03 0.  1.
         11   -1    0    0    0    0 -0.00000000000E+00 -0.00000000000E+00 -0.45593999997E+02  0.45594000000E+02  0.51100000000E-03 0. -1.
         23    2    1    2    0    0  0.00000000000E+00  0.00000000000E+00  0.35527136788E-14  0.91188000000E+02  0.91188000000E+02 0.  0.
    9900012    2    3    3    0    0  0.30855085264E+02 -0.13327612472E+02  0.15037221647E+02  0.54367087794E+02  0.40000008244E+02 0.  0.
         12    1    3    3    0    0 -0.30855085264E+02  0.13327612472E+02 -0.15037221647E+02  0.36820912206E+02  0.00000000000E+00 0. -1.
         11    1    4    4    0    0  0.20493511508E+02 -0.28507306313E+01 -0.87107638635E+01  0.22449678983E+02  0.51100000000E-03 0. -1.
        -11    1    4    4    0    0  0.37321565927E+01 -0.11248256741E+02  0.67102690882E+01  0.13619103643E+02  0.51100000000E-03 0.  1.
         12    1    4    4    0    0  0.66294171625E+01  0.77137490025E+00  0.17037716422E+02  0.18298305168E+02  0.00000000000E+00 0. -1.
</event>
<event>
 8    1  0.1254059E-006  0.9118800E+02  0.7816164E-02  0.1184000E+00
        -11   -1    0    0    0    0  0.00000000000E+00  0.00000000000E+00  0.45593999997E+02  0.45594000000E+02  0.51100000000E-03 0.  1.
         11   -1    0    0    0    0 -0.00000000000E+00 -0.00000000000E+00 -0.45593999997E+02  0.45594000000E+02  0.51100000000E-03 0. -1.
         23    2    1    2    0    0  0.00000000000E+00  0.35527136788E-14  0.00000000000E+00  0.91188000000E+02  0.91188000000E+02 0.  0.
    9900012    2    3    3    0    0 -0.15264553125E+02 -0.16809937321E+02 -0.28985857557E+02  0.54367346650E+02  0.40000598353E+02 0.  0.
        -12    1    3    3    0    0  0.15264553125E+02  0.16809937321E+02  0.28985857557E+02  0.36820653350E+02  0.00000000000E+00 0.  1.
         11    1    4    4    0    0 -0.12428373881E+02 -0.11495298317E+01 -0.59853851065E+01  0.13842352809E+02  0.51100000000E-03 0. -1.
        -11    1    4    4    0    0  0.58607077594E+01 -0.70433805922E+01  0.46574094599E+01  0.10278548961E+02  0.51100000000E-03 0.  1.
         12    1    4    4    0    0 -0.86968870035E+01 -0.86170268975E+01 -0.27657881910E+02  0.30246444880E+02  0.00000000000E+00 0. -1.
</event>
<event>
 8    1  0.1254059E-006  0.9118800E+02  0.7816164E-02  0.1184000E+00
        -11   -1    0    0    0    0  0.00000000000E+00  0.00000000000E+00  0.45593999997E+02  0.45594000000E+02  0.51100000000E-03 0.  1.
         11   -1    0    0    0    0 -0.00000000000E+00 -0.00000000000E+00 -0.45593999997E+02  0.45594000000E+02  0.51100000000E-03 0. -1.
         23    2    1    2    0    0  0.88817841970E-15  0.00000000000E+00  0.00000000000E+00  0.91188000000E+02  0.91188000000E+02 0.  0.
    9900012    2    3    3    0    0 -0.34040262012E+01 -0.21275428628E+02 -0.29858798225E+02  0.54367094401E+02  0.40000023306E+02 0.  0.
        -12    1    3    3    0    0  0.34040262012E+01  0.21275428628E+02  0.29858798225E+02  0.36820905599E+02  0.00000000000E+00 0.  1.
         11    1    4    4    0    0  0.98478308411E+01 -0.25756159325E+01 -0.13160745247E+02  0.16637872022E+02  0.51100000000E-03 0. -1.
        -11    1    4    4    0    0 -0.67086589540E+01  0.52196268743E+01 -0.14632575229E+01  0.86250642030E+01  0.51100000000E-03 0.  1.
        -12    1    4    4    0    0 -0.65431980883E+01 -0.23919439570E+02 -0.15234795455E+02  0.29104158176E+02  0.00000000000E+00 0.  1.
</event>
<event>
 8    1  0.1254059E-006  0.9118800E+02  0.7816164E-02  0.1184000E+00
        -11   -1    0    0    0    0  0.00000000000E+00  0.00000000000E+00  0.45593999997E+02  0.45594000000E+02  0.51100000000E-03 0.  1.
         11   -1    0    0    0    0 -0.00000000000E+00 -0.00000000000E+00 -0.45593999997E+02  0.45594000000E+02  0.51100000000E-03 0. -1.
         23    2    1    2    0    0  0.71054273576E-14 -0.88817841970E-15  0.13322676296E-14  0.91188000000E+02  0.91188000000E+02 0.  0.
    9900012    2    3    3    0    0  0.36385333645E+02 -0.51977225804E+01  0.22071532903E+01  0.54367077278E+02  0.39999984270E+02 0.  0.
         12    1    3    3    0    0 -0.36385333645E+02  0.51977225804E+01 -0.22071532903E+01  0.36820922722E+02  0.00000000000E+00 0. -1.
         11    1    4    4    0    0 -0.13320801713E+01 -0.89805458086E+01  0.19852320153E+00  0.90809719924E+01  0.51100000000E-03 0. -1.
        -11    1    4    4    0    0  0.23889441938E+02 -0.32206299241E+01 -0.95729555765E+01  0.25936834270E+02  0.51100000000E-03 0.  1.
        -12    1    4    4    0    0  0.13827971878E+02  0.70034531522E+01  0.11581585665E+02  0.19349271016E+02  0.00000000000E+00 0.  1.
</event>
<event>
 8    1  0.1254059E-006  0.9118800E+02  0.7816164E-02  0.1184000E+00
        -11   -1    0    0    0    0  0.00000000000E+00  0.00000000000E+00  0.45593999997E+02  0.45594000000E+02  0.51100000000E-03 0. -1.
         11   -1    0    0    0    0 -0.00000000000E+00 -0.00000000000E+00 -0.45593999997E+02  0.45594000000E+02  0.51100000000E-03 0.  1.
         23    2    1    2    0    0  0.00000000000E+00  0.00000000000E+00  0.00000000000E+00  0.91188000000E+02  0.91188000000E+02 0.  0.
    9900012    2    3    3    0    0 -0.99537042920E+01  0.33773647033E+02 -0.10772370902E+02  0.54367089665E+02  0.40000012509E+02 0.  0.
         12    1    3    3    0    0  0.99537042920E+01 -0.33773647033E+02  0.10772370902E+02  0.36820910335E+02  0.00000000000E+00 0. -1.
         11    1    4    4    0    0  0.88528174170E+00  0.38660188349E+00  0.70614235502E+01  0.71271935287E+01  0.51100000000E-03 0. -1.
        -11    1    4    4    0    0 -0.76294331031E+00  0.28441309203E+02 -0.21245326765E+02  0.35508506886E+02  0.51100000000E-03 0.  1.
        -12    1    4    4    0    0 -0.10076042723E+02  0.49457359467E+01  0.34115323124E+01  0.11731389250E+02  0.00000000000E+00 0.  1.
</event>
<event>
 8    1  0.1254059E-006  0.9118800E+02  0.7816164E-02  0.1184000E+00
        -11   -1    0    0    0    0  0.00000000000E+00  0.00000000000E+00  0.45593999997E+02  0.45594000000E+02  0.51100000000E-03 0. -1.
         11   -1    0    0    0    0 -0.00000000000E+00 -0.00000000000E+00 -0.45593999997E+02  0.45594000000E+02  0.51100000000E-03 0.  1.
         23    2    1    2    0    0 -0.11102230246E-15  0.00000000000E+00 -0.17763568394E-14  0.91188000000E+02  0.91188000000E+02 0.  0.
    9900012    2    3    3    0    0  0.59184849324E+00  0.34983613758E+02 -0.11470751853E+02  0.54367059433E+02  0.39999943588E+02 0.  0.
        -12    1    3    3    0    0 -0.59184849324E+00 -0.34983613758E+02  0.11470751853E+02  0.36820940567E+02  0.00000000000E+00 0.  1.
         11    1    4    4    0    0 -0.47629929754E+01  0.17043540995E+02  0.64300124843E+01  0.18828527626E+02  0.51100000000E-03 0. -1.
        -11    1    4    4    0    0  0.11116886217E+02  0.16868557561E+02 -0.20803202623E+02  0.28998390179E+02  0.51100000000E-03 0.  1.
        -12    1    4    4    0    0 -0.57620447485E+01  0.10715152018E+01  0.29024382855E+01  0.65401416278E+01  0.00000000000E+00 0.  1.
</event>
<event>
 8    1  0.1254059E-006  0.9118800E+02  0.7816164E-02  0.1184000E+00
        -11   -1    0    0    0    0  0.00000000000E+00  0.00000000000E+00  0.45593999997E+02  0.45594000000E+02  0.51100000000E-03 0. -1.
         11   -1    0    0    0    0 -0.00000000000E+00 -0.00000000000E+00 -0.45593999997E+02  0.45594000000E+02  0.51100000000E-03 0.  1.
         23    2    1    2    0    0  0.00000000000E+00  0.00000000000E+00  0.00000000000E+00  0.91188000000E+02  0.91188000000E+02 0.  0.
    9900012    2    3    3    0    0 -0.35506074534E+02  0.57975455638E+01 -0.78413940008E+01  0.54367077643E+02  0.39999985102E+02 0.  0.
        -12    1    3    3    0    0  0.35506074534E+02 -0.57975455638E+01  0.78413940008E+01  0.36820922357E+02  0.00000000000E+00 0.  1.
         11    1    4    4    0    0 -0.13202987019E+02 -0.51832742200E+01 -0.71883171833E+01  0.15901481128E+02  0.51100000000E-03 0. -1.
        -11    1    4    4    0    0 -0.27502548551E+02  0.13898501646E+02  0.37661767275E+01  0.31044204165E+02  0.51100000000E-03 0.  1.
        -12    1    4    4    0    0  0.51994610368E+01 -0.29176818618E+01 -0.44192535451E+01  0.74213923502E+01  0.00000000000E+00 0.  1.
</event>
<event>
 8    1  0.1254059E-006  0.9118800E+02  0.7816164E-02  0.1184000E+00
        -11   -1    0    0    0    0  0.00000000000E+00  0.00000000000E+00  0.45593999997E+02  0.45594000000E+02  0.51100000000E-03 0.  1.
         11   -1    0    0    0    0 -0.00000000000E+00 -0.00000000000E+00 -0.45593999997E+02  0.45594000000E+02  0.51100000000E-03 0. -1.
         23    2    1    2    0    0  0.00000000000E+00 -0.17763568394E-14  0.35527136788E-14  0.91188000000E+02  0.91188000000E+02 0.  0.
    9900012    2    3    3    0    0 -0.26985770381E+02  0.85909879230E+01 -0.23531822228E+02  0.54367034044E+02  0.39999885711E+02 0.  0.
        -12    1    3    3    0    0  0.26985770381E+02 -0.85909879230E+01  0.23531822228E+02  0.36820965956E+02  0.00000000000E+00 0.  1.
         11    1    4    4    0    0 -0.19227388526E+02  0.97275771104E+01 -0.13785231451E+02  0.25580282101E+02  0.51100000000E-03 0. -1.
        -11    1    4    4    0    0 -0.14852262662E+02  0.32363446718E+00 -0.13978537115E+02  0.20398380955E+02  0.51100000000E-03 0.  1.
        -12    1    4    4    0    0  0.70938808071E+01 -0.14602236545E+01  0.42319463379E+01  0.83883709880E+01  0.00000000000E+00 0.  1.
</event>
<event>
 8    1  0.1254059E-006  0.9118800E+02  0.7816164E-02  0.1184000E+00
        -11   -1    0    0    0    0  0.00000000000E+00  0.00000000000E+00  0.45593999997E+02  0.45594000000E+02  0.51100000000E-03 0. -1.
         11   -1    0    0    0    0 -0.00000000000E+00 -0.00000000000E+00 -0.45593999997E+02  0.45594000000E+02  0.51100000000E-03 0.  1.
         23    2    1    2    0    0  0.00000000000E+00 -0.17763568394E-14  0.00000000000E+00  0.91188000000E+02  0.91188000000E+02 0.  0.
    9900012    2    3    3    0    0  0.80423064466E+01  0.10101410476E+02  0.34482789977E+02  0.54367082152E+02  0.39999995382E+02 0.  0.
        -12    1    3    3    0    0 -0.80423064466E+01 -0.10101410476E+02 -0.34482789977E+02  0.36820917848E+02  0.00000000000E+00 0.  1.
         11    1    4    4    0    0  0.23024684541E+01  0.16488340456E+02  0.25710874792E+02  0.30630308762E+02  0.51100000000E-03 0. -1.
        -11    1    4    4    0    0 -0.10812982128E+01 -0.56286362235E+01  0.13987812696E+02  0.15116535841E+02  0.51100000000E-03 0.  1.
        -12    1    4    4    0    0  0.68211362054E+01 -0.75829375648E+00 -0.52158975115E+01  0.86202375492E+01  0.00000000000E+00 0.  1.
</event>
<event>
 8    1  0.1254059E-006  0.9118800E+02  0.7816164E-02  0.1184000E+00
        -11   -1    0    0    0    0  0.00000000000E+00  0.00000000000E+00  0.45593999997E+02  0.45594000000E+02  0.51100000000E-03 0. -1.
         11   -1    0    0    0    0 -0.00000000000E+00 -0.00000000000E+00 -0.45593999997E+02  0.45594000000E+02  0.51100000000E-03 0.  1.
         23    2    1    2    0    0  0.00000000000E+00  0.35527136788E-14  0.00000000000E+00  0.91188000000E+02  0.91188000000E+02 0.  0.
    9900012    2    3    3    0    0  0.15637419495E+02  0.26680643270E+02  0.19984847181E+02  0.54367085690E+02  0.40000003448E+02 0.  0.
        -12    1    3    3    0    0 -0.15637419495E+02 -0.26680643270E+02 -0.19984847181E+02  0.36820914310E+02  0.00000000000E+00 0.  1.
         11    1    4    4    0    0  0.40175626471E+01  0.21164812052E+02  0.20668289744E+02  0.29854116634E+02  0.51100000000E-03 0. -1.
        -11    1    4    4    0    0  0.79911395379E+01  0.12945821982E+02  0.29232180538E+01  0.15491863089E+02  0.51100000000E-03 0.  1.
         12    1    4    4    0    0  0.36287173099E+01 -0.74299907637E+01 -0.36066606174E+01  0.90211059673E+01  0.00000000000E+00 0. -1.
</event>
<event>
 8    1  0.1254059E-006  0.9118800E+02  0.7816164E-02  0.1184000E+00
        -11   -1    0    0    0    0  0.00000000000E+00  0.00000000000E+00  0.45593999997E+02  0.45594000000E+02  0.51100000000E-03 0. -1.
         11   -1    0    0    0    0 -0.00000000000E+00 -0.00000000000E+00 -0.45593999997E+02  0.45594000000E+02  0.51100000000E-03 0.  1.
         23    2    1    2    0    0  0.00000000000E+00  0.00000000000E+00  0.00000000000E+00  0.91188000000E+02  0.91188000000E+02 0.  0.
    9900012    2    3    3    0    0  0.25494383569E+01  0.18446013484E+02  0.31765138071E+02  0.54367094986E+02  0.40000024640E+02 0.  0.
        -12    1    3    3    0    0 -0.25494383569E+01 -0.18446013484E+02 -0.31765138071E+02  0.36820905014E+02  0.00000000000E+00 0.  1.
         11    1    4    4    0    0 -0.47870437184E+01  0.50829801177E+01  0.48438868501E+00  0.69990790178E+01  0.51100000000E-03 0. -1.
        -11    1    4    4    0    0  0.11111684827E+02  0.17568681501E+02  0.62496167488E+01  0.21706815039E+02  0.51100000000E-03 0.  1.
        -12    1    4    4    0    0 -0.37752027516E+01 -0.42056481347E+01  0.25031132637E+02  0.25661200930E+02  0.00000000000E+00 0.  1.
</event>
<event>
 8    1  0.1254059E-006  0.9118800E+02  0.7816164E-02  0.1184000E+00
        -11   -1    0    0    0    0  0.00000000000E+00  0.00000000000E+00  0.45593999997E+02  0.45594000000E+02  0.51100000000E-03 0.  1.
         11   -1    0    0    0    0 -0.00000000000E+00 -0.00000000000E+00 -0.45593999997E+02  0.45594000000E+02  0.51100000000E-03 0. -1.
         23    2    1    2    0    0  0.35527136788E-14  0.00000000000E+00  0.00000000000E+00  0.91188000000E+02  0.91188000000E+02 0.  0.
    9900012    2    3    3    0    0  0.31337097519E+02  0.17152693440E+02 -0.89191652414E+01  0.54367080922E+02  0.39999992578E+02 0.  0.
        -12    1    3    3    0    0 -0.31337097519E+02 -0.17152693440E+02  0.89191652414E+01  0.36820919078E+02  0.00000000000E+00 0.  1.
         11    1    4    4    0    0  0.22307904646E+02  0.16388416641E+02  0.71903654508E+01  0.28599373512E+02  0.51100000000E-03 0. -1.
        -11    1    4    4    0    0 -0.28831643793E+01 -0.49592609524E+01 -0.12308888834E+01  0.58670259704E+01  0.51100000000E-03 0.  1.
        -12    1    4    4    0    0  0.11912357252E+02  0.57235377517E+01 -0.14878641809E+02  0.19900681440E+02  0.00000000000E+00 0.  1.
</event>
<event>
 8    1  0.1254059E-006  0.9118800E+02  0.7816164E-02  0.1184000E+00
        -11   -1    0    0    0    0  0.00000000000E+00  0.00000000000E+00  0.45593999997E+02  0.45594000000E+02  0.51100000000E-03 0. -1.
         11   -1    0    0    0    0 -0.00000000000E+00 -0.00000000000E+00 -0.45593999997E+02  0.45594000000E+02  0.51100000000E-03 0.  1.
         23    2    1    2    0    0  0.35527136788E-14 -0.35527136788E-14 -0.88817841970E-15  0.91188000000E+02  0.91188000000E+02 0.  0.
    9900012    2    3    3    0    0  0.25148443898E+02 -0.26728071162E+02 -0.29911294345E+01  0.54367070166E+02  0.39999968058E+02 0.  0.
         12    1    3    3    0    0 -0.25148443898E+02  0.26728071162E+02  0.29911294345E+01  0.36820929834E+02  0.00000000000E+00 0. -1.
         11    1    4    4    0    0  0.16865075884E+02 -0.17495807663E+02  0.69239636493E+01  0.25268069638E+02  0.51100000000E-03 0. -1.
        -11    1    4    4    0    0 -0.23166710234E+01 -0.10817196004E+02  0.37962473248E+01  0.11695733753E+02  0.51100000000E-03 0.  1.
         12    1    4    4    0    0  0.10600039037E+02  0.15849325050E+01 -0.13711340409E+02  0.17403266775E+02  0.00000000000E+00 0. -1.
</event>
<event>
 8    1  0.1254059E-006  0.9118800E+02  0.7816164E-02  0.1184000E+00
        -11   -1    0    0    0    0  0.00000000000E+00  0.00000000000E+00  0.45593999997E+02  0.45594000000E+02  0.51100000000E-03 0.  1.
         11   -1    0    0    0    0 -0.00000000000E+00 -0.00000000000E+00 -0.45593999997E+02  0.45594000000E+02  0.51100000000E-03 0. -1.
         23    2    1    2    0    0  0.00000000000E+00  0.35527136788E-14  0.00000000000E+00  0.91188000000E+02  0.91188000000E+02 0.  0.
    9900012    2    3    3    0    0  0.14322787097E+02 -0.28702977351E+02  0.18076979507E+02  0.54367077590E+02  0.39999984981E+02 0.  0.
         12    1    3    3    0    0 -0.14322787097E+02  0.28702977351E+02 -0.18076979507E+02  0.36820922410E+02  0.00000000000E+00 0. -1.
         11    1    4    4    0    0 -0.56818699471E+01 -0.11840848615E+02 -0.36558219395E+01  0.13632841829E+02  0.51100000000E-03 0. -1.
        -11    1    4    4    0    0  0.13726142034E+02  0.20136633114E+01  0.50217871854E+01  0.14753987998E+02  0.51100000000E-03 0.  1.
        -12    1    4    4    0    0  0.62785150105E+01 -0.18875792047E+02  0.16711014262E+02  0.25980247763E+02  0.00000000000E+00 0.  1.
</event>
<event>
 8    1  0.1254059E-006  0.9118800E+02  0.7816164E-02  0.1184000E+00
        -11   -1    0    0    0    0  0.00000000000E+00  0.00000000000E+00  0.45593999997E+02  0.45594000000E+02  0.51100000000E-03 0. -1.
         11   -1    0    0    0    0 -0.00000000000E+00 -0.00000000000E+00 -0.45593999997E+02  0.45594000000E+02  0.51100000000E-03 0.  1.
         23    2    1    2    0    0  0.35527136788E-14  0.71054273576E-14  0.00000000000E+00  0.91188000000E+02  0.91188000000E+02 0.  0.
    9900012    2    3    3    0    0 -0.16823006117E+02 -0.32723158455E+02 -0.14010474725E+01  0.54367060739E+02  0.39999946566E+02 0.  0.
         12    1    3    3    0    0  0.16823006117E+02  0.32723158455E+02  0.14010474725E+01  0.36820939261E+02  0.00000000000E+00 0. -1.
         11    1    4    4    0    0  0.32743550089E+01 -0.64777638647E+01 -0.11009592451E+01  0.73413171115E+01  0.51100000000E-03 0. -1.
        -11    1    4    4    0    0 -0.21850707652E+02 -0.32726429832E+02  0.31511992683E+01  0.39476609423E+02  0.51100000000E-03 0.  1.
         12    1    4    4    0    0  0.17533465262E+01  0.64810352421E+01 -0.34512874956E+01  0.75491342039E+01  0.00000000000E+00 0. -1.
</event>
<event>
 8    1  0.1254059E-006  0.9118800E+02  0.7816164E-02  0.1184000E+00
        -11   -1    0    0    0    0  0.00000000000E+00  0.00000000000E+00  0.45593999997E+02  0.45594000000E+02  0.51100000000E-03 0.  1.
         11   -1    0    0    0    0 -0.00000000000E+00 -0.00000000000E+00 -0.45593999997E+02  0.45594000000E+02  0.51100000000E-03 0. -1.
         23    2    1    2    0    0  0.00000000000E+00  0.71054273576E-14  0.00000000000E+00  0.91188000000E+02  0.91188000000E+02 0.  0.
    9900012    2    3    3    0    0  0.16294990507E+02 -0.32607137289E+02 -0.51987608010E+01  0.54367092465E+02  0.40000018892E+02 0.  0.
         12    1    3    3    0    0 -0.16294990507E+02  0.32607137289E+02  0.51987608010E+01  0.36820907535E+02  0.00000000000E+00 0. -1.
         11    1    4    4    0    0  0.22606567194E+02 -0.16347196684E+02  0.75837808337E+01  0.28910230917E+02  0.51100000000E-03 0.  1.
        -11    1    4    4    0    0 -0.72203158716E+01 -0.15260632662E+02 -0.50706455184E+01  0.17627572628E+02  0.51100000000E-03 0. -1.
        -12    1    4    4    0    0  0.90873918517E+00 -0.99930794355E+00 -0.77118961163E+01  0.78292889193E+01  0.00000000000E+00 0.  1.
</event>
<event>
 8    1  0.1254059E-006  0.9118800E+02  0.7816164E-02  0.1184000E+00
        -11   -1    0    0    0    0  0.00000000000E+00  0.00000000000E+00  0.45593999997E+02  0.45594000000E+02  0.51100000000E-03 0. -1.
         11   -1    0    0    0    0 -0.00000000000E+00 -0.00000000000E+00 -0.45593999997E+02  0.45594000000E+02  0.51100000000E-03 0.  1.
         23    2    1    2    0    0 -0.17763568394E-14 -0.35527136788E-14  0.00000000000E+00  0.91188000000E+02  0.91188000000E+02 0.  0.
    9900012    2    3    3    0    0 -0.99648348815E+01 -0.28351715819E+02  0.21275829085E+02  0.54367100671E+02  0.40000037601E+02 0.  0.
        -12    1    3    3    0    0  0.99648348815E+01  0.28351715819E+02 -0.21275829085E+02  0.36820899329E+02  0.00000000000E+00 0.  1.
         11    1    4    4    0    0  0.43102587095E+01 -0.22653297746E+02  0.16441390537E+02  0.28320832473E+02  0.51100000000E-03 0. -1.
        -11    1    4    4    0    0 -0.14710254860E+02 -0.12045803173E+02  0.21259384576E+01  0.19131455426E+02  0.51100000000E-03 0.  1.
        -12    1    4    4    0    0  0.43516126856E+00  0.63473851002E+01  0.27085000903E+01  0.69148127725E+01  0.00000000000E+00 0.  1.
</event>
<event>
 8    1  0.1254059E-006  0.9118800E+02  0.7816164E-02  0.1184000E+00
        -11   -1    0    0    0    0  0.00000000000E+00  0.00000000000E+00  0.45593999997E+02  0.45594000000E+02  0.51100000000E-03 0.  1.
         11   -1    0    0    0    0 -0.00000000000E+00 -0.00000000000E+00 -0.45593999997E+02  0.45594000000E+02  0.51100000000E-03 0. -1.
         23    2    1    2    0    0  0.35527136788E-14  0.00000000000E+00  0.00000000000E+00  0.91188000000E+02  0.91188000000E+02 0.  0.
    9900012    2    3    3    0    0 -0.11806777649E+02 -0.33189024710E+02 -0.10717643836E+02  0.54367092230E+02  0.40000018356E+02 0.  0.
        -12    1    3    3    0    0  0.11806777649E+02  0.33189024710E+02  0.10717643836E+02  0.36820907770E+02  0.00000000000E+00 0.  1.
         11    1    4    4    0    0  0.40858933474E+01 -0.66522330923E+01  0.35996217232E+01  0.85967439401E+01  0.51100000000E-03 0. -1.
        -11    1    4    4    0    0 -0.10146920000E+02 -0.14846888386E+02  0.81942417236E+01  0.19761975557E+02  0.51100000000E-03 0.  1.
         12    1    4    4    0    0 -0.57457509964E+01 -0.11689903232E+02 -0.22511507283E+02  0.26008372733E+02  0.00000000000E+00 0. -1.
</event>
<event>
 8    1  0.1254059E-006  0.9118800E+02  0.7816164E-02  0.1184000E+00
        -11   -1    0    0    0    0  0.00000000000E+00  0.00000000000E+00  0.45593999997E+02  0.45594000000E+02  0.51100000000E-03 0. -1.
         11   -1    0    0    0    0 -0.00000000000E+00 -0.00000000000E+00 -0.45593999997E+02  0.45594000000E+02  0.51100000000E-03 0.  1.
         23    2    1    2    0    0 -0.17763568394E-14  0.00000000000E+00  0.35527136788E-14  0.91188000000E+02  0.91188000000E+02 0.  0.
    9900012    2    3    3    0    0  0.13970000361E+02 -0.16325566421E+02 -0.29901393421E+02  0.54367104335E+02  0.40000045953E+02 0.  0.
         12    1    3    3    0    0 -0.13970000361E+02  0.16325566421E+02  0.29901393421E+02  0.36820895665E+02  0.00000000000E+00 0. -1.
         11    1    4    4    0    0  0.10145036246E+01 -0.17883586309E+01 -0.17400969134E+02  0.17522019611E+02  0.51100000000E-03 0. -1.
        -11    1    4    4    0    0  0.21311814962E+02 -0.12475645446E+02 -0.45147030911E+01  0.25104137718E+02  0.51100000000E-03 0.  1.
        -12    1    4    4    0    0 -0.83563182262E+01 -0.20615623437E+01 -0.79857211961E+01  0.11740947007E+02  0.00000000000E+00 0.  1.
</event>
<event>
 8    1  0.1254059E-006  0.9118800E+02  0.7816164E-02  0.1184000E+00
        -11   -1    0    0    0    0  0.00000000000E+00  0.00000000000E+00  0.45593999997E+02  0.45594000000E+02  0.51100000000E-03 0.  1.
         11   -1    0    0    0    0 -0.00000000000E+00 -0.00000000000E+00 -0.45593999997E+02  0.45594000000E+02  0.51100000000E-03 0. -1.
         23    2    1    2    0    0 -0.17763568394E-14  0.00000000000E+00  0.00000000000E+00  0.91188000000E+02  0.91188000000E+02 0.  0.
    9900012    2    3    3    0    0  0.14480463799E+02 -0.33574560596E+02  0.43390631519E+01  0.54367320755E+02  0.40000539321E+02 0.  0.
        -12    1    3    3    0    0 -0.14480463799E+02  0.33574560596E+02 -0.43390631519E+01  0.36820679245E+02  0.00000000000E+00 0.  1.
         11    1    4    4    0    0  0.16162458150E+02  0.35350272455E+01  0.34684659196E+01  0.16904192591E+02  0.51100000000E-03 0.  1.
        -11    1    4    4    0    0 -0.22395045729E+01 -0.25283937411E+02 -0.13461457221E+01  0.25418595168E+02  0.51100000000E-03 0. -1.
        -12    1    4    4    0    0  0.55751022220E+00 -0.11825650430E+02  0.22167429544E+01  0.12044532995E+02  0.00000000000E+00 0.  1.
</event>
<event>
 8    1  0.1254059E-006  0.9118800E+02  0.7816164E-02  0.1184000E+00
        -11   -1    0    0    0    0  0.00000000000E+00  0.00000000000E+00  0.45593999997E+02  0.45594000000E+02  0.51100000000E-03 0.  1.
         11   -1    0    0    0    0 -0.00000000000E+00 -0.00000000000E+00 -0.45593999997E+02  0.45594000000E+02  0.51100000000E-03 0. -1.
         23    2    1    2    0    0  0.00000000000E+00  0.00000000000E+00  0.00000000000E+00  0.91188000000E+02  0.91188000000E+02 0.  0.
    9900012    2    3    3    0    0 -0.33238836102E+02 -0.10185705367E+02 -0.12133113050E+02  0.54367065038E+02  0.39999956366E+02 0.  0.
        -12    1    3    3    0    0  0.33238836102E+02  0.10185705367E+02  0.12133113050E+02  0.36820934962E+02  0.00000000000E+00 0.  1.
         11    1    4    4    0    0 -0.12712469323E+02  0.33478286586E+01 -0.31104966751E+01  0.13508886809E+02  0.51100000000E-03 0.  1.
        -11    1    4    4    0    0  0.63193546108E+01 -0.13984815534E+00  0.46906890494E+01  0.78712365117E+01  0.51100000000E-03 0. -1.
         12    1    4    4    0    0 -0.26845721390E+02 -0.13393685870E+02 -0.13713305424E+02  0.32986941716E+02  0.00000000000E+00 0. -1.
</event>
<event>
 8    1  0.1254059E-006  0.9118800E+02  0.7816164E-02  0.1184000E+00
        -11   -1    0    0    0    0  0.00000000000E+00  0.00000000000E+00  0.45593999997E+02  0.45594000000E+02  0.51100000000E-03 0. -1.
         11   -1    0    0    0    0 -0.00000000000E+00 -0.00000000000E+00 -0.45593999997E+02  0.45594000000E+02  0.51100000000E-03 0.  1.
         23    2    1    2    0    0  0.00000000000E+00  0.00000000000E+00  0.00000000000E+00  0.91188000000E+02  0.91188000000E+02 0.  0.
    9900012    2    3    3    0    0 -0.22266560068E+02 -0.25801312115E+02 -0.13938151318E+02  0.54367089280E+02  0.40000011631E+02 0.  0.
        -12    1    3    3    0    0  0.22266560068E+02  0.25801312115E+02  0.13938151318E+02  0.36820910720E+02  0.00000000000E+00 0.  1.
         11    1    4    4    0    0 -0.74863497229E+01 -0.28390527166E+02 -0.99806862397E+01  0.31010991004E+02  0.51100000000E-03 0. -1.
        -11    1    4    4    0    0 -0.93415536561E+01 -0.20451826072E+01 -0.10117766021E+02  0.13921802546E+02  0.51100000000E-03 0.  1.
         12    1    4    4    0    0 -0.54386566886E+01  0.46343976584E+01  0.61603009420E+01  0.94342957304E+01  0.00000000000E+00 0. -1.
</event>
<event>
 8    1  0.1254059E-006  0.9118800E+02  0.7816164E-02  0.1184000E+00
        -11   -1    0    0    0    0  0.00000000000E+00  0.00000000000E+00  0.45593999997E+02  0.45594000000E+02  0.51100000000E-03 0.  1.
         11   -1    0    0    0    0 -0.00000000000E+00 -0.00000000000E+00 -0.45593999997E+02  0.45594000000E+02  0.51100000000E-03 0. -1.
         23    2    1    2    0    0  0.00000000000E+00  0.88817841970E-15 -0.17763568394E-14  0.91188000000E+02  0.91188000000E+02 0.  0.
    9900012    2    3    3    0    0  0.35543021893E+02 -0.26887465844E+01  0.92327357201E+01  0.54367093270E+02  0.40000020729E+02 0.  0.
         12    1    3    3    0    0 -0.35543021893E+02  0.26887465844E+01 -0.92327357201E+01  0.36820906730E+02  0.00000000000E+00 0. -1.
         11    1    4    4    0    0  0.27088903982E+02  0.11392235070E+02  0.53996930910E+01  0.29878895973E+02  0.51100000000E-03 0. -1.
        -11    1    4    4    0    0  0.12749045374E+02 -0.43802969687E+01  0.10562007897E+01  0.13521860813E+02  0.51100000000E-03 0.  1.
         12    1    4    4    0    0 -0.42949274623E+01 -0.97006846861E+01  0.27768418393E+01  0.10966336484E+02  0.00000000000E+00 0. -1.
</event>
<event>
 8    1  0.1254059E-006  0.9118800E+02  0.7816164E-02  0.1184000E+00
        -11   -1    0    0    0    0  0.00000000000E+00  0.00000000000E+00  0.45593999997E+02  0.45594000000E+02  0.51100000000E-03 0.  1.
         11   -1    0    0    0    0 -0.00000000000E+00 -0.00000000000E+00 -0.45593999997E+02  0.45594000000E+02  0.51100000000E-03 0. -1.
         23    2    1    2    0    0  0.35527136788E-14  0.35527136788E-14 -0.35527136788E-14  0.91188000000E+02  0.91188000000E+02 0.  0.
    9900012    2    3    3    0    0 -0.23322436154E+02 -0.19756203348E+02  0.20531333279E+02  0.54367092283E+02  0.40000018477E+02 0.  0.
         12    1    3    3    0    0  0.23322436154E+02  0.19756203348E+02 -0.20531333279E+02  0.36820907717E+02  0.00000000000E+00 0. -1.
         11    1    4    4    0    0 -0.11840891218E+02 -0.22409772611E+01 -0.27737466357E+01  0.12366177848E+02  0.51100000000E-03 0. -1.
        -11    1    4    4    0    0 -0.12256558642E+02 -0.93108698092E+01  0.28406669695E+02  0.32308735812E+02  0.51100000000E-03 0.  1.
         12    1    4    4    0    0  0.77501370541E+00 -0.82043562776E+01 -0.51015897798E+01  0.96921786228E+01  0.00000000000E+00 0. -1.
</event>
<event>
 8    1  0.1254059E-006  0.9118800E+02  0.7816164E-02  0.1184000E+00
        -11   -1    0    0    0    0  0.00000000000E+00  0.00000000000E+00  0.45593999997E+02  0.45594000000E+02  0.51100000000E-03 0. -1.
         11   -1    0    0    0    0 -0.00000000000E+00 -0.00000000000E+00 -0.45593999997E+02  0.45594000000E+02  0.51100000000E-03 0.  1.
         23    2    1    2    0    0  0.00000000000E+00  0.00000000000E+00  0.00000000000E+00  0.91188000000E+02  0.91188000000E+02 0.  0.
    9900012    2    3    3    0    0  0.11196788992E+02  0.31262984965E+02 -0.15907207917E+02  0.54367060627E+02  0.39999946311E+02 0.  0.
         12    1    3    3    0    0 -0.11196788992E+02 -0.31262984965E+02  0.15907207917E+02  0.36820939373E+02  0.00000000000E+00 0. -1.
         11    1    4    4    0    0  0.54731846048E+01  0.25579583997E+01 -0.13933121887E+02  0.15186533069E+02  0.51100000000E-03 0. -1.
        -11    1    4    4    0    0 -0.91232312042E+01  0.17113763340E+02 -0.51808311146E+01  0.20073745405E+02  0.51100000000E-03 0.  1.
        -12    1    4    4    0    0  0.14846835591E+02  0.11591263224E+02  0.32067450846E+01  0.19106782153E+02  0.00000000000E+00 0.  1.
</event>
<event>
 8    1  0.1254059E-006  0.9118800E+02  0.7816164E-02  0.1184000E+00
        -11   -1    0    0    0    0  0.00000000000E+00  0.00000000000E+00  0.45593999997E+02  0.45594000000E+02  0.51100000000E-03 0.  1.
         11   -1    0    0    0    0 -0.00000000000E+00 -0.00000000000E+00 -0.45593999997E+02  0.45594000000E+02  0.51100000000E-03 0. -1.
         23    2    1    2    0    0  0.00000000000E+00  0.00000000000E+00  0.00000000000E+00  0.91188000000E+02  0.91188000000E+02 0.  0.
    9900012    2    3    3    0    0  0.99032909935E+01 -0.27745910339E+02  0.22087802645E+02  0.54367058421E+02  0.39999941283E+02 0.  0.
         12    1    3    3    0    0 -0.99032909935E+01  0.27745910339E+02 -0.22087802645E+02  0.36820941579E+02  0.00000000000E+00 0. -1.
         11    1    4    4    0    0  0.20525626625E+01  0.40337056854E+01 -0.14490138822E+01  0.47522033345E+01  0.51100000000E-03 0. -1.
        -11    1    4    4    0    0  0.39442214242E+01 -0.33292119585E+02  0.93237880455E+01  0.34797343762E+02  0.51100000000E-03 0.  1.
        -12    1    4    4    0    0  0.39065069068E+01  0.15125035602E+01  0.14213028482E+02  0.14817511325E+02  0.00000000000E+00 0.  1.
</event>
<event>
 8    1  0.1254059E-006  0.9118800E+02  0.7816164E-02  0.1184000E+00
        -11   -1    0    0    0    0  0.00000000000E+00  0.00000000000E+00  0.45593999997E+02  0.45594000000E+02  0.51100000000E-03 0.  1.
         11   -1    0    0    0    0 -0.00000000000E+00 -0.00000000000E+00 -0.45593999997E+02  0.45594000000E+02  0.51100000000E-03 0. -1.
         23    2    1    2    0    0  0.00000000000E+00 -0.13322676296E-14  0.00000000000E+00  0.91188000000E+02  0.91188000000E+02 0.  0.
    9900012    2    3    3    0    0  0.16884239763E+02  0.37903200273E+01  0.32501307545E+02  0.54367094655E+02  0.40000023885E+02 0.  0.
         12    1    3    3    0    0 -0.16884239763E+02 -0.37903200273E+01 -0.32501307545E+02  0.36820905345E+02  0.00000000000E+00 0. -1.
         11    1    4    4    0    0 -0.51574551895E+01  0.15632807674E+01  0.17833052736E+02  0.18629572216E+02  0.51100000000E-03 0. -1.
        -11    1    4    4    0    0  0.81178716993E+01 -0.77196684362E+01  0.14878855226E+02  0.18624539049E+02  0.51100000000E-03 0.  1.
        -12    1    4    4    0    0  0.13923823253E+02  0.99467076962E+01 -0.21060041736E+00  0.17112983390E+02  0.00000000000E+00 0.  1.
</event>
<event>
 8    1  0.1254059E-006  0.9118800E+02  0.7816164E-02  0.1184000E+00
        -11   -1    0    0    0    0  0.00000000000E+00  0.00000000000E+00  0.45593999997E+02  0.45594000000E+02  0.51100000000E-03 0.  1.
         11   -1    0    0    0    0 -0.00000000000E+00 -0.00000000000E+00 -0.45593999997E+02  0.45594000000E+02  0.51100000000E-03 0. -1.
         23    2    1    2    0    0  0.00000000000E+00  0.00000000000E+00 -0.77715611724E-15  0.91188000000E+02  0.91188000000E+02 0.  0.
    9900012    2    3    3    0    0 -0.34205421828E+02  0.13609096597E+02 -0.75035263639E+00  0.54367062727E+02  0.39999951099E+02 0.  0.
        -12    1    3    3    0    0  0.34205421828E+02 -0.13609096597E+02  0.75035263639E+00  0.36820937273E+02  0.00000000000E+00 0.  1.
         11    1    4    4    0    0 -0.92705644880E+01 -0.16482922951E+01 -0.99621424256E+01  0.13707826793E+02  0.51100000000E-03 0. -1.
        -11    1    4    4    0    0 -0.22137377655E+02  0.26969656143E+01  0.14656972422E+02  0.26686400166E+02  0.51100000000E-03 0.  1.
        -12    1    4    4    0    0 -0.27974796848E+01  0.12560423278E+02 -0.54451826329E+01  0.13972835768E+02  0.00000000000E+00 0.  1.
</event>
<event>
 8    1  0.1254059E-006  0.9118800E+02  0.7816164E-02  0.1184000E+00
        -11   -1    0    0    0    0  0.00000000000E+00  0.00000000000E+00  0.45593999997E+02  0.45594000000E+02  0.51100000000E-03 0. -1.
         11   -1    0    0    0    0 -0.00000000000E+00 -0.00000000000E+00 -0.45593999997E+02  0.45594000000E+02  0.51100000000E-03 0.  1.
         23    2    1    2    0    0  0.35527136788E-14  0.00000000000E+00  0.00000000000E+00  0.91188000000E+02  0.91188000000E+02 0.  0.
    9900012    2    3    3    0    0 -0.27525320248E+02  0.22947117682E+02 -0.84596727521E+01  0.54367088445E+02  0.40000009727E+02 0.  0.
        -12    1    3    3    0    0  0.27525320248E+02 -0.22947117682E+02  0.84596727521E+01  0.36820911555E+02  0.00000000000E+00 0.  1.
         11    1    4    4    0    0 -0.19996600879E+02  0.21599791834E+02  0.75520012452E+01  0.30388283549E+02  0.51100000000E-03 0. -1.
        -11    1    4    4    0    0 -0.79427161764E+01  0.78049000945E+01 -0.11973167752E+02  0.16351145281E+02  0.51100000000E-03 0.  1.
        -12    1    4    4    0    0  0.41399680695E+00 -0.64575742461E+01 -0.40385062458E+01  0.76276596147E+01  0.00000000000E+00 0.  1.
</event>
<event>
 8    1  0.1254059E-006  0.9118800E+02  0.7816164E-02  0.1184000E+00
        -11   -1    0    0    0    0  0.00000000000E+00  0.00000000000E+00  0.45593999997E+02  0.45594000000E+02  0.51100000000E-03 0.  1.
         11   -1    0    0    0    0 -0.00000000000E+00 -0.00000000000E+00 -0.45593999997E+02  0.45594000000E+02  0.51100000000E-03 0. -1.
         23    2    1    2    0    0  0.00000000000E+00  0.00000000000E+00  0.00000000000E+00  0.91188000000E+02  0.91188000000E+02 0.  0.
    9900012    2    3    3    0    0 -0.34290901165E+02  0.10468872578E+02 -0.83858408209E+01  0.54367007047E+02  0.39999824165E+02 0.  0.
        -12    1    3    3    0    0  0.34290901165E+02 -0.10468872578E+02  0.83858408209E+01  0.36820992953E+02  0.00000000000E+00 0.  1.
         11    1    4    4    0    0 -0.70979670297E+01  0.11155267624E+01  0.72260454100E+01  0.10190253600E+02  0.51100000000E-03 0. -1.
        -11    1    4    4    0    0 -0.17763770271E+02  0.11300915046E+02  0.48124206253E+01  0.21596796236E+02  0.51100000000E-03 0.  1.
         12    1    4    4    0    0 -0.94291638647E+01 -0.19475692311E+01 -0.20424306856E+02  0.22579957211E+02  0.00000000000E+00 0. -1.
</event>
<event>
 8    1  0.1254059E-006  0.9118800E+02  0.7816164E-02  0.1184000E+00
        -11   -1    0    0    0    0  0.00000000000E+00  0.00000000000E+00  0.45593999997E+02  0.45594000000E+02  0.51100000000E-03 0.  1.
         11   -1    0    0    0    0 -0.00000000000E+00 -0.00000000000E+00 -0.45593999997E+02  0.45594000000E+02  0.51100000000E-03 0. -1.
         23    2    1    2    0    0  0.00000000000E+00  0.88817841970E-15  0.00000000000E+00  0.91188000000E+02  0.91188000000E+02 0.  0.
    9900012    2    3    3    0    0 -0.23634302866E+02 -0.25068561109E+01 -0.28123209174E+02  0.54367088907E+02  0.40000010781E+02 0.  0.
        -12    1    3    3    0    0  0.23634302866E+02  0.25068561109E+01  0.28123209174E+02  0.36820911093E+02  0.00000000000E+00 0.  1.
         11    1    4    4    0    0 -0.12418142505E+02  0.98177691126E+01 -0.17588171492E+02  0.23663106946E+02  0.51100000000E-03 0. -1.
        -11    1    4    4    0    0  0.25464053052E+01  0.35523008669E+01  0.33605300151E+01  0.55132734080E+01  0.51100000000E-03 0.  1.
        -12    1    4    4    0    0 -0.13762565666E+02 -0.15876926090E+02 -0.13895567697E+02  0.25190708553E+02  0.00000000000E+00 0.  1.
</event>
<event>
 8    1  0.1254059E-006  0.9118800E+02  0.7816164E-02  0.1184000E+00
        -11   -1    0    0    0    0  0.00000000000E+00  0.00000000000E+00  0.45593999997E+02  0.45594000000E+02  0.51100000000E-03 0. -1.
         11   -1    0    0    0    0 -0.00000000000E+00 -0.00000000000E+00 -0.45593999997E+02  0.45594000000E+02  0.51100000000E-03 0.  1.
         23    2    1    2    0    0 -0.22204460493E-15  0.00000000000E+00  0.00000000000E+00  0.91188000000E+02  0.91188000000E+02 0.  0.
    9900012    2    3    3    0    0  0.18399474845E+01  0.32993532770E+02  0.16242542580E+02  0.54367098316E+02  0.40000032230E+02 0.  0.
         12    1    3    3    0    0 -0.18399474845E+01 -0.32993532770E+02 -0.16242542580E+02  0.36820901684E+02  0.00000000000E+00 0. -1.
         11    1    4    4    0    0  0.40853631181E+01  0.18662314348E+02  0.44400012735E+00  0.19109403575E+02  0.51100000000E-03 0.  1.
        -11    1    4    4    0    0 -0.90332438995E+01  0.11165440054E+02  0.21492394107E+02  0.25849362693E+02  0.51100000000E-03 0. -1.
         12    1    4    4    0    0  0.67878282659E+01  0.31657783678E+01 -0.56938516545E+01  0.94083320469E+01  0.00000000000E+00 0. -1.
</event>
<event>
 8    1  0.1254059E-006  0.9118800E+02  0.7816164E-02  0.1184000E+00
        -11   -1    0    0    0    0  0.00000000000E+00  0.00000000000E+00  0.45593999997E+02  0.45594000000E+02  0.51100000000E-03 0.  1.
         11   -1    0    0    0    0 -0.00000000000E+00 -0.00000000000E+00 -0.45593999997E+02  0.45594000000E+02  0.51100000000E-03 0. -1.
         23    2    1    2    0    0  0.00000000000E+00  0.17763568394E-14  0.00000000000E+00  0.91188000000E+02  0.91188000000E+02 0.  0.
    9900012    2    3    3    0    0 -0.65346387345E+01 -0.11004443913E+02 -0.34525069361E+02  0.54367086057E+02  0.40000004284E+02 0.  0.
        -12    1    3    3    0    0  0.65346387345E+01  0.11004443913E+02  0.34525069361E+02  0.36820913943E+02  0.00000000000E+00 0.  1.
         11    1    4    4    0    0  0.41077219755E+01 -0.32631693169E+01 -0.13277901326E+02  0.14276705421E+02  0.51100000000E-03 0. -1.
        -11    1    4    4    0    0  0.18151580152E+00  0.88764151611E+01  0.24300949725E+01  0.92048387240E+01  0.51100000000E-03 0.  1.
        -12    1    4    4    0    0 -0.10823876512E+02 -0.16617689757E+02 -0.23677263008E+02  0.30885541911E+02  0.00000000000E+00 0.  1.
</event>
<event>
 8    1  0.1254059E-006  0.9118800E+02  0.7816164E-02  0.1184000E+00
        -11   -1    0    0    0    0  0.00000000000E+00  0.00000000000E+00  0.45593999997E+02  0.45594000000E+02  0.51100000000E-03 0.  1.
         11   -1    0    0    0    0 -0.00000000000E+00 -0.00000000000E+00 -0.45593999997E+02  0.45594000000E+02  0.51100000000E-03 0. -1.
         23    2    1    2    0    0  0.00000000000E+00 -0.88817841970E-15  0.00000000000E+00  0.91188000000E+02  0.91188000000E+02 0.  0.
    9900012    2    3    3    0    0  0.13101599547E+02  0.50588587328E+01  0.34037278035E+02  0.54367078523E+02  0.39999987109E+02 0.  0.
         12    1    3    3    0    0 -0.13101599547E+02 -0.50588587328E+01 -0.34037278035E+02  0.36820921477E+02  0.00000000000E+00 0. -1.
         11    1    4    4    0    0  0.95372192331E+01  0.55268435800E+01  0.63633369223E+01  0.12727788799E+02  0.51100000000E-03 0. -1.
        -11    1    4    4    0    0 -0.48251610262E+01  0.11856586929E+02  0.35566134451E+01  0.13285719099E+02  0.51100000000E-03 0.  1.
        -12    1    4    4    0    0  0.83895413403E+01 -0.12324571776E+02  0.24117327668E+02  0.28353570625E+02  0.00000000000E+00 0.  1.
</event>
<event>
 8    1  0.1254059E-006  0.9118800E+02  0.7816164E-02  0.1184000E+00
        -11   -1    0    0    0    0  0.00000000000E+00  0.00000000000E+00  0.45593999997E+02  0.45594000000E+02  0.51100000000E-03 0.  1.
         11   -1    0    0    0    0 -0.00000000000E+00 -0.00000000000E+00 -0.45593999997E+02  0.45594000000E+02  0.51100000000E-03 0. -1.
         23    2    1    2    0    0  0.88817841970E-15  0.00000000000E+00  0.00000000000E+00  0.91188000000E+02  0.91188000000E+02 0.  0.
    9900012    2    3    3    0    0  0.58224656826E+01  0.17852545950E+02 -0.31672788950E+02  0.54367081171E+02  0.39999993146E+02 0.  0.
        -12    1    3    3    0    0 -0.58224656826E+01 -0.17852545950E+02  0.31672788950E+02  0.36820918829E+02  0.00000000000E+00 0.  1.
         11    1    4    4    0    0 -0.97831159802E+01  0.21555246158E+02 -0.21609731979E+02  0.32051809803E+02  0.51100000000E-03 0. -1.
        -11    1    4    4    0    0  0.73472297185E+01 -0.45444911679E+01 -0.10971545804E+02  0.13964562367E+02  0.51100000000E-03 0.  1.
         12    1    4    4    0    0  0.82583519442E+01  0.84179096067E+00  0.90848883301E+00  0.83507090008E+01  0.00000000000E+00 0. -1.
</event>
<event>
 8    1  0.1254059E-006  0.9118800E+02  0.7816164E-02  0.1184000E+00
        -11   -1    0    0    0    0  0.00000000000E+00  0.00000000000E+00  0.45593999997E+02  0.45594000000E+02  0.51100000000E-03 0.  1.
         11   -1    0    0    0    0 -0.00000000000E+00 -0.00000000000E+00 -0.45593999997E+02  0.45594000000E+02  0.51100000000E-03 0. -1.
         23    2    1    2    0    0  0.35527136788E-14  0.00000000000E+00  0.35527136788E-14  0.91188000000E+02  0.91188000000E+02 0.  0.
    9900012    2    3    3    0    0 -0.20074913823E+02  0.19711092705E+02 -0.23753927023E+02  0.54367103899E+02  0.40000044960E+02 0.  0.
        -12    1    3    3    0    0  0.20074913823E+02 -0.19711092705E+02  0.23753927023E+02  0.36820896101E+02  0.00000000000E+00 0.  1.
         11    1    4    4    0    0 -0.36281774208E+01  0.12521486304E+01  0.43999813571E+01  0.58387827322E+01  0.51100000000E-03 0. -1.
        -11    1    4    4    0    0  0.51842258373E+01 -0.90891205186E+00  0.29048953547E+01  0.60117165546E+01  0.51100000000E-03 0.  1.
         12    1    4    4    0    0 -0.21630962239E+02  0.19367856126E+02 -0.31058803735E+02  0.42516604613E+02  0.00000000000E+00 0. -1.
</event>
<event>
 8    1  0.1254059E-006  0.9118800E+02  0.7816164E-02  0.1184000E+00
        -11   -1    0    0    0    0  0.00000000000E+00  0.00000000000E+00  0.45593999997E+02  0.45594000000E+02  0.51100000000E-03 0.  1.
         11   -1    0    0    0    0 -0.00000000000E+00 -0.00000000000E+00 -0.45593999997E+02  0.45594000000E+02  0.51100000000E-03 0. -1.
         23    2    1    2    0    0 -0.17763568394E-14  0.17763568394E-14  0.00000000000E+00  0.91188000000E+02  0.91188000000E+02 0.  0.
    9900012    2    3    3    0    0 -0.81220574671E+01  0.13268074185E+02 -0.33373180190E+02  0.54367098788E+02  0.40000033307E+02 0.  0.
        -12    1    3    3    0    0  0.81220574671E+01 -0.13268074185E+02  0.33373180190E+02  0.36820901212E+02  0.00000000000E+00 0.  1.
         11    1    4    4    0    0 -0.60394714518E+01 -0.27120547563E+01 -0.26594027360E+01  0.71346253995E+01  0.51100000000E-03 0. -1.
        -11    1    4    4    0    0 -0.54709522047E+01  0.21011376231E+02 -0.70867961984E+01  0.22839262899E+02  0.51100000000E-03 0.  1.
        -12    1    4    4    0    0  0.33883661894E+01 -0.50312472900E+01 -0.23626981256E+02  0.24393210489E+02  0.00000000000E+00 0.  1.
</event>
<event>
 8    1  0.1254059E-006  0.9118800E+02  0.7816164E-02  0.1184000E+00
        -11   -1    0    0    0    0  0.00000000000E+00  0.00000000000E+00  0.45593999997E+02  0.45594000000E+02  0.51100000000E-03 0. -1.
         11   -1    0    0    0    0 -0.00000000000E+00 -0.00000000000E+00 -0.45593999997E+02  0.45594000000E+02  0.51100000000E-03 0.  1.
         23    2    1    2    0    0  0.00000000000E+00  0.00000000000E+00  0.00000000000E+00  0.91188000000E+02  0.91188000000E+02 0.  0.
    9900012    2    3    3    0    0 -0.25535419160E+02 -0.45131518948E+01 -0.26140969931E+02  0.54367129823E+02  0.40000104057E+02 0.  0.
         12    1    3    3    0    0  0.25535419160E+02  0.45131518948E+01  0.26140969931E+02  0.36820870177E+02  0.00000000000E+00 0. -1.
         11    1    4    4    0    0 -0.30749094306E+01 -0.56164880572E+01 -0.65198484950E+01  0.91382947404E+01  0.51100000000E-03 0. -1.
        -11    1    4    4    0    0 -0.24674288166E+02 -0.12011554050E+02 -0.12790726871E+02  0.30277064279E+02  0.51100000000E-03 0.  1.
         12    1    4    4    0    0  0.22137784371E+01  0.13114890212E+02 -0.68303945647E+01  0.14951770803E+02  0.00000000000E+00 0. -1.
</event>
<event>
 8    1  0.1254059E-006  0.9118800E+02  0.7816164E-02  0.1184000E+00
        -11   -1    0    0    0    0  0.00000000000E+00  0.00000000000E+00  0.45593999997E+02  0.45594000000E+02  0.51100000000E-03 0.  1.
         11   -1    0    0    0    0 -0.00000000000E+00 -0.00000000000E+00 -0.45593999997E+02  0.45594000000E+02  0.51100000000E-03 0. -1.
         23    2    1    2    0    0 -0.35527136788E-14  0.00000000000E+00  0.88817841970E-15  0.91188000000E+02  0.91188000000E+02 0.  0.
    9900012    2    3    3    0    0  0.18865774450E+02 -0.31173995090E+02 -0.52959329995E+01  0.54367050504E+02  0.39999923234E+02 0.  0.
        -12    1    3    3    0    0 -0.18865774450E+02  0.31173995090E+02  0.52959329995E+01  0.36820949496E+02  0.00000000000E+00 0.  1.
         11    1    4    4    0    0  0.18140608659E+02 -0.92725697861E+01  0.66881333909E+01  0.21442792763E+02  0.51100000000E-03 0.  1.
        -11    1    4    4    0    0 -0.63237285489E+00 -0.21726315172E+02 -0.89805160073E+00  0.21754060847E+02  0.51100000000E-03 0. -1.
        -12    1    4    4    0    0  0.13575386457E+01 -0.17511013147E+00 -0.11086014790E+02  0.11170196894E+02  0.00000000000E+00 0.  1.
</event>
<event>
 8    1  0.1254059E-006  0.9118800E+02  0.7816164E-02  0.1184000E+00
        -11   -1    0    0    0    0  0.00000000000E+00  0.00000000000E+00  0.45593999997E+02  0.45594000000E+02  0.51100000000E-03 0.  1.
         11   -1    0    0    0    0 -0.00000000000E+00 -0.00000000000E+00 -0.45593999997E+02  0.45594000000E+02  0.51100000000E-03 0. -1.
         23    2    1    2    0    0 -0.17763568394E-14  0.00000000000E+00  0.00000000000E+00  0.91188000000E+02  0.91188000000E+02 0.  0.
    9900012    2    3    3    0    0 -0.15957242886E+02  0.14872827946E+02 -0.29663891932E+02  0.54367067147E+02  0.39999961175E+02 0.  0.
        -12    1    3    3    0    0  0.15957242886E+02 -0.14872827946E+02  0.29663891932E+02  0.36820932853E+02  0.00000000000E+00 0.  1.
         11    1    4    4    0    0 -0.14139030402E+02  0.50566904882E+01 -0.28695031907E+02  0.32386527381E+02  0.51100000000E-03 0. -1.
        -11    1    4    4    0    0  0.81546865164E+01  0.74181037090E+01  0.22075773984E+01  0.11242800943E+02  0.51100000000E-03 0.  1.
         12    1    4    4    0    0 -0.99728989999E+01  0.23980337485E+01 -0.31764374237E+01  0.10737738823E+02  0.00000000000E+00 0. -1.
</event>
<event>
 8    1  0.1254059E-006  0.9118800E+02  0.7816164E-02  0.1184000E+00
        -11   -1    0    0    0    0  0.00000000000E+00  0.00000000000E+00  0.45593999997E+02  0.45594000000E+02  0.51100000000E-03 0.  1.
         11   -1    0    0    0    0 -0.00000000000E+00 -0.00000000000E+00 -0.45593999997E+02  0.45594000000E+02  0.51100000000E-03 0. -1.
         23    2    1    2    0    0 -0.44408920985E-15  0.71054273576E-14  0.35527136788E-14  0.91188000000E+02  0.91188000000E+02 0.  0.
    9900012    2    3    3    0    0 -0.93844333909E+00  0.28836819906E+02  0.22876544912E+02  0.54367093367E+02  0.40000020948E+02 0.  0.
         12    1    3    3    0    0  0.93844333909E+00 -0.28836819906E+02 -0.22876544912E+02  0.36820906633E+02  0.00000000000E+00 0. -1.
         11    1    4    4    0    0 -0.76040635022E+01  0.78474502224E+01  0.14917486433E+02  0.18491502332E+02  0.51100000000E-03 0.  1.
        -11    1    4    4    0    0 -0.81065740943E-01  0.10118734789E+02  0.17294742841E+02  0.20037552135E+02  0.51100000000E-03 0. -1.
         12    1    4    4    0    0  0.67466859041E+01  0.10870634894E+02 -0.93356843618E+01  0.15838038900E+02  0.00000000000E+00 0. -1.
</event>
<event>
 8    1  0.1254059E-006  0.9118800E+02  0.7816164E-02  0.1184000E+00
        -11   -1    0    0    0    0  0.00000000000E+00  0.00000000000E+00  0.45593999997E+02  0.45594000000E+02  0.51100000000E-03 0. -1.
         11   -1    0    0    0    0 -0.00000000000E+00 -0.00000000000E+00 -0.45593999997E+02  0.45594000000E+02  0.51100000000E-03 0.  1.
         23    2    1    2    0    0  0.00000000000E+00  0.44408920985E-15  0.00000000000E+00  0.91188000000E+02  0.91188000000E+02 0.  0.
    9900012    2    3    3    0    0  0.17606758153E+02  0.25626022228E+01  0.32236825414E+02  0.54367112238E+02  0.40000063970E+02 0.  0.
        -12    1    3    3    0    0 -0.17606758153E+02 -0.25626022228E+01 -0.32236825414E+02  0.36820887762E+02  0.00000000000E+00 0.  1.
         11    1    4    4    0    0  0.41702261723E+01 -0.20438931335E+01  0.38779689170E+01  0.60503659932E+01  0.51100000000E-03 0. -1.
        -11    1    4    4    0    0  0.13079291830E+02  0.10080035571E+02 -0.27393061015E+01  0.16738542053E+02  0.51100000000E-03 0.  1.
        -12    1    4    4    0    0  0.35724015055E+00 -0.54735402148E+01  0.31098162598E+02  0.31578204192E+02  0.00000000000E+00 0.  1.
</event>
<event>
 8    1  0.1254059E-006  0.9118800E+02  0.7816164E-02  0.1184000E+00
        -11   -1    0    0    0    0  0.00000000000E+00  0.00000000000E+00  0.45593999997E+02  0.45594000000E+02  0.51100000000E-03 0. -1.
         11   -1    0    0    0    0 -0.00000000000E+00 -0.00000000000E+00 -0.45593999997E+02  0.45594000000E+02  0.51100000000E-03 0.  1.
         23    2    1    2    0    0  0.00000000000E+00  0.00000000000E+00  0.88817841970E-15  0.91188000000E+02  0.91188000000E+02 0.  0.
    9900012    2    3    3    0    0 -0.68548093823E+01 -0.35872309066E+02 -0.46871520740E+01  0.54367077090E+02  0.39999983842E+02 0.  0.
         12    1    3    3    0    0  0.68548093823E+01  0.35872309066E+02  0.46871520740E+01  0.36820922910E+02  0.00000000000E+00 0. -1.
         11    1    4    4    0    0  0.84637906005E+01 -0.52434421718E+01 -0.15078075226E+01  0.10069901734E+02  0.51100000000E-03 0. -1.
        -11    1    4    4    0    0 -0.63591951890E+01 -0.25392192046E+02 -0.13678554722E+02  0.29534820804E+02  0.51100000000E-03 0.  1.
         12    1    4    4    0    0 -0.89594047938E+01 -0.52366748479E+01  0.10499210171E+02  0.14762354552E+02  0.00000000000E+00 0. -1.
</event>
<event>
 8    1  0.1254059E-006  0.9118800E+02  0.7816164E-02  0.1184000E+00
        -11   -1    0    0    0    0  0.00000000000E+00  0.00000000000E+00  0.45593999997E+02  0.45594000000E+02  0.51100000000E-03 0.  1.
         11   -1    0    0    0    0 -0.00000000000E+00 -0.00000000000E+00 -0.45593999997E+02  0.45594000000E+02  0.51100000000E-03 0. -1.
         23    2    1    2    0    0  0.88817841970E-15  0.00000000000E+00  0.00000000000E+00  0.91188000000E+02  0.91188000000E+02 0.  0.
    9900012    2    3    3    0    0  0.46458334859E+01  0.33760158698E+02 -0.13944465914E+02  0.54367079130E+02  0.39999988492E+02 0.  0.
         12    1    3    3    0    0 -0.46458334859E+01 -0.33760158698E+02  0.13944465914E+02  0.36820920870E+02  0.00000000000E+00 0. -1.
         11    1    4    4    0    0 -0.14100208669E+02  0.88574002634E+01 -0.15666095033E+02  0.22862544867E+02  0.51100000000E-03 0. -1.
        -11    1    4    4    0    0  0.14463694239E+02  0.16111614754E+02  0.17939500442E+01  0.21725580269E+02  0.51100000000E-03 0.  1.
         12    1    4    4    0    0  0.42823479157E+01  0.87911436811E+01 -0.72320924683E-01  0.97789539936E+01  0.00000000000E+00 0. -1.
</event>
<event>
 8    1  0.1254059E-006  0.9118800E+02  0.7816164E-02  0.1184000E+00
        -11   -1    0    0    0    0  0.00000000000E+00  0.00000000000E+00  0.45593999997E+02  0.45594000000E+02  0.51100000000E-03 0.  1.
         11   -1    0    0    0    0 -0.00000000000E+00 -0.00000000000E+00 -0.45593999997E+02  0.45594000000E+02  0.51100000000E-03 0. -1.
         23    2    1    2    0    0  0.88817841970E-15  0.35527136788E-14  0.00000000000E+00  0.91188000000E+02  0.91188000000E+02 0.  0.
    9900012    2    3    3    0    0  0.76985083776E+01 -0.21959335829E+02 -0.28535964134E+02  0.54367072386E+02  0.39999973119E+02 0.  0.
        -12    1    3    3    0    0 -0.76985083776E+01  0.21959335829E+02  0.28535964134E+02  0.36820927614E+02  0.00000000000E+00 0.  1.
         11    1    4    4    0    0  0.63159905294E+01 -0.15185985674E+02 -0.23656046055E+02  0.28811706171E+02  0.51100000000E-03 0. -1.
        -11    1    4    4    0    0  0.10504325167E+02  0.31953134560E+01  0.54895824519E+00  0.10993281162E+02  0.51100000000E-03 0.  1.
         12    1    4    4    0    0 -0.91218073188E+01 -0.99686636107E+01 -0.54288763246E+01  0.14562085053E+02  0.00000000000E+00 0. -1.
</event>
<event>
 8    1  0.1254059E-006  0.9118800E+02  0.7816164E-02  0.1184000E+00
        -11   -1    0    0    0    0  0.00000000000E+00  0.00000000000E+00  0.45593999997E+02  0.45594000000E+02  0.51100000000E-03 0.  1.
         11   -1    0    0    0    0 -0.00000000000E+00 -0.00000000000E+00 -0.45593999997E+02  0.45594000000E+02  0.51100000000E-03 0. -1.
         23    2    1    2    0    0  0.00000000000E+00  0.13322676296E-14  0.17763568394E-14  0.91188000000E+02  0.91188000000E+02 0.  0.
    9900012    2    3    3    0    0  0.35680351853E+02 -0.27619623709E+01  0.86638990704E+01  0.54367094367E+02  0.40000023229E+02 0.  0.
         12    1    3    3    0    0 -0.35680351853E+02  0.27619623709E+01 -0.86638990704E+01  0.36820905633E+02  0.00000000000E+00 0. -1.
         11    1    4    4    0    0  0.44853644324E+01  0.62008160035E+01 -0.40634804760E+01  0.86648997132E+01  0.51100000000E-03 0.  1.
        -11    1    4    4    0    0  0.13536076416E+02  0.70601512848E+01 -0.49172319879E+01  0.16039023399E+02  0.51100000000E-03 0. -1.
        -12    1    4    4    0    0  0.17658911005E+02 -0.16022929659E+02  0.17644611534E+02  0.29663171256E+02  0.00000000000E+00 0.  1.
</event>
<event>
 8    1  0.1254059E-006  0.9118800E+02  0.7816164E-02  0.1184000E+00
        -11   -1    0    0    0    0  0.00000000000E+00  0.00000000000E+00  0.45593999997E+02  0.45594000000E+02  0.51100000000E-03 0. -1.
         11   -1    0    0    0    0 -0.00000000000E+00 -0.00000000000E+00 -0.45593999997E+02  0.45594000000E+02  0.51100000000E-03 0.  1.
         23    2    1    2    0    0 -0.17763568394E-14  0.71054273576E-14  0.00000000000E+00  0.91188000000E+02  0.91188000000E+02 0.  0.
    9900012    2    3    3    0    0 -0.14204403639E+02  0.32322858242E+02 -0.10452159197E+02  0.54367083668E+02  0.39999998837E+02 0.  0.
         12    1    3    3    0    0  0.14204403639E+02 -0.32322858242E+02  0.10452159197E+02  0.36820916332E+02  0.00000000000E+00 0. -1.
         11    1    4    4    0    0 -0.20760764388E+02  0.59656367863E+01 -0.25570621163E+01  0.21751706305E+02  0.51100000000E-03 0. -1.
        -11    1    4    4    0    0  0.96805456869E+01  0.11404256625E+02 -0.87241070400E+01  0.17317045876E+02  0.51100000000E-03 0.  1.
         12    1    4    4    0    0 -0.31241849375E+01  0.14952964831E+02  0.82900995961E+00  0.15298331487E+02  0.00000000000E+00 0. -1.
</event>
<event>
 8    1  0.1254059E-006  0.9118800E+02  0.7816164E-02  0.1184000E+00
        -11   -1    0    0    0    0  0.00000000000E+00  0.00000000000E+00  0.45593999997E+02  0.45594000000E+02  0.51100000000E-03 0.  1.
         11   -1    0    0    0    0 -0.00000000000E+00 -0.00000000000E+00 -0.45593999997E+02  0.45594000000E+02  0.51100000000E-03 0. -1.
         23    2    1    2    0    0  0.44408920985E-15  0.35527136788E-14  0.00000000000E+00  0.91188000000E+02  0.91188000000E+02 0.  0.
    9900012    2    3    3    0    0 -0.23392449764E+01  0.19372170476E+02  0.31225425614E+02  0.54367078491E+02  0.39999987035E+02 0.  0.
         12    1    3    3    0    0  0.23392449764E+01 -0.19372170476E+02 -0.31225425614E+02  0.36820921509E+02  0.00000000000E+00 0. -1.
         11    1    4    4    0    0 -0.42063526026E+00  0.17648298322E+02 -0.11148346952E+01  0.17688477163E+02  0.51100000000E-03 0.  1.
        -11    1    4    4    0    0 -0.87092515674E+01 -0.17975873546E+01  0.11913465588E+02  0.14866507517E+02  0.51100000000E-03 0. -1.
        -12    1    4    4    0    0  0.67906418513E+01  0.35214595082E+01  0.20426794722E+02  0.21812093811E+02  0.00000000000E+00 0.  1.
</event>
<event>
 8    1  0.1254059E-006  0.9118800E+02  0.7816164E-02  0.1184000E+00
        -11   -1    0    0    0    0  0.00000000000E+00  0.00000000000E+00  0.45593999997E+02  0.45594000000E+02  0.51100000000E-03 0.  1.
         11   -1    0    0    0    0 -0.00000000000E+00 -0.00000000000E+00 -0.45593999997E+02  0.45594000000E+02  0.51100000000E-03 0. -1.
         23    2    1    2    0    0  0.00000000000E+00  0.35527136788E-14  0.00000000000E+00  0.91188000000E+02  0.91188000000E+02 0.  0.
    9900012    2    3    3    0    0  0.91210210297E+01  0.21364729678E+02  0.28568077059E+02  0.54367085757E+02  0.40000003600E+02 0.  0.
         12    1    3    3    0    0 -0.91210210297E+01 -0.21364729678E+02 -0.28568077059E+02  0.36820914243E+02  0.00000000000E+00 0. -1.
         11    1    4    4    0    0  0.11816284258E+02  0.13368428860E+02  0.16357665431E+02  0.24205633280E+02  0.51100000000E-03 0. -1.
        -11    1    4    4    0    0 -0.31682514873E+01  0.15717551469E+02  0.14982192830E+02  0.21944141449E+02  0.51100000000E-03 0.  1.
         12    1    4    4    0    0  0.47298825912E+00 -0.77212506509E+01 -0.27717812023E+01  0.82173110286E+01  0.00000000000E+00 0. -1.
</event>
<event>
 8    1  0.1254059E-006  0.9118800E+02  0.7816164E-02  0.1184000E+00
        -11   -1    0    0    0    0  0.00000000000E+00  0.00000000000E+00  0.45593999997E+02  0.45594000000E+02  0.51100000000E-03 0.  1.
         11   -1    0    0    0    0 -0.00000000000E+00 -0.00000000000E+00 -0.45593999997E+02  0.45594000000E+02  0.51100000000E-03 0. -1.
         23    2    1    2    0    0 -0.14210854715E-13 -0.66613381478E-15 -0.88817841970E-15  0.91188000000E+02  0.91188000000E+02 0.  0.
    9900012    2    3    3    0    0  0.36737272880E+02 -0.19798142823E+01  0.14930000793E+01  0.54367137266E+02  0.40000121025E+02 0.  0.
         12    1    3    3    0    0 -0.36737272880E+02  0.19798142823E+01 -0.14930000793E+01  0.36820862734E+02  0.00000000000E+00 0. -1.
         11    1    4    4    0    0  0.16546192095E+01 -0.54777478912E+01  0.10053570516E+02  0.11567962961E+02  0.51100000000E-03 0. -1.
        -11    1    4    4    0    0 -0.23267794965E+01  0.18216134220E+00  0.27213873481E+01  0.35851129605E+01  0.51100000000E-03 0.  1.
         12    1    4    4    0    0  0.37409433167E+02  0.33157722667E+01 -0.11281957785E+02  0.39214061344E+02  0.00000000000E+00 0. -1.
</event>
<event>
 8    1  0.1254059E-006  0.9118800E+02  0.7816164E-02  0.1184000E+00
        -11   -1    0    0    0    0  0.00000000000E+00  0.00000000000E+00  0.45593999997E+02  0.45594000000E+02  0.51100000000E-03 0.  1.
         11   -1    0    0    0    0 -0.00000000000E+00 -0.00000000000E+00 -0.45593999997E+02  0.45594000000E+02  0.51100000000E-03 0. -1.
         23    2    1    2    0    0  0.71054273576E-14  0.44408920985E-15  0.00000000000E+00  0.91188000000E+02  0.91188000000E+02 0.  0.
    9900012    2    3    3    0    0  0.30468808600E+02  0.28732008068E+01  0.20473785117E+02  0.54367089400E+02  0.40000011906E+02 0.  0.
        -12    1    3    3    0    0 -0.30468808600E+02 -0.28732008068E+01 -0.20473785117E+02  0.36820910600E+02  0.00000000000E+00 0.  1.
         11    1    4    4    0    0  0.32748959187E+02  0.90158688034E+01  0.11250822329E+02  0.35782135507E+02  0.51100000000E-03 0. -1.
        -11    1    4    4    0    0  0.61490046703E+01 -0.37743055971E+01  0.54929804638E+01  0.90679918291E+01  0.51100000000E-03 0.  1.
         12    1    4    4    0    0 -0.84291552568E+01 -0.23683623995E+01  0.37299823241E+01  0.95169620645E+01  0.00000000000E+00 0. -1.
</event>
<event>
 8    1  0.1254059E-006  0.9118800E+02  0.7816164E-02  0.1184000E+00
        -11   -1    0    0    0    0  0.00000000000E+00  0.00000000000E+00  0.45593999997E+02  0.45594000000E+02  0.51100000000E-03 0.  1.
         11   -1    0    0    0    0 -0.00000000000E+00 -0.00000000000E+00 -0.45593999997E+02  0.45594000000E+02  0.51100000000E-03 0. -1.
         23    2    1    2    0    0  0.35527136788E-14  0.00000000000E+00  0.00000000000E+00  0.91188000000E+02  0.91188000000E+02 0.  0.
    9900012    2    3    3    0    0  0.26957613422E+02 -0.24750012975E+02  0.40624354727E+01  0.54367089560E+02  0.40000012270E+02 0.  0.
        -12    1    3    3    0    0 -0.26957613422E+02  0.24750012975E+02 -0.40624354727E+01  0.36820910440E+02  0.00000000000E+00 0.  1.
         11    1    4    4    0    0  0.66524587517E+01 -0.62661312028E+01  0.21986747736E+01  0.93996690748E+01  0.51100000000E-03 0. -1.
        -11    1    4    4    0    0 -0.45560804238E+01 -0.17467486470E+02  0.73447795926E+01  0.19488887601E+02  0.51100000000E-03 0.  1.
         12    1    4    4    0    0  0.24861235094E+02 -0.10163953015E+01 -0.54810188935E+01  0.25478532884E+02  0.00000000000E+00 0. -1.
</event>
<event>
 8    1  0.1254059E-006  0.9118800E+02  0.7816164E-02  0.1184000E+00
        -11   -1    0    0    0    0  0.00000000000E+00  0.00000000000E+00  0.45593999997E+02  0.45594000000E+02  0.51100000000E-03 0.  1.
         11   -1    0    0    0    0 -0.00000000000E+00 -0.00000000000E+00 -0.45593999997E+02  0.45594000000E+02  0.51100000000E-03 0. -1.
         23    2    1    2    0    0  0.00000000000E+00  0.88817841970E-15  0.17763568394E-14  0.91188000000E+02  0.91188000000E+02 0.  0.
    9900012    2    3    3    0    0 -0.33764133632E+02 -0.52588840899E+01  0.13715239814E+02  0.54367076804E+02  0.39999983191E+02 0.  0.
         12    1    3    3    0    0  0.33764133632E+02  0.52588840899E+01 -0.13715239814E+02  0.36820923196E+02  0.00000000000E+00 0. -1.
         11    1    4    4    0    0 -0.26570476235E+02  0.68124618268E+00  0.17746508579E+02  0.31959237643E+02  0.51100000000E-03 0. -1.
        -11    1    4    4    0    0 -0.94405374267E+01 -0.10571949571E+02  0.21802823050E+01  0.14340275305E+02  0.51100000000E-03 0.  1.
         12    1    4    4    0    0  0.22468800298E+01  0.46318192984E+01 -0.62115510694E+01  0.80675638559E+01  0.00000000000E+00 0. -1.
</event>
<event>
 8    1  0.1254059E-006  0.9118800E+02  0.7816164E-02  0.1184000E+00
        -11   -1    0    0    0    0  0.00000000000E+00  0.00000000000E+00  0.45593999997E+02  0.45594000000E+02  0.51100000000E-03 0.  1.
         11   -1    0    0    0    0 -0.00000000000E+00 -0.00000000000E+00 -0.45593999997E+02  0.45594000000E+02  0.51100000000E-03 0. -1.
         23    2    1    2    0    0 -0.88817841970E-15 -0.88817841970E-15  0.00000000000E+00  0.91188000000E+02  0.91188000000E+02 0.  0.
    9900012    2    3    3    0    0  0.43756847390E+01  0.52156604960E+01 -0.36186053510E+02  0.54367079316E+02  0.39999988917E+02 0.  0.
        -12    1    3    3    0    0 -0.43756847390E+01 -0.52156604960E+01  0.36186053510E+02  0.36820920684E+02  0.00000000000E+00 0.  1.
         11    1    4    4    0    0 -0.62178142805E+01  0.11548748969E+02 -0.20149571466E+02  0.24042463429E+02  0.51100000000E-03 0. -1.
        -11    1    4    4    0    0  0.81426069794E+01  0.73965363939E+01 -0.34247158297E+01  0.11521261989E+02  0.51100000000E-03 0.  1.
         12    1    4    4    0    0  0.24508920401E+01 -0.13729624867E+02 -0.12611766214E+02  0.18803353898E+02  0.00000000000E+00 0. -1.
</event>
<event>
 8    1  0.1254059E-006  0.9118800E+02  0.7816164E-02  0.1184000E+00
        -11   -1    0    0    0    0  0.00000000000E+00  0.00000000000E+00  0.45593999997E+02  0.45594000000E+02  0.51100000000E-03 0.  1.
         11   -1    0    0    0    0 -0.00000000000E+00 -0.00000000000E+00 -0.45593999997E+02  0.45594000000E+02  0.51100000000E-03 0. -1.
         23    2    1    2    0    0  0.44408920985E-15  0.00000000000E+00  0.00000000000E+00  0.91188000000E+02  0.91188000000E+02 0.  0.
    9900012    2    3    3    0    0  0.29828081817E+01 -0.28332131401E+02 -0.23327532538E+02  0.54367074038E+02  0.39999976885E+02 0.  0.
        -12    1    3    3    0    0 -0.29828081817E+01  0.28332131401E+02  0.23327532538E+02  0.36820925962E+02  0.00000000000E+00 0.  1.
         11    1    4    4    0    0 -0.22947898260E+01  0.34064462321E+01  0.51029830138E+01  0.65506009020E+01  0.51100000000E-03 0. -1.
        -11    1    4    4    0    0 -0.54620333570E+01 -0.90706969411E+01 -0.17502509469E+02  0.20456030635E+02  0.51100000000E-03 0.  1.
         12    1    4    4    0    0  0.10739631365E+02 -0.22667880692E+02 -0.10928006083E+02  0.27360442501E+02  0.00000000000E+00 0. -1.
</event>
<event>
 8    1  0.1254059E-006  0.9118800E+02  0.7816164E-02  0.1184000E+00
        -11   -1    0    0    0    0  0.00000000000E+00  0.00000000000E+00  0.45593999997E+02  0.45594000000E+02  0.51100000000E-03 0.  1.
         11   -1    0    0    0    0 -0.00000000000E+00 -0.00000000000E+00 -0.45593999997E+02  0.45594000000E+02  0.51100000000E-03 0. -1.
         23    2    1    2    0    0 -0.44408920985E-15 -0.35527136788E-14  0.71054273576E-14  0.91188000000E+02  0.91188000000E+02 0.  0.
    9900012    2    3    3    0    0  0.38431828731E+01  0.20163317098E+02 -0.30568772175E+02  0.54367092308E+02  0.40000018535E+02 0.  0.
        -12    1    3    3    0    0 -0.38431828731E+01 -0.20163317098E+02  0.30568772175E+02  0.36820907692E+02  0.00000000000E+00 0.  1.
         11    1    4    4    0    0 -0.18417952034E+01 -0.40139127542E+01  0.33850684128E+01  0.55643861827E+01  0.51100000000E-03 0. -1.
        -11    1    4    4    0    0 -0.18093320586E+01  0.12665136274E+01  0.35731909661E+01  0.42006467607E+01  0.51100000000E-03 0.  1.
         12    1    4    4    0    0  0.74943101352E+01  0.22910716224E+02 -0.37527031554E+02  0.44602059365E+02  0.00000000000E+00 0. -1.
</event>
<event>
 8    1  0.1254059E-006  0.9118800E+02  0.7816164E-02  0.1184000E+00
        -11   -1    0    0    0    0  0.00000000000E+00  0.00000000000E+00  0.45593999997E+02  0.45594000000E+02  0.51100000000E-03 0.  1.
         11   -1    0    0    0    0 -0.00000000000E+00 -0.00000000000E+00 -0.45593999997E+02  0.45594000000E+02  0.51100000000E-03 0. -1.
         23    2    1    2    0    0  0.00000000000E+00  0.35527136788E-14 -0.35527136788E-14  0.91188000000E+02  0.91188000000E+02 0.  0.
    9900012    2    3    3    0    0 -0.27599329041E+02  0.20241186517E+02 -0.13577578242E+02  0.54367092542E+02  0.40000019067E+02 0.  0.
        -12    1    3    3    0    0  0.27599329041E+02 -0.20241186517E+02  0.13577578242E+02  0.36820907458E+02  0.00000000000E+00 0.  1.
         11    1    4    4    0    0 -0.22551195579E+00  0.17429454819E+02 -0.74339844884E+01  0.18949957165E+02  0.51100000000E-03 0.  1.
        -11    1    4    4    0    0 -0.17515835052E+02  0.11877819069E+02 -0.14028032867E+01  0.21209783609E+02  0.51100000000E-03 0. -1.
         12    1    4    4    0    0 -0.98579820337E+01 -0.90660873715E+01 -0.47407904665E+01  0.14207351768E+02  0.00000000000E+00 0. -1.
</event>
<event>
 8    1  0.1254059E-006  0.9118800E+02  0.7816164E-02  0.1184000E+00
        -11   -1    0    0    0    0  0.00000000000E+00  0.00000000000E+00  0.45593999997E+02  0.45594000000E+02  0.51100000000E-03 0.  1.
         11   -1    0    0    0    0 -0.00000000000E+00 -0.00000000000E+00 -0.45593999997E+02  0.45594000000E+02  0.51100000000E-03 0. -1.
         23    2    1    2    0    0  0.00000000000E+00  0.00000000000E+00  0.35527136788E-14  0.91188000000E+02  0.91188000000E+02 0.  0.
    9900012    2    3    3    0    0  0.19292792928E+02  0.29484948994E+02  0.10686636478E+02  0.54367105452E+02  0.40000048499E+02 0.  0.
         12    1    3    3    0    0 -0.19292792928E+02 -0.29484948994E+02 -0.10686636478E+02  0.36820894548E+02  0.00000000000E+00 0. -1.
         11    1    4    4    0    0  0.14141151023E+01  0.10591646720E+02  0.20266435515E+01  0.10876119994E+02  0.51100000000E-03 0. -1.
        -11    1    4    4    0    0  0.18510149744E+02  0.45217363872E+01  0.18103175477E+02  0.26283011740E+02  0.51100000000E-03 0.  1.
        -12    1    4    4    0    0 -0.63147191816E+00  0.14371565886E+02 -0.94431825510E+01  0.17207973719E+02  0.00000000000E+00 0.  1.
</event>
<event>
 8    1  0.1254059E-006  0.9118800E+02  0.7816164E-02  0.1184000E+00
        -11   -1    0    0    0    0  0.00000000000E+00  0.00000000000E+00  0.45593999997E+02  0.45594000000E+02  0.51100000000E-03 0. -1.
         11   -1    0    0    0    0 -0.00000000000E+00 -0.00000000000E+00 -0.45593999997E+02  0.45594000000E+02  0.51100000000E-03 0.  1.
         23    2    1    2    0    0  0.44408920985E-15  0.00000000000E+00  0.00000000000E+00  0.91188000000E+02  0.91188000000E+02 0.  0.
    9900012    2    3    3    0    0 -0.36083554431E+01  0.12706586679E+02 -0.34370075490E+02  0.54367086605E+02  0.40000005534E+02 0.  0.
         12    1    3    3    0    0  0.36083554431E+01 -0.12706586679E+02  0.34370075490E+02  0.36820913395E+02  0.00000000000E+00 0. -1.
         11    1    4    4    0    0 -0.12090195560E+01 -0.11324125706E+01  0.71984711667E+01  0.73866145098E+01  0.51100000000E-03 0. -1.
        -11    1    4    4    0    0 -0.10567708960E+01  0.55787988450E+01 -0.12649282810E+01  0.58171990766E+01  0.51100000000E-03 0.  1.
        -12    1    4    4    0    0 -0.13425649911E+01  0.82602004045E+01 -0.40303618376E+02  0.41163273019E+02  0.00000000000E+00 0.  1.
</event>
<event>
 8    1  0.1254059E-006  0.9118800E+02  0.7816164E-02  0.1184000E+00
        -11   -1    0    0    0    0  0.00000000000E+00  0.00000000000E+00  0.45593999997E+02  0.45594000000E+02  0.51100000000E-03 0. -1.
         11   -1    0    0    0    0 -0.00000000000E+00 -0.00000000000E+00 -0.45593999997E+02  0.45594000000E+02  0.51100000000E-03 0.  1.
         23    2    1    2    0    0 -0.35527136788E-14  0.00000000000E+00  0.00000000000E+00  0.91188000000E+02  0.91188000000E+02 0.  0.
    9900012    2    3    3    0    0 -0.30512952947E+02  0.14528089964E+02  0.14617594777E+02  0.54367085119E+02  0.40000002146E+02 0.  0.
        -12    1    3    3    0    0  0.30512952947E+02 -0.14528089964E+02 -0.14617594777E+02  0.36820914881E+02  0.00000000000E+00 0.  1.
         11    1    4    4    0    0 -0.35302031596E+02  0.39562577681E+01  0.28537565060E+01  0.35637470965E+02  0.51100000000E-03 0. -1.
        -11    1    4    4    0    0  0.44875200146E+01  0.55518757898E+00  0.42361651145E+01  0.61960603828E+01  0.51100000000E-03 0.  1.
         12    1    4    4    0    0  0.30155863343E+00  0.10016644617E+02  0.75276731566E+01  0.12533553772E+02  0.00000000000E+00 0. -1.
</event>
<event>
 8    1  0.1254059E-006  0.9118800E+02  0.7816164E-02  0.1184000E+00
        -11   -1    0    0    0    0  0.00000000000E+00  0.00000000000E+00  0.45593999997E+02  0.45594000000E+02  0.51100000000E-03 0.  1.
         11   -1    0    0    0    0 -0.00000000000E+00 -0.00000000000E+00 -0.45593999997E+02  0.45594000000E+02  0.51100000000E-03 0. -1.
         23    2    1    2    0    0  0.00000000000E+00 -0.71054273576E-14  0.21233015346E-14  0.91188000000E+02  0.91188000000E+02 0.  0.
    9900012    2    3    3    0    0 -0.13371141448E+02 -0.34307259704E+02  0.66020596311E-01  0.54367084059E+02  0.39999999728E+02 0.  0.
        -12    1    3    3    0    0  0.13371141448E+02  0.34307259704E+02 -0.66020596311E-01  0.36820915941E+02  0.00000000000E+00 0.  1.
         11    1    4    4    0    0 -0.10382115052E+02 -0.21220269907E+02  0.13670836840E+02  0.27294320802E+02  0.51100000000E-03 0. -1.
        -11    1    4    4    0    0  0.14052659381E-02 -0.42276625846E+01  0.48198436771E+01  0.64112421758E+01  0.51100000000E-03 0.  1.
        -12    1    4    4    0    0 -0.29904316617E+01 -0.88593272124E+01 -0.18424659920E+02  0.20661521081E+02  0.00000000000E+00 0.  1.
</event>
<event>
 8    1  0.1254059E-006  0.9118800E+02  0.7816164E-02  0.1184000E+00
        -11   -1    0    0    0    0  0.00000000000E+00  0.00000000000E+00  0.45593999997E+02  0.45594000000E+02  0.51100000000E-03 0.  1.
         11   -1    0    0    0    0 -0.00000000000E+00 -0.00000000000E+00 -0.45593999997E+02  0.45594000000E+02  0.51100000000E-03 0. -1.
         23    2    1    2    0    0 -0.35527136788E-14  0.17763568394E-14  0.00000000000E+00  0.91188000000E+02  0.91188000000E+02 0.  0.
    9900012    2    3    3    0    0 -0.23658121351E+02 -0.13384062350E+02  0.24838357112E+02  0.54367030229E+02  0.39999877013E+02 0.  0.
         12    1    3    3    0    0  0.23658121351E+02  0.13384062350E+02 -0.24838357112E+02  0.36820969771E+02  0.00000000000E+00 0. -1.
         11    1    4    4    0    0 -0.10132411705E+02 -0.93014904327E+01  0.14339305229E+02  0.19869553743E+02  0.51100000000E-03 0. -1.
        -11    1    4    4    0    0 -0.90407753494E+01 -0.15393890028E+02  0.12988605984E+02  0.22077394656E+02  0.51100000000E-03 0.  1.
         12    1    4    4    0    0 -0.44849342961E+01  0.11311318111E+02 -0.24895541008E+01  0.12420081830E+02  0.00000000000E+00 0. -1.
</event>
<event>
 8    1  0.1254059E-006  0.9118800E+02  0.7816164E-02  0.1184000E+00
        -11   -1    0    0    0    0  0.00000000000E+00  0.00000000000E+00  0.45593999997E+02  0.45594000000E+02  0.51100000000E-03 0.  1.
         11   -1    0    0    0    0 -0.00000000000E+00 -0.00000000000E+00 -0.45593999997E+02  0.45594000000E+02  0.51100000000E-03 0. -1.
         23    2    1    2    0    0  0.00000000000E+00  0.35527136788E-14  0.17763568394E-14  0.91188000000E+02  0.91188000000E+02 0.  0.
    9900012    2    3    3    0    0  0.21687515110E+02  0.26587825500E+02  0.13361081753E+02  0.54367091781E+02  0.40000017333E+02 0.  0.
         12    1    3    3    0    0 -0.21687515110E+02 -0.26587825500E+02 -0.13361081753E+02  0.36820908219E+02  0.00000000000E+00 0. -1.
         11    1    4    4    0    0  0.37329820665E+01  0.20021981730E+02 -0.19557309289E+01  0.20460688924E+02  0.51100000000E-03 0. -1.
        -11    1    4    4    0    0  0.20198870668E+02  0.11290129230E+02  0.71704526110E+01  0.24225539937E+02  0.51100000000E-03 0.  1.
         12    1    4    4    0    0 -0.22443376251E+01 -0.47242854601E+01  0.81463600708E+01  0.96808629206E+01  0.00000000000E+00 0. -1.
</event>
<event>
 8    1  0.1254059E-006  0.9118800E+02  0.7816164E-02  0.1184000E+00
        -11   -1    0    0    0    0  0.00000000000E+00  0.00000000000E+00  0.45593999997E+02  0.45594000000E+02  0.51100000000E-03 0.  1.
         11   -1    0    0    0    0 -0.00000000000E+00 -0.00000000000E+00 -0.45593999997E+02  0.45594000000E+02  0.51100000000E-03 0. -1.
         23    2    1    2    0    0  0.00000000000E+00  0.00000000000E+00 -0.17763568394E-14  0.91188000000E+02  0.91188000000E+02 0.  0.
    9900012    2    3    3    0    0  0.24166297543E+02 -0.25125396010E+02  0.11852602928E+02  0.54367086679E+02  0.40000005702E+02 0.  0.
        -12    1    3    3    0    0 -0.24166297543E+02  0.25125396010E+02 -0.11852602928E+02  0.36820913321E+02  0.00000000000E+00 0.  1.
         11    1    4    4    0    0 -0.25048963142E+01 -0.24804036131E+01 -0.87043568946E+00  0.36310557940E+01  0.51100000000E-03 0. -1.
        -11    1    4    4    0    0  0.17132271299E+02  0.65849707134E+01  0.41792194500E+01  0.18823985620E+02  0.51100000000E-03 0.  1.
         12    1    4    4    0    0  0.95389225586E+01 -0.29229963111E+02  0.85438191671E+01  0.31912045265E+02  0.00000000000E+00 0. -1.
</event>
<event>
 8    1  0.1254059E-006  0.9118800E+02  0.7816164E-02  0.1184000E+00
        -11   -1    0    0    0    0  0.00000000000E+00  0.00000000000E+00  0.45593999997E+02  0.45594000000E+02  0.51100000000E-03 0.  1.
         11   -1    0    0    0    0 -0.00000000000E+00 -0.00000000000E+00 -0.45593999997E+02  0.45594000000E+02  0.51100000000E-03 0. -1.
         23    2    1    2    0    0  0.00000000000E+00  0.35527136788E-14  0.00000000000E+00  0.91188000000E+02  0.91188000000E+02 0.  0.
    9900012    2    3    3    0    0  0.19355423309E+02 -0.24086923025E+02 -0.20024137718E+02  0.54367104252E+02  0.40000045764E+02 0.  0.
        -12    1    3    3    0    0 -0.19355423309E+02  0.24086923025E+02  0.20024137718E+02  0.36820895748E+02  0.00000000000E+00 0.  1.
         11    1    4    4    0    0 -0.44203521036E+00  0.44424367918E+01 -0.37509416249E+01  0.58309693114E+01  0.51100000000E-03 0.  1.
        -11    1    4    4    0    0 -0.65682263306E+01 -0.27672671937E+01 -0.80798055859E+01  0.10774164627E+02  0.51100000000E-03 0. -1.
         12    1    4    4    0    0  0.26365684850E+02 -0.25762092623E+02 -0.81933905077E+01  0.37761970313E+02  0.00000000000E+00 0. -1.
</event>
<event>
 8    1  0.1254059E-006  0.9118800E+02  0.7816164E-02  0.1184000E+00
        -11   -1    0    0    0    0  0.00000000000E+00  0.00000000000E+00  0.45593999997E+02  0.45594000000E+02  0.51100000000E-03 0. -1.
         11   -1    0    0    0    0 -0.00000000000E+00 -0.00000000000E+00 -0.45593999997E+02  0.45594000000E+02  0.51100000000E-03 0.  1.
         23    2    1    2    0    0  0.00000000000E+00  0.00000000000E+00  0.23869795029E-14  0.91188000000E+02  0.91188000000E+02 0.  0.
    9900012    2    3    3    0    0 -0.11325103493E+02 -0.35033811695E+02  0.39272762468E+00  0.54367079778E+02  0.39999989971E+02 0.  0.
         12    1    3    3    0    0  0.11325103493E+02  0.35033811695E+02 -0.39272762468E+00  0.36820920222E+02  0.00000000000E+00 0. -1.
         11    1    4    4    0    0 -0.52826974229E+01  0.10207059427E+01 -0.64537042890E+00  0.54189700068E+01  0.51100000000E-03 0. -1.
        -11    1    4    4    0    0 -0.13384480343E+02 -0.22300081083E+02 -0.11981497474E+02  0.28635541070E+02  0.51100000000E-03 0.  1.
        -12    1    4    4    0    0  0.73420742733E+01 -0.13754436554E+02  0.13019595528E+02  0.20312568702E+02  0.00000000000E+00 0.  1.
</event>
<event>
 8    1  0.1254059E-006  0.9118800E+02  0.7816164E-02  0.1184000E+00
        -11   -1    0    0    0    0  0.00000000000E+00  0.00000000000E+00  0.45593999997E+02  0.45594000000E+02  0.51100000000E-03 0.  1.
         11   -1    0    0    0    0 -0.00000000000E+00 -0.00000000000E+00 -0.45593999997E+02  0.45594000000E+02  0.51100000000E-03 0. -1.
         23    2    1    2    0    0  0.00000000000E+00  0.00000000000E+00 -0.71054273576E-14  0.91188000000E+02  0.91188000000E+02 0.  0.
    9900012    2    3    3    0    0 -0.14707583716E+02 -0.74874549293E+01 -0.32915106353E+02  0.54367092538E+02  0.40000019060E+02 0.  0.
        -12    1    3    3    0    0  0.14707583716E+02  0.74874549293E+01  0.32915106353E+02  0.36820907462E+02  0.00000000000E+00 0.  1.
         11    1    4    4    0    0 -0.12386023352E+02 -0.11731402421E+02 -0.30836894665E+01  0.17336335201E+02  0.51100000000E-03 0. -1.
        -11    1    4    4    0    0  0.94046323052E+00 -0.57812583114E+01 -0.24550429854E+02  0.25239473549E+02  0.51100000000E-03 0.  1.
         12    1    4    4    0    0 -0.32620235951E+01  0.10025205803E+02 -0.52809870318E+01  0.11791283788E+02  0.00000000000E+00 0. -1.
</event>
<event>
 8    1  0.1254059E-006  0.9118800E+02  0.7816164E-02  0.1184000E+00
        -11   -1    0    0    0    0  0.00000000000E+00  0.00000000000E+00  0.45593999997E+02  0.45594000000E+02  0.51100000000E-03 0.  1.
         11   -1    0    0    0    0 -0.00000000000E+00 -0.00000000000E+00 -0.45593999997E+02  0.45594000000E+02  0.51100000000E-03 0. -1.
         23    2    1    2    0    0  0.00000000000E+00  0.35527136788E-14 -0.17763568394E-14  0.91188000000E+02  0.91188000000E+02 0.  0.
    9900012    2    3    3    0    0 -0.26555027704E+02 -0.22330702034E+02  0.12326811778E+02  0.54367081512E+02  0.39999993923E+02 0.  0.
         12    1    3    3    0    0  0.26555027704E+02  0.22330702034E+02 -0.12326811778E+02  0.36820918488E+02  0.00000000000E+00 0. -1.
         11    1    4    4    0    0 -0.13015519762E+02  0.99065283797E+01  0.96780434370E+01  0.19005461958E+02  0.51100000000E-03 0. -1.
        -11    1    4    4    0    0 -0.13328419709E+02 -0.29018375315E+02  0.16130590477E+01  0.31973658496E+02  0.51100000000E-03 0.  1.
         12    1    4    4    0    0 -0.21108823301E+00 -0.32188550992E+01  0.10357092933E+01  0.33879610582E+01  0.00000000000E+00 0. -1.
</event>
<event>
 8    1  0.1254059E-006  0.9118800E+02  0.7816164E-02  0.1184000E+00
        -11   -1    0    0    0    0  0.00000000000E+00  0.00000000000E+00  0.45593999997E+02  0.45594000000E+02  0.51100000000E-03 0. -1.
         11   -1    0    0    0    0 -0.00000000000E+00 -0.00000000000E+00 -0.45593999997E+02  0.45594000000E+02  0.51100000000E-03 0.  1.
         23    2    1    2    0    0  0.00000000000E+00  0.35527136788E-14 -0.35527136788E-14  0.91188000000E+02  0.91188000000E+02 0.  0.
    9900012    2    3    3    0    0 -0.23455722581E+02 -0.11311836901E+02  0.26031740999E+02  0.54367080466E+02  0.39999991539E+02 0.  0.
         12    1    3    3    0    0  0.23455722581E+02  0.11311836901E+02 -0.26031740999E+02  0.36820919534E+02  0.00000000000E+00 0. -1.
         11    1    4    4    0    0 -0.69073548659E+00  0.16500722880E+01  0.61332156538E+01  0.63887548540E+01  0.51100000000E-03 0. -1.
        -11    1    4    4    0    0 -0.29600999234E+02 -0.12999444689E+01  0.16976146366E+02  0.34148185266E+02  0.51100000000E-03 0.  1.
         12    1    4    4    0    0  0.68360121397E+01 -0.11661964720E+02  0.29223789790E+01  0.13830140346E+02  0.00000000000E+00 0. -1.
</event>
<event>
 8    1  0.1254059E-006  0.9118800E+02  0.7816164E-02  0.1184000E+00
        -11   -1    0    0    0    0  0.00000000000E+00  0.00000000000E+00  0.45593999997E+02  0.45594000000E+02  0.51100000000E-03 0.  1.
         11   -1    0    0    0    0 -0.00000000000E+00 -0.00000000000E+00 -0.45593999997E+02  0.45594000000E+02  0.51100000000E-03 0. -1.
         23    2    1    2    0    0  0.35527136788E-14  0.17763568394E-14  0.00000000000E+00  0.91188000000E+02  0.91188000000E+02 0.  0.
    9900012    2    3    3    0    0  0.27629746024E+02  0.37303059512E+01  0.24051234499E+02  0.54367083000E+02  0.39999997315E+02 0.  0.
         12    1    3    3    0    0 -0.27629746024E+02 -0.37303059512E+01 -0.24051234499E+02  0.36820917000E+02  0.00000000000E+00 0. -1.
         11    1    4    4    0    0  0.20598675684E+02 -0.16997198496E+01 -0.48242489786E+01  0.21224228277E+02  0.51100000000E-03 0. -1.
        -11    1    4    4    0    0  0.13431979991E+01 -0.44176934888E+01  0.11323224881E+02  0.12228475727E+02  0.51100000000E-03 0.  1.
        -12    1    4    4    0    0  0.56878723407E+01  0.98477192896E+01  0.17552258596E+02  0.20914378996E+02  0.00000000000E+00 0.  1.
</event>
<event>
 8    1  0.1254059E-006  0.9118800E+02  0.7816164E-02  0.1184000E+00
        -11   -1    0    0    0    0  0.00000000000E+00  0.00000000000E+00  0.45593999997E+02  0.45594000000E+02  0.51100000000E-03 0.  1.
         11   -1    0    0    0    0 -0.00000000000E+00 -0.00000000000E+00 -0.45593999997E+02  0.45594000000E+02  0.51100000000E-03 0. -1.
         23    2    1    2    0    0  0.35527136788E-14  0.00000000000E+00 -0.17763568394E-14  0.91188000000E+02  0.91188000000E+02 0.  0.
    9900012    2    3    3    0    0  0.21201771587E+02 -0.25764329625E+02 -0.15571320651E+02  0.54367057233E+02  0.39999938574E+02 0.  0.
        -12    1    3    3    0    0 -0.21201771587E+02  0.25764329625E+02  0.15571320651E+02  0.36820942767E+02  0.00000000000E+00 0.  1.
         11    1    4    4    0    0  0.15801902278E+01 -0.24448714325E+02 -0.13927915058E+02  0.28181970326E+02  0.51100000000E-03 0. -1.
        -11    1    4    4    0    0 -0.20812150001E+01 -0.27005881352E+01 -0.27935031410E+01  0.44077536470E+01  0.51100000000E-03 0.  1.
         12    1    4    4    0    0  0.21702796359E+02  0.13849728357E+01  0.11500975482E+01  0.21777333261E+02  0.00000000000E+00 0. -1.
</event>
<event>
 8    1  0.1254059E-006  0.9118800E+02  0.7816164E-02  0.1184000E+00
        -11   -1    0    0    0    0  0.00000000000E+00  0.00000000000E+00  0.45593999997E+02  0.45594000000E+02  0.51100000000E-03 0.  1.
         11   -1    0    0    0    0 -0.00000000000E+00 -0.00000000000E+00 -0.45593999997E+02  0.45594000000E+02  0.51100000000E-03 0. -1.
         23    2    1    2    0    0  0.00000000000E+00  0.17763568394E-14  0.00000000000E+00  0.91188000000E+02  0.91188000000E+02 0.  0.
    9900012    2    3    3    0    0  0.11183148179E+02  0.12874896403E+02 -0.32633629027E+02  0.54367088767E+02  0.40000010461E+02 0.  0.
        -12    1    3    3    0    0 -0.11183148179E+02 -0.12874896403E+02  0.32633629027E+02  0.36820911233E+02  0.00000000000E+00 0.  1.
         11    1    4    4    0    0  0.74164034293E+01  0.15733201183E+02 -0.18172415030E+02  0.25154986138E+02  0.51100000000E-03 0. -1.
        -11    1    4    4    0    0 -0.30482163322E+00  0.87326638466E+01 -0.14497002618E+02  0.16926766355E+02  0.51100000000E-03 0.  1.
        -12    1    4    4    0    0  0.40715663831E+01 -0.11590968627E+02  0.35788621017E-01  0.12285336273E+02  0.00000000000E+00 0.  1.
</event>
<event>
 8    1  0.1254059E-006  0.9118800E+02  0.7816164E-02  0.1184000E+00
        -11   -1    0    0    0    0  0.00000000000E+00  0.00000000000E+00  0.45593999997E+02  0.45594000000E+02  0.51100000000E-03 0. -1.
         11   -1    0    0    0    0 -0.00000000000E+00 -0.00000000000E+00 -0.45593999997E+02  0.45594000000E+02  0.51100000000E-03 0.  1.
         23    2    1    2    0    0  0.35527136788E-14  0.00000000000E+00  0.00000000000E+00  0.91188000000E+02  0.91188000000E+02 0.  0.
    9900012    2    3    3    0    0  0.28000098483E+02 -0.92419132682E+01 -0.22053596838E+02  0.54367087336E+02  0.40000007200E+02 0.  0.
         12    1    3    3    0    0 -0.28000098483E+02  0.92419132682E+01  0.22053596838E+02  0.36820912664E+02  0.00000000000E+00 0. -1.
         11    1    4    4    0    0  0.64304402290E+01  0.70592755389E+01  0.87312012996E+00  0.95888618561E+01  0.51100000000E-03 0. -1.
        -11    1    4    4    0    0  0.22671592204E+02 -0.21058821612E+02 -0.12705051253E+02  0.33449863802E+02  0.51100000000E-03 0.  1.
        -12    1    4    4    0    0 -0.11019339497E+01  0.47576328045E+01 -0.10221665715E+02  0.11328361678E+02  0.00000000000E+00 0.  1.
</event>
<event>
 8    1  0.1254059E-006  0.9118800E+02  0.7816164E-02  0.1184000E+00
        -11   -1    0    0    0    0  0.00000000000E+00  0.00000000000E+00  0.45593999997E+02  0.45594000000E+02  0.51100000000E-03 0. -1.
         11   -1    0    0    0    0 -0.00000000000E+00 -0.00000000000E+00 -0.45593999997E+02  0.45594000000E+02  0.51100000000E-03 0.  1.
         23    2    1    2    0    0  0.00000000000E+00  0.00000000000E+00 -0.35527136788E-14  0.91188000000E+02  0.91188000000E+02 0.  0.
    9900012    2    3    3    0    0  0.25185957531E+02 -0.21065060957E+02 -0.16664609975E+02  0.54367102734E+02  0.40000042303E+02 0.  0.
         12    1    3    3    0    0 -0.25185957531E+02  0.21065060957E+02  0.16664609975E+02  0.36820897266E+02  0.00000000000E+00 0. -1.
         11    1    4    4    0    0  0.95276720125E+01 -0.22260901904E+01  0.69677087446E+01  0.12011701667E+02  0.51100000000E-03 0. -1.
        -11    1    4    4    0    0  0.55239276358E+00 -0.10289334806E+02 -0.22750813904E+02  0.24975489626E+02  0.51100000000E-03 0.  1.
         12    1    4    4    0    0  0.15105892755E+02 -0.85496359609E+01 -0.88150481559E+00  0.17379911442E+02  0.00000000000E+00 0. -1.
</event>
<event>
 8    1  0.1254059E-006  0.9118800E+02  0.7816164E-02  0.1184000E+00
        -11   -1    0    0    0    0  0.00000000000E+00  0.00000000000E+00  0.45593999997E+02  0.45594000000E+02  0.51100000000E-03 0.  1.
         11   -1    0    0    0    0 -0.00000000000E+00 -0.00000000000E+00 -0.45593999997E+02  0.45594000000E+02  0.51100000000E-03 0. -1.
         23    2    1    2    0    0  0.35527136788E-14  0.35527136788E-14 -0.35527136788E-14  0.91188000000E+02  0.91188000000E+02 0.  0.
    9900012    2    3    3    0    0 -0.22314279312E+02  0.23044797626E+02  0.18077348060E+02  0.54367078342E+02  0.39999986697E+02 0.  0.
         12    1    3    3    0    0  0.22314279312E+02 -0.23044797626E+02 -0.18077348060E+02  0.36820921658E+02  0.00000000000E+00 0. -1.
         11    1    4    4    0    0  0.51327680015E+01  0.12689262529E+02  0.19002832648E+02  0.23419443627E+02  0.51100000000E-03 0. -1.
        -11    1    4    4    0    0 -0.26863099685E+02  0.73865343262E+01 -0.32109750101E+00  0.27861983381E+02  0.51100000000E-03 0.  1.
        -12    1    4    4    0    0 -0.58394762894E+00  0.29690007708E+01 -0.60438708676E+00  0.30856513349E+01  0.00000000000E+00 0.  1.
</event>
<event>
 8    1  0.1254059E-006  0.9118800E+02  0.7816164E-02  0.1184000E+00
        -11   -1    0    0    0    0  0.00000000000E+00  0.00000000000E+00  0.45593999997E+02  0.45594000000E+02  0.51100000000E-03 0.  1.
         11   -1    0    0    0    0 -0.00000000000E+00 -0.00000000000E+00 -0.45593999997E+02  0.45594000000E+02  0.51100000000E-03 0. -1.
         23    2    1    2    0    0 -0.17763568394E-14  0.00000000000E+00  0.35527136788E-14  0.91188000000E+02  0.91188000000E+02 0.  0.
    9900012    2    3    3    0    0  0.15358614138E+02 -0.29636625955E+02 -0.15542280511E+02  0.54367094122E+02  0.40000022669E+02 0.  0.
        -12    1    3    3    0    0 -0.15358614138E+02  0.29636625955E+02  0.15542280511E+02  0.36820905878E+02  0.00000000000E+00 0.  1.
         11    1    4    4    0    0 -0.13854873326E+01 -0.15577273998E+02 -0.11347859572E+02  0.19322136462E+02  0.51100000000E-03 0. -1.
        -11    1    4    4    0    0  0.61861230286E+01 -0.14519201084E+02  0.89781193483E+01  0.18157145853E+02  0.51100000000E-03 0.  1.
         12    1    4    4    0    0  0.10557978442E+02  0.45984912608E+00 -0.13172540287E+02  0.16887811806E+02  0.00000000000E+00 0. -1.
</event>
<event>
 8    1  0.1254059E-006  0.9118800E+02  0.7816164E-02  0.1184000E+00
        -11   -1    0    0    0    0  0.00000000000E+00  0.00000000000E+00  0.45593999997E+02  0.45594000000E+02  0.51100000000E-03 0. -1.
         11   -1    0    0    0    0 -0.00000000000E+00 -0.00000000000E+00 -0.45593999997E+02  0.45594000000E+02  0.51100000000E-03 0.  1.
         23    2    1    2    0    0  0.00000000000E+00  0.00000000000E+00 -0.35527136788E-14  0.91188000000E+02  0.91188000000E+02 0.  0.
    9900012    2    3    3    0    0 -0.21782749174E+02 -0.82765137915E+01 -0.28509460529E+02  0.54367106723E+02  0.40000051395E+02 0.  0.
         12    1    3    3    0    0  0.21782749174E+02  0.82765137915E+01  0.28509460529E+02  0.36820893277E+02  0.00000000000E+00 0. -1.
         11    1    4    4    0    0  0.36546465381E+01  0.40762359568E+01  0.18957080091E+01  0.57936042332E+01  0.51100000000E-03 0. -1.
        -11    1    4    4    0    0 -0.46392838529E+01 -0.13574882476E+02 -0.21656885871E+02  0.25977318853E+02  0.51100000000E-03 0.  1.
        -12    1    4    4    0    0 -0.20798111859E+02  0.12221327276E+01 -0.87482826667E+01  0.22596183636E+02  0.00000000000E+00 0.  1.
</event>
<event>
 8    1  0.1254059E-006  0.9118800E+02  0.7816164E-02  0.1184000E+00
        -11   -1    0    0    0    0  0.00000000000E+00  0.00000000000E+00  0.45593999997E+02  0.45594000000E+02  0.51100000000E-03 0.  1.
         11   -1    0    0    0    0 -0.00000000000E+00 -0.00000000000E+00 -0.45593999997E+02  0.45594000000E+02  0.51100000000E-03 0. -1.
         23    2    1    2    0    0  0.88817841970E-15  0.22204460493E-15  0.00000000000E+00  0.91188000000E+02  0.91188000000E+02 0.  0.
    9900012    2    3    3    0    0 -0.41386358928E+01 -0.14433383992E+01  0.36559087937E+02  0.54367103167E+02  0.40000043290E+02 0.  0.
         12    1    3    3    0    0  0.41386358928E+01  0.14433383992E+01 -0.36559087937E+02  0.36820896833E+02  0.00000000000E+00 0. -1.
         11    1    4    4    0    0 -0.62971226873E+01 -0.87378271736E+01 -0.90346054680E+00  0.10808312499E+02  0.51100000000E-03 0. -1.
        -11    1    4    4    0    0  0.11462632329E+02  0.24274869407E+01  0.19196829450E+02  0.22490062116E+02  0.51100000000E-03 0.  1.
         12    1    4    4    0    0 -0.93041455349E+01  0.48670018337E+01  0.18265719034E+02  0.21068728552E+02  0.00000000000E+00 0. -1.
</event>
<event>
 8    1  0.1254059E-006  0.9118800E+02  0.7816164E-02  0.1184000E+00
        -11   -1    0    0    0    0  0.00000000000E+00  0.00000000000E+00  0.45593999997E+02  0.45594000000E+02  0.51100000000E-03 0.  1.
         11   -1    0    0    0    0 -0.00000000000E+00 -0.00000000000E+00 -0.45593999997E+02  0.45594000000E+02  0.51100000000E-03 0. -1.
         23    2    1    2    0    0 -0.35527136788E-14  0.00000000000E+00  0.00000000000E+00  0.91188000000E+02  0.91188000000E+02 0.  0.
    9900012    2    3    3    0    0 -0.27958886199E+02 -0.17710388903E+02 -0.16137624822E+02  0.54367080301E+02  0.39999991162E+02 0.  0.
        -12    1    3    3    0    0  0.27958886199E+02  0.17710388903E+02  0.16137624822E+02  0.36820919699E+02  0.00000000000E+00 0.  1.
         11    1    4    4    0    0 -0.10782652262E+02 -0.32756957881E+01 -0.39582123110E+01  0.11944170865E+02  0.51100000000E-03 0. -1.
        -11    1    4    4    0    0  0.25358355703E+01 -0.20894995756E+01 -0.18121612495E+02  0.18417092881E+02  0.51100000000E-03 0.  1.
        -12    1    4    4    0    0 -0.19712069507E+02 -0.12345193540E+02  0.59421999844E+01  0.24005816554E+02  0.00000000000E+00 0.  1.
</event>
<event>
 8    1  0.1254059E-006  0.9118800E+02  0.7816164E-02  0.1184000E+00
        -11   -1    0    0    0    0  0.00000000000E+00  0.00000000000E+00  0.45593999997E+02  0.45594000000E+02  0.51100000000E-03 0.  1.
         11   -1    0    0    0    0 -0.00000000000E+00 -0.00000000000E+00 -0.45593999997E+02  0.45594000000E+02  0.51100000000E-03 0. -1.
         23    2    1    2    0    0  0.00000000000E+00  0.00000000000E+00  0.00000000000E+00  0.91188000000E+02  0.91188000000E+02 0.  0.
    9900012    2    3    3    0    0 -0.15188937583E+02 -0.14376992421E+02 -0.30304742424E+02  0.54367093583E+02  0.40000021442E+02 0.  0.
        -12    1    3    3    0    0  0.15188937583E+02  0.14376992421E+02  0.30304742424E+02  0.36820906417E+02  0.00000000000E+00 0.  1.
         11    1    4    4    0    0 -0.43835673671E+01 -0.16947014147E+02 -0.26781886162E+02  0.31995099281E+02  0.51100000000E-03 0. -1.
        -11    1    4    4    0    0 -0.59758799361E+01 -0.75807269651E+01  0.19837438656E+01  0.98546335455E+01  0.51100000000E-03 0.  1.
         12    1    4    4    0    0 -0.48294902794E+01  0.10150748691E+02 -0.55066001278E+01  0.12517360757E+02  0.00000000000E+00 0. -1.
</event>
<event>
 8    1  0.1254059E-006  0.9118800E+02  0.7816164E-02  0.1184000E+00
        -11   -1    0    0    0    0  0.00000000000E+00  0.00000000000E+00  0.45593999997E+02  0.45594000000E+02  0.51100000000E-03 0.  1.
         11   -1    0    0    0    0 -0.00000000000E+00 -0.00000000000E+00 -0.45593999997E+02  0.45594000000E+02  0.51100000000E-03 0. -1.
         23    2    1    2    0    0 -0.17763568394E-14  0.35527136788E-14  0.00000000000E+00  0.91188000000E+02  0.91188000000E+02 0.  0.
    9900012    2    3    3    0    0 -0.11426198794E+02  0.30283186783E+02  0.17554208995E+02  0.54367086458E+02  0.40000005199E+02 0.  0.
        -12    1    3    3    0    0  0.11426198794E+02 -0.30283186783E+02 -0.17554208995E+02  0.36820913542E+02  0.00000000000E+00 0.  1.
         11    1    4    4    0    0 -0.90803415947E+01  0.17409974864E+02  0.13136815368E+02  0.23624896751E+02  0.51100000000E-03 0. -1.
        -11    1    4    4    0    0 -0.71832229278E+01 -0.52210293289E+01 -0.45482655153E+01  0.99772019295E+01  0.51100000000E-03 0.  1.
         12    1    4    4    0    0  0.48373657287E+01  0.18094241248E+02  0.89656591426E+01  0.20764987777E+02  0.00000000000E+00 0. -1.
</event>
<event>
 8    1  0.1254059E-006  0.9118800E+02  0.7816164E-02  0.1184000E+00
        -11   -1    0    0    0    0  0.00000000000E+00  0.00000000000E+00  0.45593999997E+02  0.45594000000E+02  0.51100000000E-03 0.  1.
         11   -1    0    0    0    0 -0.00000000000E+00 -0.00000000000E+00 -0.45593999997E+02  0.45594000000E+02  0.51100000000E-03 0. -1.
         23    2    1    2    0    0  0.00000000000E+00  0.00000000000E+00  0.00000000000E+00  0.91188000000E+02  0.91188000000E+02 0.  0.
    9900012    2    3    3    0    0  0.32462089404E+01 -0.37957244170E+01  0.36480592518E+02  0.54367095247E+02  0.40000025235E+02 0.  0.
         12    1    3    3    0    0 -0.32462089404E+01  0.37957244170E+01 -0.36480592518E+02  0.36820904753E+02  0.00000000000E+00 0. -1.
         11    1    4    4    0    0 -0.12087533942E+02 -0.24948760905E+01  0.10594735165E+02  0.16265955151E+02  0.51100000000E-03 0. -1.
        -11    1    4    4    0    0 -0.53222354824E+01  0.33952915211E+01  0.32537777213E+01  0.71022014027E+01  0.51100000000E-03 0.  1.
         12    1    4    4    0    0  0.20655978364E+02 -0.46961398476E+01  0.22632079632E+02  0.30998938693E+02  0.00000000000E+00 0. -1.
</event>
<event>
 8    1  0.1254059E-006  0.9118800E+02  0.7816164E-02  0.1184000E+00
        -11   -1    0    0    0    0  0.00000000000E+00  0.00000000000E+00  0.45593999997E+02  0.45594000000E+02  0.51100000000E-03 0.  1.
         11   -1    0    0    0    0 -0.00000000000E+00 -0.00000000000E+00 -0.45593999997E+02  0.45594000000E+02  0.51100000000E-03 0. -1.
         23    2    1    2    0    0 -0.26645352591E-14 -0.35527136788E-14  0.00000000000E+00  0.91188000000E+02  0.91188000000E+02 0.  0.
    9900012    2    3    3    0    0 -0.56879083072E+01 -0.31906240365E+02 -0.17476218220E+02  0.54367099978E+02  0.40000036020E+02 0.  0.
        -12    1    3    3    0    0  0.56879083072E+01  0.31906240365E+02  0.17476218220E+02  0.36820900022E+02  0.00000000000E+00 0.  1.
         11    1    4    4    0    0 -0.18103798809E+01 -0.40577247578E+01 -0.10078122251E+02  0.11014134278E+02  0.51100000000E-03 0. -1.
        -11    1    4    4    0    0 -0.13284089118E+02 -0.12219308913E+02  0.77489780175E+01  0.19642433520E+02  0.51100000000E-03 0.  1.
        -12    1    4    4    0    0  0.94065606914E+01 -0.15629206694E+02 -0.15147073987E+02  0.23710532181E+02  0.00000000000E+00 0.  1.
</event>
<event>
 8    1  0.1254059E-006  0.9118800E+02  0.7816164E-02  0.1184000E+00
        -11   -1    0    0    0    0  0.00000000000E+00  0.00000000000E+00  0.45593999997E+02  0.45594000000E+02  0.51100000000E-03 0. -1.
         11   -1    0    0    0    0 -0.00000000000E+00 -0.00000000000E+00 -0.45593999997E+02  0.45594000000E+02  0.51100000000E-03 0.  1.
         23    2    1    2    0    0  0.00000000000E+00 -0.35527136788E-14  0.35527136788E-14  0.91188000000E+02  0.91188000000E+02 0.  0.
    9900012    2    3    3    0    0 -0.16841728493E+02  0.30068385406E+02 -0.12962502391E+02  0.54367107998E+02  0.40000054304E+02 0.  0.
         12    1    3    3    0    0  0.16841728493E+02 -0.30068385406E+02  0.12962502391E+02  0.36820892002E+02  0.00000000000E+00 0. -1.
         11    1    4    4    0    0 -0.37686828089E+01  0.84029698696E+01  0.75258251893E+01  0.11893313995E+02  0.51100000000E-03 0. -1.
        -11    1    4    4    0    0 -0.14298793780E+02  0.27589264455E+02 -0.18160467765E+02  0.35992021428E+02  0.51100000000E-03 0.  1.
         12    1    4    4    0    0  0.12257480959E+01 -0.59238489186E+01 -0.23278598147E+01  0.64817725756E+01  0.00000000000E+00 0. -1.
</event>
<event>
 8    1  0.1254059E-006  0.9118800E+02  0.7816164E-02  0.1184000E+00
        -11   -1    0    0    0    0  0.00000000000E+00  0.00000000000E+00  0.45593999997E+02  0.45594000000E+02  0.51100000000E-03 0. -1.
         11   -1    0    0    0    0 -0.00000000000E+00 -0.00000000000E+00 -0.45593999997E+02  0.45594000000E+02  0.51100000000E-03 0.  1.
         23    2    1    2    0    0 -0.35527136788E-14  0.00000000000E+00  0.00000000000E+00  0.91188000000E+02  0.91188000000E+02 0.  0.
    9900012    2    3    3    0    0 -0.17237322806E+02  0.28702244728E+02 -0.15324329723E+02  0.54367092469E+02  0.40000018901E+02 0.  0.
         12    1    3    3    0    0  0.17237322806E+02 -0.28702244728E+02  0.15324329723E+02  0.36820907531E+02  0.00000000000E+00 0. -1.
         11    1    4    4    0    0 -0.60352691207E+01 -0.71586442723E+01  0.11747097504E+01  0.94366627807E+01  0.51100000000E-03 0. -1.
        -11    1    4    4    0    0  0.11349267859E+01  0.17733832733E+02 -0.14457892520E+02  0.22908678237E+02  0.51100000000E-03 0.  1.
        -12    1    4    4    0    0 -0.12336980471E+02  0.18127056268E+02 -0.20411469536E+01  0.22021751451E+02  0.00000000000E+00 0.  1.
</event>
<event>
 8    1  0.1254059E-006  0.9118800E+02  0.7816164E-02  0.1184000E+00
        -11   -1    0    0    0    0  0.00000000000E+00  0.00000000000E+00  0.45593999997E+02  0.45594000000E+02  0.51100000000E-03 0.  1.
         11   -1    0    0    0    0 -0.00000000000E+00 -0.00000000000E+00 -0.45593999997E+02  0.45594000000E+02  0.51100000000E-03 0. -1.
         23    2    1    2    0    0  0.00000000000E+00  0.35527136788E-14  0.00000000000E+00  0.91188000000E+02  0.91188000000E+02 0.  0.
    9900012    2    3    3    0    0  0.19054924032E+02  0.25510131399E+02 -0.18491154648E+02  0.54367085643E+02  0.40000003341E+02 0.  0.
        -12    1    3    3    0    0 -0.19054924032E+02 -0.25510131399E+02  0.18491154648E+02  0.36820914357E+02  0.00000000000E+00 0.  1.
         11    1    4    4    0    0  0.11804073646E+02  0.14769430931E+02 -0.86381888109E+01  0.20786787892E+02  0.51100000000E-03 0. -1.
        -11    1    4    4    0    0 -0.72760705616E+01  0.10985137376E+02 -0.13221346198E+02  0.18665970147E+02  0.51100000000E-03 0.  1.
         12    1    4    4    0    0  0.14526920948E+02 -0.24443690773E+00  0.33683803612E+01  0.14914327604E+02  0.00000000000E+00 0. -1.
</event>
<event>
 8    1  0.1254059E-006  0.9118800E+02  0.7816164E-02  0.1184000E+00
        -11   -1    0    0    0    0  0.00000000000E+00  0.00000000000E+00  0.45593999997E+02  0.45594000000E+02  0.51100000000E-03 0.  1.
         11   -1    0    0    0    0 -0.00000000000E+00 -0.00000000000E+00 -0.45593999997E+02  0.45594000000E+02  0.51100000000E-03 0. -1.
         23    2    1    2    0    0  0.35527136788E-14  0.35527136788E-14 -0.35527136788E-14  0.91188000000E+02  0.91188000000E+02 0.  0.
    9900012    2    3    3    0    0 -0.16664592717E+02 -0.29102081499E+02  0.15203209061E+02  0.54367117831E+02  0.40000076718E+02 0.  0.
         12    1    3    3    0    0  0.16664592717E+02  0.29102081499E+02 -0.15203209061E+02  0.36820882169E+02  0.00000000000E+00 0. -1.
         11    1    4    4    0    0 -0.14635133486E+02  0.30930151953E+00  0.49179348826E-01  0.14638484158E+02  0.51100000000E-03 0. -1.
        -11    1    4    4    0    0 -0.93519015335E+01 -0.11994629472E+02 -0.46266030556E+00  0.15216545379E+02  0.51100000000E-03 0.  1.
        -12    1    4    4    0    0  0.73224423024E+01 -0.17416753546E+02  0.15616690018E+02  0.24512088293E+02  0.00000000000E+00 0.  1.
</event>
<event>
 8    1  0.1254059E-006  0.9118800E+02  0.7816164E-02  0.1184000E+00
        -11   -1    0    0    0    0  0.00000000000E+00  0.00000000000E+00  0.45593999997E+02  0.45594000000E+02  0.51100000000E-03 0. -1.
         11   -1    0    0    0    0 -0.00000000000E+00 -0.00000000000E+00 -0.45593999997E+02  0.45594000000E+02  0.51100000000E-03 0.  1.
         23    2    1    2    0    0  0.71054273576E-14 -0.17763568394E-14  0.00000000000E+00  0.91188000000E+02  0.91188000000E+02 0.  0.
    9900012    2    3    3    0    0 -0.28712005237E+02  0.75701034834E+01 -0.21773676194E+02  0.54367099869E+02  0.40000035771E+02 0.  0.
         12    1    3    3    0    0  0.28712005237E+02 -0.75701034834E+01  0.21773676194E+02  0.36820900131E+02  0.00000000000E+00 0. -1.
         11    1    4    4    0    0 -0.37123234418E+01  0.31537625481E+00 -0.20737600574E+01  0.42639522225E+01  0.51100000000E-03 0. -1.
        -11    1    4    4    0    0 -0.32081979844E+02 -0.34045903791E+01 -0.18644435773E+02  0.37262040361E+02  0.51100000000E-03 0.  1.
         12    1    4    4    0    0  0.70822980481E+01  0.10659317608E+02 -0.10554803633E+01  0.12841107285E+02  0.00000000000E+00 0. -1.
</event>
<event>
 8    1  0.1254059E-006  0.9118800E+02  0.7816164E-02  0.1184000E+00
        -11   -1    0    0    0    0  0.00000000000E+00  0.00000000000E+00  0.45593999997E+02  0.45594000000E+02  0.51100000000E-03 0.  1.
         11   -1    0    0    0    0 -0.00000000000E+00 -0.00000000000E+00 -0.45593999997E+02  0.45594000000E+02  0.51100000000E-03 0. -1.
         23    2    1    2    0    0  0.00000000000E+00  0.00000000000E+00  0.00000000000E+00  0.91188000000E+02  0.91188000000E+02 0.  0.
    9900012    2    3    3    0    0  0.95424821807E+01  0.14054339945E+02  0.32667970549E+02  0.54367085600E+02  0.40000003242E+02 0.  0.
         12    1    3    3    0    0 -0.95424821807E+01 -0.14054339945E+02 -0.32667970549E+02  0.36820914400E+02  0.00000000000E+00 0. -1.
         11    1    4    4    0    0  0.74761138466E+01  0.17230034340E+02  0.72160351888E+01  0.20120574687E+02  0.51100000000E-03 0.  1.
        -11    1    4    4    0    0  0.96190907037E+00 -0.78074640075E+01 -0.47991057273E+00  0.78811216021E+01  0.51100000000E-03 0. -1.
        -12    1    4    4    0    0  0.11044592636E+01  0.46317696116E+01  0.25931845933E+02  0.26365389311E+02  0.00000000000E+00 0.  1.
</event>
<event>
 8    1  0.1254059E-006  0.9118800E+02  0.7816164E-02  0.1184000E+00
        -11   -1    0    0    0    0  0.00000000000E+00  0.00000000000E+00  0.45593999997E+02  0.45594000000E+02  0.51100000000E-03 0. -1.
         11   -1    0    0    0    0 -0.00000000000E+00 -0.00000000000E+00 -0.45593999997E+02  0.45594000000E+02  0.51100000000E-03 0.  1.
         23    2    1    2    0    0  0.17763568394E-14  0.00000000000E+00  0.00000000000E+00  0.91188000000E+02  0.91188000000E+02 0.  0.
    9900012    2    3    3    0    0  0.12935289104E+02 -0.32580843119E+02 -0.11267067490E+02  0.54367084036E+02  0.39999999678E+02 0.  0.
         12    1    3    3    0    0 -0.12935289104E+02  0.32580843119E+02  0.11267067490E+02  0.36820915964E+02  0.00000000000E+00 0. -1.
         11    1    4    4    0    0 -0.25893314365E+01 -0.28210381099E+01 -0.16610158810E+01  0.41739510447E+01  0.51100000000E-03 0. -1.
        -11    1    4    4    0    0 -0.11300815621E+02 -0.96127665054E+01  0.13583911070E+01  0.14898286487E+02  0.51100000000E-03 0.  1.
        -12    1    4    4    0    0  0.26825436162E+02 -0.20147038504E+02 -0.10964442716E+02  0.35294846505E+02  0.00000000000E+00 0.  1.
</event>
<event>
 8    1  0.1254059E-006  0.9118800E+02  0.7816164E-02  0.1184000E+00
        -11   -1    0    0    0    0  0.00000000000E+00  0.00000000000E+00  0.45593999997E+02  0.45594000000E+02  0.51100000000E-03 0. -1.
         11   -1    0    0    0    0 -0.00000000000E+00 -0.00000000000E+00 -0.45593999997E+02  0.45594000000E+02  0.51100000000E-03 0.  1.
         23    2    1    2    0    0  0.35527136788E-14  0.17763568394E-14  0.00000000000E+00  0.91188000000E+02  0.91188000000E+02 0.  0.
    9900012    2    3    3    0    0 -0.23713438292E+02  0.13403614001E+02  0.24774892710E+02  0.54367091093E+02  0.40000015765E+02 0.  0.
        -12    1    3    3    0    0  0.23713438292E+02 -0.13403614001E+02 -0.24774892710E+02  0.36820908907E+02  0.00000000000E+00 0.  1.
         11    1    4    4    0    0 -0.21654373789E+02  0.10529466922E+01  0.13948206421E+02  0.25779314645E+02  0.51100000000E-03 0. -1.
        -11    1    4    4    0    0  0.95081281900E+01  0.11122622296E+02  0.77367364577E+01  0.16552169637E+02  0.51100000000E-03 0.  1.
        -12    1    4    4    0    0 -0.11567192693E+02  0.12280450126E+01  0.30899498311E+01  0.12035606811E+02  0.00000000000E+00 0.  1.
</event>
<event>
 8    1  0.1254059E-006  0.9118800E+02  0.7816164E-02  0.1184000E+00
        -11   -1    0    0    0    0  0.00000000000E+00  0.00000000000E+00  0.45593999997E+02  0.45594000000E+02  0.51100000000E-03 0.  1.
         11   -1    0    0    0    0 -0.00000000000E+00 -0.00000000000E+00 -0.45593999997E+02  0.45594000000E+02  0.51100000000E-03 0. -1.
         23    2    1    2    0    0  0.00000000000E+00  0.35527136788E-14  0.00000000000E+00  0.91188000000E+02  0.91188000000E+02 0.  0.
    9900012    2    3    3    0    0  0.39966401234E+01  0.17384635403E+02 -0.32211512224E+02  0.54367079315E+02  0.39999988913E+02 0.  0.
        -12    1    3    3    0    0 -0.39966401234E+01 -0.17384635403E+02  0.32211512224E+02  0.36820920685E+02  0.00000000000E+00 0.  1.
         11    1    4    4    0    0 -0.72073897899E+01 -0.36695251264E+01 -0.10369812930E+02  0.13150851786E+02  0.51100000000E-03 0. -1.
        -11    1    4    4    0    0  0.13719670126E+02  0.70022329719E+01 -0.33983062575E+00  0.15407014639E+02  0.51100000000E-03 0.  1.
         12    1    4    4    0    0 -0.25156402128E+01  0.14051927558E+02 -0.21501868668E+02  0.25809212889E+02  0.00000000000E+00 0. -1.
</event>
<event>
 8    1  0.1254059E-006  0.9118800E+02  0.7816164E-02  0.1184000E+00
        -11   -1    0    0    0    0  0.00000000000E+00  0.00000000000E+00  0.45593999997E+02  0.45594000000E+02  0.51100000000E-03 0.  1.
         11   -1    0    0    0    0 -0.00000000000E+00 -0.00000000000E+00 -0.45593999997E+02  0.45594000000E+02  0.51100000000E-03 0. -1.
         23    2    1    2    0    0 -0.39638431426E-15  0.00000000000E+00  0.00000000000E+00  0.91188000000E+02  0.91188000000E+02 0.  0.
    9900012    2    3    3    0    0 -0.57701801126E-02 -0.32214081933E+02  0.17833507124E+02  0.54367067307E+02  0.39999961539E+02 0.  0.
         12    1    3    3    0    0  0.57701801126E-02  0.32214081933E+02 -0.17833507124E+02  0.36820932693E+02  0.00000000000E+00 0. -1.
         11    1    4    4    0    0  0.12362973581E+02  0.23030317490E+01  0.66522010442E+00  0.12593235845E+02  0.51100000000E-03 0. -1.
        -11    1    4    4    0    0 -0.10492666004E+02 -0.21443156117E+02  0.63548761280E+01  0.24704036816E+02  0.51100000000E-03 0.  1.
         12    1    4    4    0    0 -0.18760777569E+01 -0.13073957565E+02  0.10813410891E+02  0.17069794646E+02  0.00000000000E+00 0. -1.
</event>
<event>
 8    1  0.1254059E-006  0.9118800E+02  0.7816164E-02  0.1184000E+00
        -11   -1    0    0    0    0  0.00000000000E+00  0.00000000000E+00  0.45593999997E+02  0.45594000000E+02  0.51100000000E-03 0. -1.
         11   -1    0    0    0    0 -0.00000000000E+00 -0.00000000000E+00 -0.45593999997E+02  0.45594000000E+02  0.51100000000E-03 0.  1.
         23    2    1    2    0    0 -0.35527136788E-14 -0.55511151231E-16  0.00000000000E+00  0.91188000000E+02  0.91188000000E+02 0.  0.
    9900012    2    3    3    0    0  0.17594134762E+02 -0.34401267258E+00 -0.32343576347E+02  0.54367097599E+02  0.40000030595E+02 0.  0.
         12    1    3    3    0    0 -0.17594134762E+02  0.34401267258E+00  0.32343576347E+02  0.36820902401E+02  0.00000000000E+00 0. -1.
         11    1    4    4    0    0 -0.50500111568E+01 -0.57187402855E+01  0.11153198269E+01  0.77104177393E+01  0.51100000000E-03 0. -1.
        -11    1    4    4    0    0  0.19650626611E+01  0.54892653241E+01  0.15172412704E+01  0.60245768643E+01  0.51100000000E-03 0.  1.
        -12    1    4    4    0    0  0.20679083257E+02 -0.11453771113E+00 -0.34976137445E+02  0.40632102995E+02  0.00000000000E+00 0.  1.
</event>
<event>
 8    1  0.1254059E-006  0.9118800E+02  0.7816164E-02  0.1184000E+00
        -11   -1    0    0    0    0  0.00000000000E+00  0.00000000000E+00  0.45593999997E+02  0.45594000000E+02  0.51100000000E-03 0. -1.
         11   -1    0    0    0    0 -0.00000000000E+00 -0.00000000000E+00 -0.45593999997E+02  0.45594000000E+02  0.51100000000E-03 0.  1.
         23    2    1    2    0    0 -0.35527136788E-14  0.00000000000E+00 -0.17763568394E-14  0.91188000000E+02  0.91188000000E+02 0.  0.
    9900012    2    3    3    0    0  0.29663106748E+02  0.19320760679E+02  0.10128571055E+02  0.54367086829E+02  0.40000006044E+02 0.  0.
         12    1    3    3    0    0 -0.29663106748E+02 -0.19320760679E+02 -0.10128571055E+02  0.36820913171E+02  0.00000000000E+00 0. -1.
         11    1    4    4    0    0  0.16070798030E+02 -0.32920893166E+01  0.11740702730E+02  0.20173063779E+02  0.51100000000E-03 0. -1.
        -11    1    4    4    0    0 -0.24393274411E+01  0.16174080635E+02 -0.37632079727E+01  0.16784306279E+02  0.51100000000E-03 0.  1.
         12    1    4    4    0    0  0.16031636159E+02  0.64387693603E+01  0.21510762970E+01  0.17409716771E+02  0.00000000000E+00 0. -1.
</event>
<event>
 8    1  0.1254059E-006  0.9118800E+02  0.7816164E-02  0.1184000E+00
        -11   -1    0    0    0    0  0.00000000000E+00  0.00000000000E+00  0.45593999997E+02  0.45594000000E+02  0.51100000000E-03 0. -1.
         11   -1    0    0    0    0 -0.00000000000E+00 -0.00000000000E+00 -0.45593999997E+02  0.45594000000E+02  0.51100000000E-03 0.  1.
         23    2    1    2    0    0  0.00000000000E+00  0.00000000000E+00  0.00000000000E+00  0.91188000000E+02  0.91188000000E+02 0.  0.
    9900012    2    3    3    0    0 -0.23560649132E+02  0.11149973992E+02  0.26006809155E+02  0.54367078909E+02  0.39999987988E+02 0.  0.
        -12    1    3    3    0    0  0.23560649132E+02 -0.11149973992E+02 -0.26006809155E+02  0.36820921091E+02  0.00000000000E+00 0.  1.
         11    1    4    4    0    0  0.14615507882E+01  0.85450661768E+01  0.17049834531E+02  0.19127235673E+02  0.51100000000E-03 0. -1.
        -11    1    4    4    0    0 -0.13671813788E+02 -0.65340932792E+01 -0.40738563929E+01  0.15691053929E+02  0.51100000000E-03 0.  1.
        -12    1    4    4    0    0 -0.11350386133E+02  0.91390010948E+01  0.13030831017E+02  0.19548789307E+02  0.00000000000E+00 0.  1.
</event>
<event>
 8    1  0.1254059E-006  0.9118800E+02  0.7816164E-02  0.1184000E+00
        -11   -1    0    0    0    0  0.00000000000E+00  0.00000000000E+00  0.45593999997E+02  0.45594000000E+02  0.51100000000E-03 0.  1.
         11   -1    0    0    0    0 -0.00000000000E+00 -0.00000000000E+00 -0.45593999997E+02  0.45594000000E+02  0.51100000000E-03 0. -1.
         23    2    1    2    0    0  0.35527136788E-14  0.35527136788E-14  0.00000000000E+00  0.91188000000E+02  0.91188000000E+02 0.  0.
    9900012    2    3    3    0    0 -0.29970767959E+02 -0.17594527674E+02 -0.12164147317E+02  0.54367070950E+02  0.39999969845E+02 0.  0.
        -12    1    3    3    0    0  0.29970767959E+02  0.17594527674E+02  0.12164147317E+02  0.36820929050E+02  0.00000000000E+00 0.  1.
         11    1    4    4    0    0 -0.27126551376E+02 -0.65022766077E+01 -0.54069818262E+00  0.27900210491E+02  0.51100000000E-03 0. -1.
        -11    1    4    4    0    0  0.81782105985E+01 -0.15585154873E+01 -0.77807886483E+01  0.11395296019E+02  0.51100000000E-03 0.  1.
        -12    1    4    4    0    0 -0.11022427182E+02 -0.95337355789E+01 -0.38426604862E+01  0.15071564440E+02  0.00000000000E+00 0.  1.
</event>
<event>
 8    1  0.1254059E-006  0.9118800E+02  0.7816164E-02  0.1184000E+00
        -11   -1    0    0    0    0  0.00000000000E+00  0.00000000000E+00  0.45593999997E+02  0.45594000000E+02  0.51100000000E-03 0.  1.
         11   -1    0    0    0    0 -0.00000000000E+00 -0.00000000000E+00 -0.45593999997E+02  0.45594000000E+02  0.51100000000E-03 0. -1.
         23    2    1    2    0    0  0.00000000000E+00  0.00000000000E+00 -0.35527136788E-14  0.91188000000E+02  0.91188000000E+02 0.  0.
    9900012    2    3    3    0    0  0.91933008072E+01  0.26886796175E+02  0.23417141430E+02  0.54367094239E+02  0.40000022937E+02 0.  0.
         12    1    3    3    0    0 -0.91933008072E+01 -0.26886796175E+02 -0.23417141430E+02  0.36820905761E+02  0.00000000000E+00 0. -1.
         11    1    4    4    0    0  0.17185750557E+01  0.37178552896E+01  0.24976847452E+02  0.25310449563E+02  0.51100000000E-03 0. -1.
        -11    1    4    4    0    0  0.35093895404E+01  0.71035139566E+01  0.68689795955E+01  0.10486114935E+02  0.51100000000E-03 0.  1.
        -12    1    4    4    0    0  0.39653362111E+01  0.16065426929E+02 -0.84286856167E+01  0.18570529742E+02  0.00000000000E+00 0.  1.
</event>
<event>
 8    1  0.1254059E-006  0.9118800E+02  0.7816164E-02  0.1184000E+00
        -11   -1    0    0    0    0  0.00000000000E+00  0.00000000000E+00  0.45593999997E+02  0.45594000000E+02  0.51100000000E-03 0. -1.
         11   -1    0    0    0    0 -0.00000000000E+00 -0.00000000000E+00 -0.45593999997E+02  0.45594000000E+02  0.51100000000E-03 0.  1.
         23    2    1    2    0    0  0.00000000000E+00  0.00000000000E+00  0.35527136788E-14  0.91188000000E+02  0.91188000000E+02 0.  0.
    9900012    2    3    3    0    0  0.95653956709E+01  0.17172550503E+02  0.31134978240E+02  0.54367079926E+02  0.39999990306E+02 0.  0.
        -12    1    3    3    0    0 -0.95653956709E+01 -0.17172550503E+02 -0.31134978240E+02  0.36820920074E+02  0.00000000000E+00 0.  1.
         11    1    4    4    0    0  0.21549293259E+02  0.12973445438E+02  0.15154616778E+02  0.29365706810E+02  0.51100000000E-03 0. -1.
        -11    1    4    4    0    0 -0.15684662409E+01  0.98727092936E+00 -0.27584755967E+01  0.33232481273E+01  0.51100000000E-03 0.  1.
         12    1    4    4    0    0 -0.10415431348E+02  0.32118341351E+01  0.18738837059E+02  0.21678124988E+02  0.00000000000E+00 0. -1.
</event>
<event>
 8    1  0.1254059E-006  0.9118800E+02  0.7816164E-02  0.1184000E+00
        -11   -1    0    0    0    0  0.00000000000E+00  0.00000000000E+00  0.45593999997E+02  0.45594000000E+02  0.51100000000E-03 0. -1.
         11   -1    0    0    0    0 -0.00000000000E+00 -0.00000000000E+00 -0.45593999997E+02  0.45594000000E+02  0.51100000000E-03 0.  1.
         23    2    1    2    0    0  0.35527136788E-14  0.00000000000E+00 -0.35527136788E-14  0.91188000000E+02  0.91188000000E+02 0.  0.
    9900012    2    3    3    0    0  0.30941744172E+02 -0.31596036824E+01 -0.19708023892E+02  0.54367070713E+02  0.39999969305E+02 0.  0.
         12    1    3    3    0    0 -0.30941744172E+02  0.31596036824E+01  0.19708023892E+02  0.36820929287E+02  0.00000000000E+00 0. -1.
         11    1    4    4    0    0  0.42294711153E+01 -0.76346382514E+01 -0.13521549180E+01  0.88320128130E+01  0.51100000000E-03 0. -1.
        -11    1    4    4    0    0 -0.44547739546E+01  0.83640758632E+01 -0.81812794075E+01  0.12519429262E+02  0.51100000000E-03 0.  1.
         12    1    4    4    0    0  0.31167047011E+02 -0.38890412941E+01 -0.10174589566E+02  0.33015628639E+02  0.00000000000E+00 0. -1.
</event>
<event>
 8    1  0.1254059E-006  0.9118800E+02  0.7816164E-02  0.1184000E+00
        -11   -1    0    0    0    0  0.00000000000E+00  0.00000000000E+00  0.45593999997E+02  0.45594000000E+02  0.51100000000E-03 0. -1.
         11   -1    0    0    0    0 -0.00000000000E+00 -0.00000000000E+00 -0.45593999997E+02  0.45594000000E+02  0.51100000000E-03 0.  1.
         23    2    1    2    0    0  0.00000000000E+00 -0.17763568394E-14 -0.35527136788E-14  0.91188000000E+02  0.91188000000E+02 0.  0.
    9900012    2    3    3    0    0  0.14316685121E+02  0.14711487690E+02  0.30567699253E+02  0.54367087729E+02  0.40000008095E+02 0.  0.
        -12    1    3    3    0    0 -0.14316685121E+02 -0.14711487690E+02 -0.30567699253E+02  0.36820912271E+02  0.00000000000E+00 0.  1.
         11    1    4    4    0    0  0.38308922224E+01  0.79484856942E+01  0.85986632023E+01  0.12320355887E+02  0.51100000000E-03 0. -1.
        -11    1    4    4    0    0 -0.46715496058E+01 -0.62416068789E+01 -0.44124274797E+01  0.89582670576E+01  0.51100000000E-03 0.  1.
        -12    1    4    4    0    0  0.15157342505E+02  0.13004608874E+02  0.26381463530E+02  0.33088464784E+02  0.00000000000E+00 0.  1.
</event>
<event>
 8    1  0.1254059E-006  0.9118800E+02  0.7816164E-02  0.1184000E+00
        -11   -1    0    0    0    0  0.00000000000E+00  0.00000000000E+00  0.45593999997E+02  0.45594000000E+02  0.51100000000E-03 0. -1.
         11   -1    0    0    0    0 -0.00000000000E+00 -0.00000000000E+00 -0.45593999997E+02  0.45594000000E+02  0.51100000000E-03 0.  1.
         23    2    1    2    0    0  0.00000000000E+00  0.00000000000E+00  0.35527136788E-14  0.91188000000E+02  0.91188000000E+02 0.  0.
    9900012    2    3    3    0    0  0.60283169477E+01  0.29427269209E+02  0.21294961178E+02  0.54367079997E+02  0.39999990468E+02 0.  0.
        -12    1    3    3    0    0 -0.60283169477E+01 -0.29427269209E+02 -0.21294961178E+02  0.36820920003E+02  0.00000000000E+00 0.  1.
         11    1    4    4    0    0  0.75578450970E+01  0.29448022317E+01 -0.34432440116E+01  0.88118563469E+01  0.51100000000E-03 0. -1.
        -11    1    4    4    0    0  0.11259924061E+02  0.35152888102E+01  0.57235860161E+01  0.13111162512E+02  0.51100000000E-03 0.  1.
         12    1    4    4    0    0 -0.12789452210E+02  0.22967178167E+02  0.19014619174E+02  0.32444061138E+02  0.00000000000E+00 0. -1.
</event>
<event>
 8    1  0.1254059E-006  0.9118800E+02  0.7816164E-02  0.1184000E+00
        -11   -1    0    0    0    0  0.00000000000E+00  0.00000000000E+00  0.45593999997E+02  0.45594000000E+02  0.51100000000E-03 0. -1.
         11   -1    0    0    0    0 -0.00000000000E+00 -0.00000000000E+00 -0.45593999997E+02  0.45594000000E+02  0.51100000000E-03 0.  1.
         23    2    1    2    0    0  0.00000000000E+00 -0.88817841970E-15  0.00000000000E+00  0.91188000000E+02  0.91188000000E+02 0.  0.
    9900012    2    3    3    0    0 -0.27588748989E+02  0.61055835254E+01  0.23608528070E+02  0.54367084496E+02  0.40000000725E+02 0.  0.
        -12    1    3    3    0    0  0.27588748989E+02 -0.61055835254E+01 -0.23608528070E+02  0.36820915504E+02  0.00000000000E+00 0.  1.
         11    1    4    4    0    0 -0.17036603289E+02 -0.10813912760E+01  0.14402472942E+02  0.22334871521E+02  0.51100000000E-03 0. -1.
        -11    1    4    4    0    0 -0.74846399856E+01 -0.10124004559E+02  0.67357329369E+01  0.14278844578E+02  0.51100000000E-03 0.  1.
         12    1    4    4    0    0 -0.30675057144E+01  0.17310979360E+02  0.24703221905E+01  0.17753368397E+02  0.00000000000E+00 0. -1.
</event>
<event>
 8    1  0.1254059E-006  0.9118800E+02  0.7816164E-02  0.1184000E+00
        -11   -1    0    0    0    0  0.00000000000E+00  0.00000000000E+00  0.45593999997E+02  0.45594000000E+02  0.51100000000E-03 0.  1.
         11   -1    0    0    0    0 -0.00000000000E+00 -0.00000000000E+00 -0.45593999997E+02  0.45594000000E+02  0.51100000000E-03 0. -1.
         23    2    1    2    0    0  0.35527136788E-14  0.35527136788E-14  0.00000000000E+00  0.91188000000E+02  0.91188000000E+02 0.  0.
    9900012    2    3    3    0    0  0.17807203789E+02 -0.31736705487E+02 -0.56095447717E+01  0.54367055220E+02  0.39999933985E+02 0.  0.
        -12    1    3    3    0    0 -0.17807203789E+02  0.31736705487E+02  0.56095447717E+01  0.36820944780E+02  0.00000000000E+00 0.  1.
         11    1    4    4    0    0  0.21651752076E+02 -0.17969108467E+02  0.50364684365E+01  0.28584143185E+02  0.51100000000E-03 0. -1.
        -11    1    4    4    0    0 -0.90269741401E+01 -0.45935712793E+00 -0.56162298655E+01  0.10641396020E+02  0.51100000000E-03 0.  1.
         12    1    4    4    0    0  0.51824258529E+01 -0.13308239892E+02 -0.50297833427E+01  0.15141516015E+02  0.00000000000E+00 0. -1.
</event>
<event>
 8    1  0.1254059E-006  0.9118800E+02  0.7816164E-02  0.1184000E+00
        -11   -1    0    0    0    0  0.00000000000E+00  0.00000000000E+00  0.45593999997E+02  0.45594000000E+02  0.51100000000E-03 0. -1.
         11   -1    0    0    0    0 -0.00000000000E+00 -0.00000000000E+00 -0.45593999997E+02  0.45594000000E+02  0.51100000000E-03 0.  1.
         23    2    1    2    0    0  0.00000000000E+00  0.35527136788E-14  0.00000000000E+00  0.91188000000E+02  0.91188000000E+02 0.  0.
    9900012    2    3    3    0    0  0.11061166106E+02 -0.17202994384E+02  0.30618420807E+02  0.54367080618E+02  0.39999991885E+02 0.  0.
        -12    1    3    3    0    0 -0.11061166106E+02  0.17202994384E+02 -0.30618420807E+02  0.36820919382E+02  0.00000000000E+00 0.  1.
         11    1    4    4    0    0  0.14935634069E+02 -0.14760368730E+02  0.32873495691E+02  0.39007798827E+02  0.51100000000E-03 0. -1.
        -11    1    4    4    0    0 -0.48406346146E+01  0.53714612463E+01 -0.25337517248E+00  0.72352289964E+01  0.51100000000E-03 0.  1.
         12    1    4    4    0    0  0.96616665074E+00 -0.78140869000E+01 -0.20016997112E+01  0.81240527947E+01  0.00000000000E+00 0. -1.
</event>
<event>
 8    1  0.1254059E-006  0.9118800E+02  0.7816164E-02  0.1184000E+00
        -11   -1    0    0    0    0  0.00000000000E+00  0.00000000000E+00  0.45593999997E+02  0.45594000000E+02  0.51100000000E-03 0. -1.
         11   -1    0    0    0    0 -0.00000000000E+00 -0.00000000000E+00 -0.45593999997E+02  0.45594000000E+02  0.51100000000E-03 0.  1.
         23    2    1    2    0    0  0.00000000000E+00  0.35527136788E-14  0.00000000000E+00  0.91188000000E+02  0.91188000000E+02 0.  0.
    9900012    2    3    3    0    0 -0.45610370411E+01  0.28601400278E+02 -0.22736228671E+02  0.54367092204E+02  0.40000018296E+02 0.  0.
         12    1    3    3    0    0  0.45610370411E+01 -0.28601400278E+02  0.22736228671E+02  0.36820907796E+02  0.00000000000E+00 0. -1.
         11    1    4    4    0    0  0.38201694857E+01  0.30341545792E+01  0.72085291371E+01  0.87041760950E+01  0.51100000000E-03 0. -1.
        -11    1    4    4    0    0 -0.33603330450E+01  0.10945290787E+02 -0.27786569490E+02  0.30053031010E+02  0.51100000000E-03 0.  1.
         12    1    4    4    0    0 -0.50208734818E+01  0.14621954912E+02 -0.21581883179E+01  0.15609885099E+02  0.00000000000E+00 0. -1.
</event>
<event>
 8    1  0.1254059E-006  0.9118800E+02  0.7816164E-02  0.1184000E+00
        -11   -1    0    0    0    0  0.00000000000E+00  0.00000000000E+00  0.45593999997E+02  0.45594000000E+02  0.51100000000E-03 0.  1.
         11   -1    0    0    0    0 -0.00000000000E+00 -0.00000000000E+00 -0.45593999997E+02  0.45594000000E+02  0.51100000000E-03 0. -1.
         23    2    1    2    0    0  0.00000000000E+00  0.35527136788E-14  0.00000000000E+00  0.91188000000E+02  0.91188000000E+02 0.  0.
    9900012    2    3    3    0    0  0.22151997189E+02 -0.21674650455E+02 -0.19881617443E+02  0.54367079805E+02  0.39999990033E+02 0.  0.
        -12    1    3    3    0    0 -0.22151997189E+02  0.21674650455E+02  0.19881617443E+02  0.36820920195E+02  0.00000000000E+00 0.  1.
         11    1    4    4    0    0  0.55031317960E+01 -0.10928875996E+02 -0.32021199364E+01  0.12648255312E+02  0.51100000000E-03 0. -1.
        -11    1    4    4    0    0 -0.83437565627E+01  0.27393490126E+00 -0.11018918590E+02  0.13824249747E+02  0.51100000000E-03 0.  1.
         12    1    4    4    0    0  0.24992621955E+02 -0.11019709361E+02 -0.56605789167E+01  0.27894574746E+02  0.00000000000E+00 0. -1.
</event>
<event>
 8    1  0.1254059E-006  0.9118800E+02  0.7816164E-02  0.1184000E+00
        -11   -1    0    0    0    0  0.00000000000E+00  0.00000000000E+00  0.45593999997E+02  0.45594000000E+02  0.51100000000E-03 0. -1.
         11   -1    0    0    0    0 -0.00000000000E+00 -0.00000000000E+00 -0.45593999997E+02  0.45594000000E+02  0.51100000000E-03 0.  1.
         23    2    1    2    0    0  0.00000000000E+00  0.00000000000E+00  0.00000000000E+00  0.91188000000E+02  0.91188000000E+02 0.  0.
    9900012    2    3    3    0    0  0.12337985859E+02  0.32028058195E+02  0.13332580827E+02  0.54367080426E+02  0.39999991447E+02 0.  0.
        -12    1    3    3    0    0 -0.12337985859E+02 -0.32028058195E+02 -0.13332580827E+02  0.36820919574E+02  0.00000000000E+00 0.  1.
         11    1    4    4    0    0  0.89756112077E+01 -0.23006606317E+01  0.83200406997E+01  0.12453020252E+02  0.51100000000E-03 0. -1.
        -11    1    4    4    0    0  0.12934077305E+02  0.21009953036E+02 -0.29954939670E+00  0.24673836597E+02  0.51100000000E-03 0.  1.
         12    1    4    4    0    0 -0.95717026542E+01  0.13318765790E+02  0.53120895238E+01  0.17240223577E+02  0.00000000000E+00 0. -1.
</event>
<event>
 8    1  0.1254059E-006  0.9118800E+02  0.7816164E-02  0.1184000E+00
        -11   -1    0    0    0    0  0.00000000000E+00  0.00000000000E+00  0.45593999997E+02  0.45594000000E+02  0.51100000000E-03 0. -1.
         11   -1    0    0    0    0 -0.00000000000E+00 -0.00000000000E+00 -0.45593999997E+02  0.45594000000E+02  0.51100000000E-03 0.  1.
         23    2    1    2    0    0  0.17763568394E-14  0.00000000000E+00  0.00000000000E+00  0.91188000000E+02  0.91188000000E+02 0.  0.
    9900012    2    3    3    0    0  0.73042516347E+01 -0.19192288601E+02  0.30562780312E+02  0.54367087816E+02  0.40000008294E+02 0.  0.
        -12    1    3    3    0    0 -0.73042516347E+01  0.19192288601E+02 -0.30562780312E+02  0.36820912184E+02  0.00000000000E+00 0.  1.
         11    1    4    4    0    0 -0.77764177975E+01 -0.72308968199E+01 -0.25134694169E+01  0.10912198282E+02  0.51100000000E-03 0. -1.
        -11    1    4    4    0    0  0.15290038313E-01  0.29263415073E+01 -0.11997555334E+01  0.31627712538E+01  0.51100000000E-03 0.  1.
         12    1    4    4    0    0  0.15065379394E+02 -0.14887733289E+02  0.34276005262E+02  0.40292118280E+02  0.00000000000E+00 0. -1.
</event>
<event>
 8    1  0.1254059E-006  0.9118800E+02  0.7816164E-02  0.1184000E+00
        -11   -1    0    0    0    0  0.00000000000E+00  0.00000000000E+00  0.45593999997E+02  0.45594000000E+02  0.51100000000E-03 0.  1.
         11   -1    0    0    0    0 -0.00000000000E+00 -0.00000000000E+00 -0.45593999997E+02  0.45594000000E+02  0.51100000000E-03 0. -1.
         23    2    1    2    0    0  0.00000000000E+00 -0.35527136788E-14  0.00000000000E+00  0.91188000000E+02  0.91188000000E+02 0.  0.
    9900012    2    3    3    0    0  0.19652237408E+02 -0.29627794167E+02 -0.95793222297E+01  0.54367081533E+02  0.39999993972E+02 0.  0.
        -12    1    3    3    0    0 -0.19652237408E+02  0.29627794167E+02  0.95793222297E+01  0.36820918467E+02  0.00000000000E+00 0.  1.
         11    1    4    4    0    0 -0.36595725437E+01 -0.64625259922E+01  0.96693066010E+01  0.12192301005E+02  0.51100000000E-03 0. -1.
        -11    1    4    4    0    0  0.10867655697E+02 -0.29778737378E+01 -0.13847225093E+02  0.17852711709E+02  0.51100000000E-03 0.  1.
        -12    1    4    4    0    0  0.12444154255E+02 -0.20187394437E+02 -0.54014037374E+01  0.24322068819E+02  0.00000000000E+00 0.  1.
</event>
<event>
 8    1  0.1254059E-006  0.9118800E+02  0.7816164E-02  0.1184000E+00
        -11   -1    0    0    0    0  0.00000000000E+00  0.00000000000E+00  0.45593999997E+02  0.45594000000E+02  0.51100000000E-03 0. -1.
         11   -1    0    0    0    0 -0.00000000000E+00 -0.00000000000E+00 -0.45593999997E+02  0.45594000000E+02  0.51100000000E-03 0.  1.
         23    2    1    2    0    0  0.00000000000E+00 -0.17763568394E-14  0.00000000000E+00  0.91188000000E+02  0.91188000000E+02 0.  0.
    9900012    2    3    3    0    0 -0.17345221955E+02  0.12987578807E+02  0.29769806232E+02  0.54367145977E+02  0.40000140883E+02 0.  0.
        -12    1    3    3    0    0  0.17345221955E+02 -0.12987578807E+02 -0.29769806232E+02  0.36820854023E+02  0.00000000000E+00 0.  1.
         11    1    4    4    0    0 -0.97480500575E+00  0.32248027862E-01  0.13537791848E+02  0.13572880796E+02  0.51100000000E-03 0. -1.
        -11    1    4    4    0    0 -0.24335522984E+02  0.12872466745E+02  0.66282208956E+01  0.28316980621E+02  0.51100000000E-03 0.  1.
        -12    1    4    4    0    0  0.79651060351E+01  0.82864034811E-01  0.96037934882E+01  0.12477284559E+02  0.00000000000E+00 0.  1.
</event>
<event>
 8    1  0.1254059E-006  0.9118800E+02  0.7816164E-02  0.1184000E+00
        -11   -1    0    0    0    0  0.00000000000E+00  0.00000000000E+00  0.45593999997E+02  0.45594000000E+02  0.51100000000E-03 0. -1.
         11   -1    0    0    0    0 -0.00000000000E+00 -0.00000000000E+00 -0.45593999997E+02  0.45594000000E+02  0.51100000000E-03 0.  1.
         23    2    1    2    0    0 -0.35527136788E-14  0.00000000000E+00 -0.35527136788E-14  0.91188000000E+02  0.91188000000E+02 0.  0.
    9900012    2    3    3    0    0  0.19873585696E+02  0.35418009494E+01  0.30794124115E+02  0.54367057014E+02  0.39999938075E+02 0.  0.
        -12    1    3    3    0    0 -0.19873585696E+02 -0.35418009494E+01 -0.30794124115E+02  0.36820942986E+02  0.00000000000E+00 0.  1.
         11    1    4    4    0    0  0.13457646078E+02  0.17987106733E+02  0.75069067863E+01  0.23685394156E+02  0.51100000000E-03 0.  1.
        -11    1    4    4    0    0  0.65420525167E+01 -0.11235572840E+02  0.84624654128E+01  0.15512893647E+02  0.51100000000E-03 0. -1.
        -12    1    4    4    0    0 -0.12611289884E+00 -0.32097329433E+01  0.14824751915E+02  0.15168769211E+02  0.00000000000E+00 0.  1.
</event>
<event>
 8    1  0.1254059E-006  0.9118800E+02  0.7816164E-02  0.1184000E+00
        -11   -1    0    0    0    0  0.00000000000E+00  0.00000000000E+00  0.45593999997E+02  0.45594000000E+02  0.51100000000E-03 0.  1.
         11   -1    0    0    0    0 -0.00000000000E+00 -0.00000000000E+00 -0.45593999997E+02  0.45594000000E+02  0.51100000000E-03 0. -1.
         23    2    1    2    0    0  0.88817841970E-15  0.00000000000E+00  0.00000000000E+00  0.91188000000E+02  0.91188000000E+02 0.  0.
    9900012    2    3    3    0    0  0.64578842875E+01 -0.12706148411E+01 -0.36227912066E+02  0.54367077358E+02  0.39999984454E+02 0.  0.
        -12    1    3    3    0    0 -0.64578842875E+01  0.12706148411E+01  0.36227912066E+02  0.36820922642E+02  0.00000000000E+00 0.  1.
         11    1    4    4    0    0  0.17538918142E+02 -0.30808766464E+01 -0.37526561974E+02  0.41537312195E+02  0.51100000000E-03 0. -1.
        -11    1    4    4    0    0 -0.25632144089E+01 -0.16420559572E+01  0.19512565724E+01  0.36157735473E+01  0.51100000000E-03 0.  1.
         12    1    4    4    0    0 -0.85178194456E+01  0.34523177625E+01 -0.65260666369E+00  0.92139916159E+01  0.00000000000E+00 0. -1.
</event>
<event>
 8    1  0.1254059E-006  0.9118800E+02  0.7816164E-02  0.1184000E+00
        -11   -1    0    0    0    0  0.00000000000E+00  0.00000000000E+00  0.45593999997E+02  0.45594000000E+02  0.51100000000E-03 0.  1.
         11   -1    0    0    0    0 -0.00000000000E+00 -0.00000000000E+00 -0.45593999997E+02  0.45594000000E+02  0.51100000000E-03 0. -1.
         23    2    1    2    0    0  0.00000000000E+00  0.00000000000E+00  0.22204460493E-14  0.91188000000E+02  0.91188000000E+02 0.  0.
    9900012    2    3    3    0    0 -0.25250887586E+02  0.26522992188E+02 -0.38345071399E+01  0.54367083614E+02  0.39999998714E+02 0.  0.
        -12    1    3    3    0    0  0.25250887586E+02 -0.26522992188E+02  0.38345071399E+01  0.36820916386E+02  0.00000000000E+00 0.  1.
         11    1    4    4    0    0 -0.13288566939E+02  0.92248312222E+01 -0.11347624897E+02  0.19759861169E+02  0.51100000000E-03 0. -1.
        -11    1    4    4    0    0 -0.10884909038E+02  0.35398038361E+01 -0.79084035316E+01  0.13912379475E+02  0.51100000000E-03 0.  1.
        -12    1    4    4    0    0 -0.10774116090E+01  0.13758357130E+02  0.15421521288E+02  0.20694842970E+02  0.00000000000E+00 0.  1.
</event>
<event>
 8    1  0.1254059E-006  0.9118800E+02  0.7816164E-02  0.1184000E+00
        -11   -1    0    0    0    0  0.00000000000E+00  0.00000000000E+00  0.45593999997E+02  0.45594000000E+02  0.51100000000E-03 0.  1.
         11   -1    0    0    0    0 -0.00000000000E+00 -0.00000000000E+00 -0.45593999997E+02  0.45594000000E+02  0.51100000000E-03 0. -1.
         23    2    1    2    0    0 -0.33306690739E-15  0.21510571102E-15  0.00000000000E+00  0.91188000000E+02  0.91188000000E+02 0.  0.
    9900012    2    3    3    0    0  0.78748713541E+00 -0.61114773425E-01 -0.36812453872E+02  0.54367073463E+02  0.39999975573E+02 0.  0.
        -12    1    3    3    0    0 -0.78748713541E+00  0.61114773425E-01  0.36812453872E+02  0.36820926537E+02  0.00000000000E+00 0.  1.
         11    1    4    4    0    0  0.91519681828E+01 -0.61126323486E+01 -0.23896892536E+02  0.26309395071E+02  0.51100000000E-03 0. -1.
        -11    1    4    4    0    0 -0.67235874101E+01 -0.66667508913E+01 -0.11880836738E+02  0.15192316379E+02  0.51100000000E-03 0.  1.
        -12    1    4    4    0    0 -0.16408936373E+01  0.12718268467E+02 -0.10347245970E+01  0.12865362012E+02  0.00000000000E+00 0.  1.
</event>
<event>
 8    1  0.1254059E-006  0.9118800E+02  0.7816164E-02  0.1184000E+00
        -11   -1    0    0    0    0  0.00000000000E+00  0.00000000000E+00  0.45593999997E+02  0.45594000000E+02  0.51100000000E-03 0. -1.
         11   -1    0    0    0    0 -0.00000000000E+00 -0.00000000000E+00 -0.45593999997E+02  0.45594000000E+02  0.51100000000E-03 0.  1.
         23    2    1    2    0    0  0.44408920985E-14 -0.35527136788E-14  0.00000000000E+00  0.91188000000E+02  0.91188000000E+02 0.  0.
    9900012    2    3    3    0    0  0.55734077727E+01 -0.28262105333E+02 -0.22934041780E+02  0.54367085502E+02  0.40000003020E+02 0.  0.
         12    1    3    3    0    0 -0.55734077727E+01  0.28262105333E+02  0.22934041780E+02  0.36820914498E+02  0.00000000000E+00 0. -1.
         11    1    4    4    0    0 -0.13219081347E+01 -0.21723285671E+00  0.46262856753E+00  0.14172708574E+01  0.51100000000E-03 0.  1.
        -11    1    4    4    0    0 -0.13790238558E+02 -0.15078189410E+02 -0.20790010253E+01  0.20538858802E+02  0.51100000000E-03 0. -1.
        -12    1    4    4    0    0  0.20685554466E+02 -0.12966683067E+02 -0.21317669322E+02  0.32410955843E+02  0.00000000000E+00 0.  1.
</event>
<event>
 8    1  0.1254059E-006  0.9118800E+02  0.7816164E-02  0.1184000E+00
        -11   -1    0    0    0    0  0.00000000000E+00  0.00000000000E+00  0.45593999997E+02  0.45594000000E+02  0.51100000000E-03 0.  1.
         11   -1    0    0    0    0 -0.00000000000E+00 -0.00000000000E+00 -0.45593999997E+02  0.45594000000E+02  0.51100000000E-03 0. -1.
         23    2    1    2    0    0  0.00000000000E+00  0.11102230246E-15  0.00000000000E+00  0.91188000000E+02  0.91188000000E+02 0.  0.
    9900012    2    3    3    0    0  0.35033665442E+02 -0.86740949124E+00 -0.11299148514E+02  0.54367070209E+02  0.39999968156E+02 0.  0.
         12    1    3    3    0    0 -0.35033665442E+02  0.86740949124E+00  0.11299148514E+02  0.36820929791E+02  0.00000000000E+00 0. -1.
         11    1    4    4    0    0  0.31041485777E+02 -0.43567951418E+01 -0.13130767306E+02  0.33984887133E+02  0.51100000000E-03 0.  1.
        -11    1    4    4    0    0  0.17555377851E+01 -0.23026181421E+01  0.98352548035E+01  0.10252619204E+02  0.51100000000E-03 0. -1.
         12    1    4    4    0    0  0.22366418799E+01  0.57920037927E+01 -0.80036360119E+01  0.10129563872E+02  0.00000000000E+00 0. -1.
</event>
<event>
 8    1  0.1254059E-006  0.9118800E+02  0.7816164E-02  0.1184000E+00
        -11   -1    0    0    0    0  0.00000000000E+00  0.00000000000E+00  0.45593999997E+02  0.45594000000E+02  0.51100000000E-03 0. -1.
         11   -1    0    0    0    0 -0.00000000000E+00 -0.00000000000E+00 -0.45593999997E+02  0.45594000000E+02  0.51100000000E-03 0.  1.
         23    2    1    2    0    0  0.35527136788E-14  0.00000000000E+00 -0.31086244690E-14  0.91188000000E+02  0.91188000000E+02 0.  0.
    9900012    2    3    3    0    0 -0.28310438125E+02  0.23403919839E+02  0.25604153176E+01  0.54367080711E+02  0.39999992097E+02 0.  0.
        -12    1    3    3    0    0  0.28310438125E+02 -0.23403919839E+02 -0.25604153176E+01  0.36820919289E+02  0.00000000000E+00 0.  1.
         11    1    4    4    0    0 -0.31071379196E+01  0.11625450253E+02 -0.71479791356E+01  0.13996392593E+02  0.51100000000E-03 0. -1.
        -11    1    4    4    0    0 -0.41920087641E+01 -0.34743537986E+01 -0.74661326522E+01  0.92405199441E+01  0.51100000000E-03 0.  1.
         12    1    4    4    0    0 -0.21011291442E+02  0.15252823385E+02  0.17174527105E+02  0.31130168174E+02  0.00000000000E+00 0. -1.
</event>
<event>
 8    1  0.1254059E-006  0.9118800E+02  0.7816164E-02  0.1184000E+00
        -11   -1    0    0    0    0  0.00000000000E+00  0.00000000000E+00  0.45593999997E+02  0.45594000000E+02  0.51100000000E-03 0. -1.
         11   -1    0    0    0    0 -0.00000000000E+00 -0.00000000000E+00 -0.45593999997E+02  0.45594000000E+02  0.51100000000E-03 0.  1.
         23    2    1    2    0    0  0.00000000000E+00  0.35527136788E-14 -0.35527136788E-14  0.91188000000E+02  0.91188000000E+02 0.  0.
    9900012    2    3    3    0    0  0.80164874849E+01 -0.21181574849E+02  0.29031994296E+02  0.54367083696E+02  0.39999998901E+02 0.  0.
        -12    1    3    3    0    0 -0.80164874849E+01  0.21181574849E+02 -0.29031994296E+02  0.36820916304E+02  0.00000000000E+00 0.  1.
         11    1    4    4    0    0 -0.41965564741E+01  0.10010400366E+01 -0.15225340542E+01  0.45750713221E+01  0.51100000000E-03 0. -1.
        -11    1    4    4    0    0  0.12429916957E+02  0.22472203897E+01  0.30315155186E+01  0.12990108607E+02  0.51100000000E-03 0.  1.
         12    1    4    4    0    0 -0.21687299768E+00 -0.24429835275E+02  0.27523012832E+02  0.36801903766E+02  0.00000000000E+00 0. -1.
</event>
<event>
 8    1  0.1254059E-006  0.9118800E+02  0.7816164E-02  0.1184000E+00
        -11   -1    0    0    0    0  0.00000000000E+00  0.00000000000E+00  0.45593999997E+02  0.45594000000E+02  0.51100000000E-03 0.  1.
         11   -1    0    0    0    0 -0.00000000000E+00 -0.00000000000E+00 -0.45593999997E+02  0.45594000000E+02  0.51100000000E-03 0. -1.
         23    2    1    2    0    0  0.00000000000E+00  0.35527136788E-14 -0.35527136788E-14  0.91188000000E+02  0.91188000000E+02 0.  0.
    9900012    2    3    3    0    0 -0.24071775168E+02  0.20894192663E+02 -0.18432584511E+02  0.54367111655E+02  0.40000062639E+02 0.  0.
         12    1    3    3    0    0  0.24071775168E+02 -0.20894192663E+02  0.18432584511E+02  0.36820888345E+02  0.00000000000E+00 0. -1.
         11    1    4    4    0    0  0.38598608484E+01 -0.25006955212E+01 -0.30663278378E+01  0.55276007932E+01  0.51100000000E-03 0. -1.
        -11    1    4    4    0    0  0.12556645868E+01  0.16110180256E+02 -0.70388702795E+01  0.17625558048E+02  0.51100000000E-03 0.  1.
        -12    1    4    4    0    0 -0.29187300603E+02  0.72847079288E+01 -0.83273863934E+01  0.31213952814E+02  0.00000000000E+00 0.  1.
</event>
<event>
 8    1  0.1254059E-006  0.9118800E+02  0.7816164E-02  0.1184000E+00
        -11   -1    0    0    0    0  0.00000000000E+00  0.00000000000E+00  0.45593999997E+02  0.45594000000E+02  0.51100000000E-03 0. -1.
         11   -1    0    0    0    0 -0.00000000000E+00 -0.00000000000E+00 -0.45593999997E+02  0.45594000000E+02  0.51100000000E-03 0.  1.
         23    2    1    2    0    0  0.00000000000E+00  0.00000000000E+00  0.35527136788E-14  0.91188000000E+02  0.91188000000E+02 0.  0.
    9900012    2    3    3    0    0 -0.18789030281E+02  0.16370576576E+02 -0.27106385443E+02  0.54367087897E+02  0.40000008478E+02 0.  0.
         12    1    3    3    0    0  0.18789030281E+02 -0.16370576576E+02  0.27106385443E+02  0.36820912103E+02  0.00000000000E+00 0. -1.
         11    1    4    4    0    0 -0.32839898271E+01 -0.91416128099E+01 -0.70306842217E+01  0.11991004747E+02  0.51100000000E-03 0. -1.
        -11    1    4    4    0    0 -0.69433445088E+01  0.13021780460E+02 -0.22632529728E+02  0.27018663946E+02  0.51100000000E-03 0.  1.
         12    1    4    4    0    0 -0.85616959452E+01  0.12490408926E+02  0.25568285064E+01  0.15357419204E+02  0.00000000000E+00 0. -1.
</event>
<event>
 8    1  0.1254059E-006  0.9118800E+02  0.7816164E-02  0.1184000E+00
        -11   -1    0    0    0    0  0.00000000000E+00  0.00000000000E+00  0.45593999997E+02  0.45594000000E+02  0.51100000000E-03 0. -1.
         11   -1    0    0    0    0 -0.00000000000E+00 -0.00000000000E+00 -0.45593999997E+02  0.45594000000E+02  0.51100000000E-03 0.  1.
         23    2    1    2    0    0  0.00000000000E+00  0.00000000000E+00  0.00000000000E+00  0.91188000000E+02  0.91188000000E+02 0.  0.
    9900012    2    3    3    0    0 -0.19495614929E+02  0.19625917175E+02  0.24300584420E+02  0.54367163106E+02  0.40000179933E+02 0.  0.
        -12    1    3    3    0    0  0.19495614929E+02 -0.19625917175E+02 -0.24300584420E+02  0.36820836894E+02  0.00000000000E+00 0.  1.
         11    1    4    4    0    0 -0.97636624211E+01 -0.49722754574E+01 -0.41797549303E+01  0.11727019171E+02  0.51100000000E-03 0.  1.
        -11    1    4    4    0    0 -0.18356399680E+01  0.32510453835E+01 -0.22799966232E+01  0.43746148448E+01  0.51100000000E-03 0. -1.
         12    1    4    4    0    0 -0.78963125395E+01  0.21347147249E+02  0.30760335973E+02  0.38265529091E+02  0.00000000000E+00 0. -1.
</event>
<event>
 8    1  0.1254059E-006  0.9118800E+02  0.7816164E-02  0.1184000E+00
        -11   -1    0    0    0    0  0.00000000000E+00  0.00000000000E+00  0.45593999997E+02  0.45594000000E+02  0.51100000000E-03 0.  1.
         11   -1    0    0    0    0 -0.00000000000E+00 -0.00000000000E+00 -0.45593999997E+02  0.45594000000E+02  0.51100000000E-03 0. -1.
         23    2    1    2    0    0  0.00000000000E+00  0.00000000000E+00  0.00000000000E+00  0.91188000000E+02  0.91188000000E+02 0.  0.
    9900012    2    3    3    0    0  0.39827366438E+01  0.25732228264E+02 -0.26034010672E+02  0.54367089171E+02  0.40000011384E+02 0.  0.
        -12    1    3    3    0    0 -0.39827366438E+01 -0.25732228264E+02  0.26034010672E+02  0.36820910829E+02  0.00000000000E+00 0.  1.
         11    1    4    4    0    0 -0.59394894067E+01  0.94837021667E+01 -0.88705077991E+01  0.14279497543E+02  0.51100000000E-03 0. -1.
        -11    1    4    4    0    0  0.28893397459E+01  0.20539700178E+02 -0.22239373313E+02  0.30410808822E+02  0.51100000000E-03 0.  1.
        -12    1    4    4    0    0  0.70328863046E+01 -0.42911740806E+01  0.50758704408E+01  0.96767828071E+01  0.00000000000E+00 0.  1.
</event>
<event>
 8    1  0.1254059E-006  0.9118800E+02  0.7816164E-02  0.1184000E+00
        -11   -1    0    0    0    0  0.00000000000E+00  0.00000000000E+00  0.45593999997E+02  0.45594000000E+02  0.51100000000E-03 0. -1.
         11   -1    0    0    0    0 -0.00000000000E+00 -0.00000000000E+00 -0.45593999997E+02  0.45594000000E+02  0.51100000000E-03 0.  1.
         23    2    1    2    0    0 -0.35527136788E-14  0.00000000000E+00  0.33306690739E-15  0.91188000000E+02  0.91188000000E+02 0.  0.
    9900012    2    3    3    0    0  0.21425209349E+02 -0.29939650879E+02 -0.59864789763E+00  0.54367072938E+02  0.39999974377E+02 0.  0.
        -12    1    3    3    0    0 -0.21425209349E+02  0.29939650879E+02  0.59864789763E+00  0.36820927062E+02  0.00000000000E+00 0.  1.
         11    1    4    4    0    0  0.13407176599E+02 -0.20525385860E+01  0.72112769270E+01  0.15361243901E+02  0.51100000000E-03 0. -1.
        -11    1    4    4    0    0  0.40927643871E+01  0.42135550144E+01 -0.10526595034E+01  0.59676510017E+01  0.51100000000E-03 0.  1.
        -12    1    4    4    0    0  0.39252683630E+01 -0.32100667307E+02 -0.67572653213E+01  0.33038178035E+02  0.00000000000E+00 0.  1.
</event>
<event>
 8    1  0.1254059E-006  0.9118800E+02  0.7816164E-02  0.1184000E+00
        -11   -1    0    0    0    0  0.00000000000E+00  0.00000000000E+00  0.45593999997E+02  0.45594000000E+02  0.51100000000E-03 0. -1.
         11   -1    0    0    0    0 -0.00000000000E+00 -0.00000000000E+00 -0.45593999997E+02  0.45594000000E+02  0.51100000000E-03 0.  1.
         23    2    1    2    0    0  0.00000000000E+00  0.00000000000E+00  0.00000000000E+00  0.91188000000E+02  0.91188000000E+02 0.  0.
    9900012    2    3    3    0    0 -0.19646759408E+02 -0.27444184348E+02  0.14717425455E+02  0.54367068157E+02  0.39999963478E+02 0.  0.
        -12    1    3    3    0    0  0.19646759408E+02  0.27444184348E+02 -0.14717425455E+02  0.36820931843E+02  0.00000000000E+00 0.  1.
         11    1    4    4    0    0 -0.11734907124E+02 -0.26822023950E+01  0.20305035160E+02  0.23605014467E+02  0.51100000000E-03 0.  1.
        -11    1    4    4    0    0 -0.88290052940E+01 -0.15345635236E+02 -0.99886006494E+01  0.20327616645E+02  0.51100000000E-03 0. -1.
         12    1    4    4    0    0  0.91715301035E+00 -0.94163467178E+01  0.44009909444E+01  0.10434437045E+02  0.00000000000E+00 0. -1.
</event>
<event>
 8    1  0.1254059E-006  0.9118800E+02  0.7816164E-02  0.1184000E+00
        -11   -1    0    0    0    0  0.00000000000E+00  0.00000000000E+00  0.45593999997E+02  0.45594000000E+02  0.51100000000E-03 0.  1.
         11   -1    0    0    0    0 -0.00000000000E+00 -0.00000000000E+00 -0.45593999997E+02  0.45594000000E+02  0.51100000000E-03 0. -1.
         23    2    1    2    0    0 -0.17763568394E-14  0.00000000000E+00  0.00000000000E+00  0.91188000000E+02  0.91188000000E+02 0.  0.
    9900012    2    3    3    0    0  0.14440071852E+02  0.33724442468E+02  0.31530881207E+01  0.54366869387E+02  0.39999510340E+02 0.  0.
        -12    1    3    3    0    0 -0.14440071852E+02 -0.33724442468E+02 -0.31530881207E+01  0.36821130613E+02  0.00000000000E+00 0.  1.
         11    1    4    4    0    0 -0.10520706510E+01  0.23482603611E+02 -0.12300726452E+02  0.26530122437E+02  0.51100000000E-03 0. -1.
        -11    1    4    4    0    0  0.14348896711E+02  0.12288328835E+02  0.89131744037E+01  0.20888718022E+02  0.51100000000E-03 0.  1.
         12    1    4    4    0    0  0.11432457916E+01 -0.20464899780E+01  0.65406401690E+01  0.69480289284E+01  0.00000000000E+00 0. -1.
</event>
<event>
 8    1  0.1254059E-006  0.9118800E+02  0.7816164E-02  0.1184000E+00
        -11   -1    0    0    0    0  0.00000000000E+00  0.00000000000E+00  0.45593999997E+02  0.45594000000E+02  0.51100000000E-03 0.  1.
         11   -1    0    0    0    0 -0.00000000000E+00 -0.00000000000E+00 -0.45593999997E+02  0.45594000000E+02  0.51100000000E-03 0. -1.
         23    2    1    2    0    0 -0.71054273576E-14  0.00000000000E+00  0.00000000000E+00  0.91188000000E+02  0.91188000000E+02 0.  0.
    9900012    2    3    3    0    0  0.32737599750E+02  0.15501936667E+02  0.66121647376E+01  0.54367065732E+02  0.39999957950E+02 0.  0.
        -12    1    3    3    0    0 -0.32737599750E+02 -0.15501936667E+02 -0.66121647376E+01  0.36820934268E+02  0.00000000000E+00 0.  1.
         11    1    4    4    0    0  0.11399143096E+02  0.40765377341E+01 -0.11618847111E+02  0.16779637412E+02  0.51100000000E-03 0. -1.
        -11    1    4    4    0    0  0.16650984034E+02 -0.13239446268E+01  0.26431538304E+01  0.16911367807E+02  0.51100000000E-03 0.  1.
        -12    1    4    4    0    0  0.46874726205E+01  0.12749343559E+02  0.15587858018E+02  0.20676060513E+02  0.00000000000E+00 0.  1.
</event>
<event>
 8    1  0.1254059E-006  0.9118800E+02  0.7816164E-02  0.1184000E+00
        -11   -1    0    0    0    0  0.00000000000E+00  0.00000000000E+00  0.45593999997E+02  0.45594000000E+02  0.51100000000E-03 0. -1.
         11   -1    0    0    0    0 -0.00000000000E+00 -0.00000000000E+00 -0.45593999997E+02  0.45594000000E+02  0.51100000000E-03 0.  1.
         23    2    1    2    0    0  0.00000000000E+00 -0.16653345369E-15  0.00000000000E+00  0.91188000000E+02  0.91188000000E+02 0.  0.
    9900012    2    3    3    0    0 -0.17755045570E+02  0.24146785340E+00  0.32256475400E+02  0.54367079925E+02  0.39999990306E+02 0.  0.
        -12    1    3    3    0    0  0.17755045570E+02 -0.24146785340E+00 -0.32256475400E+02  0.36820920075E+02  0.00000000000E+00 0.  1.
         11    1    4    4    0    0 -0.11580115734E+02  0.64385508437E+00  0.14684746633E+02  0.18712440079E+02  0.51100000000E-03 0. -1.
        -11    1    4    4    0    0  0.13607484816E+01 -0.14686596234E+02  0.99841049362E+01  0.17810954410E+02  0.51100000000E-03 0.  1.
         12    1    4    4    0    0 -0.75356783181E+01  0.14284209003E+02  0.75876238302E+01  0.17843685436E+02  0.00000000000E+00 0. -1.
</event>
<event>
 8    1  0.1254059E-006  0.9118800E+02  0.7816164E-02  0.1184000E+00
        -11   -1    0    0    0    0  0.00000000000E+00  0.00000000000E+00  0.45593999997E+02  0.45594000000E+02  0.51100000000E-03 0.  1.
         11   -1    0    0    0    0 -0.00000000000E+00 -0.00000000000E+00 -0.45593999997E+02  0.45594000000E+02  0.51100000000E-03 0. -1.
         23    2    1    2    0    0  0.35527136788E-14  0.00000000000E+00  0.00000000000E+00  0.91188000000E+02  0.91188000000E+02 0.  0.
    9900012    2    3    3    0    0  0.14539816823E+02  0.26681457859E+02 -0.20795905316E+02  0.54367134385E+02  0.40000114458E+02 0.  0.
        -12    1    3    3    0    0 -0.14539816823E+02 -0.26681457859E+02  0.20795905316E+02  0.36820865615E+02  0.00000000000E+00 0.  1.
         11    1    4    4    0    0 -0.80887303012E+01  0.92747746379E+01 -0.17330000744E+02  0.21255068302E+02  0.51100000000E-03 0. -1.
        -11    1    4    4    0    0  0.19518549597E+02  0.78979600555E+01 -0.74620837951E+01  0.22339074427E+02  0.51100000000E-03 0.  1.
         12    1    4    4    0    0  0.31099975272E+01  0.95087231654E+01  0.39961792232E+01  0.10772991657E+02  0.00000000000E+00 0. -1.
</event>
<event>
 8    1  0.1254059E-006  0.9118800E+02  0.7816164E-02  0.1184000E+00
        -11   -1    0    0    0    0  0.00000000000E+00  0.00000000000E+00  0.45593999997E+02  0.45594000000E+02  0.51100000000E-03 0.  1.
         11   -1    0    0    0    0 -0.00000000000E+00 -0.00000000000E+00 -0.45593999997E+02  0.45594000000E+02  0.51100000000E-03 0. -1.
         23    2    1    2    0    0  0.00000000000E+00 -0.17763568394E-14  0.35527136788E-14  0.91188000000E+02  0.91188000000E+02 0.  0.
    9900012    2    3    3    0    0 -0.17365830889E+02  0.85945456972E+01 -0.31310409157E+02  0.54367081763E+02  0.39999994495E+02 0.  0.
        -12    1    3    3    0    0  0.17365830889E+02 -0.85945456972E+01  0.31310409157E+02  0.36820918237E+02  0.00000000000E+00 0.  1.
         11    1    4    4    0    0 -0.16417659329E+02  0.13117300417E+02 -0.44411612263E+01  0.21478524655E+02  0.51100000000E-03 0. -1.
        -11    1    4    4    0    0  0.64041837301E+01 -0.83084809199E+01 -0.17389852199E+02  0.20308899138E+02  0.51100000000E-03 0.  1.
        -12    1    4    4    0    0 -0.73523552910E+01  0.37857262005E+01 -0.94793957320E+01  0.12579657970E+02  0.00000000000E+00 0.  1.
</event>
<event>
 8    1  0.1254059E-006  0.9118800E+02  0.7816164E-02  0.1184000E+00
        -11   -1    0    0    0    0  0.00000000000E+00  0.00000000000E+00  0.45593999997E+02  0.45594000000E+02  0.51100000000E-03 0. -1.
         11   -1    0    0    0    0 -0.00000000000E+00 -0.00000000000E+00 -0.45593999997E+02  0.45594000000E+02  0.51100000000E-03 0.  1.
         23    2    1    2    0    0  0.35527136788E-14  0.00000000000E+00 -0.35527136788E-14  0.91188000000E+02  0.91188000000E+02 0.  0.
    9900012    2    3    3    0    0 -0.20138832839E+02 -0.16688569307E+02  0.25917162443E+02  0.54367078736E+02  0.39999987594E+02 0.  0.
         12    1    3    3    0    0  0.20138832839E+02  0.16688569307E+02 -0.25917162443E+02  0.36820921264E+02  0.00000000000E+00 0. -1.
         11    1    4    4    0    0 -0.26838352912E+02 -0.23591530921E+01  0.22947849704E+02  0.35390204812E+02  0.51100000000E-03 0. -1.
        -11    1    4    4    0    0 -0.18401285077E+01 -0.22901883516E+01 -0.18236102326E+01  0.34578302665E+01  0.51100000000E-03 0.  1.
        -12    1    4    4    0    0  0.85396485804E+01 -0.12039227864E+02  0.47929229717E+01  0.15519043658E+02  0.00000000000E+00 0.  1.
</event>
<event>
 8    1  0.1254059E-006  0.9118800E+02  0.7816164E-02  0.1184000E+00
        -11   -1    0    0    0    0  0.00000000000E+00  0.00000000000E+00  0.45593999997E+02  0.45594000000E+02  0.51100000000E-03 0.  1.
         11   -1    0    0    0    0 -0.00000000000E+00 -0.00000000000E+00 -0.45593999997E+02  0.45594000000E+02  0.51100000000E-03 0. -1.
         23    2    1    2    0    0  0.17763568394E-14  0.00000000000E+00  0.17763568394E-14  0.91188000000E+02  0.91188000000E+02 0.  0.
    9900012    2    3    3    0    0 -0.14725150141E+02  0.32313080438E+02 -0.97372268292E+01  0.54367098322E+02  0.40000032244E+02 0.  0.
        -12    1    3    3    0    0  0.14725150141E+02 -0.32313080438E+02  0.97372268292E+01  0.36820901678E+02  0.00000000000E+00 0.  1.
         11    1    4    4    0    0 -0.10403210186E+02  0.61658274245E+01  0.32128836511E+01  0.12512666847E+02  0.51100000000E-03 0. -1.
        -11    1    4    4    0    0  0.78203307033E+01  0.49203291751E+01  0.59136001931E+01  0.10969862306E+02  0.51100000000E-03 0.  1.
         12    1    4    4    0    0 -0.12142270658E+02  0.21226923839E+02 -0.18863710673E+02  0.30884569169E+02  0.00000000000E+00 0. -1.
</event>
<event>
 8    1  0.1254059E-006  0.9118800E+02  0.7816164E-02  0.1184000E+00
        -11   -1    0    0    0    0  0.00000000000E+00  0.00000000000E+00  0.45593999997E+02  0.45594000000E+02  0.51100000000E-03 0. -1.
         11   -1    0    0    0    0 -0.00000000000E+00 -0.00000000000E+00 -0.45593999997E+02  0.45594000000E+02  0.51100000000E-03 0.  1.
         23    2    1    2    0    0  0.00000000000E+00  0.17763568394E-14 -0.17763568394E-14  0.91188000000E+02  0.91188000000E+02 0.  0.
    9900012    2    3    3    0    0 -0.31280243321E+02 -0.14745163852E+02 -0.12645702392E+02  0.54366983335E+02  0.39999770109E+02 0.  0.
         12    1    3    3    0    0  0.31280243321E+02  0.14745163852E+02  0.12645702392E+02  0.36821016665E+02  0.00000000000E+00 0. -1.
         11    1    4    4    0    0 -0.24344361101E+02  0.19609614128E+01 -0.52633432940E+01  0.24983916225E+02  0.51100000000E-03 0. -1.
        -11    1    4    4    0    0 -0.10279198590E+02 -0.14427544934E+02  0.32467788438E+01  0.18009929194E+02  0.51100000000E-03 0.  1.
        -12    1    4    4    0    0  0.33433163697E+01 -0.22785803312E+01 -0.10629137941E+02  0.11373137916E+02  0.00000000000E+00 0.  1.
</event>
<event>
 8    1  0.1254059E-006  0.9118800E+02  0.7816164E-02  0.1184000E+00
        -11   -1    0    0    0    0  0.00000000000E+00  0.00000000000E+00  0.45593999997E+02  0.45594000000E+02  0.51100000000E-03 0. -1.
         11   -1    0    0    0    0 -0.00000000000E+00 -0.00000000000E+00 -0.45593999997E+02  0.45594000000E+02  0.51100000000E-03 0.  1.
         23    2    1    2    0    0  0.35527136788E-14  0.35527136788E-14  0.00000000000E+00  0.91188000000E+02  0.91188000000E+02 0.  0.
    9900012    2    3    3    0    0 -0.25886344243E+02  0.20496258037E+02  0.16296668497E+02  0.54367070953E+02  0.39999969853E+02 0.  0.
        -12    1    3    3    0    0  0.25886344243E+02 -0.20496258037E+02 -0.16296668497E+02  0.36820929047E+02  0.00000000000E+00 0.  1.
         11    1    4    4    0    0 -0.43085275710E+01  0.13056832228E+02  0.56479974384E+01  0.14864190291E+02  0.51100000000E-03 0. -1.
        -11    1    4    4    0    0 -0.24806995527E+02  0.99003123612E+01  0.17219344706E+02  0.31779066133E+02  0.51100000000E-03 0.  1.
        -12    1    4    4    0    0  0.32291788558E+01 -0.24608865529E+01 -0.65706736473E+01  0.77238145296E+01  0.00000000000E+00 0.  1.
</event>
<event>
 8    1  0.1254059E-006  0.9118800E+02  0.7816164E-02  0.1184000E+00
        -11   -1    0    0    0    0  0.00000000000E+00  0.00000000000E+00  0.45593999997E+02  0.45594000000E+02  0.51100000000E-03 0.  1.
         11   -1    0    0    0    0 -0.00000000000E+00 -0.00000000000E+00 -0.45593999997E+02  0.45594000000E+02  0.51100000000E-03 0. -1.
         23    2    1    2    0    0  0.17763568394E-14  0.00000000000E+00 -0.35527136788E-14  0.91188000000E+02  0.91188000000E+02 0.  0.
    9900012    2    3    3    0    0 -0.91717723951E+01  0.21272073289E+02  0.28620914924E+02  0.54367091782E+02  0.40000017336E+02 0.  0.
         12    1    3    3    0    0  0.91717723951E+01 -0.21272073289E+02 -0.28620914924E+02  0.36820908218E+02  0.00000000000E+00 0. -1.
         11    1    4    4    0    0  0.54402864020E+01  0.20853275465E+01 -0.28108517720E-01  0.58263279570E+01  0.51100000000E-03 0. -1.
        -11    1    4    4    0    0  0.19860518868E+01  0.19712078467E+02  0.24341042334E+02  0.31384658382E+02  0.51100000000E-03 0.  1.
        -12    1    4    4    0    0 -0.16598110684E+02 -0.52533272441E+00  0.43079811076E+01  0.17156105443E+02  0.00000000000E+00 0.  1.
</event>
<event>
 8    1  0.1254059E-006  0.9118800E+02  0.7816164E-02  0.1184000E+00
        -11   -1    0    0    0    0  0.00000000000E+00  0.00000000000E+00  0.45593999997E+02  0.45594000000E+02  0.51100000000E-03 0. -1.
         11   -1    0    0    0    0 -0.00000000000E+00 -0.00000000000E+00 -0.45593999997E+02  0.45594000000E+02  0.51100000000E-03 0.  1.
         23    2    1    2    0    0  0.17763568394E-14  0.00000000000E+00  0.35527136788E-14  0.91188000000E+02  0.91188000000E+02 0.  0.
    9900012    2    3    3    0    0  0.13833621174E+02 -0.17583054413E+02 -0.29244602299E+02  0.54367086909E+02  0.40000006226E+02 0.  0.
         12    1    3    3    0    0 -0.13833621174E+02  0.17583054413E+02  0.29244602299E+02  0.36820913091E+02  0.00000000000E+00 0. -1.
         11    1    4    4    0    0  0.10669656750E+02 -0.20390174870E+02 -0.12555754002E+02  0.26215410835E+02  0.51100000000E-03 0. -1.
        -11    1    4    4    0    0  0.54119892935E+01 -0.62868805554E+01 -0.16851378620E+02  0.18782530630E+02  0.51100000000E-03 0.  1.
         12    1    4    4    0    0 -0.22480248701E+01  0.90940010131E+01  0.16253032310E+00  0.93691454439E+01  0.00000000000E+00 0. -1.
</event>
<event>
 8    1  0.1254059E-006  0.9118800E+02  0.7816164E-02  0.1184000E+00
        -11   -1    0    0    0    0  0.00000000000E+00  0.00000000000E+00  0.45593999997E+02  0.45594000000E+02  0.51100000000E-03 0.  1.
         11   -1    0    0    0    0 -0.00000000000E+00 -0.00000000000E+00 -0.45593999997E+02  0.45594000000E+02  0.51100000000E-03 0. -1.
         23    2    1    2    0    0 -0.17763568394E-14  0.00000000000E+00  0.00000000000E+00  0.91188000000E+02  0.91188000000E+02 0.  0.
    9900012    2    3    3    0    0  0.14238983013E+02 -0.33769621609E+02  0.35557485330E+01  0.54367091151E+02  0.40000015897E+02 0.  0.
         12    1    3    3    0    0 -0.14238983013E+02  0.33769621609E+02 -0.35557485330E+01  0.36820908849E+02  0.00000000000E+00 0. -1.
         11    1    4    4    0    0 -0.12040427254E+02 -0.11081328633E+02 -0.36809868742E+01  0.16772519112E+02  0.51100000000E-03 0. -1.
        -11    1    4    4    0    0  0.13867560826E+02 -0.50359583689E+01  0.61618100493E+01  0.15988684227E+02  0.51100000000E-03 0.  1.
        -12    1    4    4    0    0  0.12411849441E+02 -0.17652334607E+02  0.10749253579E+01  0.21605887812E+02  0.00000000000E+00 0.  1.
</event>
<event>
 8    1  0.1254059E-006  0.9118800E+02  0.7816164E-02  0.1184000E+00
        -11   -1    0    0    0    0  0.00000000000E+00  0.00000000000E+00  0.45593999997E+02  0.45594000000E+02  0.51100000000E-03 0.  1.
         11   -1    0    0    0    0 -0.00000000000E+00 -0.00000000000E+00 -0.45593999997E+02  0.45594000000E+02  0.51100000000E-03 0. -1.
         23    2    1    2    0    0  0.00000000000E+00  0.00000000000E+00  0.00000000000E+00  0.91188000000E+02  0.91188000000E+02 0.  0.
    9900012    2    3    3    0    0  0.36696679908E+01 -0.35858814914E+02 -0.75141247038E+01  0.54367039390E+02  0.39999897898E+02 0.  0.
         12    1    3    3    0    0 -0.36696679908E+01  0.35858814914E+02  0.75141247038E+01  0.36820960610E+02  0.00000000000E+00 0. -1.
         11    1    4    4    0    0  0.11602445323E+02 -0.45713316693E+01 -0.13731243326E+02  0.18548877439E+02  0.51100000000E-03 0. -1.
        -11    1    4    4    0    0 -0.40698918191E+01 -0.24319508207E+02  0.10468287292E+02  0.26787824434E+02  0.51100000000E-03 0.  1.
        -12    1    4    4    0    0 -0.38628855132E+01 -0.69679750377E+01 -0.42511686691E+01  0.90303375168E+01  0.00000000000E+00 0.  1.
</event>
<event>
 8    1  0.1254059E-006  0.9118800E+02  0.7816164E-02  0.1184000E+00
        -11   -1    0    0    0    0  0.00000000000E+00  0.00000000000E+00  0.45593999997E+02  0.45594000000E+02  0.51100000000E-03 0.  1.
         11   -1    0    0    0    0 -0.00000000000E+00 -0.00000000000E+00 -0.45593999997E+02  0.45594000000E+02  0.51100000000E-03 0. -1.
         23    2    1    2    0    0 -0.35527136788E-14  0.00000000000E+00  0.00000000000E+00  0.91188000000E+02  0.91188000000E+02 0.  0.
    9900012    2    3    3    0    0  0.27558522769E+02 -0.24345459833E+02  0.18988843575E+01  0.54367090811E+02  0.40000015122E+02 0.  0.
         12    1    3    3    0    0 -0.27558522769E+02  0.24345459833E+02 -0.18988843575E+01  0.36820909189E+02  0.00000000000E+00 0. -1.
         11    1    4    4    0    0  0.11127265094E+02  0.97833910104E+01  0.84446287331E-01  0.14816811383E+02  0.51100000000E-03 0. -1.
        -11    1    4    4    0    0  0.30701305791E+01 -0.18687926660E+02  0.25996866266E+01  0.19116031895E+02  0.51100000000E-03 0.  1.
         12    1    4    4    0    0  0.13361127096E+02 -0.15440924183E+02 -0.78524855637E+00  0.20434247532E+02  0.00000000000E+00 0. -1.
</event>
<event>
 8    1  0.1254059E-006  0.9118800E+02  0.7816164E-02  0.1184000E+00
        -11   -1    0    0    0    0  0.00000000000E+00  0.00000000000E+00  0.45593999997E+02  0.45594000000E+02  0.51100000000E-03 0. -1.
         11   -1    0    0    0    0 -0.00000000000E+00 -0.00000000000E+00 -0.45593999997E+02  0.45594000000E+02  0.51100000000E-03 0.  1.
         23    2    1    2    0    0  0.71054273576E-14 -0.35527136788E-14  0.00000000000E+00  0.91188000000E+02  0.91188000000E+02 0.  0.
    9900012    2    3    3    0    0  0.31179101901E+02 -0.17787010682E+02  0.82015337815E+01  0.54367091528E+02  0.40000016756E+02 0.  0.
        -12    1    3    3    0    0 -0.31179101901E+02  0.17787010682E+02 -0.82015337815E+01  0.36820908472E+02  0.00000000000E+00 0.  1.
         11    1    4    4    0    0  0.40062674774E+01 -0.26540848443E+01  0.49209068604E+01  0.68782025306E+01  0.51100000000E-03 0. -1.
        -11    1    4    4    0    0 -0.50208131745E+01  0.67613320394E+01  0.48135759204E-01  0.84217868171E+01  0.51100000000E-03 0.  1.
         12    1    4    4    0    0  0.32193647598E+02 -0.21894257877E+02  0.32324911619E+01  0.39067102180E+02  0.00000000000E+00 0. -1.
</event>
<event>
 8    1  0.1254059E-006  0.9118800E+02  0.7816164E-02  0.1184000E+00
        -11   -1    0    0    0    0  0.00000000000E+00  0.00000000000E+00  0.45593999997E+02  0.45594000000E+02  0.51100000000E-03 0.  1.
         11   -1    0    0    0    0 -0.00000000000E+00 -0.00000000000E+00 -0.45593999997E+02  0.45594000000E+02  0.51100000000E-03 0. -1.
         23    2    1    2    0    0  0.00000000000E+00  0.35527136788E-14  0.00000000000E+00  0.91188000000E+02  0.91188000000E+02 0.  0.
    9900012    2    3    3    0    0 -0.22497027464E+02  0.17572752419E+02 -0.23256366067E+02  0.54367130443E+02  0.40000105471E+02 0.  0.
        -12    1    3    3    0    0  0.22497027464E+02 -0.17572752419E+02  0.23256366067E+02  0.36820869557E+02  0.00000000000E+00 0.  1.
         11    1    4    4    0    0  0.44434266802E+00  0.93050250315E+01 -0.73205473292E+01  0.11847841352E+02  0.51100000000E-03 0. -1.
        -11    1    4    4    0    0 -0.18315114636E+02 -0.97975207137E+01 -0.82592516183E+01  0.22352853818E+02  0.51100000000E-03 0.  1.
        -12    1    4    4    0    0 -0.46262554960E+01  0.18065248101E+02 -0.76765671193E+01  0.20166435273E+02  0.00000000000E+00 0.  1.
</event>
<event>
 8    1  0.1254059E-006  0.9118800E+02  0.7816164E-02  0.1184000E+00
        -11   -1    0    0    0    0  0.00000000000E+00  0.00000000000E+00  0.45593999997E+02  0.45594000000E+02  0.51100000000E-03 0.  1.
         11   -1    0    0    0    0 -0.00000000000E+00 -0.00000000000E+00 -0.45593999997E+02  0.45594000000E+02  0.51100000000E-03 0. -1.
         23    2    1    2    0    0  0.71054273576E-14  0.00000000000E+00  0.88817841970E-15  0.91188000000E+02  0.91188000000E+02 0.  0.
    9900012    2    3    3    0    0 -0.35882632928E+02 -0.75893512336E+01 -0.32586624403E+01  0.54367075529E+02  0.39999980283E+02 0.  0.
        -12    1    3    3    0    0  0.35882632928E+02  0.75893512336E+01  0.32586624403E+01  0.36820924471E+02  0.00000000000E+00 0.  1.
         11    1    4    4    0    0  0.53289457486E+00 -0.10014510856E+02 -0.50461925547E+01  0.11226685346E+02  0.51100000000E-03 0. -1.
        -11    1    4    4    0    0 -0.29866269420E+02 -0.75669849539E+01  0.37349258657E+01  0.31035511625E+02  0.51100000000E-03 0.  1.
        -12    1    4    4    0    0 -0.65492580829E+01  0.99921445762E+01 -0.19473957513E+01  0.12104878557E+02  0.00000000000E+00 0.  1.
</event>
<event>
 8    1  0.1254059E-006  0.9118800E+02  0.7816164E-02  0.1184000E+00
        -11   -1    0    0    0    0  0.00000000000E+00  0.00000000000E+00  0.45593999997E+02  0.45594000000E+02  0.51100000000E-03 0.  1.
         11   -1    0    0    0    0 -0.00000000000E+00 -0.00000000000E+00 -0.45593999997E+02  0.45594000000E+02  0.51100000000E-03 0. -1.
         23    2    1    2    0    0 -0.17763568394E-14  0.35527136788E-14  0.00000000000E+00  0.91188000000E+02  0.91188000000E+02 0.  0.
    9900012    2    3    3    0    0 -0.14981000889E+02  0.26581868634E+02 -0.20609577722E+02  0.54367070875E+02  0.39999969674E+02 0.  0.
        -12    1    3    3    0    0  0.14981000889E+02 -0.26581868634E+02  0.20609577722E+02  0.36820929125E+02  0.00000000000E+00 0.  1.
         11    1    4    4    0    0 -0.82137211738E+01  0.15625790369E+02 -0.21190292508E+02  0.27580047807E+02  0.51100000000E-03 0. -1.
        -11    1    4    4    0    0  0.50424267015E+01  0.88715896312E+01  0.77512110511E+01  0.12814540282E+02  0.51100000000E-03 0.  1.
         12    1    4    4    0    0 -0.11809706417E+02  0.20844886335E+01 -0.71704962654E+01  0.13972482786E+02  0.00000000000E+00 0. -1.
</event>
<event>
 8    1  0.1254059E-006  0.9118800E+02  0.7816164E-02  0.1184000E+00
        -11   -1    0    0    0    0  0.00000000000E+00  0.00000000000E+00  0.45593999997E+02  0.45594000000E+02  0.51100000000E-03 0. -1.
         11   -1    0    0    0    0 -0.00000000000E+00 -0.00000000000E+00 -0.45593999997E+02  0.45594000000E+02  0.51100000000E-03 0.  1.
         23    2    1    2    0    0  0.17763568394E-14  0.00000000000E+00  0.17763568394E-14  0.91188000000E+02  0.91188000000E+02 0.  0.
    9900012    2    3    3    0    0  0.99918459270E+01 -0.31793705914E+02  0.15655790830E+02  0.54367075143E+02  0.39999979405E+02 0.  0.
         12    1    3    3    0    0 -0.99918459270E+01  0.31793705914E+02 -0.15655790830E+02  0.36820924857E+02  0.00000000000E+00 0. -1.
         11    1    4    4    0    0  0.96952534133E+01 -0.17768427029E+02  0.16993312640E+02  0.26428916220E+02  0.51100000000E-03 0. -1.
        -11    1    4    4    0    0  0.17156716274E+01 -0.75961187949E+01 -0.12646715371E+02  0.14852069210E+02  0.51100000000E-03 0.  1.
         12    1    4    4    0    0 -0.14190791138E+01 -0.64291600895E+01  0.11309193561E+02  0.13086089714E+02  0.00000000000E+00 0. -1.
</event>
<event>
 8    1  0.1254059E-006  0.9118800E+02  0.7816164E-02  0.1184000E+00
        -11   -1    0    0    0    0  0.00000000000E+00  0.00000000000E+00  0.45593999997E+02  0.45594000000E+02  0.51100000000E-03 0.  1.
         11   -1    0    0    0    0 -0.00000000000E+00 -0.00000000000E+00 -0.45593999997E+02  0.45594000000E+02  0.51100000000E-03 0. -1.
         23    2    1    2    0    0  0.35527136788E-14 -0.17763568394E-14 -0.35527136788E-14  0.91188000000E+02  0.91188000000E+02 0.  0.
    9900012    2    3    3    0    0 -0.29642045103E+02  0.84504107215E+01 -0.20142488116E+02  0.54367080583E+02  0.39999991804E+02 0.  0.
        -12    1    3    3    0    0  0.29642045103E+02 -0.84504107215E+01  0.20142488116E+02  0.36820919417E+02  0.00000000000E+00 0.  1.
         11    1    4    4    0    0 -0.86180655774E+01 -0.13791377937E+01 -0.55824976370E+01  0.10360374292E+02  0.51100000000E-03 0. -1.
        -11    1    4    4    0    0  0.27688320045E+01  0.36317788009E+01 -0.18545024528E+02  0.19099062357E+02  0.51100000000E-03 0.  1.
        -12    1    4    4    0    0 -0.23792811530E+02  0.61977697143E+01  0.39850340490E+01  0.24907643933E+02  0.00000000000E+00 0.  1.
</event>
<event>
 8    1  0.1254059E-006  0.9118800E+02  0.7816164E-02  0.1184000E+00
        -11   -1    0    0    0    0  0.00000000000E+00  0.00000000000E+00  0.45593999997E+02  0.45594000000E+02  0.51100000000E-03 0. -1.
         11   -1    0    0    0    0 -0.00000000000E+00 -0.00000000000E+00 -0.45593999997E+02  0.45594000000E+02  0.51100000000E-03 0.  1.
         23    2    1    2    0    0 -0.35527136788E-14  0.35527136788E-14 -0.35527136788E-14  0.91188000000E+02  0.91188000000E+02 0.  0.
    9900012    2    3    3    0    0  0.25319933332E+02 -0.17287603103E+02  0.20391660731E+02  0.54367081049E+02  0.39999992869E+02 0.  0.
        -12    1    3    3    0    0 -0.25319933332E+02  0.17287603103E+02 -0.20391660731E+02  0.36820918951E+02  0.00000000000E+00 0.  1.
         11    1    4    4    0    0  0.65278722173E+01 -0.11088900714E+02 -0.33364412031E+01  0.13293181519E+02  0.51100000000E-03 0. -1.
        -11    1    4    4    0    0  0.24538270808E+02 -0.10147862920E+02  0.18703880473E+02  0.32479855313E+02  0.51100000000E-03 0.  1.
        -12    1    4    4    0    0 -0.57462096930E+01  0.39491605315E+01  0.50242214606E+01  0.85940442182E+01  0.00000000000E+00 0.  1.
</event>
<event>
 8    1  0.1254059E-006  0.9118800E+02  0.7816164E-02  0.1184000E+00
        -11   -1    0    0    0    0  0.00000000000E+00  0.00000000000E+00  0.45593999997E+02  0.45594000000E+02  0.51100000000E-03 0.  1.
         11   -1    0    0    0    0 -0.00000000000E+00 -0.00000000000E+00 -0.45593999997E+02  0.45594000000E+02  0.51100000000E-03 0. -1.
         23    2    1    2    0    0  0.00000000000E+00  0.00000000000E+00  0.00000000000E+00  0.91188000000E+02  0.91188000000E+02 0.  0.
    9900012    2    3    3    0    0  0.14351032013E+02  0.35538262086E+01 -0.33722367297E+02  0.54367083978E+02  0.39999999545E+02 0.  0.
        -12    1    3    3    0    0 -0.14351032013E+02 -0.35538262086E+01  0.33722367297E+02  0.36820916022E+02  0.00000000000E+00 0.  1.
         11    1    4    4    0    0  0.69827674100E+01  0.15646014302E+01 -0.74626573007E+01  0.10339162083E+02  0.51100000000E-03 0. -1.
        -11    1    4    4    0    0  0.13285966705E+02 -0.11184750540E+02 -0.23666267150E+02  0.29354859172E+02  0.51100000000E-03 0.  1.
        -12    1    4    4    0    0 -0.59177021028E+01  0.13173975318E+02 -0.25934428460E+01  0.14673062722E+02  0.00000000000E+00 0.  1.
</event>
<event>
 8    1  0.1254059E-006  0.9118800E+02  0.7816164E-02  0.1184000E+00
        -11   -1    0    0    0    0  0.00000000000E+00  0.00000000000E+00  0.45593999997E+02  0.45594000000E+02  0.51100000000E-03 0. -1.
         11   -1    0    0    0    0 -0.00000000000E+00 -0.00000000000E+00 -0.45593999997E+02  0.45594000000E+02  0.51100000000E-03 0.  1.
         23    2    1    2    0    0  0.17763568394E-14  0.00000000000E+00  0.71054273576E-14  0.91188000000E+02  0.91188000000E+02 0.  0.
    9900012    2    3    3    0    0  0.15967651899E+02  0.14463719111E+01  0.33146956866E+02  0.54367100387E+02  0.40000036952E+02 0.  0.
        -12    1    3    3    0    0 -0.15967651899E+02 -0.14463719111E+01 -0.33146956866E+02  0.36820899613E+02  0.00000000000E+00 0.  1.
         11    1    4    4    0    0 -0.46976308715E+01 -0.81620641200E+01  0.15982692141E+02  0.18550834883E+02  0.51100000000E-03 0. -1.
        -11    1    4    4    0    0  0.11519037235E+02 -0.62586769389E+01  0.76408990185E+01  0.15173746865E+02  0.51100000000E-03 0.  1.
         12    1    4    4    0    0  0.91462455349E+01  0.15867112970E+02  0.95233657060E+01  0.20642518639E+02  0.00000000000E+00 0. -1.
</event>
<event>
 8    1  0.1254059E-006  0.9118800E+02  0.7816164E-02  0.1184000E+00
        -11   -1    0    0    0    0  0.00000000000E+00  0.00000000000E+00  0.45593999997E+02  0.45594000000E+02  0.51100000000E-03 0. -1.
         11   -1    0    0    0    0 -0.00000000000E+00 -0.00000000000E+00 -0.45593999997E+02  0.45594000000E+02  0.51100000000E-03 0.  1.
         23    2    1    2    0    0  0.00000000000E+00  0.17763568394E-14  0.35527136788E-14  0.91188000000E+02  0.91188000000E+02 0.  0.
    9900012    2    3    3    0    0  0.25448228194E+02 -0.13719847235E+02 -0.22802039152E+02  0.54367088606E+02  0.40000010096E+02 0.  0.
         12    1    3    3    0    0 -0.25448228194E+02  0.13719847235E+02  0.22802039152E+02  0.36820911394E+02  0.00000000000E+00 0. -1.
         11    1    4    4    0    0  0.17632210317E+02 -0.79459724964E+01 -0.39513789935E+01  0.19739471011E+02  0.51100000000E-03 0. -1.
        -11    1    4    4    0    0  0.14232183572E+02  0.38083460681E+01 -0.30154493620E+01  0.15038333821E+02  0.51100000000E-03 0.  1.
         12    1    4    4    0    0 -0.64161656953E+01 -0.95822208071E+01 -0.15835210797E+02  0.19589283775E+02  0.00000000000E+00 0. -1.
</event>
<event>
 8    1  0.1254059E-006  0.9118800E+02  0.7816164E-02  0.1184000E+00
        -11   -1    0    0    0    0  0.00000000000E+00  0.00000000000E+00  0.45593999997E+02  0.45594000000E+02  0.51100000000E-03 0.  1.
         11   -1    0    0    0    0 -0.00000000000E+00 -0.00000000000E+00 -0.45593999997E+02  0.45594000000E+02  0.51100000000E-03 0. -1.
         23    2    1    2    0    0 -0.71054273576E-14  0.44408920985E-15  0.00000000000E+00  0.91188000000E+02  0.91188000000E+02 0.  0.
    9900012    2    3    3    0    0 -0.34519074963E+02  0.24949636901E+01 -0.12569354433E+02  0.54367081340E+02  0.39999993531E+02 0.  0.
        -12    1    3    3    0    0  0.34519074963E+02 -0.24949636901E+01  0.12569354433E+02  0.36820918660E+02  0.00000000000E+00 0.  1.
         11    1    4    4    0    0 -0.35141648668E+02  0.57288920593E+01  0.99958011415E+00  0.35619585006E+02  0.51100000000E-03 0. -1.
        -11    1    4    4    0    0  0.42100462701E+01 -0.33476043198E+01 -0.14125878470E+02  0.15115269997E+02  0.51100000000E-03 0.  1.
        -12    1    4    4    0    0 -0.35874725652E+01  0.11367595059E+00  0.55694392300E+00  0.36322263368E+01  0.00000000000E+00 0.  1.
</event>
<event>
 8    1  0.1254059E-006  0.9118800E+02  0.7816164E-02  0.1184000E+00
        -11   -1    0    0    0    0  0.00000000000E+00  0.00000000000E+00  0.45593999997E+02  0.45594000000E+02  0.51100000000E-03 0. -1.
         11   -1    0    0    0    0 -0.00000000000E+00 -0.00000000000E+00 -0.45593999997E+02  0.45594000000E+02  0.51100000000E-03 0.  1.
         23    2    1    2    0    0 -0.17763568394E-14 -0.88817841970E-15  0.71054273576E-14  0.91188000000E+02  0.91188000000E+02 0.  0.
    9900012    2    3    3    0    0 -0.12744777785E+02 -0.48760328977E+01  0.34199023664E+02  0.54367105427E+02  0.40000048442E+02 0.  0.
        -12    1    3    3    0    0  0.12744777785E+02  0.48760328977E+01 -0.34199023664E+02  0.36820894573E+02  0.00000000000E+00 0.  1.
         11    1    4    4    0    0  0.50966144858E+01 -0.10725454874E+02  0.61323269825E+01  0.13364740774E+02  0.51100000000E-03 0. -1.
        -11    1    4    4    0    0 -0.84402504135E+01 -0.89787207818E+01  0.11040528864E+02  0.16545347738E+02  0.51100000000E-03 0.  1.
         12    1    4    4    0    0 -0.94011418571E+01  0.14828142758E+02  0.17026167817E+02  0.24457016915E+02  0.00000000000E+00 0. -1.
</event>
<event>
 8    1  0.1254059E-006  0.9118800E+02  0.7816164E-02  0.1184000E+00
        -11   -1    0    0    0    0  0.00000000000E+00  0.00000000000E+00  0.45593999997E+02  0.45594000000E+02  0.51100000000E-03 0.  1.
         11   -1    0    0    0    0 -0.00000000000E+00 -0.00000000000E+00 -0.45593999997E+02  0.45594000000E+02  0.51100000000E-03 0. -1.
         23    2    1    2    0    0 -0.17763568394E-14  0.35527136788E-14 -0.35527136788E-14  0.91188000000E+02  0.91188000000E+02 0.  0.
    9900012    2    3    3    0    0 -0.14617768001E+02  0.29295418501E+02 -0.16848706947E+02  0.54367087297E+02  0.40000007112E+02 0.  0.
        -12    1    3    3    0    0  0.14617768001E+02 -0.29295418501E+02  0.16848706947E+02  0.36820912703E+02  0.00000000000E+00 0.  1.
         11    1    4    4    0    0 -0.16866586620E+02  0.83060395399E+01 -0.82304459126E+01  0.20523456757E+02  0.51100000000E-03 0. -1.
        -11    1    4    4    0    0 -0.48695539994E+01 -0.41427104228E+01 -0.18766495424E+00  0.63960788141E+01  0.51100000000E-03 0.  1.
        -12    1    4    4    0    0  0.71183726184E+01  0.25132089384E+02 -0.84305960800E+01  0.27447551727E+02  0.00000000000E+00 0.  1.
</event>
<event>
 8    1  0.1254059E-006  0.9118800E+02  0.7816164E-02  0.1184000E+00
        -11   -1    0    0    0    0  0.00000000000E+00  0.00000000000E+00  0.45593999997E+02  0.45594000000E+02  0.51100000000E-03 0.  1.
         11   -1    0    0    0    0 -0.00000000000E+00 -0.00000000000E+00 -0.45593999997E+02  0.45594000000E+02  0.51100000000E-03 0. -1.
         23    2    1    2    0    0  0.00000000000E+00  0.00000000000E+00 -0.15543122345E-14  0.91188000000E+02  0.91188000000E+02 0.  0.
    9900012    2    3    3    0    0 -0.22732843234E+02 -0.28949961368E+02 -0.94736013791E+00  0.54367083173E+02  0.39999997710E+02 0.  0.
         12    1    3    3    0    0  0.22732843234E+02  0.28949961368E+02  0.94736013791E+00  0.36820916827E+02  0.00000000000E+00 0. -1.
         11    1    4    4    0    0 -0.15673280444E+02 -0.18460522957E+02  0.44532126781E+01  0.24622626406E+02  0.51100000000E-03 0. -1.
        -11    1    4    4    0    0 -0.15445237135E+02 -0.57209328070E+01  0.32487219953E+01  0.16788049833E+02  0.51100000000E-03 0.  1.
         12    1    4    4    0    0  0.83856743443E+01 -0.47685056042E+01 -0.86492948113E+01  0.12956406934E+02  0.00000000000E+00 0. -1.
</event>
<event>
 8    1  0.1254059E-006  0.9118800E+02  0.7816164E-02  0.1184000E+00
        -11   -1    0    0    0    0  0.00000000000E+00  0.00000000000E+00  0.45593999997E+02  0.45594000000E+02  0.51100000000E-03 0.  1.
         11   -1    0    0    0    0 -0.00000000000E+00 -0.00000000000E+00 -0.45593999997E+02  0.45594000000E+02  0.51100000000E-03 0. -1.
         23    2    1    2    0    0  0.00000000000E+00  0.00000000000E+00  0.44408920985E-14  0.91188000000E+02  0.91188000000E+02 0.  0.
    9900012    2    3    3    0    0 -0.83874442440E+01 -0.35260642984E+02 -0.64903779144E+01  0.54366984668E+02  0.39999773147E+02 0.  0.
         12    1    3    3    0    0  0.83874442440E+01  0.35260642984E+02  0.64903779144E+01  0.36821015332E+02  0.00000000000E+00 0. -1.
         11    1    4    4    0    0  0.47886342735E-01  0.81151847387E+00 -0.55874461854E+00  0.98643354825E+00  0.51100000000E-03 0. -1.
        -11    1    4    4    0    0 -0.83422764609E+00 -0.39463103938E+01  0.14167543076E+02  0.14730532189E+02  0.51100000000E-03 0.  1.
        -12    1    4    4    0    0 -0.76011029406E+01 -0.32125851064E+02 -0.20099176372E+02  0.38650018931E+02  0.00000000000E+00 0.  1.
</event>
<event>
 8    1  0.1254059E-006  0.9118800E+02  0.7816164E-02  0.1184000E+00
        -11   -1    0    0    0    0  0.00000000000E+00  0.00000000000E+00  0.45593999997E+02  0.45594000000E+02  0.51100000000E-03 0. -1.
         11   -1    0    0    0    0 -0.00000000000E+00 -0.00000000000E+00 -0.45593999997E+02  0.45594000000E+02  0.51100000000E-03 0.  1.
         23    2    1    2    0    0  0.00000000000E+00 -0.35527136788E-14  0.00000000000E+00  0.91188000000E+02  0.91188000000E+02 0.  0.
    9900012    2    3    3    0    0 -0.21111842895E+02  0.14396770827E+02  0.26510452043E+02  0.54367068613E+02  0.39999964518E+02 0.  0.
        -12    1    3    3    0    0  0.21111842895E+02 -0.14396770827E+02 -0.26510452043E+02  0.36820931387E+02  0.00000000000E+00 0.  1.
         11    1    4    4    0    0  0.14512973097E+01 -0.98821781572E+01  0.12394458299E+02  0.15918112507E+02  0.51100000000E-03 0. -1.
        -11    1    4    4    0    0 -0.64814223751E+01  0.19359502535E+01  0.75713923239E+01  0.10152966137E+02  0.51100000000E-03 0.  1.
        -12    1    4    4    0    0 -0.16081717829E+02  0.22342998730E+02  0.65446014206E+01  0.28295989970E+02  0.00000000000E+00 0.  1.
</event>
<event>
 8    1  0.1254059E-006  0.9118800E+02  0.7816164E-02  0.1184000E+00
        -11   -1    0    0    0    0  0.00000000000E+00  0.00000000000E+00  0.45593999997E+02  0.45594000000E+02  0.51100000000E-03 0. -1.
         11   -1    0    0    0    0 -0.00000000000E+00 -0.00000000000E+00 -0.45593999997E+02  0.45594000000E+02  0.51100000000E-03 0.  1.
         23    2    1    2    0    0  0.00000000000E+00 -0.22204460493E-15  0.00000000000E+00  0.91188000000E+02  0.91188000000E+02 0.  0.
    9900012    2    3    3    0    0 -0.16192197536E+02  0.14871773729E+01  0.33036075192E+02  0.54367065443E+02  0.39999957290E+02 0.  0.
        -12    1    3    3    0    0  0.16192197536E+02 -0.14871773729E+01 -0.33036075192E+02  0.36820934557E+02  0.00000000000E+00 0.  1.
         11    1    4    4    0    0 -0.23628153832E+02  0.16116192198E+01  0.24678825159E+02  0.34204259699E+02  0.51100000000E-03 0. -1.
        -11    1    4    4    0    0  0.74916177163E+01  0.68200970034E+01  0.12197453392E+01  0.10204206882E+02  0.51100000000E-03 0.  1.
         12    1    4    4    0    0 -0.55661420108E-01 -0.69445388503E+01  0.71375046937E+01  0.99585988618E+01  0.00000000000E+00 0. -1.
</event>
<event>
 8    1  0.1254059E-006  0.9118800E+02  0.7816164E-02  0.1184000E+00
        -11   -1    0    0    0    0  0.00000000000E+00  0.00000000000E+00  0.45593999997E+02  0.45594000000E+02  0.51100000000E-03 0. -1.
         11   -1    0    0    0    0 -0.00000000000E+00 -0.00000000000E+00 -0.45593999997E+02  0.45594000000E+02  0.51100000000E-03 0.  1.
         23    2    1    2    0    0  0.00000000000E+00  0.00000000000E+00  0.00000000000E+00  0.91188000000E+02  0.91188000000E+02 0.  0.
    9900012    2    3    3    0    0  0.34625566832E+02 -0.11631476943E+02 -0.46430888141E+01  0.54367090071E+02  0.40000013434E+02 0.  0.
         12    1    3    3    0    0 -0.34625566832E+02  0.11631476943E+02  0.46430888141E+01  0.36820909929E+02  0.00000000000E+00 0. -1.
         11    1    4    4    0    0  0.12115994970E+02  0.76110451079E+00 -0.68905842808E+01  0.13959110508E+02  0.51100000000E-03 0.  1.
        -11    1    4    4    0    0  0.80077801310E+01 -0.85996675655E+01 -0.14016180215E+02  0.18290219598E+02  0.51100000000E-03 0. -1.
         12    1    4    4    0    0  0.14501791731E+02 -0.37929138880E+01  0.16263675682E+02  0.22117759964E+02  0.00000000000E+00 0. -1.
</event>
<event>
 8    1  0.1254059E-006  0.9118800E+02  0.7816164E-02  0.1184000E+00
        -11   -1    0    0    0    0  0.00000000000E+00  0.00000000000E+00  0.45593999997E+02  0.45594000000E+02  0.51100000000E-03 0.  1.
         11   -1    0    0    0    0 -0.00000000000E+00 -0.00000000000E+00 -0.45593999997E+02  0.45594000000E+02  0.51100000000E-03 0. -1.
         23    2    1    2    0    0  0.00000000000E+00 -0.88817841970E-15 -0.17763568394E-14  0.91188000000E+02  0.91188000000E+02 0.  0.
    9900012    2    3    3    0    0  0.34497723908E+02 -0.22098160362E+01 -0.12680850471E+02  0.54367079175E+02  0.39999988595E+02 0.  0.
        -12    1    3    3    0    0 -0.34497723908E+02  0.22098160362E+01  0.12680850471E+02  0.36820920825E+02  0.00000000000E+00 0.  1.
         11    1    4    4    0    0 -0.63076105070E+00 -0.62252938715E+00 -0.73101305358E+00  0.11488179519E+01  0.51100000000E-03 0. -1.
        -11    1    4    4    0    0  0.30493797439E+02  0.42107357954E+01 -0.24021848004E+02  0.39046781686E+02  0.51100000000E-03 0.  1.
        -12    1    4    4    0    0  0.46346875190E+01 -0.57980224445E+01  0.12072010587E+02  0.14171479537E+02  0.00000000000E+00 0.  1.
</event>
<event>
 8    1  0.1254059E-006  0.9118800E+02  0.7816164E-02  0.1184000E+00
        -11   -1    0    0    0    0  0.00000000000E+00  0.00000000000E+00  0.45593999997E+02  0.45594000000E+02  0.51100000000E-03 0.  1.
         11   -1    0    0    0    0 -0.00000000000E+00 -0.00000000000E+00 -0.45593999997E+02  0.45594000000E+02  0.51100000000E-03 0. -1.
         23    2    1    2    0    0  0.00000000000E+00 -0.35527136788E-14 -0.88817841970E-15  0.91188000000E+02  0.91188000000E+02 0.  0.
    9900012    2    3    3    0    0 -0.29008839068E+02  0.22578823932E+02 -0.21124237570E+01  0.54367104188E+02  0.40000045618E+02 0.  0.
        -12    1    3    3    0    0  0.29008839068E+02 -0.22578823932E+02  0.21124237570E+01  0.36820895812E+02  0.00000000000E+00 0.  1.
         11    1    4    4    0    0 -0.19380949817E+01  0.10206078506E+02  0.98734677732E+01  0.14331978815E+02  0.51100000000E-03 0. -1.
        -11    1    4    4    0    0 -0.52930505324E+01  0.15368249432E+01 -0.14566179668E+02  0.15574074780E+02  0.51100000000E-03 0.  1.
         12    1    4    4    0    0 -0.21777693554E+02  0.10835920483E+02  0.25802881382E+01  0.24461050593E+02  0.00000000000E+00 0. -1.
</event>
<event>
 8    1  0.1254059E-006  0.9118800E+02  0.7816164E-02  0.1184000E+00
        -11   -1    0    0    0    0  0.00000000000E+00  0.00000000000E+00  0.45593999997E+02  0.45594000000E+02  0.51100000000E-03 0. -1.
         11   -1    0    0    0    0 -0.00000000000E+00 -0.00000000000E+00 -0.45593999997E+02  0.45594000000E+02  0.51100000000E-03 0.  1.
         23    2    1    2    0    0  0.35527136788E-14  0.00000000000E+00  0.00000000000E+00  0.91188000000E+02  0.91188000000E+02 0.  0.
    9900012    2    3    3    0    0  0.14931530136E+02  0.66600376622E+01 -0.32992020219E+02  0.54367080783E+02  0.39999992261E+02 0.  0.
         12    1    3    3    0    0 -0.14931530136E+02 -0.66600376622E+01  0.32992020219E+02  0.36820919217E+02  0.00000000000E+00 0. -1.
         11    1    4    4    0    0 -0.87746864089E+01  0.11938375572E+02 -0.16642867108E+02  0.22282391225E+02  0.51100000000E-03 0. -1.
        -11    1    4    4    0    0  0.28413461865E+01 -0.23432130898E+01 -0.90753885902E+01  0.97942112526E+01  0.51100000000E-03 0.  1.
         12    1    4    4    0    0  0.20864870358E+02 -0.29351248204E+01 -0.72737645208E+01  0.22290478305E+02  0.00000000000E+00 0. -1.
</event>
<event>
 8    1  0.1254059E-006  0.9118800E+02  0.7816164E-02  0.1184000E+00
        -11   -1    0    0    0    0  0.00000000000E+00  0.00000000000E+00  0.45593999997E+02  0.45594000000E+02  0.51100000000E-03 0.  1.
         11   -1    0    0    0    0 -0.00000000000E+00 -0.00000000000E+00 -0.45593999997E+02  0.45594000000E+02  0.51100000000E-03 0. -1.
         23    2    1    2    0    0 -0.35527136788E-14  0.11102230246E-14 -0.35527136788E-14  0.91188000000E+02  0.91188000000E+02 0.  0.
    9900012    2    3    3    0    0  0.21297766062E+02  0.12351957964E+01  0.30010973932E+02  0.54367094196E+02  0.40000022839E+02 0.  0.
         12    1    3    3    0    0 -0.21297766062E+02 -0.12351957964E+01 -0.30010973932E+02  0.36820905804E+02  0.00000000000E+00 0. -1.
         11    1    4    4    0    0  0.92900540757E+01  0.66287503038E+01 -0.96569853890E+00  0.11453296872E+02  0.51100000000E-03 0. -1.
        -11    1    4    4    0    0 -0.45808542007E-01 -0.12603878808E+02  0.53539978996E+01  0.13693982372E+02  0.51100000000E-03 0.  1.
        -12    1    4    4    0    0  0.12053520528E+02  0.72103243009E+01  0.25622674571E+02  0.29219814952E+02  0.00000000000E+00 0.  1.
</event>
<event>
 8    1  0.1254059E-006  0.9118800E+02  0.7816164E-02  0.1184000E+00
        -11   -1    0    0    0    0  0.00000000000E+00  0.00000000000E+00  0.45593999997E+02  0.45594000000E+02  0.51100000000E-03 0. -1.
         11   -1    0    0    0    0 -0.00000000000E+00 -0.00000000000E+00 -0.45593999997E+02  0.45594000000E+02  0.51100000000E-03 0.  1.
         23    2    1    2    0    0  0.00000000000E+00  0.00000000000E+00  0.35527136788E-14  0.91188000000E+02  0.91188000000E+02 0.  0.
    9900012    2    3    3    0    0  0.14054841004E+02 -0.27705185487E+02 -0.19765181239E+02  0.54367105824E+02  0.40000049347E+02 0.  0.
         12    1    3    3    0    0 -0.14054841004E+02  0.27705185487E+02  0.19765181239E+02  0.36820894176E+02  0.00000000000E+00 0. -1.
         11    1    4    4    0    0  0.60602746474E+01 -0.18889846049E+02  0.35971985729E+01  0.20161672808E+02  0.51100000000E-03 0. -1.
        -11    1    4    4    0    0 -0.42225449910E+01  0.35499292520E+01 -0.12615412422E+02  0.13768824014E+02  0.51100000000E-03 0.  1.
         12    1    4    4    0    0  0.12217111348E+02 -0.12365268689E+02 -0.10746967390E+02  0.20436609002E+02  0.00000000000E+00 0. -1.
</event>
<event>
 8    1  0.1254059E-006  0.9118800E+02  0.7816164E-02  0.1184000E+00
        -11   -1    0    0    0    0  0.00000000000E+00  0.00000000000E+00  0.45593999997E+02  0.45594000000E+02  0.51100000000E-03 0.  1.
         11   -1    0    0    0    0 -0.00000000000E+00 -0.00000000000E+00 -0.45593999997E+02  0.45594000000E+02  0.51100000000E-03 0. -1.
         23    2    1    2    0    0  0.00000000000E+00  0.88817841970E-15  0.00000000000E+00  0.91188000000E+02  0.91188000000E+02 0.  0.
    9900012    2    3    3    0    0  0.15832904744E+02 -0.75301194333E+01  0.32378951268E+02  0.54367081264E+02  0.39999993358E+02 0.  0.
         12    1    3    3    0    0 -0.15832904744E+02  0.75301194333E+01 -0.32378951268E+02  0.36820918736E+02  0.00000000000E+00 0. -1.
         11    1    4    4    0    0  0.66744260233E+01  0.66744984255E+01 -0.25009122441E+01  0.97648069252E+01  0.51100000000E-03 0. -1.
        -11    1    4    4    0    0  0.19429721841E+01 -0.18401447252E+02  0.18220833336E+02  0.25968965509E+02  0.51100000000E-03 0.  1.
        -12    1    4    4    0    0  0.72155065371E+01  0.41968293931E+01  0.16659030176E+02  0.18633308830E+02  0.00000000000E+00 0.  1.
</event>
<event>
 8    1  0.1254059E-006  0.9118800E+02  0.7816164E-02  0.1184000E+00
        -11   -1    0    0    0    0  0.00000000000E+00  0.00000000000E+00  0.45593999997E+02  0.45594000000E+02  0.51100000000E-03 0. -1.
         11   -1    0    0    0    0 -0.00000000000E+00 -0.00000000000E+00 -0.45593999997E+02  0.45594000000E+02  0.51100000000E-03 0.  1.
         23    2    1    2    0    0  0.00000000000E+00  0.00000000000E+00  0.00000000000E+00  0.91188000000E+02  0.91188000000E+02 0.  0.
    9900012    2    3    3    0    0  0.14563173352E+02 -0.22286287687E+02 -0.25436477004E+02  0.54367095620E+02  0.40000026085E+02 0.  0.
         12    1    3    3    0    0 -0.14563173352E+02  0.22286287687E+02  0.25436477004E+02  0.36820904380E+02  0.00000000000E+00 0. -1.
         11    1    4    4    0    0 -0.54405151266E+01 -0.74789155489E+01 -0.32856494502E+01  0.98147274645E+01  0.51100000000E-03 0.  1.
        -11    1    4    4    0    0  0.11359157334E+02 -0.12225786532E+02  0.37678749112E+01  0.17108395403E+02  0.51100000000E-03 0. -1.
        -12    1    4    4    0    0  0.86445311448E+01 -0.25815856060E+01 -0.25918702465E+02  0.27443972752E+02  0.00000000000E+00 0.  1.
</event>
<event>
 8    1  0.1254059E-006  0.9118800E+02  0.7816164E-02  0.1184000E+00
        -11   -1    0    0    0    0  0.00000000000E+00  0.00000000000E+00  0.45593999997E+02  0.45594000000E+02  0.51100000000E-03 0. -1.
         11   -1    0    0    0    0 -0.00000000000E+00 -0.00000000000E+00 -0.45593999997E+02  0.45594000000E+02  0.51100000000E-03 0.  1.
         23    2    1    2    0    0  0.00000000000E+00  0.00000000000E+00  0.00000000000E+00  0.91188000000E+02  0.91188000000E+02 0.  0.
    9900012    2    3    3    0    0 -0.19417237657E+02  0.25485806635E+02 -0.18144476404E+02  0.54367116224E+02  0.40000073056E+02 0.  0.
         12    1    3    3    0    0  0.19417237657E+02 -0.25485806635E+02  0.18144476404E+02  0.36820883776E+02  0.00000000000E+00 0. -1.
         11    1    4    4    0    0 -0.14680472615E+02  0.26710875502E+02 -0.30683024946E+01  0.30633341750E+02  0.51100000000E-03 0. -1.
        -11    1    4    4    0    0  0.91966434110E-01  0.69612272944E+01 -0.14351782831E+01  0.71082262369E+01  0.51100000000E-03 0.  1.
        -12    1    4    4    0    0 -0.48287314767E+01 -0.81862961617E+01 -0.13640995626E+02  0.16625548237E+02  0.00000000000E+00 0.  1.
</event>
<event>
 8    1  0.1254059E-006  0.9118800E+02  0.7816164E-02  0.1184000E+00
        -11   -1    0    0    0    0  0.00000000000E+00  0.00000000000E+00  0.45593999997E+02  0.45594000000E+02  0.51100000000E-03 0.  1.
         11   -1    0    0    0    0 -0.00000000000E+00 -0.00000000000E+00 -0.45593999997E+02  0.45594000000E+02  0.51100000000E-03 0. -1.
         23    2    1    2    0    0 -0.17763568394E-14  0.00000000000E+00  0.35527136788E-14  0.91188000000E+02  0.91188000000E+02 0.  0.
    9900012    2    3    3    0    0 -0.10771197330E+02 -0.20391034244E+02 -0.28704813572E+02  0.54367091651E+02  0.40000017037E+02 0.  0.
        -12    1    3    3    0    0  0.10771197330E+02  0.20391034244E+02  0.28704813572E+02  0.36820908349E+02  0.00000000000E+00 0.  1.
         11    1    4    4    0    0 -0.86612774531E+01 -0.16602796517E+02 -0.17867027173E+02  0.25882450417E+02  0.51100000000E-03 0. -1.
        -11    1    4    4    0    0  0.37937905656E+00  0.95020095008E+01  0.21351467868E+01  0.97463308524E+01  0.51100000000E-03 0.  1.
        -12    1    4    4    0    0 -0.24892989336E+01 -0.13290247227E+02 -0.12972933186E+02  0.18738310382E+02  0.00000000000E+00 0.  1.
</event>
<event>
 8    1  0.1254059E-006  0.9118800E+02  0.7816164E-02  0.1184000E+00
        -11   -1    0    0    0    0  0.00000000000E+00  0.00000000000E+00  0.45593999997E+02  0.45594000000E+02  0.51100000000E-03 0.  1.
         11   -1    0    0    0    0 -0.00000000000E+00 -0.00000000000E+00 -0.45593999997E+02  0.45594000000E+02  0.51100000000E-03 0. -1.
         23    2    1    2    0    0  0.00000000000E+00  0.00000000000E+00  0.00000000000E+00  0.91188000000E+02  0.91188000000E+02 0.  0.
    9900012    2    3    3    0    0  0.10057356076E+02 -0.23788057126E+02  0.26244207463E+02  0.54367075264E+02  0.39999979679E+02 0.  0.
         12    1    3    3    0    0 -0.10057356076E+02  0.23788057126E+02 -0.26244207463E+02  0.36820924736E+02  0.00000000000E+00 0. -1.
         11    1    4    4    0    0  0.35910836498E+01 -0.13608656932E+02  0.47452494486E+01  0.14852906041E+02  0.51100000000E-03 0. -1.
        -11    1    4    4    0    0  0.10648180228E+02 -0.12184086813E+02  0.27513634160E+02  0.31919207048E+02  0.51100000000E-03 0.  1.
        -12    1    4    4    0    0 -0.41819078018E+01  0.20046866188E+01 -0.60146761453E+01  0.75949621747E+01  0.00000000000E+00 0.  1.
</event>
<event>
 8    1  0.1254059E-006  0.9118800E+02  0.7816164E-02  0.1184000E+00
        -11   -1    0    0    0    0  0.00000000000E+00  0.00000000000E+00  0.45593999997E+02  0.45594000000E+02  0.51100000000E-03 0.  1.
         11   -1    0    0    0    0 -0.00000000000E+00 -0.00000000000E+00 -0.45593999997E+02  0.45594000000E+02  0.51100000000E-03 0. -1.
         23    2    1    2    0    0 -0.17763568394E-14  0.00000000000E+00  0.00000000000E+00  0.91188000000E+02  0.91188000000E+02 0.  0.
    9900012    2    3    3    0    0  0.12534421580E+02 -0.29032108019E+02  0.18862671427E+02  0.54367144582E+02  0.40000137703E+02 0.  0.
         12    1    3    3    0    0 -0.12534421580E+02  0.29032108019E+02 -0.18862671427E+02  0.36820855418E+02  0.00000000000E+00 0. -1.
         11    1    4    4    0    0  0.86163693180E+00 -0.58609741311E+01 -0.42429895766E+01  0.72867274394E+01  0.51100000000E-03 0. -1.
        -11    1    4    4    0    0  0.15528407176E+02 -0.29259181246E+02  0.15397188824E+02  0.36528133548E+02  0.51100000000E-03 0.  1.
         12    1    4    4    0    0 -0.38556225279E+01  0.60880473578E+01  0.77084721796E+01  0.10552283594E+02  0.00000000000E+00 0. -1.
</event>
<event>
 8    1  0.1254059E-006  0.9118800E+02  0.7816164E-02  0.1184000E+00
        -11   -1    0    0    0    0  0.00000000000E+00  0.00000000000E+00  0.45593999997E+02  0.45594000000E+02  0.51100000000E-03 0. -1.
         11   -1    0    0    0    0 -0.00000000000E+00 -0.00000000000E+00 -0.45593999997E+02  0.45594000000E+02  0.51100000000E-03 0.  1.
         23    2    1    2    0    0  0.00000000000E+00  0.35527136788E-14  0.00000000000E+00  0.91188000000E+02  0.91188000000E+02 0.  0.
    9900012    2    3    3    0    0 -0.23375334815E+02  0.19552961085E+02 -0.20665550897E+02  0.54366952231E+02  0.39999699201E+02 0.  0.
         12    1    3    3    0    0  0.23375334815E+02 -0.19552961085E+02  0.20665550897E+02  0.36821047769E+02  0.00000000000E+00 0. -1.
         11    1    4    4    0    0  0.26428340795E+01  0.87922953821E+00  0.27849382025E+00  0.27991383713E+01  0.51100000000E-03 0. -1.
        -11    1    4    4    0    0 -0.12129826240E+02 -0.96617842851E+01 -0.56923275780E+01  0.16519241922E+02  0.51100000000E-03 0.  1.
        -12    1    4    4    0    0 -0.13888342655E+02  0.28335515832E+02 -0.15251717139E+02  0.35048571938E+02  0.00000000000E+00 0.  1.
</event>
<event>
 8    1  0.1254059E-006  0.9118800E+02  0.7816164E-02  0.1184000E+00
        -11   -1    0    0    0    0  0.00000000000E+00  0.00000000000E+00  0.45593999997E+02  0.45594000000E+02  0.51100000000E-03 0.  1.
         11   -1    0    0    0    0 -0.00000000000E+00 -0.00000000000E+00 -0.45593999997E+02  0.45594000000E+02  0.51100000000E-03 0. -1.
         23    2    1    2    0    0  0.00000000000E+00  0.00000000000E+00  0.35527136788E-14  0.91188000000E+02  0.91188000000E+02 0.  0.
    9900012    2    3    3    0    0 -0.17811945327E+02  0.56928747045E+01 -0.31719172364E+02  0.54367080481E+02  0.39999991573E+02 0.  0.
        -12    1    3    3    0    0  0.17811945327E+02 -0.56928747045E+01  0.31719172364E+02  0.36820919519E+02  0.00000000000E+00 0.  1.
         11    1    4    4    0    0 -0.46391542071E+01  0.13783763487E+02 -0.90157067604E+01  0.17111307848E+02  0.51100000000E-03 0. -1.
        -11    1    4    4    0    0 -0.18103627318E+02 -0.81042330380E+01 -0.73879089664E+01  0.21166036813E+02  0.51100000000E-03 0.  1.
        -12    1    4    4    0    0  0.49308361977E+01  0.13344255778E-01 -0.15315556637E+02  0.16089735821E+02  0.00000000000E+00 0.  1.
</event>
<event>
 8    1  0.1254059E-006  0.9118800E+02  0.7816164E-02  0.1184000E+00
        -11   -1    0    0    0    0  0.00000000000E+00  0.00000000000E+00  0.45593999997E+02  0.45594000000E+02  0.51100000000E-03 0. -1.
         11   -1    0    0    0    0 -0.00000000000E+00 -0.00000000000E+00 -0.45593999997E+02  0.45594000000E+02  0.51100000000E-03 0.  1.
         23    2    1    2    0    0  0.17763568394E-14  0.00000000000E+00  0.35527136788E-14  0.91188000000E+02  0.91188000000E+02 0.  0.
    9900012    2    3    3    0    0 -0.15209366479E+02 -0.19985836289E+02 -0.26926020125E+02  0.54367230852E+02  0.40000334373E+02 0.  0.
         12    1    3    3    0    0  0.15209366479E+02  0.19985836289E+02  0.26926020125E+02  0.36820769148E+02  0.00000000000E+00 0. -1.
         11    1    4    4    0    0  0.33352090489E+01  0.13242452617E+01  0.10078184558E+00  0.35899028057E+01  0.51100000000E-03 0. -1.
        -11    1    4    4    0    0 -0.12004129595E+02 -0.88248129610E+01 -0.32425124127E+02  0.35684241985E+02  0.51100000000E-03 0.  1.
        -12    1    4    4    0    0 -0.65404459338E+01 -0.12485268589E+02  0.53983221569E+01  0.15093086062E+02  0.00000000000E+00 0.  1.
</event>
<event>
 8    1  0.1254059E-006  0.9118800E+02  0.7816164E-02  0.1184000E+00
        -11   -1    0    0    0    0  0.00000000000E+00  0.00000000000E+00  0.45593999997E+02  0.45594000000E+02  0.51100000000E-03 0.  1.
         11   -1    0    0    0    0 -0.00000000000E+00 -0.00000000000E+00 -0.45593999997E+02  0.45594000000E+02  0.51100000000E-03 0. -1.
         23    2    1    2    0    0  0.00000000000E+00  0.00000000000E+00  0.88817841970E-15  0.91188000000E+02  0.91188000000E+02 0.  0.
    9900012    2    3    3    0    0 -0.33628674118E+02 -0.13649040801E+02  0.62129911327E+01  0.54367010109E+02  0.39999831145E+02 0.  0.
         12    1    3    3    0    0  0.33628674118E+02  0.13649040801E+02 -0.62129911327E+01  0.36820989891E+02  0.00000000000E+00 0. -1.
         11    1    4    4    0    0 -0.35572047072E+01 -0.14803519514E+02 -0.59413585335E+01  0.16343122003E+02  0.51100000000E-03 0. -1.
        -11    1    4    4    0    0 -0.17830860209E+02 -0.77466091664E+01  0.14673179485E+01  0.19496218905E+02  0.51100000000E-03 0.  1.
        -12    1    4    4    0    0 -0.12240609203E+02  0.89010878791E+01  0.10687031718E+02  0.18527669201E+02  0.00000000000E+00 0.  1.
</event>
<event>
 8    1  0.1254059E-006  0.9118800E+02  0.7816164E-02  0.1184000E+00
        -11   -1    0    0    0    0  0.00000000000E+00  0.00000000000E+00  0.45593999997E+02  0.45594000000E+02  0.51100000000E-03 0.  1.
         11   -1    0    0    0    0 -0.00000000000E+00 -0.00000000000E+00 -0.45593999997E+02  0.45594000000E+02  0.51100000000E-03 0. -1.
         23    2    1    2    0    0  0.00000000000E+00  0.00000000000E+00 -0.17763568394E-14  0.91188000000E+02  0.91188000000E+02 0.  0.
    9900012    2    3    3    0    0  0.16361241120E+02 -0.30394696479E+02 -0.12816059722E+02  0.54367093278E+02  0.40000020746E+02 0.  0.
        -12    1    3    3    0    0 -0.16361241120E+02  0.30394696479E+02  0.12816059722E+02  0.36820906722E+02  0.00000000000E+00 0.  1.
         11    1    4    4    0    0 -0.49849554298E+01 -0.16468706032E+02 -0.52718953300E+01  0.17996136797E+02  0.51100000000E-03 0.  1.
        -11    1    4    4    0    0  0.78984013689E+01  0.66671367675E+01 -0.54549607673E+01  0.11687260333E+02  0.51100000000E-03 0. -1.
         12    1    4    4    0    0  0.13447795181E+02 -0.20593127215E+02 -0.20892036249E+01  0.24683696147E+02  0.00000000000E+00 0. -1.
</event>
<event>
 8    1  0.1254059E-006  0.9118800E+02  0.7816164E-02  0.1184000E+00
        -11   -1    0    0    0    0  0.00000000000E+00  0.00000000000E+00  0.45593999997E+02  0.45594000000E+02  0.51100000000E-03 0. -1.
         11   -1    0    0    0    0 -0.00000000000E+00 -0.00000000000E+00 -0.45593999997E+02  0.45594000000E+02  0.51100000000E-03 0.  1.
         23    2    1    2    0    0  0.00000000000E+00 -0.35527136788E-14  0.00000000000E+00  0.91188000000E+02  0.91188000000E+02 0.  0.
    9900012    2    3    3    0    0  0.21473235832E+02  0.20801664369E+02 -0.21493515357E+02  0.54367077958E+02  0.39999985820E+02 0.  0.
         12    1    3    3    0    0 -0.21473235832E+02 -0.20801664369E+02  0.21493515357E+02  0.36820922042E+02  0.00000000000E+00 0. -1.
         11    1    4    4    0    0  0.38951869370E+01  0.17543751178E+02 -0.10765529599E+02  0.20948802221E+02  0.51100000000E-03 0. -1.
        -11    1    4    4    0    0 -0.42151404180E+00 -0.94691970185E+01 -0.46117681436E+01  0.10540956879E+02  0.51100000000E-03 0.  1.
        -12    1    4    4    0    0  0.17999562937E+02  0.12727110210E+02 -0.61162176146E+01  0.22877318858E+02  0.00000000000E+00 0.  1.
</event>
<event>
 8    1  0.1254059E-006  0.9118800E+02  0.7816164E-02  0.1184000E+00
        -11   -1    0    0    0    0  0.00000000000E+00  0.00000000000E+00  0.45593999997E+02  0.45594000000E+02  0.51100000000E-03 0.  1.
         11   -1    0    0    0    0 -0.00000000000E+00 -0.00000000000E+00 -0.45593999997E+02  0.45594000000E+02  0.51100000000E-03 0. -1.
         23    2    1    2    0    0  0.00000000000E+00  0.00000000000E+00 -0.35527136788E-14  0.91188000000E+02  0.91188000000E+02 0.  0.
    9900012    2    3    3    0    0 -0.43137207354E+01  0.35594479744E+02 -0.83788876237E+01  0.54367069368E+02  0.39999966238E+02 0.  0.
        -12    1    3    3    0    0  0.43137207354E+01 -0.35594479744E+02  0.83788876237E+01  0.36820930632E+02  0.00000000000E+00 0.  1.
         11    1    4    4    0    0  0.11056091620E+02  0.23911241404E+02 -0.94495927077E+01  0.27987129721E+02  0.51100000000E-03 0. -1.
        -11    1    4    4    0    0 -0.35494818870E+01 -0.12425433306E+01  0.69514370871E+01  0.79034937484E+01  0.51100000000E-03 0.  1.
        -12    1    4    4    0    0 -0.11820330468E+02  0.12925781670E+02 -0.58807320030E+01  0.18476445899E+02  0.00000000000E+00 0.  1.
</event>
<event>
 8    1  0.1254059E-006  0.9118800E+02  0.7816164E-02  0.1184000E+00
        -11   -1    0    0    0    0  0.00000000000E+00  0.00000000000E+00  0.45593999997E+02  0.45594000000E+02  0.51100000000E-03 0.  1.
         11   -1    0    0    0    0 -0.00000000000E+00 -0.00000000000E+00 -0.45593999997E+02  0.45594000000E+02  0.51100000000E-03 0. -1.
         23    2    1    2    0    0  0.00000000000E+00  0.00000000000E+00  0.00000000000E+00  0.91188000000E+02  0.91188000000E+02 0.  0.
    9900012    2    3    3    0    0 -0.25225838090E+02 -0.10353431559E+02  0.24743547935E+02  0.54367087235E+02  0.40000006971E+02 0.  0.
         12    1    3    3    0    0  0.25225838090E+02  0.10353431559E+02 -0.24743547935E+02  0.36820912765E+02  0.00000000000E+00 0. -1.
         11    1    4    4    0    0  0.42590340494E+01 -0.31369679891E+01  0.21800585856E+02  0.22433133600E+02  0.51100000000E-03 0. -1.
        -11    1    4    4    0    0 -0.19393522998E+02 -0.41139891686E+00  0.36651030600E+01  0.19741098350E+02  0.51100000000E-03 0.  1.
         12    1    4    4    0    0 -0.10091349142E+02 -0.68050646527E+01 -0.72214098069E+00  0.12192855286E+02  0.00000000000E+00 0. -1.
</event>
<event>
 8    1  0.1254059E-006  0.9118800E+02  0.7816164E-02  0.1184000E+00
        -11   -1    0    0    0    0  0.00000000000E+00  0.00000000000E+00  0.45593999997E+02  0.45594000000E+02  0.51100000000E-03 0.  1.
         11   -1    0    0    0    0 -0.00000000000E+00 -0.00000000000E+00 -0.45593999997E+02  0.45594000000E+02  0.51100000000E-03 0. -1.
         23    2    1    2    0    0  0.00000000000E+00  0.00000000000E+00  0.71054273576E-14  0.91188000000E+02  0.91188000000E+02 0.  0.
    9900012    2    3    3    0    0 -0.10537210460E+02 -0.23589022930E+02 -0.26235562021E+02  0.54367088528E+02  0.40000009918E+02 0.  0.
        -12    1    3    3    0    0  0.10537210460E+02  0.23589022930E+02  0.26235562021E+02  0.36820911472E+02  0.00000000000E+00 0.  1.
         11    1    4    4    0    0  0.33984982095E+01 -0.38421346297E+01 -0.23470940885E+02  0.24024921538E+02  0.51100000000E-03 0. -1.
        -11    1    4    4    0    0  0.26862266330E+01 -0.95929754885E+01  0.22842169407E+01  0.10220500944E+02  0.51100000000E-03 0.  1.
         12    1    4    4    0    0 -0.16621935303E+02 -0.10153912811E+02 -0.50488380765E+01  0.20121666047E+02  0.00000000000E+00 0. -1.
</event>
<event>
 8    1  0.1254059E-006  0.9118800E+02  0.7816164E-02  0.1184000E+00
        -11   -1    0    0    0    0  0.00000000000E+00  0.00000000000E+00  0.45593999997E+02  0.45594000000E+02  0.51100000000E-03 0. -1.
         11   -1    0    0    0    0 -0.00000000000E+00 -0.00000000000E+00 -0.45593999997E+02  0.45594000000E+02  0.51100000000E-03 0.  1.
         23    2    1    2    0    0  0.00000000000E+00 -0.35527136788E-14  0.00000000000E+00  0.91188000000E+02  0.91188000000E+02 0.  0.
    9900012    2    3    3    0    0  0.22594957675E+02  0.20291300027E+02 -0.20820921146E+02  0.54367085746E+02  0.40000003574E+02 0.  0.
         12    1    3    3    0    0 -0.22594957675E+02 -0.20291300027E+02  0.20820921146E+02  0.36820914254E+02  0.00000000000E+00 0. -1.
         11    1    4    4    0    0  0.12901689514E+02 -0.68037198466E+01  0.25423746710E+01  0.14805670039E+02  0.51100000000E-03 0. -1.
        -11    1    4    4    0    0  0.10037096612E+02  0.15518852075E+02 -0.20559747365E+02  0.27645637813E+02  0.51100000000E-03 0.  1.
         12    1    4    4    0    0 -0.34382845017E+00  0.11576167798E+02 -0.28035484528E+01  0.11915777894E+02  0.00000000000E+00 0. -1.
</event>
<event>
 8    1  0.1254059E-006  0.9118800E+02  0.7816164E-02  0.1184000E+00
        -11   -1    0    0    0    0  0.00000000000E+00  0.00000000000E+00  0.45593999997E+02  0.45594000000E+02  0.51100000000E-03 0.  1.
         11   -1    0    0    0    0 -0.00000000000E+00 -0.00000000000E+00 -0.45593999997E+02  0.45594000000E+02  0.51100000000E-03 0. -1.
         23    2    1    2    0    0  0.00000000000E+00  0.35527136788E-14 -0.35527136788E-14  0.91188000000E+02  0.91188000000E+02 0.  0.
    9900012    2    3    3    0    0  0.15451400974E+02 -0.13436689734E+02  0.30602023918E+02  0.54367159557E+02  0.40000171841E+02 0.  0.
         12    1    3    3    0    0 -0.15451400974E+02  0.13436689734E+02 -0.30602023918E+02  0.36820840443E+02  0.00000000000E+00 0. -1.
         11    1    4    4    0    0  0.10434719790E+02  0.10009016710E+02  0.15104639000E+02  0.20909660738E+02  0.51100000000E-03 0. -1.
        -11    1    4    4    0    0 -0.34005647058E+01  0.70064127048E+00  0.43401790498E+01  0.55580475847E+01  0.51100000000E-03 0.  1.
        -12    1    4    4    0    0  0.84172458897E+01 -0.24146347715E+02  0.11157205868E+02  0.27899451234E+02  0.00000000000E+00 0.  1.
</event>
<event>
 8    1  0.1254059E-006  0.9118800E+02  0.7816164E-02  0.1184000E+00
        -11   -1    0    0    0    0  0.00000000000E+00  0.00000000000E+00  0.45593999997E+02  0.45594000000E+02  0.51100000000E-03 0. -1.
         11   -1    0    0    0    0 -0.00000000000E+00 -0.00000000000E+00 -0.45593999997E+02  0.45594000000E+02  0.51100000000E-03 0.  1.
         23    2    1    2    0    0 -0.71054273576E-14  0.17763568394E-14 -0.35527136788E-14  0.91188000000E+02  0.91188000000E+02 0.  0.
    9900012    2    3    3    0    0 -0.32685620811E+02  0.43905309778E+01 -0.16375394132E+02  0.54367080633E+02  0.39999991919E+02 0.  0.
         12    1    3    3    0    0  0.32685620811E+02 -0.43905309778E+01  0.16375394132E+02  0.36820919367E+02  0.00000000000E+00 0. -1.
         11    1    4    4    0    0  0.55814451944E+01 -0.63942913731E+01  0.21141083151E+01  0.87469392848E+01  0.51100000000E-03 0. -1.
        -11    1    4    4    0    0 -0.34556875514E+02  0.12177029923E+02 -0.19534696349E+02  0.41521826366E+02  0.51100000000E-03 0.  1.
         12    1    4    4    0    0 -0.37101904907E+01 -0.13922075722E+01  0.10451939014E+01  0.40983149822E+01  0.00000000000E+00 0. -1.
</event>
<event>
 8    1  0.1254059E-006  0.9118800E+02  0.7816164E-02  0.1184000E+00
        -11   -1    0    0    0    0  0.00000000000E+00  0.00000000000E+00  0.45593999997E+02  0.45594000000E+02  0.51100000000E-03 0. -1.
         11   -1    0    0    0    0 -0.00000000000E+00 -0.00000000000E+00 -0.45593999997E+02  0.45594000000E+02  0.51100000000E-03 0.  1.
         23    2    1    2    0    0 -0.35527136788E-14  0.17763568394E-14  0.00000000000E+00  0.91188000000E+02  0.91188000000E+02 0.  0.
    9900012    2    3    3    0    0 -0.22758902393E+02 -0.10840467460E+02  0.26838362782E+02  0.54367067235E+02  0.39999961375E+02 0.  0.
        -12    1    3    3    0    0  0.22758902393E+02  0.10840467460E+02 -0.26838362782E+02  0.36820932765E+02  0.00000000000E+00 0.  1.
         11    1    4    4    0    0 -0.16379450182E+02 -0.51955046311E+01  0.26132957675E+02  0.31276367017E+02  0.51100000000E-03 0. -1.
        -11    1    4    4    0    0 -0.66427282195E+01  0.27444624533E+01  0.88460894910E+01  0.11397859970E+02  0.51100000000E-03 0.  1.
        -12    1    4    4    0    0  0.26327600801E+00 -0.83894252816E+01 -0.81406843844E+01  0.11692840248E+02  0.00000000000E+00 0.  1.
</event>
<event>
 8    1  0.1254059E-006  0.9118800E+02  0.7816164E-02  0.1184000E+00
        -11   -1    0    0    0    0  0.00000000000E+00  0.00000000000E+00  0.45593999997E+02  0.45594000000E+02  0.51100000000E-03 0.  1.
         11   -1    0    0    0    0 -0.00000000000E+00 -0.00000000000E+00 -0.45593999997E+02  0.45594000000E+02  0.51100000000E-03 0. -1.
         23    2    1    2    0    0  0.00000000000E+00  0.35527136788E-14  0.00000000000E+00  0.91188000000E+02  0.91188000000E+02 0.  0.
    9900012    2    3    3    0    0  0.24589293652E+02 -0.21162305950E+02 -0.17415610658E+02  0.54367081353E+02  0.39999993560E+02 0.  0.
        -12    1    3    3    0    0 -0.24589293652E+02  0.21162305950E+02  0.17415610658E+02  0.36820918647E+02  0.00000000000E+00 0.  1.
         11    1    4    4    0    0 -0.54607542726E+01  0.50649056114E+01 -0.49683170640E+01  0.89530598561E+01  0.51100000000E-03 0.  1.
        -11    1    4    4    0    0  0.15008285630E+02 -0.10496210155E+02  0.32214134570E+01  0.18595606203E+02  0.51100000000E-03 0. -1.
         12    1    4    4    0    0  0.15041762295E+02 -0.15731001406E+02 -0.15668707051E+02  0.26818415293E+02  0.00000000000E+00 0. -1.
</event>
<event>
 8    1  0.1254059E-006  0.9118800E+02  0.7816164E-02  0.1184000E+00
        -11   -1    0    0    0    0  0.00000000000E+00  0.00000000000E+00  0.45593999997E+02  0.45594000000E+02  0.51100000000E-03 0.  1.
         11   -1    0    0    0    0 -0.00000000000E+00 -0.00000000000E+00 -0.45593999997E+02  0.45594000000E+02  0.51100000000E-03 0. -1.
         23    2    1    2    0    0  0.00000000000E+00 -0.35527136788E-14  0.00000000000E+00  0.91188000000E+02  0.91188000000E+02 0.  0.
    9900012    2    3    3    0    0 -0.23757461846E+02 -0.25953890559E+02 -0.10851706189E+02  0.54367069054E+02  0.39999965523E+02 0.  0.
        -12    1    3    3    0    0  0.23757461846E+02  0.25953890559E+02  0.10851706189E+02  0.36820930946E+02  0.00000000000E+00 0.  1.
         11    1    4    4    0    0 -0.20448706248E+02 -0.11029467234E+02  0.76081996426E+01  0.24447565047E+02  0.51100000000E-03 0. -1.
        -11    1    4    4    0    0 -0.91920497215E+01 -0.10840416644E+02 -0.17725518484E+02  0.22720088399E+02  0.51100000000E-03 0.  1.
        -12    1    4    4    0    0  0.58832941237E+01 -0.40840066818E+01 -0.73438734770E+00  0.71994156081E+01  0.00000000000E+00 0.  1.
</event>
<event>
 8    1  0.1254059E-006  0.9118800E+02  0.7816164E-02  0.1184000E+00
        -11   -1    0    0    0    0  0.00000000000E+00  0.00000000000E+00  0.45593999997E+02  0.45594000000E+02  0.51100000000E-03 0.  1.
         11   -1    0    0    0    0 -0.00000000000E+00 -0.00000000000E+00 -0.45593999997E+02  0.45594000000E+02  0.51100000000E-03 0. -1.
         23    2    1    2    0    0  0.00000000000E+00  0.00000000000E+00 -0.17763568394E-14  0.91188000000E+02  0.91188000000E+02 0.  0.
    9900012    2    3    3    0    0 -0.35670407261E+02 -0.20933399195E+01  0.88893243197E+01  0.54367080497E+02  0.39999991608E+02 0.  0.
         12    1    3    3    0    0  0.35670407261E+02  0.20933399195E+01 -0.88893243197E+01  0.36820919503E+02  0.00000000000E+00 0. -1.
         11    1    4    4    0    0 -0.27792207031E+02  0.23220056861E+01 -0.91057099638E+00  0.27903899761E+02  0.51100000000E-03 0. -1.
        -11    1    4    4    0    0 -0.14158064011E+02 -0.10553626626E+01  0.12431032404E+02  0.18870483136E+02  0.51100000000E-03 0.  1.
         12    1    4    4    0    0  0.62798637800E+01 -0.33599829431E+01 -0.26311370883E+01  0.75926976004E+01  0.00000000000E+00 0. -1.
</event>
<event>
 8    1  0.1254059E-006  0.9118800E+02  0.7816164E-02  0.1184000E+00
        -11   -1    0    0    0    0  0.00000000000E+00  0.00000000000E+00  0.45593999997E+02  0.45594000000E+02  0.51100000000E-03 0.  1.
         11   -1    0    0    0    0 -0.00000000000E+00 -0.00000000000E+00 -0.45593999997E+02  0.45594000000E+02  0.51100000000E-03 0. -1.
         23    2    1    2    0    0 -0.17763568394E-14  0.00000000000E+00  0.00000000000E+00  0.91188000000E+02  0.91188000000E+02 0.  0.
    9900012    2    3    3    0    0 -0.13969887904E+02 -0.33703174393E+02  0.49717336621E+01  0.54367083827E+02  0.39999999199E+02 0.  0.
         12    1    3    3    0    0  0.13969887904E+02  0.33703174393E+02 -0.49717336621E+01  0.36820916173E+02  0.00000000000E+00 0. -1.
         11    1    4    4    0    0  0.45228839857E+01 -0.11695885779E+02 -0.79462782298E+00  0.12565096790E+02  0.51100000000E-03 0. -1.
        -11    1    4    4    0    0 -0.82151032986E+01 -0.28151465986E+02  0.54231738449E+01  0.29822873338E+02  0.51100000000E-03 0.  1.
        -12    1    4    4    0    0 -0.10277668591E+02  0.61441773712E+01  0.34318764014E+00  0.11979113698E+02  0.00000000000E+00 0.  1.
</event>
<event>
 8    1  0.1254059E-006  0.9118800E+02  0.7816164E-02  0.1184000E+00
        -11   -1    0    0    0    0  0.00000000000E+00  0.00000000000E+00  0.45593999997E+02  0.45594000000E+02  0.51100000000E-03 0.  1.
         11   -1    0    0    0    0 -0.00000000000E+00 -0.00000000000E+00 -0.45593999997E+02  0.45594000000E+02  0.51100000000E-03 0. -1.
         23    2    1    2    0    0  0.35527136788E-14  0.35527136788E-14  0.00000000000E+00  0.91188000000E+02  0.91188000000E+02 0.  0.
    9900012    2    3    3    0    0 -0.50027806392E+01  0.28259097259E+02  0.23068927343E+02  0.54367084737E+02  0.40000001275E+02 0.  0.
         12    1    3    3    0    0  0.50027806392E+01 -0.28259097259E+02 -0.23068927343E+02  0.36820915263E+02  0.00000000000E+00 0. -1.
         11    1    4    4    0    0  0.10501167454E+02  0.53441595807E+01  0.60674020147E+01  0.13253223268E+02  0.51100000000E-03 0. -1.
        -11    1    4    4    0    0 -0.17526332560E+02  0.52491018437E+01  0.14097945392E+02  0.23097131157E+02  0.51100000000E-03 0.  1.
        -12    1    4    4    0    0  0.20223844663E+01  0.17665835835E+02  0.29035799366E+01  0.18016730312E+02  0.00000000000E+00 0.  1.
</event>
<event>
 8    1  0.1254059E-006  0.9118800E+02  0.7816164E-02  0.1184000E+00
        -11   -1    0    0    0    0  0.00000000000E+00  0.00000000000E+00  0.45593999997E+02  0.45594000000E+02  0.51100000000E-03 0.  1.
         11   -1    0    0    0    0 -0.00000000000E+00 -0.00000000000E+00 -0.45593999997E+02  0.45594000000E+02  0.51100000000E-03 0. -1.
         23    2    1    2    0    0 -0.35527136788E-14  0.35527136788E-14 -0.44408920985E-15  0.91188000000E+02  0.91188000000E+02 0.  0.
    9900012    2    3    3    0    0 -0.21558963547E+02 -0.29623981737E+02 -0.36619835130E+01  0.54367091179E+02  0.40000015961E+02 0.  0.
         12    1    3    3    0    0  0.21558963547E+02  0.29623981737E+02  0.36619835130E+01  0.36820908821E+02  0.00000000000E+00 0. -1.
         11    1    4    4    0    0 -0.11391591546E+02 -0.26343436485E+02 -0.91882087805E+01  0.30135828919E+02  0.51100000000E-03 0. -1.
        -11    1    4    4    0    0 -0.46820021593E+01 -0.37443845665E+01 -0.77854466168E+01  0.98262271135E+01  0.51100000000E-03 0.  1.
        -12    1    4    4    0    0 -0.54853698415E+01  0.46383931486E+00  0.13311671884E+02  0.14405035146E+02  0.00000000000E+00 0.  1.
</event>
<event>
 8    1  0.1254059E-006  0.9118800E+02  0.7816164E-02  0.1184000E+00
        -11   -1    0    0    0    0  0.00000000000E+00  0.00000000000E+00  0.45593999997E+02  0.45594000000E+02  0.51100000000E-03 0. -1.
         11   -1    0    0    0    0 -0.00000000000E+00 -0.00000000000E+00 -0.45593999997E+02  0.45594000000E+02  0.51100000000E-03 0.  1.
         23    2    1    2    0    0 -0.88817841970E-15 -0.35527136788E-14  0.35527136788E-14  0.91188000000E+02  0.91188000000E+02 0.  0.
    9900012    2    3    3    0    0 -0.50263683769E+01  0.19453143006E+02 -0.30855967799E+02  0.54367083381E+02  0.39999998183E+02 0.  0.
         12    1    3    3    0    0  0.50263683769E+01 -0.19453143006E+02  0.30855967799E+02  0.36820916619E+02  0.00000000000E+00 0. -1.
         11    1    4    4    0    0  0.24022929072E+01 -0.33381665473E+01 -0.65148816256E+01  0.77044175618E+01  0.51100000000E-03 0. -1.
        -11    1    4    4    0    0 -0.52437706468E+00  0.31765905776E+01 -0.25627105528E+02  0.25828554683E+02  0.51100000000E-03 0.  1.
        -12    1    4    4    0    0 -0.69042842195E+01  0.19614718975E+02  0.12860193544E+01  0.20834111136E+02  0.00000000000E+00 0.  1.
</event>
<event>
 8    1  0.1254059E-006  0.9118800E+02  0.7816164E-02  0.1184000E+00
        -11   -1    0    0    0    0  0.00000000000E+00  0.00000000000E+00  0.45593999997E+02  0.45594000000E+02  0.51100000000E-03 0. -1.
         11   -1    0    0    0    0 -0.00000000000E+00 -0.00000000000E+00 -0.45593999997E+02  0.45594000000E+02  0.51100000000E-03 0.  1.
         23    2    1    2    0    0 -0.71054273576E-14  0.22204460493E-15  0.17763568394E-14  0.91188000000E+02  0.91188000000E+02 0.  0.
    9900012    2    3    3    0    0  0.34906098692E+02  0.10995982957E+00 -0.11719507307E+02  0.54366882845E+02  0.39999541019E+02 0.  0.
         12    1    3    3    0    0 -0.34906098692E+02 -0.10995982957E+00  0.11719507307E+02  0.36821117155E+02  0.00000000000E+00 0. -1.
         11    1    4    4    0    0  0.91523763851E+01  0.75396514495E+01 -0.87278368897E+01  0.14723704510E+02  0.51100000000E-03 0. -1.
        -11    1    4    4    0    0 -0.19314746822E+01 -0.82100938773E+01  0.61930627776E+01  0.10463759494E+02  0.51100000000E-03 0.  1.
        -12    1    4    4    0    0  0.27685196989E+02  0.78040225738E+00 -0.91847331953E+01  0.29179418840E+02  0.00000000000E+00 0.  1.
</event>
<event>
 8    1  0.1254059E-006  0.9118800E+02  0.7816164E-02  0.1184000E+00
        -11   -1    0    0    0    0  0.00000000000E+00  0.00000000000E+00  0.45593999997E+02  0.45594000000E+02  0.51100000000E-03 0. -1.
         11   -1    0    0    0    0 -0.00000000000E+00 -0.00000000000E+00 -0.45593999997E+02  0.45594000000E+02  0.51100000000E-03 0.  1.
         23    2    1    2    0    0 -0.83266726847E-15  0.00000000000E+00  0.00000000000E+00  0.91188000000E+02  0.91188000000E+02 0.  0.
    9900012    2    3    3    0    0 -0.38195003127E+00  0.31813329772E+02  0.18534982253E+02  0.54367090124E+02  0.40000013555E+02 0.  0.
        -12    1    3    3    0    0  0.38195003127E+00 -0.31813329772E+02 -0.18534982253E+02  0.36820909876E+02  0.00000000000E+00 0.  1.
         11    1    4    4    0    0  0.11563010593E+01  0.29004179830E+02  0.13037992611E+02  0.31820885144E+02  0.51100000000E-03 0. -1.
        -11    1    4    4    0    0  0.36999536826E+01  0.11192846458E+02  0.44693905542E+01  0.12607336010E+02  0.51100000000E-03 0.  1.
        -12    1    4    4    0    0 -0.52382047732E+01 -0.83836965159E+01  0.10275990880E+01  0.99388689700E+01  0.00000000000E+00 0.  1.
</event>
<event>
 8    1  0.1254059E-006  0.9118800E+02  0.7816164E-02  0.1184000E+00
        -11   -1    0    0    0    0  0.00000000000E+00  0.00000000000E+00  0.45593999997E+02  0.45594000000E+02  0.51100000000E-03 0.  1.
         11   -1    0    0    0    0 -0.00000000000E+00 -0.00000000000E+00 -0.45593999997E+02  0.45594000000E+02  0.51100000000E-03 0. -1.
         23    2    1    2    0    0  0.35527136788E-14  0.17763568394E-14  0.00000000000E+00  0.91188000000E+02  0.91188000000E+02 0.  0.
    9900012    2    3    3    0    0 -0.25105000240E+02  0.15788271157E+01  0.26889179710E+02  0.54367058709E+02  0.39999941938E+02 0.  0.
         12    1    3    3    0    0  0.25105000240E+02 -0.15788271157E+01 -0.26889179710E+02  0.36820941291E+02  0.00000000000E+00 0. -1.
         11    1    4    4    0    0 -0.12638857310E+02 -0.15462294465E+02  0.20081953334E+02  0.28321513275E+02  0.51100000000E-03 0. -1.
        -11    1    4    4    0    0 -0.56621536438E+01 -0.35810988429E+00  0.44595077252E+01  0.72163311999E+01  0.51100000000E-03 0.  1.
        -12    1    4    4    0    0 -0.68039892854E+01  0.17399231465E+02  0.23477186516E+01  0.18829214233E+02  0.00000000000E+00 0.  1.
</event>
<event>
 8    1  0.1254059E-006  0.9118800E+02  0.7816164E-02  0.1184000E+00
        -11   -1    0    0    0    0  0.00000000000E+00  0.00000000000E+00  0.45593999997E+02  0.45594000000E+02  0.51100000000E-03 0.  1.
         11   -1    0    0    0    0 -0.00000000000E+00 -0.00000000000E+00 -0.45593999997E+02  0.45594000000E+02  0.51100000000E-03 0. -1.
         23    2    1    2    0    0  0.00000000000E+00  0.11102230246E-14  0.00000000000E+00  0.91188000000E+02  0.91188000000E+02 0.  0.
    9900012    2    3    3    0    0  0.27990489732E+02  0.80620300351E+00 -0.23909517388E+02  0.54367048078E+02  0.39999917703E+02 0.  0.
        -12    1    3    3    0    0 -0.27990489732E+02 -0.80620300351E+00  0.23909517388E+02  0.36820951922E+02  0.00000000000E+00 0.  1.
         11    1    4    4    0    0  0.29959999229E+01 -0.54059327418E+01 -0.10319060117E+02  0.12028429919E+02  0.51100000000E-03 0. -1.
        -11    1    4    4    0    0  0.27371120846E+02 -0.39515317491E+01 -0.35965405197E+01  0.27887774445E+02  0.51100000000E-03 0.  1.
        -12    1    4    4    0    0 -0.23766310368E+01  0.10163667494E+02 -0.99939167506E+01  0.14450843714E+02  0.00000000000E+00 0.  1.
</event>
<event>
 8    1  0.1254059E-006  0.9118800E+02  0.7816164E-02  0.1184000E+00
        -11   -1    0    0    0    0  0.00000000000E+00  0.00000000000E+00  0.45593999997E+02  0.45594000000E+02  0.51100000000E-03 0. -1.
         11   -1    0    0    0    0 -0.00000000000E+00 -0.00000000000E+00 -0.45593999997E+02  0.45594000000E+02  0.51100000000E-03 0.  1.
         23    2    1    2    0    0  0.88817841970E-15  0.32196467714E-14 -0.71054273576E-14  0.91188000000E+02  0.91188000000E+02 0.  0.
    9900012    2    3    3    0    0 -0.77907377340E+01  0.99250918812E+00  0.35973545485E+02  0.54367127608E+02  0.40000099009E+02 0.  0.
        -12    1    3    3    0    0  0.77907377340E+01 -0.99250918812E+00 -0.35973545485E+02  0.36820872392E+02  0.00000000000E+00 0.  1.
         11    1    4    4    0    0  0.12118353429E+01  0.16098675411E+02  0.32208475739E+02  0.36028069676E+02  0.51100000000E-03 0. -1.
        -11    1    4    4    0    0 -0.23292276108E+01 -0.70697015613E+01  0.23005459991E+01  0.77909237953E+01  0.51100000000E-03 0.  1.
         12    1    4    4    0    0 -0.66733454661E+01 -0.80364646620E+01  0.14645237471E+01  0.10548134137E+02  0.00000000000E+00 0. -1.
</event>
<event>
 8    1  0.1254059E-006  0.9118800E+02  0.7816164E-02  0.1184000E+00
        -11   -1    0    0    0    0  0.00000000000E+00  0.00000000000E+00  0.45593999997E+02  0.45594000000E+02  0.51100000000E-03 0.  1.
         11   -1    0    0    0    0 -0.00000000000E+00 -0.00000000000E+00 -0.45593999997E+02  0.45594000000E+02  0.51100000000E-03 0. -1.
         23    2    1    2    0    0  0.00000000000E+00  0.17763568394E-14  0.35527136788E-14  0.91188000000E+02  0.91188000000E+02 0.  0.
    9900012    2    3    3    0    0 -0.34267978354E+02 -0.10688387824E+02 -0.82006941113E+01  0.54366982107E+02  0.39999767309E+02 0.  0.
         12    1    3    3    0    0  0.34267978354E+02  0.10688387824E+02  0.82006941113E+01  0.36821017893E+02  0.00000000000E+00 0. -1.
         11    1    4    4    0    0 -0.20365192926E+02 -0.55422234643E+01 -0.92448364354E+01  0.23041795173E+02  0.51100000000E-03 0. -1.
        -11    1    4    4    0    0 -0.11214800487E+02 -0.49444389466E+01 -0.12505401232E+02  0.17510119552E+02  0.51100000000E-03 0.  1.
         12    1    4    4    0    0 -0.26879849413E+01 -0.20172541356E+00  0.13549543557E+02  0.13815067382E+02  0.00000000000E+00 0. -1.
</event>
<event>
 8    1  0.1254059E-006  0.9118800E+02  0.7816164E-02  0.1184000E+00
        -11   -1    0    0    0    0  0.00000000000E+00  0.00000000000E+00  0.45593999997E+02  0.45594000000E+02  0.51100000000E-03 0.  1.
         11   -1    0    0    0    0 -0.00000000000E+00 -0.00000000000E+00 -0.45593999997E+02  0.45594000000E+02  0.51100000000E-03 0. -1.
         23    2    1    2    0    0  0.00000000000E+00  0.88817841970E-15  0.00000000000E+00  0.91188000000E+02  0.91188000000E+02 0.  0.
    9900012    2    3    3    0    0 -0.30348247830E+02 -0.69034470526E+01  0.19675006984E+02  0.54367087092E+02  0.40000006643E+02 0.  0.
         12    1    3    3    0    0  0.30348247830E+02  0.69034470526E+01 -0.19675006984E+02  0.36820912908E+02  0.00000000000E+00 0. -1.
         11    1    4    4    0    0 -0.84964500057E+01  0.59664229927E+01 -0.59042360984E+01  0.11943528381E+02  0.51100000000E-03 0.  1.
        -11    1    4    4    0    0 -0.16815007182E+02 -0.26183801447E+01  0.32253618924E+01  0.17320604514E+02  0.51100000000E-03 0. -1.
        -12    1    4    4    0    0 -0.50367906424E+01 -0.10251489901E+02  0.22353881190E+02  0.25102954197E+02  0.00000000000E+00 0.  1.
</event>
<event>
 8    1  0.1254059E-006  0.9118800E+02  0.7816164E-02  0.1184000E+00
        -11   -1    0    0    0    0  0.00000000000E+00  0.00000000000E+00  0.45593999997E+02  0.45594000000E+02  0.51100000000E-03 0.  1.
         11   -1    0    0    0    0 -0.00000000000E+00 -0.00000000000E+00 -0.45593999997E+02  0.45594000000E+02  0.51100000000E-03 0. -1.
         23    2    1    2    0    0  0.00000000000E+00  0.00000000000E+00  0.00000000000E+00  0.91188000000E+02  0.91188000000E+02 0.  0.
    9900012    2    3    3    0    0  0.29054574287E+02 -0.20275671232E+02 -0.10025363393E+02  0.54367095041E+02  0.40000024764E+02 0.  0.
        -12    1    3    3    0    0 -0.29054574287E+02  0.20275671232E+02  0.10025363393E+02  0.36820904959E+02  0.00000000000E+00 0.  1.
         11    1    4    4    0    0  0.11979121825E+02  0.58984884393E+01 -0.15757408377E+02  0.20653993430E+02  0.51100000000E-03 0. -1.
        -11    1    4    4    0    0  0.67625004612E+01 -0.19451197836E+02  0.58277881314E+01  0.21401953754E+02  0.51100000000E-03 0.  1.
         12    1    4    4    0    0  0.10312952000E+02 -0.67229618352E+01 -0.95743147028E-01  0.12311147857E+02  0.00000000000E+00 0. -1.
</event>
<event>
 8    1  0.1254059E-006  0.9118800E+02  0.7816164E-02  0.1184000E+00
        -11   -1    0    0    0    0  0.00000000000E+00  0.00000000000E+00  0.45593999997E+02  0.45594000000E+02  0.51100000000E-03 0.  1.
         11   -1    0    0    0    0 -0.00000000000E+00 -0.00000000000E+00 -0.45593999997E+02  0.45594000000E+02  0.51100000000E-03 0. -1.
         23    2    1    2    0    0  0.00000000000E+00  0.00000000000E+00  0.00000000000E+00  0.91188000000E+02  0.91188000000E+02 0.  0.
    9900012    2    3    3    0    0  0.17962391025E+02 -0.13804538924E+02  0.29026972418E+02  0.54367110359E+02  0.40000059684E+02 0.  0.
         12    1    3    3    0    0 -0.17962391025E+02  0.13804538924E+02 -0.29026972418E+02  0.36820889641E+02  0.00000000000E+00 0. -1.
         11    1    4    4    0    0  0.30712633930E+00 -0.35081225214E+00 -0.21032532351E+01  0.21543143356E+01  0.51100000000E-03 0. -1.
        -11    1    4    4    0    0 -0.67442050575E+01 -0.89324291793E+01  0.23860209118E+02  0.26354926907E+02  0.51100000000E-03 0.  1.
        -12    1    4    4    0    0  0.24399469743E+02 -0.45212974928E+01  0.72700165351E+01  0.25857869116E+02  0.00000000000E+00 0.  1.
</event>
<event>
 8    1  0.1254059E-006  0.9118800E+02  0.7816164E-02  0.1184000E+00
        -11   -1    0    0    0    0  0.00000000000E+00  0.00000000000E+00  0.45593999997E+02  0.45594000000E+02  0.51100000000E-03 0. -1.
         11   -1    0    0    0    0 -0.00000000000E+00 -0.00000000000E+00 -0.45593999997E+02  0.45594000000E+02  0.51100000000E-03 0.  1.
         23    2    1    2    0    0 -0.88817841970E-15  0.00000000000E+00  0.00000000000E+00  0.91188000000E+02  0.91188000000E+02 0.  0.
    9900012    2    3    3    0    0 -0.56529278106E+01  0.20638846851E+02  0.29964325097E+02  0.54367104157E+02  0.40000045547E+02 0.  0.
        -12    1    3    3    0    0  0.56529278106E+01 -0.20638846851E+02 -0.29964325097E+02  0.36820895843E+02  0.00000000000E+00 0.  1.
         11    1    4    4    0    0 -0.19629153017E+01 -0.12953917331E+01  0.89673168519E+01  0.92705904886E+01  0.51100000000E-03 0. -1.
        -11    1    4    4    0    0 -0.11397520856E+02  0.77398143684E+00  0.19407697913E+02  0.22520241284E+02  0.51100000000E-03 0.  1.
         12    1    4    4    0    0  0.77075083467E+01  0.21160257147E+02  0.15893103317E+01  0.22576272385E+02  0.00000000000E+00 0. -1.
</event>
<event>
 8    1  0.1254059E-006  0.9118800E+02  0.7816164E-02  0.1184000E+00
        -11   -1    0    0    0    0  0.00000000000E+00  0.00000000000E+00  0.45593999997E+02  0.45594000000E+02  0.51100000000E-03 0.  1.
         11   -1    0    0    0    0 -0.00000000000E+00 -0.00000000000E+00 -0.45593999997E+02  0.45594000000E+02  0.51100000000E-03 0. -1.
         23    2    1    2    0    0  0.00000000000E+00  0.88817841970E-15  0.00000000000E+00  0.91188000000E+02  0.91188000000E+02 0.  0.
    9900012    2    3    3    0    0 -0.21689032368E+02  0.20846552255E+01  0.29681985374E+02  0.54367079748E+02  0.39999989901E+02 0.  0.
         12    1    3    3    0    0  0.21689032368E+02 -0.20846552255E+01 -0.29681985374E+02  0.36820920252E+02  0.00000000000E+00 0. -1.
         11    1    4    4    0    0 -0.74257459581E+01 -0.86190106731E+00  0.47370909215E+01  0.88501190469E+01  0.51100000000E-03 0. -1.
        -11    1    4    4    0    0 -0.11231355513E+02 -0.17277146546E+01  0.33462319187E+02  0.35339144729E+02  0.51100000000E-03 0.  1.
         12    1    4    4    0    0 -0.30319308965E+01  0.46742709474E+01 -0.85174247342E+01  0.10177815972E+02  0.00000000000E+00 0. -1.
</event>
<event>
 8    1  0.1254059E-006  0.9118800E+02  0.7816164E-02  0.1184000E+00
        -11   -1    0    0    0    0  0.00000000000E+00  0.00000000000E+00  0.45593999997E+02  0.45594000000E+02  0.51100000000E-03 0. -1.
         11   -1    0    0    0    0 -0.00000000000E+00 -0.00000000000E+00 -0.45593999997E+02  0.45594000000E+02  0.51100000000E-03 0.  1.
         23    2    1    2    0    0  0.00000000000E+00  0.00000000000E+00  0.00000000000E+00  0.91188000000E+02  0.91188000000E+02 0.  0.
    9900012    2    3    3    0    0  0.93408552097E+01 -0.49298574208E+01 -0.35273580492E+02  0.54367074551E+02  0.39999978053E+02 0.  0.
         12    1    3    3    0    0 -0.93408552097E+01  0.49298574208E+01  0.35273580492E+02  0.36820925449E+02  0.00000000000E+00 0. -1.
         11    1    4    4    0    0 -0.16272838840E+01  0.27688685845E+01 -0.16989067270E+02  0.17289970880E+02  0.51100000000E-03 0. -1.
        -11    1    4    4    0    0  0.23619736859E+00 -0.16962318131E+02 -0.14716958178E+02  0.22458069460E+02  0.51100000000E-03 0.  1.
         12    1    4    4    0    0  0.10731941725E+02  0.92635921258E+01 -0.35675550436E+01  0.14619034211E+02  0.00000000000E+00 0. -1.
</event>
<event>
 8    1  0.1254059E-006  0.9118800E+02  0.7816164E-02  0.1184000E+00
        -11   -1    0    0    0    0  0.00000000000E+00  0.00000000000E+00  0.45593999997E+02  0.45594000000E+02  0.51100000000E-03 0.  1.
         11   -1    0    0    0    0 -0.00000000000E+00 -0.00000000000E+00 -0.45593999997E+02  0.45594000000E+02  0.51100000000E-03 0. -1.
         23    2    1    2    0    0 -0.35527136788E-14  0.35527136788E-14  0.00000000000E+00  0.91188000000E+02  0.91188000000E+02 0.  0.
    9900012    2    3    3    0    0  0.29279398179E+02  0.21115412481E+02 -0.72550035728E+01  0.54367097258E+02  0.40000029818E+02 0.  0.
        -12    1    3    3    0    0 -0.29279398179E+02 -0.21115412481E+02  0.72550035728E+01  0.36820902742E+02  0.00000000000E+00 0.  1.
         11    1    4    4    0    0  0.18366307253E+02  0.14966681349E+01  0.40458506889E+01  0.18866111568E+02  0.51100000000E-03 0. -1.
        -11    1    4    4    0    0  0.91910812520E+00  0.10993704410E+02  0.69034052821E+01  0.13013965620E+02  0.51100000000E-03 0.  1.
         12    1    4    4    0    0  0.99939828003E+01  0.86250399359E+01 -0.18204259544E+02  0.22487020070E+02  0.00000000000E+00 0. -1.
</event>
<event>
 8    1  0.1254059E-006  0.9118800E+02  0.7816164E-02  0.1184000E+00
        -11   -1    0    0    0    0  0.00000000000E+00  0.00000000000E+00  0.45593999997E+02  0.45594000000E+02  0.51100000000E-03 0.  1.
         11   -1    0    0    0    0 -0.00000000000E+00 -0.00000000000E+00 -0.45593999997E+02  0.45594000000E+02  0.51100000000E-03 0. -1.
         23    2    1    2    0    0 -0.71054273576E-14  0.00000000000E+00  0.00000000000E+00  0.91188000000E+02  0.91188000000E+02 0.  0.
    9900012    2    3    3    0    0  0.32718449717E+02 -0.13648704084E+02  0.99497255654E+01  0.54367066906E+02  0.39999960626E+02 0.  0.
         12    1    3    3    0    0 -0.32718449717E+02  0.13648704084E+02 -0.99497255654E+01  0.36820933094E+02  0.00000000000E+00 0. -1.
         11    1    4    4    0    0 -0.12598647394E+01  0.11616849921E+01 -0.21050855629E+01  0.27144348713E+01  0.51100000000E-03 0. -1.
        -11    1    4    4    0    0  0.40804795987E+02 -0.13907284754E+02  0.12066897480E+02  0.44766661255E+02  0.51100000000E-03 0.  1.
        -12    1    4    4    0    0 -0.68264815307E+01 -0.90310432182E+00 -0.12086351952E-01  0.68859707801E+01  0.00000000000E+00 0.  1.
</event>
<event>
 8    1  0.1254059E-006  0.9118800E+02  0.7816164E-02  0.1184000E+00
        -11   -1    0    0    0    0  0.00000000000E+00  0.00000000000E+00  0.45593999997E+02  0.45594000000E+02  0.51100000000E-03 0. -1.
         11   -1    0    0    0    0 -0.00000000000E+00 -0.00000000000E+00 -0.45593999997E+02  0.45594000000E+02  0.51100000000E-03 0.  1.
         23    2    1    2    0    0 -0.35527136788E-14  0.00000000000E+00 -0.71054273576E-14  0.91188000000E+02  0.91188000000E+02 0.  0.
    9900012    2    3    3    0    0 -0.13944071956E+02  0.17006692509E+02 -0.29531614080E+02  0.54367068955E+02  0.39999965297E+02 0.  0.
         12    1    3    3    0    0  0.13944071956E+02 -0.17006692509E+02  0.29531614080E+02  0.36820931045E+02  0.00000000000E+00 0. -1.
         11    1    4    4    0    0  0.43950633916E+01  0.40290611020E+01  0.67184556149E+01  0.89826255455E+01  0.51100000000E-03 0. -1.
        -11    1    4    4    0    0 -0.63732553831E+01  0.35860878465E+01 -0.26081596770E+02  0.27087415907E+02  0.51100000000E-03 0.  1.
         12    1    4    4    0    0 -0.11965879965E+02  0.93915435605E+01 -0.10168472925E+02  0.18297027502E+02  0.00000000000E+00 0. -1.
</event>
<event>
 8    1  0.1254059E-006  0.9118800E+02  0.7816164E-02  0.1184000E+00
        -11   -1    0    0    0    0  0.00000000000E+00  0.00000000000E+00  0.45593999997E+02  0.45594000000E+02  0.51100000000E-03 0. -1.
         11   -1    0    0    0    0 -0.00000000000E+00 -0.00000000000E+00 -0.45593999997E+02  0.45594000000E+02  0.51100000000E-03 0.  1.
         23    2    1    2    0    0  0.71054273576E-14 -0.88817841970E-15 -0.17763568394E-14  0.91188000000E+02  0.91188000000E+02 0.  0.
    9900012    2    3    3    0    0  0.35657961795E+02  0.23592603171E+01  0.88725927176E+01  0.54367092214E+02  0.40000018321E+02 0.  0.
         12    1    3    3    0    0 -0.35657961795E+02 -0.23592603171E+01 -0.88725927176E+01  0.36820907786E+02  0.00000000000E+00 0. -1.
         11    1    4    4    0    0  0.40344609091E+01  0.87907804807E+01 -0.34423005892E-01  0.96724289344E+01  0.51100000000E-03 0. -1.
        -11    1    4    4    0    0  0.16603749058E+02  0.58169095029E+01 -0.76690451157E+01  0.19192060134E+02  0.51100000000E-03 0.  1.
         12    1    4    4    0    0  0.15019751829E+02 -0.12248429667E+02  0.16576060839E+02  0.25502603146E+02  0.00000000000E+00 0. -1.
</event>
<event>
 8    1  0.1254059E-006  0.9118800E+02  0.7816164E-02  0.1184000E+00
        -11   -1    0    0    0    0  0.00000000000E+00  0.00000000000E+00  0.45593999997E+02  0.45594000000E+02  0.51100000000E-03 0.  1.
         11   -1    0    0    0    0 -0.00000000000E+00 -0.00000000000E+00 -0.45593999997E+02  0.45594000000E+02  0.51100000000E-03 0. -1.
         23    2    1    2    0    0  0.17763568394E-14  0.00000000000E+00 -0.35527136788E-14  0.91188000000E+02  0.91188000000E+02 0.  0.
    9900012    2    3    3    0    0  0.12541017832E+02 -0.14068694714E+02 -0.31631887517E+02  0.54367060209E+02  0.39999945358E+02 0.  0.
        -12    1    3    3    0    0 -0.12541017832E+02  0.14068694714E+02  0.31631887517E+02  0.36820939791E+02  0.00000000000E+00 0.  1.
         11    1    4    4    0    0  0.35197374909E+01  0.12600787183E+02 -0.79191920273E+01  0.15293200851E+02  0.51100000000E-03 0.  1.
        -11    1    4    4    0    0  0.61508840148E+01 -0.25543563951E+01 -0.65068883469E+01  0.93111603453E+01  0.51100000000E-03 0. -1.
         12    1    4    4    0    0  0.28703963264E+01 -0.24115125502E+02 -0.17205807143E+02  0.29762699012E+02  0.00000000000E+00 0. -1.
</event>
<event>
 8    1  0.1254059E-006  0.9118800E+02  0.7816164E-02  0.1184000E+00
        -11   -1    0    0    0    0  0.00000000000E+00  0.00000000000E+00  0.45593999997E+02  0.45594000000E+02  0.51100000000E-03 0.  1.
         11   -1    0    0    0    0 -0.00000000000E+00 -0.00000000000E+00 -0.45593999997E+02  0.45594000000E+02  0.51100000000E-03 0. -1.
         23    2    1    2    0    0 -0.17763568394E-14  0.00000000000E+00  0.00000000000E+00  0.91188000000E+02  0.91188000000E+02 0.  0.
    9900012    2    3    3    0    0 -0.10405237182E+02 -0.22977407339E+02 -0.26824424146E+02  0.54367082852E+02  0.39999996978E+02 0.  0.
        -12    1    3    3    0    0  0.10405237182E+02  0.22977407339E+02  0.26824424146E+02  0.36820917148E+02  0.00000000000E+00 0.  1.
         11    1    4    4    0    0  0.42298245246E+01 -0.33831855778E+01 -0.11654825969E+01  0.55403709359E+01  0.51100000000E-03 0. -1.
        -11    1    4    4    0    0 -0.26601524102E+01 -0.12136788121E+02  0.62720848117E+01  0.13918228511E+02  0.51100000000E-03 0.  1.
        -12    1    4    4    0    0 -0.11974909296E+02 -0.74574336402E+01 -0.31931026361E+02  0.34908483405E+02  0.00000000000E+00 0.  1.
</event>
<event>
 8    1  0.1254059E-006  0.9118800E+02  0.7816164E-02  0.1184000E+00
        -11   -1    0    0    0    0  0.00000000000E+00  0.00000000000E+00  0.45593999997E+02  0.45594000000E+02  0.51100000000E-03 0. -1.
         11   -1    0    0    0    0 -0.00000000000E+00 -0.00000000000E+00 -0.45593999997E+02  0.45594000000E+02  0.51100000000E-03 0.  1.
         23    2    1    2    0    0  0.35527136788E-14  0.00000000000E+00 -0.35527136788E-14  0.91188000000E+02  0.91188000000E+02 0.  0.
    9900012    2    3    3    0    0  0.23095663931E+02 -0.72774133872E+01 -0.27738286047E+02  0.54367041962E+02  0.39999903760E+02 0.  0.
         12    1    3    3    0    0 -0.23095663931E+02  0.72774133872E+01  0.27738286047E+02  0.36820958038E+02  0.00000000000E+00 0. -1.
         11    1    4    4    0    0  0.15430749000E+02 -0.94006715315E+01 -0.32944527097E+02  0.37574226616E+02  0.51100000000E-03 0.  1.
        -11    1    4    4    0    0  0.87331507739E+01  0.40214938713E+01  0.85072216506E+01  0.12837957621E+02  0.51100000000E-03 0. -1.
         12    1    4    4    0    0 -0.10682358433E+01 -0.18982357270E+01 -0.33009806013E+01  0.39548577247E+01  0.00000000000E+00 0. -1.
</event>
<event>
 8    1  0.1254059E-006  0.9118800E+02  0.7816164E-02  0.1184000E+00
        -11   -1    0    0    0    0  0.00000000000E+00  0.00000000000E+00  0.45593999997E+02  0.45594000000E+02  0.51100000000E-03 0. -1.
         11   -1    0    0    0    0 -0.00000000000E+00 -0.00000000000E+00 -0.45593999997E+02  0.45594000000E+02  0.51100000000E-03 0.  1.
         23    2    1    2    0    0  0.00000000000E+00 -0.35527136788E-14  0.00000000000E+00  0.91188000000E+02  0.91188000000E+02 0.  0.
    9900012    2    3    3    0    0  0.13265735641E+02 -0.29665979751E+02 -0.17312704913E+02  0.54367084095E+02  0.39999999811E+02 0.  0.
         12    1    3    3    0    0 -0.13265735641E+02  0.29665979751E+02  0.17312704913E+02  0.36820915905E+02  0.00000000000E+00 0. -1.
         11    1    4    4    0    0  0.54191155932E+01 -0.17165001943E+01 -0.12331515542E+02  0.13578639938E+02  0.51100000000E-03 0. -1.
        -11    1    4    4    0    0 -0.10243316685E+02 -0.13532753760E+02 -0.48662322686E+01  0.17656193751E+02  0.51100000000E-03 0.  1.
         12    1    4    4    0    0  0.18089936733E+02 -0.14416725797E+02 -0.11495710195E+00  0.23132250406E+02  0.00000000000E+00 0. -1.
</event>
<event>
 8    1  0.1254059E-006  0.9118800E+02  0.7816164E-02  0.1184000E+00
        -11   -1    0    0    0    0  0.00000000000E+00  0.00000000000E+00  0.45593999997E+02  0.45594000000E+02  0.51100000000E-03 0.  1.
         11   -1    0    0    0    0 -0.00000000000E+00 -0.00000000000E+00 -0.45593999997E+02  0.45594000000E+02  0.51100000000E-03 0. -1.
         23    2    1    2    0    0  0.35527136788E-14 -0.35527136788E-14  0.35527136788E-14  0.91188000000E+02  0.91188000000E+02 0.  0.
    9900012    2    3    3    0    0  0.19776315813E+02 -0.24145580663E+02  0.19536339089E+02  0.54367078262E+02  0.39999986513E+02 0.  0.
         12    1    3    3    0    0 -0.19776315813E+02  0.24145580663E+02 -0.19536339089E+02  0.36820921738E+02  0.00000000000E+00 0. -1.
         11    1    4    4    0    0 -0.38375299185E+01 -0.11995157256E+02  0.72552158824E+01  0.14534393391E+02  0.51100000000E-03 0.  1.
        -11    1    4    4    0    0  0.14472216902E+02 -0.20778562846E+02  0.82025111423E+01  0.26617192288E+02  0.51100000000E-03 0. -1.
         12    1    4    4    0    0  0.91416288286E+01  0.86281394397E+01  0.40786120643E+01  0.13215492583E+02  0.00000000000E+00 0. -1.
</event>
<event>
 8    1  0.1254059E-006  0.9118800E+02  0.7816164E-02  0.1184000E+00
        -11   -1    0    0    0    0  0.00000000000E+00  0.00000000000E+00  0.45593999997E+02  0.45594000000E+02  0.51100000000E-03 0.  1.
         11   -1    0    0    0    0 -0.00000000000E+00 -0.00000000000E+00 -0.45593999997E+02  0.45594000000E+02  0.51100000000E-03 0. -1.
         23    2    1    2    0    0  0.00000000000E+00  0.35527136788E-14  0.00000000000E+00  0.91188000000E+02  0.91188000000E+02 0.  0.
    9900012    2    3    3    0    0  0.78783491393E+01  0.16304726572E+02  0.32060358811E+02  0.54367094242E+02  0.40000022943E+02 0.  0.
         12    1    3    3    0    0 -0.78783491393E+01 -0.16304726572E+02 -0.32060358811E+02  0.36820905758E+02  0.00000000000E+00 0. -1.
         11    1    4    4    0    0  0.28485216940E+01 -0.54532400200E-01  0.22918065697E+01  0.36564227379E+01  0.51100000000E-03 0. -1.
        -11    1    4    4    0    0  0.17662433587E+02  0.20941176793E+02  0.17448451727E+02  0.32479884753E+02  0.51100000000E-03 0.  1.
         12    1    4    4    0    0 -0.12632606141E+02 -0.45819178215E+01  0.12320100515E+02  0.18230786751E+02  0.00000000000E+00 0. -1.
</event>
<event>
 8    1  0.1254059E-006  0.9118800E+02  0.7816164E-02  0.1184000E+00
        -11   -1    0    0    0    0  0.00000000000E+00  0.00000000000E+00  0.45593999997E+02  0.45594000000E+02  0.51100000000E-03 0.  1.
         11   -1    0    0    0    0 -0.00000000000E+00 -0.00000000000E+00 -0.45593999997E+02  0.45594000000E+02  0.51100000000E-03 0. -1.
         23    2    1    2    0    0 -0.11102230246E-14  0.00000000000E+00 -0.17763568394E-14  0.91188000000E+02  0.91188000000E+02 0.  0.
    9900012    2    3    3    0    0 -0.18162789497E+01  0.33800010396E+02  0.14492741343E+02  0.54367093932E+02  0.40000022237E+02 0.  0.
         12    1    3    3    0    0  0.18162789497E+01 -0.33800010396E+02 -0.14492741343E+02  0.36820906068E+02  0.00000000000E+00 0. -1.
         11    1    4    4    0    0  0.10686404329E+02  0.14501293421E+02  0.98947264521E+00  0.18040670851E+02  0.51100000000E-03 0. -1.
        -11    1    4    4    0    0  0.67407996299E+01  0.37242018210E+01  0.77181451307E+01  0.10903110720E+02  0.51100000000E-03 0.  1.
        -12    1    4    4    0    0 -0.19243482909E+02  0.15574515154E+02  0.57851235673E+01  0.25423312362E+02  0.00000000000E+00 0.  1.
</event>
<event>
 8    1  0.1254059E-006  0.9118800E+02  0.7816164E-02  0.1184000E+00
        -11   -1    0    0    0    0  0.00000000000E+00  0.00000000000E+00  0.45593999997E+02  0.45594000000E+02  0.51100000000E-03 0. -1.
         11   -1    0    0    0    0 -0.00000000000E+00 -0.00000000000E+00 -0.45593999997E+02  0.45594000000E+02  0.51100000000E-03 0.  1.
         23    2    1    2    0    0  0.35527136788E-14  0.17763568394E-14  0.35527136788E-14  0.91188000000E+02  0.91188000000E+02 0.  0.
    9900012    2    3    3    0    0 -0.25154250590E+02 -0.13164284960E+02 -0.23446736954E+02  0.54367025067E+02  0.39999865244E+02 0.  0.
         12    1    3    3    0    0  0.25154250590E+02  0.13164284960E+02  0.23446736954E+02  0.36820974933E+02  0.00000000000E+00 0. -1.
         11    1    4    4    0    0 -0.13901575905E+02 -0.72600472222E+01  0.94758567096E+01  0.18323590231E+02  0.51100000000E-03 0. -1.
        -11    1    4    4    0    0 -0.38599498274E+01  0.13932644434E+01 -0.69582051926E+01  0.80781816173E+01  0.51100000000E-03 0.  1.
        -12    1    4    4    0    0 -0.73927248581E+01 -0.72975021815E+01 -0.25964388471E+02  0.27965253219E+02  0.00000000000E+00 0.  1.
</event>
<event>
 8    1  0.1254059E-006  0.9118800E+02  0.7816164E-02  0.1184000E+00
        -11   -1    0    0    0    0  0.00000000000E+00  0.00000000000E+00  0.45593999997E+02  0.45594000000E+02  0.51100000000E-03 0. -1.
         11   -1    0    0    0    0 -0.00000000000E+00 -0.00000000000E+00 -0.45593999997E+02  0.45594000000E+02  0.51100000000E-03 0.  1.
         23    2    1    2    0    0  0.12559397966E-14  0.00000000000E+00  0.00000000000E+00  0.91188000000E+02  0.91188000000E+02 0.  0.
    9900012    2    3    3    0    0  0.53614355751E-01  0.40513838045E+01  0.36597221970E+02  0.54367173812E+02  0.40000204339E+02 0.  0.
        -12    1    3    3    0    0 -0.53614355751E-01 -0.40513838045E+01 -0.36597221970E+02  0.36820826188E+02  0.00000000000E+00 0.  1.
         11    1    4    4    0    0 -0.11884391090E+02 -0.10204590670E+02  0.12228112335E+02  0.19872069692E+02  0.51100000000E-03 0. -1.
        -11    1    4    4    0    0  0.47187760395E+01 -0.29636255691E+01  0.74090968250E+01  0.92706331957E+01  0.51100000000E-03 0.  1.
         12    1    4    4    0    0  0.72192294065E+01  0.17219600043E+02  0.16960012810E+02  0.25224470924E+02  0.00000000000E+00 0. -1.
</event>
<event>
 8    1  0.1254059E-006  0.9118800E+02  0.7816164E-02  0.1184000E+00
        -11   -1    0    0    0    0  0.00000000000E+00  0.00000000000E+00  0.45593999997E+02  0.45594000000E+02  0.51100000000E-03 0. -1.
         11   -1    0    0    0    0 -0.00000000000E+00 -0.00000000000E+00 -0.45593999997E+02  0.45594000000E+02  0.51100000000E-03 0.  1.
         23    2    1    2    0    0  0.00000000000E+00  0.35527136788E-14  0.17763568394E-14  0.91188000000E+02  0.91188000000E+02 0.  0.
    9900012    2    3    3    0    0 -0.23458747030E+02 -0.24334159645E+02 -0.14604709309E+02  0.54367330916E+02  0.40000562485E+02 0.  0.
         12    1    3    3    0    0  0.23458747030E+02  0.24334159645E+02  0.14604709309E+02  0.36820669084E+02  0.00000000000E+00 0. -1.
         11    1    4    4    0    0 -0.21306866034E+00 -0.12405495999E+02 -0.57701418463E+01  0.13683430360E+02  0.51100000000E-03 0. -1.
        -11    1    4    4    0    0 -0.35776109036E+01 -0.24686057972E+01 -0.16874419803E+02  0.17425250595E+02  0.51100000000E-03 0.  1.
        -12    1    4    4    0    0 -0.19668067466E+02 -0.94600578483E+01  0.80398523399E+01  0.23258649961E+02  0.00000000000E+00 0.  1.
</event>
<event>
 8    1  0.1254059E-006  0.9118800E+02  0.7816164E-02  0.1184000E+00
        -11   -1    0    0    0    0  0.00000000000E+00  0.00000000000E+00  0.45593999997E+02  0.45594000000E+02  0.51100000000E-03 0.  1.
         11   -1    0    0    0    0 -0.00000000000E+00 -0.00000000000E+00 -0.45593999997E+02  0.45594000000E+02  0.51100000000E-03 0. -1.
         23    2    1    2    0    0  0.00000000000E+00 -0.35527136788E-14 -0.71054273576E-14  0.91188000000E+02  0.91188000000E+02 0.  0.
    9900012    2    3    3    0    0  0.21342970208E+02  0.16365504061E+02  0.25148085907E+02  0.54367104774E+02  0.40000046953E+02 0.  0.
         12    1    3    3    0    0 -0.21342970208E+02 -0.16365504061E+02 -0.25148085907E+02  0.36820895226E+02  0.00000000000E+00 0. -1.
         11    1    4    4    0    0  0.50217574905E+01  0.18796974382E+02  0.35292690955E-01  0.19456246813E+02  0.51100000000E-03 0. -1.
        -11    1    4    4    0    0 -0.19241565602E+01  0.25547340130E+01 -0.32160579743E+00  0.32144167271E+01  0.51100000000E-03 0.  1.
        -12    1    4    4    0    0  0.18245369278E+02 -0.49862043338E+01  0.25434399013E+02  0.31696441234E+02  0.00000000000E+00 0.  1.
</event>
<event>
 8    1  0.1254059E-006  0.9118800E+02  0.7816164E-02  0.1184000E+00
        -11   -1    0    0    0    0  0.00000000000E+00  0.00000000000E+00  0.45593999997E+02  0.45594000000E+02  0.51100000000E-03 0.  1.
         11   -1    0    0    0    0 -0.00000000000E+00 -0.00000000000E+00 -0.45593999997E+02  0.45594000000E+02  0.51100000000E-03 0. -1.
         23    2    1    2    0    0  0.88817841970E-15  0.00000000000E+00  0.00000000000E+00  0.91188000000E+02  0.91188000000E+02 0.  0.
    9900012    2    3    3    0    0  0.25805649377E+01 -0.30327506657E+02 -0.20721071163E+02  0.54367085215E+02  0.40000002365E+02 0.  0.
        -12    1    3    3    0    0 -0.25805649377E+01  0.30327506657E+02  0.20721071163E+02  0.36820914785E+02  0.00000000000E+00 0.  1.
         11    1    4    4    0    0  0.85505452595E+01 -0.27652191921E+02 -0.16574712012E+02  0.33353809689E+02  0.51100000000E-03 0.  1.
        -11    1    4    4    0    0 -0.10128340343E+02  0.47488447102E+01 -0.53835355842E+01  0.12414397280E+02  0.51100000000E-03 0. -1.
        -12    1    4    4    0    0  0.41583600210E+01 -0.74241594471E+01  0.12371764335E+01  0.85988782459E+01  0.00000000000E+00 0.  1.
</event>
<event>
 8    1  0.1254059E-006  0.9118800E+02  0.7816164E-02  0.1184000E+00
        -11   -1    0    0    0    0  0.00000000000E+00  0.00000000000E+00  0.45593999997E+02  0.45594000000E+02  0.51100000000E-03 0. -1.
         11   -1    0    0    0    0 -0.00000000000E+00 -0.00000000000E+00 -0.45593999997E+02  0.45594000000E+02  0.51100000000E-03 0.  1.
         23    2    1    2    0    0 -0.35527136788E-14  0.16653345369E-15  0.00000000000E+00  0.91188000000E+02  0.91188000000E+02 0.  0.
    9900012    2    3    3    0    0 -0.31436420880E+02  0.45075865660E+00 -0.19166244176E+02  0.54366855844E+02  0.39999479465E+02 0.  0.
         12    1    3    3    0    0  0.31436420880E+02 -0.45075865660E+00  0.19166244176E+02  0.36821144156E+02  0.00000000000E+00 0. -1.
         11    1    4    4    0    0  0.26428735069E+01  0.96375540451E+01 -0.82249314820E+00  0.10027149325E+02  0.51100000000E-03 0. -1.
        -11    1    4    4    0    0 -0.11870092755E+02 -0.10361907077E+02 -0.15173325050E+02  0.21874597451E+02  0.51100000000E-03 0.  1.
         12    1    4    4    0    0 -0.22209201631E+02  0.11751116883E+01 -0.31704259777E+01  0.22465109069E+02  0.00000000000E+00 0. -1.
</event>
<event>
 8    1  0.1254059E-006  0.9118800E+02  0.7816164E-02  0.1184000E+00
        -11   -1    0    0    0    0  0.00000000000E+00  0.00000000000E+00  0.45593999997E+02  0.45594000000E+02  0.51100000000E-03 0. -1.
         11   -1    0    0    0    0 -0.00000000000E+00 -0.00000000000E+00 -0.45593999997E+02  0.45594000000E+02  0.51100000000E-03 0.  1.
         23    2    1    2    0    0  0.00000000000E+00  0.17763568394E-14  0.13322676296E-14  0.91188000000E+02  0.91188000000E+02 0.  0.
    9900012    2    3    3    0    0  0.36331180196E+02 -0.54868889224E+01 -0.23914898993E+01  0.54367084362E+02  0.40000000420E+02 0.  0.
         12    1    3    3    0    0 -0.36331180196E+02  0.54868889224E+01  0.23914898993E+01  0.36820915638E+02  0.00000000000E+00 0. -1.
         11    1    4    4    0    0  0.73507059539E+01 -0.15462842387E+00 -0.73153341154E+01  0.10371639285E+02  0.51100000000E-03 0.  1.
        -11    1    4    4    0    0  0.31197535897E+02  0.63350659253E+01  0.39758716491E+01  0.32081565766E+02  0.51100000000E-03 0. -1.
         12    1    4    4    0    0 -0.22170616552E+01 -0.11667326424E+02  0.94797256698E+00  0.11913879312E+02  0.00000000000E+00 0. -1.
</event>
<event>
 8    1  0.1254059E-006  0.9118800E+02  0.7816164E-02  0.1184000E+00
        -11   -1    0    0    0    0  0.00000000000E+00  0.00000000000E+00  0.45593999997E+02  0.45594000000E+02  0.51100000000E-03 0. -1.
         11   -1    0    0    0    0 -0.00000000000E+00 -0.00000000000E+00 -0.45593999997E+02  0.45594000000E+02  0.51100000000E-03 0.  1.
         23    2    1    2    0    0  0.00000000000E+00  0.00000000000E+00  0.00000000000E+00  0.91188000000E+02  0.91188000000E+02 0.  0.
    9900012    2    3    3    0    0  0.11155581351E+02  0.18443407710E+02 -0.29852552758E+02  0.54367065881E+02  0.39999958288E+02 0.  0.
         12    1    3    3    0    0 -0.11155581351E+02 -0.18443407710E+02  0.29852552758E+02  0.36820934119E+02  0.00000000000E+00 0. -1.
         11    1    4    4    0    0  0.25583896603E+01  0.16209660937E+01 -0.79518141923E+00  0.31313259941E+01  0.51100000000E-03 0. -1.
        -11    1    4    4    0    0  0.12628230657E+02  0.22124307681E+02 -0.34324179635E+02  0.42744666425E+02  0.51100000000E-03 0.  1.
         12    1    4    4    0    0 -0.40310389663E+01 -0.53018660643E+01  0.52668082960E+01  0.84910734621E+01  0.00000000000E+00 0. -1.
</event>
<event>
 8    1  0.1254059E-006  0.9118800E+02  0.7816164E-02  0.1184000E+00
        -11   -1    0    0    0    0  0.00000000000E+00  0.00000000000E+00  0.45593999997E+02  0.45594000000E+02  0.51100000000E-03 0. -1.
         11   -1    0    0    0    0 -0.00000000000E+00 -0.00000000000E+00 -0.45593999997E+02  0.45594000000E+02  0.51100000000E-03 0.  1.
         23    2    1    2    0    0  0.00000000000E+00 -0.44408920985E-15 -0.17763568394E-14  0.91188000000E+02  0.91188000000E+02 0.  0.
    9900012    2    3    3    0    0 -0.34100095677E+02  0.28298603147E+01  0.13599818977E+02  0.54367085959E+02  0.40000004062E+02 0.  0.
         12    1    3    3    0    0  0.34100095677E+02 -0.28298603147E+01 -0.13599818977E+02  0.36820914041E+02  0.00000000000E+00 0. -1.
         11    1    4    4    0    0 -0.86884917531E+01  0.21647183262E+01  0.18144010367E+02  0.20233166011E+02  0.51100000000E-03 0. -1.
        -11    1    4    4    0    0 -0.15880721495E+02 -0.10840896509E+00  0.84589059285E+01  0.17993392050E+02  0.51100000000E-03 0.  1.
        -12    1    4    4    0    0 -0.95308824294E+01  0.77355095352E+00 -0.13003097319E+02  0.16140527899E+02  0.00000000000E+00 0.  1.
</event>
<event>
 8    1  0.1254059E-006  0.9118800E+02  0.7816164E-02  0.1184000E+00
        -11   -1    0    0    0    0  0.00000000000E+00  0.00000000000E+00  0.45593999997E+02  0.45594000000E+02  0.51100000000E-03 0.  1.
         11   -1    0    0    0    0 -0.00000000000E+00 -0.00000000000E+00 -0.45593999997E+02  0.45594000000E+02  0.51100000000E-03 0. -1.
         23    2    1    2    0    0  0.35527136788E-14 -0.35527136788E-14  0.00000000000E+00  0.91188000000E+02  0.91188000000E+02 0.  0.
    9900012    2    3    3    0    0 -0.26316968409E+02 -0.13356538121E+02  0.22018179401E+02  0.54367079846E+02  0.39999990125E+02 0.  0.
         12    1    3    3    0    0  0.26316968409E+02  0.13356538121E+02 -0.22018179401E+02  0.36820920154E+02  0.00000000000E+00 0. -1.
         11    1    4    4    0    0 -0.26198111610E+02 -0.21826021200E+02  0.22111983946E+02  0.40640571940E+02  0.51100000000E-03 0. -1.
        -11    1    4    4    0    0 -0.41316824386E+01  0.86510560535E+01 -0.90092843489E+00  0.96292908835E+01  0.51100000000E-03 0.  1.
         12    1    4    4    0    0  0.40128256390E+01 -0.18157297461E+00  0.80712388990E+00  0.40972170223E+01  0.00000000000E+00 0. -1.
</event>
<event>
 8    1  0.1254059E-006  0.9118800E+02  0.7816164E-02  0.1184000E+00
        -11   -1    0    0    0    0  0.00000000000E+00  0.00000000000E+00  0.45593999997E+02  0.45594000000E+02  0.51100000000E-03 0. -1.
         11   -1    0    0    0    0 -0.00000000000E+00 -0.00000000000E+00 -0.45593999997E+02  0.45594000000E+02  0.51100000000E-03 0.  1.
         23    2    1    2    0    0  0.00000000000E+00  0.35527136788E-14 -0.35527136788E-14  0.91188000000E+02  0.91188000000E+02 0.  0.
    9900012    2    3    3    0    0 -0.26794659221E+02  0.18514814187E+02 -0.17176372065E+02  0.54367083872E+02  0.39999999304E+02 0.  0.
         12    1    3    3    0    0  0.26794659221E+02 -0.18514814187E+02  0.17176372065E+02  0.36820916128E+02  0.00000000000E+00 0. -1.
         11    1    4    4    0    0 -0.19622690657E+02  0.18428341286E+01  0.61018420911E+01  0.20631977690E+02  0.51100000000E-03 0. -1.
        -11    1    4    4    0    0 -0.70903485752E+01  0.19260284167E+02 -0.23421463392E+02  0.31141556429E+02  0.51100000000E-03 0.  1.
         12    1    4    4    0    0 -0.81619988522E-01 -0.25883041080E+01  0.14324923620E+00  0.25935497531E+01  0.00000000000E+00 0. -1.
</event>
<event>
 8    1  0.1254059E-006  0.9118800E+02  0.7816164E-02  0.1184000E+00
        -11   -1    0    0    0    0  0.00000000000E+00  0.00000000000E+00  0.45593999997E+02  0.45594000000E+02  0.51100000000E-03 0.  1.
         11   -1    0    0    0    0 -0.00000000000E+00 -0.00000000000E+00 -0.45593999997E+02  0.45594000000E+02  0.51100000000E-03 0. -1.
         23    2    1    2    0    0  0.00000000000E+00  0.00000000000E+00  0.35527136788E-14  0.91188000000E+02  0.91188000000E+02 0.  0.
    9900012    2    3    3    0    0  0.70045737195E+00  0.33708603331E+02  0.14799287462E+02  0.54367088979E+02  0.40000010944E+02 0.  0.
         12    1    3    3    0    0 -0.70045737195E+00 -0.33708603331E+02 -0.14799287462E+02  0.36820911021E+02  0.00000000000E+00 0. -1.
         11    1    4    4    0    0  0.36943153615E+01  0.15515016162E+02 -0.11853598190E+02  0.19871373451E+02  0.51100000000E-03 0. -1.
        -11    1    4    4    0    0 -0.30487848861E+01  0.56357058691E+00  0.91159731655E+01  0.96287936993E+01  0.51100000000E-03 0.  1.
         12    1    4    4    0    0  0.54926896532E-01  0.17630016582E+02  0.17536912487E+02  0.24866921828E+02  0.00000000000E+00 0. -1.
</event>
<event>
 8    1  0.1254059E-006  0.9118800E+02  0.7816164E-02  0.1184000E+00
        -11   -1    0    0    0    0  0.00000000000E+00  0.00000000000E+00  0.45593999997E+02  0.45594000000E+02  0.51100000000E-03 0.  1.
         11   -1    0    0    0    0 -0.00000000000E+00 -0.00000000000E+00 -0.45593999997E+02  0.45594000000E+02  0.51100000000E-03 0. -1.
         23    2    1    2    0    0 -0.17763568394E-14  0.00000000000E+00  0.00000000000E+00  0.91188000000E+02  0.91188000000E+02 0.  0.
    9900012    2    3    3    0    0 -0.87908116375E+01 -0.32222709956E+02  0.15498150976E+02  0.54367162288E+02  0.40000178068E+02 0.  0.
         12    1    3    3    0    0  0.87908116375E+01  0.32222709956E+02 -0.15498150976E+02  0.36820837712E+02  0.00000000000E+00 0. -1.
         11    1    4    4    0    0  0.88499205744E+01 -0.27251352075E+01 -0.51534236745E+00  0.92743212198E+01  0.51100000000E-03 0. -1.
        -11    1    4    4    0    0 -0.23397242463E+02 -0.24841121413E+02  0.15997856124E+02  0.37688773776E+02  0.51100000000E-03 0.  1.
        -12    1    4    4    0    0  0.57565102513E+01 -0.46564533358E+01  0.15637218748E-01  0.74040672920E+01  0.00000000000E+00 0.  1.
</event>
<event>
 8    1  0.1254059E-006  0.9118800E+02  0.7816164E-02  0.1184000E+00
        -11   -1    0    0    0    0  0.00000000000E+00  0.00000000000E+00  0.45593999997E+02  0.45594000000E+02  0.51100000000E-03 0.  1.
         11   -1    0    0    0    0 -0.00000000000E+00 -0.00000000000E+00 -0.45593999997E+02  0.45594000000E+02  0.51100000000E-03 0. -1.
         23    2    1    2    0    0  0.00000000000E+00  0.88817841970E-15 -0.10658141036E-13  0.91188000000E+02  0.91188000000E+02 0.  0.
    9900012    2    3    3    0    0 -0.28857595899E+02  0.14372951450E+01 -0.22824388770E+02  0.54367090436E+02  0.40000014266E+02 0.  0.
        -12    1    3    3    0    0  0.28857595899E+02 -0.14372951450E+01  0.22824388770E+02  0.36820909564E+02  0.00000000000E+00 0.  1.
         11    1    4    4    0    0 -0.90964307633E+01 -0.19978196479E+01  0.45840723019E+01  0.10380272400E+02  0.51100000000E-03 0. -1.
        -11    1    4    4    0    0 -0.92507573772E+01 -0.86536583914E+01 -0.50745238427E+00  0.12677532244E+02  0.51100000000E-03 0.  1.
         12    1    4    4    0    0 -0.10510407759E+02  0.12088773184E+02 -0.26901008688E+02  0.31309285791E+02  0.00000000000E+00 0. -1.
</event>
<event>
 8    1  0.1254059E-006  0.9118800E+02  0.7816164E-02  0.1184000E+00
        -11   -1    0    0    0    0  0.00000000000E+00  0.00000000000E+00  0.45593999997E+02  0.45594000000E+02  0.51100000000E-03 0.  1.
         11   -1    0    0    0    0 -0.00000000000E+00 -0.00000000000E+00 -0.45593999997E+02  0.45594000000E+02  0.51100000000E-03 0. -1.
         23    2    1    2    0    0 -0.35527136788E-14  0.00000000000E+00 -0.35527136788E-14  0.91188000000E+02  0.91188000000E+02 0.  0.
    9900012    2    3    3    0    0 -0.19937633384E+02 -0.21249712524E+02 -0.22510462495E+02  0.54367076206E+02  0.39999981827E+02 0.  0.
        -12    1    3    3    0    0  0.19937633384E+02  0.21249712524E+02  0.22510462495E+02  0.36820923794E+02  0.00000000000E+00 0.  1.
         11    1    4    4    0    0 -0.16031748385E+02  0.56613465350E+01 -0.10178624080E+02  0.19815957945E+02  0.51100000000E-03 0. -1.
        -11    1    4    4    0    0  0.56704250218E+01 -0.72066727239E+01  0.46048617102E+00  0.91816065834E+01  0.51100000000E-03 0.  1.
        -12    1    4    4    0    0 -0.95763100212E+01 -0.19704386335E+02 -0.12792324586E+02  0.25369511678E+02  0.00000000000E+00 0.  1.
</event>
<event>
 8    1  0.1254059E-006  0.9118800E+02  0.7816164E-02  0.1184000E+00
        -11   -1    0    0    0    0  0.00000000000E+00  0.00000000000E+00  0.45593999997E+02  0.45594000000E+02  0.51100000000E-03 0. -1.
         11   -1    0    0    0    0 -0.00000000000E+00 -0.00000000000E+00 -0.45593999997E+02  0.45594000000E+02  0.51100000000E-03 0.  1.
         23    2    1    2    0    0 -0.35527136788E-14  0.71054273576E-14 -0.17763568394E-14  0.91188000000E+02  0.91188000000E+02 0.  0.
    9900012    2    3    3    0    0 -0.12505750118E+02  0.32966535112E+02 -0.10611650820E+02  0.54366900662E+02  0.39999581637E+02 0.  0.
        -12    1    3    3    0    0  0.12505750118E+02 -0.32966535112E+02  0.10611650820E+02  0.36821099338E+02  0.00000000000E+00 0.  1.
         11    1    4    4    0    0 -0.42170835465E+01  0.14845675738E+02 -0.39084776897E+01  0.15920241200E+02  0.51100000000E-03 0. -1.
        -11    1    4    4    0    0  0.79856905265E+01  0.11311344417E+02  0.75463035257E+01  0.15769098353E+02  0.51100000000E-03 0.  1.
        -12    1    4    4    0    0 -0.16274357098E+02  0.68095149576E+01 -0.14249476656E+02  0.22677561109E+02  0.00000000000E+00 0.  1.
</event>
<event>
 8    1  0.1254059E-006  0.9118800E+02  0.7816164E-02  0.1184000E+00
        -11   -1    0    0    0    0  0.00000000000E+00  0.00000000000E+00  0.45593999997E+02  0.45594000000E+02  0.51100000000E-03 0.  1.
         11   -1    0    0    0    0 -0.00000000000E+00 -0.00000000000E+00 -0.45593999997E+02  0.45594000000E+02  0.51100000000E-03 0. -1.
         23    2    1    2    0    0 -0.53290705182E-14  0.00000000000E+00  0.00000000000E+00  0.91188000000E+02  0.91188000000E+02 0.  0.
    9900012    2    3    3    0    0 -0.39197206031E+01 -0.13896369624E+02 -0.33871903133E+02  0.54367093979E+02  0.40000022344E+02 0.  0.
        -12    1    3    3    0    0  0.39197206031E+01  0.13896369624E+02  0.33871903133E+02  0.36820906021E+02  0.00000000000E+00 0.  1.
         11    1    4    4    0    0 -0.98851336698E+01 -0.11631235710E+02 -0.11226110420E+02  0.18948009585E+02  0.51100000000E-03 0. -1.
        -11    1    4    4    0    0  0.16351103707E+02  0.88285108388E+00 -0.13999550250E+02  0.21543570408E+02  0.51100000000E-03 0.  1.
        -12    1    4    4    0    0 -0.10385690641E+02 -0.31479849985E+01 -0.86462424635E+01  0.13875513986E+02  0.00000000000E+00 0.  1.
</event>
<event>
 8    1  0.1254059E-006  0.9118800E+02  0.7816164E-02  0.1184000E+00
        -11   -1    0    0    0    0  0.00000000000E+00  0.00000000000E+00  0.45593999997E+02  0.45594000000E+02  0.51100000000E-03 0.  1.
         11   -1    0    0    0    0 -0.00000000000E+00 -0.00000000000E+00 -0.45593999997E+02  0.45594000000E+02  0.51100000000E-03 0. -1.
         23    2    1    2    0    0 -0.44408920985E-15  0.88817841970E-15  0.00000000000E+00  0.91188000000E+02  0.91188000000E+02 0.  0.
    9900012    2    3    3    0    0 -0.25452273669E+01 -0.79718363743E+01 -0.35857388695E+02  0.54367072777E+02  0.39999974011E+02 0.  0.
        -12    1    3    3    0    0  0.25452273669E+01  0.79718363743E+01  0.35857388695E+02  0.36820927223E+02  0.00000000000E+00 0.  1.
         11    1    4    4    0    0  0.80523277961E+01 -0.10805287047E+02 -0.16825284014E+02  0.21556539460E+02  0.51100000000E-03 0. -1.
        -11    1    4    4    0    0 -0.16285545978E+02 -0.46539118165E+01 -0.94937388532E+01  0.19416719102E+02  0.51100000000E-03 0.  1.
         12    1    4    4    0    0  0.56879908153E+01  0.74873624893E+01 -0.95383658278E+01  0.13393814215E+02  0.00000000000E+00 0. -1.
</event>
<event>
 8    1  0.1254059E-006  0.9118800E+02  0.7816164E-02  0.1184000E+00
        -11   -1    0    0    0    0  0.00000000000E+00  0.00000000000E+00  0.45593999997E+02  0.45594000000E+02  0.51100000000E-03 0. -1.
         11   -1    0    0    0    0 -0.00000000000E+00 -0.00000000000E+00 -0.45593999997E+02  0.45594000000E+02  0.51100000000E-03 0.  1.
         23    2    1    2    0    0  0.00000000000E+00  0.00000000000E+00 -0.17763568394E-14  0.91188000000E+02  0.91188000000E+02 0.  0.
    9900012    2    3    3    0    0  0.23271300109E+02 -0.26995064592E+02  0.92462361636E+01  0.54367084690E+02  0.40000001167E+02 0.  0.
        -12    1    3    3    0    0 -0.23271300109E+02  0.26995064592E+02 -0.92462361636E+01  0.36820915310E+02  0.00000000000E+00 0.  1.
         11    1    4    4    0    0  0.21422444277E+02 -0.10522249996E+01 -0.52282621851E+01  0.22076300007E+02  0.51100000000E-03 0. -1.
        -11    1    4    4    0    0  0.17724292758E+01 -0.13147474224E+02  0.40448920995E+00  0.13272573065E+02  0.51100000000E-03 0.  1.
         12    1    4    4    0    0  0.76426555850E-01 -0.12795365369E+02  0.14070009139E+02  0.19018211617E+02  0.00000000000E+00 0. -1.
</event>
<event>
 8    1  0.1254059E-006  0.9118800E+02  0.7816164E-02  0.1184000E+00
        -11   -1    0    0    0    0  0.00000000000E+00  0.00000000000E+00  0.45593999997E+02  0.45594000000E+02  0.51100000000E-03 0. -1.
         11   -1    0    0    0    0 -0.00000000000E+00 -0.00000000000E+00 -0.45593999997E+02  0.45594000000E+02  0.51100000000E-03 0.  1.
         23    2    1    2    0    0  0.00000000000E+00  0.00000000000E+00  0.88817841970E-15  0.91188000000E+02  0.91188000000E+02 0.  0.
    9900012    2    3    3    0    0  0.32492154875E+02  0.15787684340E+02 -0.71266419557E+01  0.54367080255E+02  0.39999991058E+02 0.  0.
        -12    1    3    3    0    0 -0.32492154875E+02 -0.15787684340E+02  0.71266419557E+01  0.36820919745E+02  0.00000000000E+00 0.  1.
         11    1    4    4    0    0  0.44653351323E+01  0.21671820455E+01  0.75181388799E+01  0.90087906148E+01  0.51100000000E-03 0.  1.
        -11    1    4    4    0    0  0.22364704693E+02  0.28992768319E+01  0.42101723611E+01  0.22941477148E+02  0.51100000000E-03 0. -1.
        -12    1    4    4    0    0  0.56621150498E+01  0.10721225463E+02 -0.18854953197E+02  0.22416812492E+02  0.00000000000E+00 0.  1.
</event>
<event>
 8    1  0.1254059E-006  0.9118800E+02  0.7816164E-02  0.1184000E+00
        -11   -1    0    0    0    0  0.00000000000E+00  0.00000000000E+00  0.45593999997E+02  0.45594000000E+02  0.51100000000E-03 0.  1.
         11   -1    0    0    0    0 -0.00000000000E+00 -0.00000000000E+00 -0.45593999997E+02  0.45594000000E+02  0.51100000000E-03 0. -1.
         23    2    1    2    0    0  0.00000000000E+00 -0.88817841970E-15  0.00000000000E+00  0.91188000000E+02  0.91188000000E+02 0.  0.
    9900012    2    3    3    0    0  0.25107505865E+02  0.48875397205E+01 -0.26485805550E+02  0.54367179926E+02  0.40000218276E+02 0.  0.
        -12    1    3    3    0    0 -0.25107505865E+02 -0.48875397205E+01  0.26485805550E+02  0.36820820074E+02  0.00000000000E+00 0.  1.
         11    1    4    4    0    0  0.12797931102E+02  0.96306282608E+01 -0.25932740317E+02  0.30480207706E+02  0.51100000000E-03 0. -1.
        -11    1    4    4    0    0  0.16155103602E+02 -0.78420415803E+01 -0.32655002560E+01  0.18252355484E+02  0.51100000000E-03 0.  1.
        -12    1    4    4    0    0 -0.38455288392E+01  0.30989530399E+01  0.27124350230E+01  0.56346167350E+01  0.00000000000E+00 0.  1.
</event>
<event>
 8    1  0.1254059E-006  0.9118800E+02  0.7816164E-02  0.1184000E+00
        -11   -1    0    0    0    0  0.00000000000E+00  0.00000000000E+00  0.45593999997E+02  0.45594000000E+02  0.51100000000E-03 0.  1.
         11   -1    0    0    0    0 -0.00000000000E+00 -0.00000000000E+00 -0.45593999997E+02  0.45594000000E+02  0.51100000000E-03 0. -1.
         23    2    1    2    0    0  0.00000000000E+00 -0.35527136788E-14 -0.44408920985E-15  0.91188000000E+02  0.91188000000E+02 0.  0.
    9900012    2    3    3    0    0  0.19569913890E+02  0.31170281656E+02 -0.11011172864E+01  0.54367075956E+02  0.39999981258E+02 0.  0.
        -12    1    3    3    0    0 -0.19569913890E+02 -0.31170281656E+02  0.11011172864E+01  0.36820924044E+02  0.00000000000E+00 0.  1.
         11    1    4    4    0    0 -0.12486441633E+01  0.18944845494E+02  0.22305415770E+01  0.19116526855E+02  0.51100000000E-03 0.  1.
        -11    1    4    4    0    0 -0.26296562368E+01 -0.45636120486E+01 -0.36527707080E+01  0.64097098968E+01  0.51100000000E-03 0. -1.
         12    1    4    4    0    0  0.23448214290E+02  0.16789048211E+02  0.32111184465E+00  0.28840839204E+02  0.00000000000E+00 0. -1.
</event>
<event>
 8    1  0.1254059E-006  0.9118800E+02  0.7816164E-02  0.1184000E+00
        -11   -1    0    0    0    0  0.00000000000E+00  0.00000000000E+00  0.45593999997E+02  0.45594000000E+02  0.51100000000E-03 0.  1.
         11   -1    0    0    0    0 -0.00000000000E+00 -0.00000000000E+00 -0.45593999997E+02  0.45594000000E+02  0.51100000000E-03 0. -1.
         23    2    1    2    0    0 -0.88817841970E-15  0.00000000000E+00 -0.71054273576E-14  0.91188000000E+02  0.91188000000E+02 0.  0.
    9900012    2    3    3    0    0  0.50828003272E+01  0.84783302184E+01  0.35469184776E+02  0.54367081881E+02  0.39999994765E+02 0.  0.
         12    1    3    3    0    0 -0.50828003272E+01 -0.84783302184E+01 -0.35469184776E+02  0.36820918119E+02  0.00000000000E+00 0. -1.
         11    1    4    4    0    0  0.19520116838E+01  0.14455222676E+01  0.11387211687E+01  0.26826424288E+01  0.51100000000E-03 0. -1.
        -11    1    4    4    0    0  0.13029639402E+02 -0.24334884683E+00  0.36899676644E+02  0.39133321585E+02  0.51100000000E-03 0.  1.
         12    1    4    4    0    0 -0.98988507584E+01  0.72761567976E+01 -0.25692130372E+01  0.12551117867E+02  0.00000000000E+00 0. -1.
</event>
<event>
 8    1  0.1254059E-006  0.9118800E+02  0.7816164E-02  0.1184000E+00
        -11   -1    0    0    0    0  0.00000000000E+00  0.00000000000E+00  0.45593999997E+02  0.45594000000E+02  0.51100000000E-03 0.  1.
         11   -1    0    0    0    0 -0.00000000000E+00 -0.00000000000E+00 -0.45593999997E+02  0.45594000000E+02  0.51100000000E-03 0. -1.
         23    2    1    2    0    0  0.17763568394E-14 -0.44408920985E-15  0.00000000000E+00  0.91188000000E+02  0.91188000000E+02 0.  0.
    9900012    2    3    3    0    0 -0.11254730656E+02 -0.21636518676E+01  0.34991784419E+02  0.54367145470E+02  0.40000139727E+02 0.  0.
         12    1    3    3    0    0  0.11254730656E+02  0.21636518676E+01 -0.34991784419E+02  0.36820854530E+02  0.00000000000E+00 0. -1.
         11    1    4    4    0    0 -0.79111119220E+01  0.24242422084E+01  0.83185140845E+01  0.11732873432E+02  0.51100000000E-03 0. -1.
        -11    1    4    4    0    0  0.61335933305E+00  0.52217190563E+00 -0.76578507429E+01  0.77001007417E+01  0.51100000000E-03 0.  1.
        -12    1    4    4    0    0 -0.39569780674E+01 -0.51100659817E+01  0.34331121077E+02  0.34934171296E+02  0.00000000000E+00 0.  1.
</event>
<event>
 8    1  0.1254059E-006  0.9118800E+02  0.7816164E-02  0.1184000E+00
        -11   -1    0    0    0    0  0.00000000000E+00  0.00000000000E+00  0.45593999997E+02  0.45594000000E+02  0.51100000000E-03 0.  1.
         11   -1    0    0    0    0 -0.00000000000E+00 -0.00000000000E+00 -0.45593999997E+02  0.45594000000E+02  0.51100000000E-03 0. -1.
         23    2    1    2    0    0  0.00000000000E+00  0.00000000000E+00 -0.13322676296E-14  0.91188000000E+02  0.91188000000E+02 0.  0.
    9900012    2    3    3    0    0  0.32397581553E+02 -0.17205928737E+02 -0.31832759736E+01  0.54367074970E+02  0.39999979009E+02 0.  0.
        -12    1    3    3    0    0 -0.32397581553E+02  0.17205928737E+02  0.31832759736E+01  0.36820925030E+02  0.00000000000E+00 0.  1.
         11    1    4    4    0    0  0.23242712679E+02 -0.47096910664E+01 -0.98939574384E+01  0.25696211329E+02  0.51100000000E-03 0. -1.
        -11    1    4    4    0    0 -0.13042131966E+01  0.27508656837E+00  0.11425669429E+02  0.11503154648E+02  0.51100000000E-03 0.  1.
         12    1    4    4    0    0  0.10459082070E+02 -0.12771324239E+02 -0.47149879645E+01  0.17167708993E+02  0.00000000000E+00 0. -1.
</event>
<event>
 8    1  0.1254059E-006  0.9118800E+02  0.7816164E-02  0.1184000E+00
        -11   -1    0    0    0    0  0.00000000000E+00  0.00000000000E+00  0.45593999997E+02  0.45594000000E+02  0.51100000000E-03 0.  1.
         11   -1    0    0    0    0 -0.00000000000E+00 -0.00000000000E+00 -0.45593999997E+02  0.45594000000E+02  0.51100000000E-03 0. -1.
         23    2    1    2    0    0  0.00000000000E+00  0.00000000000E+00  0.17763568394E-14  0.91188000000E+02  0.91188000000E+02 0.  0.
    9900012    2    3    3    0    0 -0.21103606969E+02 -0.27183342920E+02  0.13095169774E+02  0.54367084330E+02  0.40000000347E+02 0.  0.
        -12    1    3    3    0    0  0.21103606969E+02  0.27183342920E+02 -0.13095169774E+02  0.36820915670E+02  0.00000000000E+00 0.  1.
         11    1    4    4    0    0 -0.91100076246E+00 -0.72478453034E+01 -0.28800065196E+00  0.73105491291E+01  0.51100000000E-03 0. -1.
        -11    1    4    4    0    0 -0.19281058077E+02 -0.19568370980E+02 -0.56096239977E+01  0.28038334919E+02  0.51100000000E-03 0.  1.
        -12    1    4    4    0    0 -0.91154812961E+00 -0.36712663624E+00  0.18992794423E+02  0.19018200282E+02  0.00000000000E+00 0.  1.
</event>
<event>
 8    1  0.1254059E-006  0.9118800E+02  0.7816164E-02  0.1184000E+00
        -11   -1    0    0    0    0  0.00000000000E+00  0.00000000000E+00  0.45593999997E+02  0.45594000000E+02  0.51100000000E-03 0. -1.
         11   -1    0    0    0    0 -0.00000000000E+00 -0.00000000000E+00 -0.45593999997E+02  0.45594000000E+02  0.51100000000E-03 0.  1.
         23    2    1    2    0    0  0.00000000000E+00  0.00000000000E+00  0.00000000000E+00  0.91188000000E+02  0.91188000000E+02 0.  0.
    9900012    2    3    3    0    0  0.77254408618E+01  0.31754573016E+02 -0.16963055915E+02  0.54367073750E+02  0.39999976229E+02 0.  0.
         12    1    3    3    0    0 -0.77254408618E+01 -0.31754573016E+02  0.16963055915E+02  0.36820926250E+02  0.00000000000E+00 0. -1.
         11    1    4    4    0    0 -0.90815003701E+01  0.15256570958E+02 -0.56203612044E+01  0.18623239963E+02  0.51100000000E-03 0.  1.
        -11    1    4    4    0    0  0.96750141029E+01  0.21257919692E+02 -0.13398625880E+02  0.26926348123E+02  0.51100000000E-03 0. -1.
         12    1    4    4    0    0  0.71319271290E+01 -0.47599176350E+01  0.20559311697E+01  0.88174856643E+01  0.00000000000E+00 0. -1.
</event>
<event>
 8    1  0.1254059E-006  0.9118800E+02  0.7816164E-02  0.1184000E+00
        -11   -1    0    0    0    0  0.00000000000E+00  0.00000000000E+00  0.45593999997E+02  0.45594000000E+02  0.51100000000E-03 0. -1.
         11   -1    0    0    0    0 -0.00000000000E+00 -0.00000000000E+00 -0.45593999997E+02  0.45594000000E+02  0.51100000000E-03 0.  1.
         23    2    1    2    0    0 -0.35527136788E-14  0.00000000000E+00 -0.88817841970E-15  0.91188000000E+02  0.91188000000E+02 0.  0.
    9900012    2    3    3    0    0 -0.30409870110E+02  0.20666171766E+02  0.19821776070E+01  0.54367083612E+02  0.39999998711E+02 0.  0.
        -12    1    3    3    0    0  0.30409870110E+02 -0.20666171766E+02 -0.19821776070E+01  0.36820916388E+02  0.00000000000E+00 0.  1.
         11    1    4    4    0    0 -0.22235398552E+02  0.12792483280E+02 -0.42828230631E+01  0.26007751746E+02  0.51100000000E-03 0. -1.
        -11    1    4    4    0    0 -0.11298651864E+02  0.12992991138E+01  0.13800076965E+02  0.17882668611E+02  0.51100000000E-03 0.  1.
        -12    1    4    4    0    0  0.31241803059E+01  0.65743893720E+01 -0.75350762952E+01  0.10476663256E+02  0.00000000000E+00 0.  1.
</event>
<event>
 8    1  0.1254059E-006  0.9118800E+02  0.7816164E-02  0.1184000E+00
        -11   -1    0    0    0    0  0.00000000000E+00  0.00000000000E+00  0.45593999997E+02  0.45594000000E+02  0.51100000000E-03 0.  1.
         11   -1    0    0    0    0 -0.00000000000E+00 -0.00000000000E+00 -0.45593999997E+02  0.45594000000E+02  0.51100000000E-03 0. -1.
         23    2    1    2    0    0 -0.35527136788E-14  0.17763568394E-14 -0.35527136788E-14  0.91188000000E+02  0.91188000000E+02 0.  0.
    9900012    2    3    3    0    0 -0.21683474507E+02  0.13039878341E+02 -0.26750133283E+02  0.54367066762E+02  0.39999960298E+02 0.  0.
        -12    1    3    3    0    0  0.21683474507E+02 -0.13039878341E+02  0.26750133283E+02  0.36820933238E+02  0.00000000000E+00 0.  1.
         11    1    4    4    0    0 -0.12153125028E+02  0.86625911471E+01 -0.34865003150E+02  0.37925023114E+02  0.51100000000E-03 0. -1.
        -11    1    4    4    0    0  0.92709809938E+00  0.31847453848E+01  0.38598685110E+01  0.50892729575E+01  0.51100000000E-03 0.  1.
         12    1    4    4    0    0 -0.10457447578E+02  0.11925418090E+01  0.42550013554E+01  0.11352770691E+02  0.00000000000E+00 0. -1.
</event>
<event>
 8    1  0.1254059E-006  0.9118800E+02  0.7816164E-02  0.1184000E+00
        -11   -1    0    0    0    0  0.00000000000E+00  0.00000000000E+00  0.45593999997E+02  0.45594000000E+02  0.51100000000E-03 0.  1.
         11   -1    0    0    0    0 -0.00000000000E+00 -0.00000000000E+00 -0.45593999997E+02  0.45594000000E+02  0.51100000000E-03 0. -1.
         23    2    1    2    0    0  0.88817841970E-15  0.35527136788E-14 -0.35527136788E-14  0.91188000000E+02  0.91188000000E+02 0.  0.
    9900012    2    3    3    0    0  0.52700545622E+01  0.22696920534E+02 -0.28510594651E+02  0.54367113479E+02  0.40000066798E+02 0.  0.
        -12    1    3    3    0    0 -0.52700545622E+01 -0.22696920534E+02  0.28510594651E+02  0.36820886521E+02  0.00000000000E+00 0.  1.
         11    1    4    4    0    0  0.99975276281E+01  0.21800535208E+02 -0.25348456609E+02  0.34896391601E+02  0.51100000000E-03 0. -1.
        -11    1    4    4    0    0  0.32815914731E+01 -0.52666795697E+01  0.37283714178E+01  0.72393031416E+01  0.51100000000E-03 0.  1.
        -12    1    4    4    0    0 -0.80090645390E+01  0.61630648955E+01 -0.68905094604E+01  0.12231418737E+02  0.00000000000E+00 0.  1.
</event>
<event>
 8    1  0.1254059E-006  0.9118800E+02  0.7816164E-02  0.1184000E+00
        -11   -1    0    0    0    0  0.00000000000E+00  0.00000000000E+00  0.45593999997E+02  0.45594000000E+02  0.51100000000E-03 0. -1.
         11   -1    0    0    0    0 -0.00000000000E+00 -0.00000000000E+00 -0.45593999997E+02  0.45594000000E+02  0.51100000000E-03 0.  1.
         23    2    1    2    0    0 -0.71054273576E-14 -0.66613381478E-15  0.00000000000E+00  0.91188000000E+02  0.91188000000E+02 0.  0.
    9900012    2    3    3    0    0 -0.35888058427E+02  0.14833463582E+01 -0.81010292727E+01  0.54367085707E+02  0.40000003487E+02 0.  0.
        -12    1    3    3    0    0  0.35888058427E+02 -0.14833463582E+01  0.81010292727E+01  0.36820914293E+02  0.00000000000E+00 0.  1.
         11    1    4    4    0    0  0.26635203911E+01  0.56730349945E+01 -0.99797252540E+00  0.63461497261E+01  0.51100000000E-03 0.  1.
        -11    1    4    4    0    0  0.40343957878E+01 -0.27459678317E+01 -0.59536147989E+00  0.49164157939E+01  0.51100000000E-03 0. -1.
         12    1    4    4    0    0 -0.42585974606E+02 -0.14437208046E+01 -0.65076952674E+01  0.43104520187E+02  0.00000000000E+00 0. -1.
</event>
<event>
 8    1  0.1254059E-006  0.9118800E+02  0.7816164E-02  0.1184000E+00
        -11   -1    0    0    0    0  0.00000000000E+00  0.00000000000E+00  0.45593999997E+02  0.45594000000E+02  0.51100000000E-03 0.  1.
         11   -1    0    0    0    0 -0.00000000000E+00 -0.00000000000E+00 -0.45593999997E+02  0.45594000000E+02  0.51100000000E-03 0. -1.
         23    2    1    2    0    0  0.17763568394E-14  0.00000000000E+00 -0.35527136788E-14  0.91188000000E+02  0.91188000000E+02 0.  0.
    9900012    2    3    3    0    0  0.46936116320E+01  0.25459609884E+02 -0.26183147506E+02  0.54367096441E+02  0.40000027957E+02 0.  0.
        -12    1    3    3    0    0 -0.46936116320E+01 -0.25459609884E+02  0.26183147506E+02  0.36820903559E+02  0.00000000000E+00 0.  1.
         11    1    4    4    0    0 -0.88630862678E+01  0.29673579152E+01 -0.70266446344E+01  0.11693299204E+02  0.51100000000E-03 0. -1.
        -11    1    4    4    0    0  0.16629894780E-01 -0.56595876446E+01 -0.73542811937E+01  0.92799063033E+01  0.51100000000E-03 0.  1.
         12    1    4    4    0    0  0.13540068005E+02  0.28151839613E+02 -0.11802221677E+02  0.33393890934E+02  0.00000000000E+00 0. -1.
</event>
<event>
 8    1  0.1254059E-006  0.9118800E+02  0.7816164E-02  0.1184000E+00
        -11   -1    0    0    0    0  0.00000000000E+00  0.00000000000E+00  0.45593999997E+02  0.45594000000E+02  0.51100000000E-03 0.  1.
         11   -1    0    0    0    0 -0.00000000000E+00 -0.00000000000E+00 -0.45593999997E+02  0.45594000000E+02  0.51100000000E-03 0. -1.
         23    2    1    2    0    0  0.71054273576E-14  0.88817841970E-15 -0.35527136788E-14  0.91188000000E+02  0.91188000000E+02 0.  0.
    9900012    2    3    3    0    0  0.33914312634E+02  0.49001809631E+01 -0.13475441560E+02  0.54367083388E+02  0.39999998200E+02 0.  0.
         12    1    3    3    0    0 -0.33914312634E+02 -0.49001809631E+01  0.13475441560E+02  0.36820916612E+02  0.00000000000E+00 0. -1.
         11    1    4    4    0    0  0.55468725407E+00 -0.55293276674E+01  0.92131912051E+01  0.10759369631E+02  0.51100000000E-03 0. -1.
        -11    1    4    4    0    0  0.11791187634E+02 -0.15722494768E+01 -0.36736162618E+01  0.12449880760E+02  0.51100000000E-03 0.  1.
         12    1    4    4    0    0  0.21568437746E+02  0.12001758107E+02 -0.19015016504E+02  0.31157832997E+02  0.00000000000E+00 0. -1.
</event>
<event>
 8    1  0.1254059E-006  0.9118800E+02  0.7816164E-02  0.1184000E+00
        -11   -1    0    0    0    0  0.00000000000E+00  0.00000000000E+00  0.45593999997E+02  0.45594000000E+02  0.51100000000E-03 0.  1.
         11   -1    0    0    0    0 -0.00000000000E+00 -0.00000000000E+00 -0.45593999997E+02  0.45594000000E+02  0.51100000000E-03 0. -1.
         23    2    1    2    0    0  0.35527136788E-14  0.00000000000E+00  0.17763568394E-14  0.91188000000E+02  0.91188000000E+02 0.  0.
    9900012    2    3    3    0    0 -0.22313934594E+02 -0.27895345143E+02 -0.89284975932E+01  0.54367081666E+02  0.39999994274E+02 0.  0.
        -12    1    3    3    0    0  0.22313934594E+02  0.27895345143E+02  0.89284975932E+01  0.36820918334E+02  0.00000000000E+00 0.  1.
         11    1    4    4    0    0 -0.20099023751E+02 -0.91202731832E+01 -0.38068131846E+01  0.22397365148E+02  0.51100000000E-03 0. -1.
        -11    1    4    4    0    0  0.62808428736E+01 -0.17707554583E+02 -0.10822918429E+02  0.21682759052E+02  0.51100000000E-03 0.  1.
        -12    1    4    4    0    0 -0.84957537157E+01 -0.10675173772E+01  0.57012340208E+01  0.10286957466E+02  0.00000000000E+00 0.  1.
</event>
<event>
 8    1  0.1254059E-006  0.9118800E+02  0.7816164E-02  0.1184000E+00
        -11   -1    0    0    0    0  0.00000000000E+00  0.00000000000E+00  0.45593999997E+02  0.45594000000E+02  0.51100000000E-03 0.  1.
         11   -1    0    0    0    0 -0.00000000000E+00 -0.00000000000E+00 -0.45593999997E+02  0.45594000000E+02  0.51100000000E-03 0. -1.
         23    2    1    2    0    0 -0.22204460493E-15 -0.35527136788E-14  0.35527136788E-14  0.91188000000E+02  0.91188000000E+02 0.  0.
    9900012    2    3    3    0    0  0.15686643840E+01  0.27741662995E+02  0.24160288012E+02  0.54367080803E+02  0.39999992308E+02 0.  0.
         12    1    3    3    0    0 -0.15686643840E+01 -0.27741662995E+02 -0.24160288012E+02  0.36820919197E+02  0.00000000000E+00 0. -1.
         11    1    4    4    0    0  0.15874656321E+01  0.14334027024E+02 -0.10631303899E+01  0.14460796117E+02  0.51100000000E-03 0. -1.
        -11    1    4    4    0    0  0.48003322599E+01 -0.76953408216E+01  0.54069854848E+01  0.10559211735E+02  0.51100000000E-03 0.  1.
         12    1    4    4    0    0 -0.48191335080E+01  0.21102976792E+02  0.19816432917E+02  0.29347072951E+02  0.00000000000E+00 0. -1.
</event>
<event>
 8    1  0.1254059E-006  0.9118800E+02  0.7816164E-02  0.1184000E+00
        -11   -1    0    0    0    0  0.00000000000E+00  0.00000000000E+00  0.45593999997E+02  0.45594000000E+02  0.51100000000E-03 0.  1.
         11   -1    0    0    0    0 -0.00000000000E+00 -0.00000000000E+00 -0.45593999997E+02  0.45594000000E+02  0.51100000000E-03 0. -1.
         23    2    1    2    0    0  0.00000000000E+00  0.00000000000E+00 -0.17763568394E-14  0.91188000000E+02  0.91188000000E+02 0.  0.
    9900012    2    3    3    0    0  0.24910508529E+02  0.25495966759E+02  0.92304902444E+01  0.54367086020E+02  0.40000004200E+02 0.  0.
        -12    1    3    3    0    0 -0.24910508529E+02 -0.25495966759E+02 -0.92304902444E+01  0.36820913980E+02  0.00000000000E+00 0.  1.
         11    1    4    4    0    0  0.15922458023E+02  0.17463361274E+02 -0.21018691334E+01  0.23725756270E+02  0.51100000000E-03 0. -1.
        -11    1    4    4    0    0 -0.39915034542E+01  0.11101329342E+02 -0.17884922907E+01  0.11931903365E+02  0.51100000000E-03 0.  1.
         12    1    4    4    0    0  0.12979553960E+02 -0.30687238575E+01  0.13120851669E+02  0.18709426384E+02  0.00000000000E+00 0. -1.
</event>
<event>
 8    1  0.1254059E-006  0.9118800E+02  0.7816164E-02  0.1184000E+00
        -11   -1    0    0    0    0  0.00000000000E+00  0.00000000000E+00  0.45593999997E+02  0.45594000000E+02  0.51100000000E-03 0.  1.
         11   -1    0    0    0    0 -0.00000000000E+00 -0.00000000000E+00 -0.45593999997E+02  0.45594000000E+02  0.51100000000E-03 0. -1.
         23    2    1    2    0    0  0.71054273576E-14 -0.35527136788E-14  0.00000000000E+00  0.91188000000E+02  0.91188000000E+02 0.  0.
    9900012    2    3    3    0    0  0.33931530878E+02 -0.12231656612E+02  0.74039507634E+01  0.54367072552E+02  0.39999973498E+02 0.  0.
        -12    1    3    3    0    0 -0.33931530878E+02  0.12231656612E+02 -0.74039507634E+01  0.36820927448E+02  0.00000000000E+00 0.  1.
         11    1    4    4    0    0  0.90273330444E+01  0.50232807502E+01  0.24818374696E+01  0.10624763944E+02  0.51100000000E-03 0. -1.
        -11    1    4    4    0    0  0.20326074798E+02 -0.25641430967E+02  0.80362185431E+01  0.33692923700E+02  0.51100000000E-03 0.  1.
         12    1    4    4    0    0  0.45781230354E+01  0.83864936050E+01 -0.31141052493E+01  0.10049384907E+02  0.00000000000E+00 0. -1.
</event>
<event>
 8    1  0.1254059E-006  0.9118800E+02  0.7816164E-02  0.1184000E+00
        -11   -1    0    0    0    0  0.00000000000E+00  0.00000000000E+00  0.45593999997E+02  0.45594000000E+02  0.51100000000E-03 0. -1.
         11   -1    0    0    0    0 -0.00000000000E+00 -0.00000000000E+00 -0.45593999997E+02  0.45594000000E+02  0.51100000000E-03 0.  1.
         23    2    1    2    0    0  0.71054273576E-14  0.17763568394E-14  0.13322676296E-14  0.91188000000E+02  0.91188000000E+02 0.  0.
    9900012    2    3    3    0    0 -0.34656546799E+02 -0.11842741178E+02  0.38016075901E+01  0.54367095952E+02  0.40000026841E+02 0.  0.
        -12    1    3    3    0    0  0.34656546799E+02  0.11842741178E+02 -0.38016075901E+01  0.36820904048E+02  0.00000000000E+00 0.  1.
         11    1    4    4    0    0 -0.63651340035E+01 -0.17653510784E+02  0.65414188735E+01  0.19873387608E+02  0.51100000000E-03 0.  1.
        -11    1    4    4    0    0 -0.14877087183E+02 -0.41477770372E+01 -0.74332742699E+01  0.17140167561E+02  0.51100000000E-03 0. -1.
        -12    1    4    4    0    0 -0.13414325613E+02  0.99585466427E+01  0.46934629864E+01  0.17353540783E+02  0.00000000000E+00 0.  1.
</event>
<event>
 8    1  0.1254059E-006  0.9118800E+02  0.7816164E-02  0.1184000E+00
        -11   -1    0    0    0    0  0.00000000000E+00  0.00000000000E+00  0.45593999997E+02  0.45594000000E+02  0.51100000000E-03 0. -1.
         11   -1    0    0    0    0 -0.00000000000E+00 -0.00000000000E+00 -0.45593999997E+02  0.45594000000E+02  0.51100000000E-03 0.  1.
         23    2    1    2    0    0  0.35527136788E-14  0.00000000000E+00  0.00000000000E+00  0.91188000000E+02  0.91188000000E+02 0.  0.
    9900012    2    3    3    0    0  0.25639332383E+02 -0.26421123583E+02 -0.56766728388E+00  0.54367171892E+02  0.40000199962E+02 0.  0.
         12    1    3    3    0    0 -0.25639332383E+02  0.26421123583E+02  0.56766728388E+00  0.36820828108E+02  0.00000000000E+00 0. -1.
         11    1    4    4    0    0  0.13470943943E+02 -0.28622666873E+01 -0.21546326433E+01  0.13939201677E+02  0.51100000000E-03 0. -1.
        -11    1    4    4    0    0  0.26120504530E+01 -0.26645258843E+02  0.86668183532E+01  0.28140830958E+02  0.51100000000E-03 0.  1.
        -12    1    4    4    0    0  0.95563379867E+01  0.30864019477E+01 -0.70798529937E+01  0.12287139257E+02  0.00000000000E+00 0.  1.
</event>
<event>
 8    1  0.1254059E-006  0.9118800E+02  0.7816164E-02  0.1184000E+00
        -11   -1    0    0    0    0  0.00000000000E+00  0.00000000000E+00  0.45593999997E+02  0.45594000000E+02  0.51100000000E-03 0.  1.
         11   -1    0    0    0    0 -0.00000000000E+00 -0.00000000000E+00 -0.45593999997E+02  0.45594000000E+02  0.51100000000E-03 0. -1.
         23    2    1    2    0    0  0.00000000000E+00  0.17763568394E-14  0.13322676296E-14  0.91188000000E+02  0.91188000000E+02 0.  0.
    9900012    2    3    3    0    0  0.33730205234E+02 -0.14440854986E+02  0.30846276948E+01  0.54367082496E+02  0.39999996166E+02 0.  0.
         12    1    3    3    0    0 -0.33730205234E+02  0.14440854986E+02 -0.30846276948E+01  0.36820917504E+02  0.00000000000E+00 0. -1.
         11    1    4    4    0    0  0.57559697867E+01 -0.57822085100E+01 -0.61116563410E+01  0.10193991707E+02  0.51100000000E-03 0. -1.
        -11    1    4    4    0    0  0.26808231583E+01 -0.58655504917E+01  0.16485880326E+02  0.17702422031E+02  0.51100000000E-03 0.  1.
        -12    1    4    4    0    0  0.25293412289E+02 -0.27930959848E+01 -0.72895962903E+01  0.26470668757E+02  0.00000000000E+00 0.  1.
</event>
<event>
 8    1  0.1254059E-006  0.9118800E+02  0.7816164E-02  0.1184000E+00
        -11   -1    0    0    0    0  0.00000000000E+00  0.00000000000E+00  0.45593999997E+02  0.45594000000E+02  0.51100000000E-03 0. -1.
         11   -1    0    0    0    0 -0.00000000000E+00 -0.00000000000E+00 -0.45593999997E+02  0.45594000000E+02  0.51100000000E-03 0.  1.
         23    2    1    2    0    0  0.88817841970E-15 -0.35527136788E-14  0.00000000000E+00  0.91188000000E+02  0.91188000000E+02 0.  0.
    9900012    2    3    3    0    0 -0.40138136416E+01 -0.22997309447E+02 -0.28474416563E+02  0.54367090989E+02  0.40000015528E+02 0.  0.
         12    1    3    3    0    0  0.40138136416E+01  0.22997309447E+02  0.28474416563E+02  0.36820909011E+02  0.00000000000E+00 0. -1.
         11    1    4    4    0    0 -0.82492541954E+01 -0.19171750499E+02 -0.28805541126E+02  0.35571975090E+02  0.51100000000E-03 0.  1.
        -11    1    4    4    0    0 -0.63648957370E+01 -0.25579862058E+01  0.34426179372E+01  0.76750771784E+01  0.51100000000E-03 0. -1.
         12    1    4    4    0    0  0.10600336291E+02 -0.12675727423E+01 -0.31114933747E+01  0.11120038721E+02  0.00000000000E+00 0. -1.
</event>
<event>
 8    1  0.1254059E-006  0.9118800E+02  0.7816164E-02  0.1184000E+00
        -11   -1    0    0    0    0  0.00000000000E+00  0.00000000000E+00  0.45593999997E+02  0.45594000000E+02  0.51100000000E-03 0. -1.
         11   -1    0    0    0    0 -0.00000000000E+00 -0.00000000000E+00 -0.45593999997E+02  0.45594000000E+02  0.51100000000E-03 0.  1.
         23    2    1    2    0    0  0.00000000000E+00  0.35527136788E-14  0.00000000000E+00  0.91188000000E+02  0.91188000000E+02 0.  0.
    9900012    2    3    3    0    0  0.21573820357E+02 -0.28980721387E+02 -0.71041584154E+01  0.54367068403E+02  0.39999964038E+02 0.  0.
         12    1    3    3    0    0 -0.21573820357E+02  0.28980721387E+02  0.71041584154E+01  0.36820931597E+02  0.00000000000E+00 0. -1.
         11    1    4    4    0    0  0.15322865485E+01  0.77766656747E+01 -0.15830250230E+01  0.80827222869E+01  0.51100000000E-03 0. -1.
        -11    1    4    4    0    0  0.11766104744E+01 -0.21870546448E+02 -0.19441022640E+01  0.21988286609E+02  0.51100000000E-03 0.  1.
        -12    1    4    4    0    0  0.18864923334E+02 -0.14886840614E+02 -0.35770311284E+01  0.24296059506E+02  0.00000000000E+00 0.  1.
</event>
<event>
 8    1  0.1254059E-006  0.9118800E+02  0.7816164E-02  0.1184000E+00
        -11   -1    0    0    0    0  0.00000000000E+00  0.00000000000E+00  0.45593999997E+02  0.45594000000E+02  0.51100000000E-03 0. -1.
         11   -1    0    0    0    0 -0.00000000000E+00 -0.00000000000E+00 -0.45593999997E+02  0.45594000000E+02  0.51100000000E-03 0.  1.
         23    2    1    2    0    0  0.00000000000E+00  0.35527136788E-14  0.35527136788E-14  0.91188000000E+02  0.91188000000E+02 0.  0.
    9900012    2    3    3    0    0  0.18963566996E+01  0.26669047975E+02  0.25316892956E+02  0.54367090756E+02  0.40000014996E+02 0.  0.
        -12    1    3    3    0    0 -0.18963566996E+01 -0.26669047975E+02 -0.25316892956E+02  0.36820909244E+02  0.00000000000E+00 0.  1.
         11    1    4    4    0    0  0.43989375016E+01  0.38469113104E+01  0.20742288497E+02  0.21549754294E+02  0.51100000000E-03 0.  1.
        -11    1    4    4    0    0 -0.12625230829E+02  0.13409496234E+02  0.57092142993E+00  0.18426529631E+02  0.51100000000E-03 0. -1.
         12    1    4    4    0    0  0.10122650027E+02  0.94126404305E+01  0.40036830289E+01  0.14390806830E+02  0.00000000000E+00 0. -1.
</event>
<event>
 8    1  0.1254059E-006  0.9118800E+02  0.7816164E-02  0.1184000E+00
        -11   -1    0    0    0    0  0.00000000000E+00  0.00000000000E+00  0.45593999997E+02  0.45594000000E+02  0.51100000000E-03 0.  1.
         11   -1    0    0    0    0 -0.00000000000E+00 -0.00000000000E+00 -0.45593999997E+02  0.45594000000E+02  0.51100000000E-03 0. -1.
         23    2    1    2    0    0  0.00000000000E+00  0.00000000000E+00  0.00000000000E+00  0.91188000000E+02  0.91188000000E+02 0.  0.
    9900012    2    3    3    0    0  0.17845567786E+02  0.88088311824E+01 -0.30979183841E+02  0.54367222878E+02  0.40000316193E+02 0.  0.
        -12    1    3    3    0    0 -0.17845567786E+02 -0.88088311824E+01  0.30979183841E+02  0.36820777122E+02  0.00000000000E+00 0.  1.
         11    1    4    4    0    0 -0.11350981556E+02  0.39312206031E+01 -0.57055427619E+01  0.13298590007E+02  0.51100000000E-03 0. -1.
        -11    1    4    4    0    0  0.19953433033E+02 -0.59654981564E+00 -0.22284236049E+02  0.29917930043E+02  0.51100000000E-03 0.  1.
        -12    1    4    4    0    0  0.92431163085E+01  0.54741603950E+01 -0.29894050303E+01  0.11150702828E+02  0.00000000000E+00 0.  1.
</event>
<event>
 8    1  0.1254059E-006  0.9118800E+02  0.7816164E-02  0.1184000E+00
        -11   -1    0    0    0    0  0.00000000000E+00  0.00000000000E+00  0.45593999997E+02  0.45594000000E+02  0.51100000000E-03 0.  1.
         11   -1    0    0    0    0 -0.00000000000E+00 -0.00000000000E+00 -0.45593999997E+02  0.45594000000E+02  0.51100000000E-03 0. -1.
         23    2    1    2    0    0  0.00000000000E+00  0.00000000000E+00  0.88817841970E-15  0.91188000000E+02  0.91188000000E+02 0.  0.
    9900012    2    3    3    0    0 -0.64187480834E+01 -0.35649984958E+02 -0.66075269480E+01  0.54367066187E+02  0.39999958987E+02 0.  0.
        -12    1    3    3    0    0  0.64187480834E+01  0.35649984958E+02  0.66075269480E+01  0.36820933813E+02  0.00000000000E+00 0.  1.
         11    1    4    4    0    0  0.65382082100E+01  0.10560837426E+01  0.13483941256E+01  0.67588199005E+01  0.51100000000E-03 0. -1.
        -11    1    4    4    0    0 -0.82941064444E+01 -0.80121320969E+01 -0.13771199762E+02  0.17961971094E+02  0.51100000000E-03 0.  1.
        -12    1    4    4    0    0 -0.46628498490E+01 -0.28693936604E+02  0.58152786882E+01  0.29646275192E+02  0.00000000000E+00 0.  1.
</event>
<event>
 8    1  0.1254059E-006  0.9118800E+02  0.7816164E-02  0.1184000E+00
        -11   -1    0    0    0    0  0.00000000000E+00  0.00000000000E+00  0.45593999997E+02  0.45594000000E+02  0.51100000000E-03 0.  1.
         11   -1    0    0    0    0 -0.00000000000E+00 -0.00000000000E+00 -0.45593999997E+02  0.45594000000E+02  0.51100000000E-03 0. -1.
         23    2    1    2    0    0  0.35527136788E-14  0.00000000000E+00  0.88817841970E-15  0.91188000000E+02  0.91188000000E+02 0.  0.
    9900012    2    3    3    0    0 -0.28376694044E+02  0.23423042003E+02 -0.13788503874E+01  0.54367124264E+02  0.40000091385E+02 0.  0.
        -12    1    3    3    0    0  0.28376694044E+02 -0.23423042003E+02  0.13788503874E+01  0.36820875736E+02  0.00000000000E+00 0.  1.
         11    1    4    4    0    0 -0.34609780669E+02  0.15902788410E+02 -0.40562416807E+01  0.38303899201E+02  0.51100000000E-03 0. -1.
        -11    1    4    4    0    0  0.60143384161E+01  0.17588356382E+01  0.65914024166E+01  0.90946333331E+01  0.51100000000E-03 0.  1.
         12    1    4    4    0    0  0.21874820839E+00  0.57614179545E+01 -0.39140111233E+01  0.69685917300E+01  0.00000000000E+00 0. -1.
</event>
<event>
 8    1  0.1254059E-006  0.9118800E+02  0.7816164E-02  0.1184000E+00
        -11   -1    0    0    0    0  0.00000000000E+00  0.00000000000E+00  0.45593999997E+02  0.45594000000E+02  0.51100000000E-03 0. -1.
         11   -1    0    0    0    0 -0.00000000000E+00 -0.00000000000E+00 -0.45593999997E+02  0.45594000000E+02  0.51100000000E-03 0.  1.
         23    2    1    2    0    0  0.00000000000E+00  0.26645352591E-14  0.71054273576E-14  0.91188000000E+02  0.91188000000E+02 0.  0.
    9900012    2    3    3    0    0  0.50284352687E+01 -0.44382271022E+01 -0.36204928521E+02  0.54367083794E+02  0.39999999125E+02 0.  0.
         12    1    3    3    0    0 -0.50284352687E+01  0.44382271022E+01  0.36204928521E+02  0.36820916206E+02  0.00000000000E+00 0. -1.
         11    1    4    4    0    0  0.61842508459E+01 -0.12686615250E+02 -0.43656471704E+01  0.14773423452E+02  0.51100000000E-03 0. -1.
        -11    1    4    4    0    0 -0.63826570300E+00  0.14737241440E+02 -0.13001760565E+02  0.19663149453E+02  0.51100000000E-03 0.  1.
        -12    1    4    4    0    0 -0.51754987415E+00 -0.64888532925E+01 -0.18837520786E+02  0.19930510888E+02  0.00000000000E+00 0.  1.
</event>
<event>
 8    1  0.1254059E-006  0.9118800E+02  0.7816164E-02  0.1184000E+00
        -11   -1    0    0    0    0  0.00000000000E+00  0.00000000000E+00  0.45593999997E+02  0.45594000000E+02  0.51100000000E-03 0.  1.
         11   -1    0    0    0    0 -0.00000000000E+00 -0.00000000000E+00 -0.45593999997E+02  0.45594000000E+02  0.51100000000E-03 0. -1.
         23    2    1    2    0    0  0.00000000000E+00  0.00000000000E+00  0.00000000000E+00  0.91188000000E+02  0.91188000000E+02 0.  0.
    9900012    2    3    3    0    0  0.10847211839E+02 -0.34086754932E+02  0.87298710798E+01  0.54367088611E+02  0.40000010106E+02 0.  0.
         12    1    3    3    0    0 -0.10847211839E+02  0.34086754932E+02 -0.87298710798E+01  0.36820911389E+02  0.00000000000E+00 0. -1.
         11    1    4    4    0    0  0.12783920814E+02 -0.95234513617E+01 -0.23858024230E+01  0.16118834036E+02  0.51100000000E-03 0. -1.
        -11    1    4    4    0    0  0.12309869049E+02 -0.15084461560E+02  0.64765714593E+01  0.20518767864E+02  0.51100000000E-03 0.  1.
        -12    1    4    4    0    0 -0.14246578024E+02 -0.94788420107E+01  0.46391020434E+01  0.17729486711E+02  0.00000000000E+00 0.  1.
</event>
<event>
 8    1  0.1254059E-006  0.9118800E+02  0.7816164E-02  0.1184000E+00
        -11   -1    0    0    0    0  0.00000000000E+00  0.00000000000E+00  0.45593999997E+02  0.45594000000E+02  0.51100000000E-03 0.  1.
         11   -1    0    0    0    0 -0.00000000000E+00 -0.00000000000E+00 -0.45593999997E+02  0.45594000000E+02  0.51100000000E-03 0. -1.
         23    2    1    2    0    0 -0.99920072216E-15 -0.35527136788E-14 -0.35527136788E-14  0.91188000000E+02  0.91188000000E+02 0.  0.
    9900012    2    3    3    0    0 -0.94217216227E+00  0.28862064563E+02  0.22844528820E+02  0.54367096205E+02  0.40000027419E+02 0.  0.
         12    1    3    3    0    0  0.94217216227E+00 -0.28862064563E+02 -0.22844528820E+02  0.36820903795E+02  0.00000000000E+00 0. -1.
         11    1    4    4    0    0  0.82469261683E+01 -0.47798957043E+01  0.11852082401E+01  0.96054106109E+01  0.51100000000E-03 0. -1.
        -11    1    4    4    0    0 -0.65211314441E+01  0.35312219508E+02  0.18918785844E+02  0.40588156646E+02  0.51100000000E-03 0.  1.
        -12    1    4    4    0    0 -0.26679668865E+01 -0.16702592404E+01  0.27405347365E+01  0.41735289480E+01  0.00000000000E+00 0.  1.
</event>
<event>
 8    1  0.1254059E-006  0.9118800E+02  0.7816164E-02  0.1184000E+00
        -11   -1    0    0    0    0  0.00000000000E+00  0.00000000000E+00  0.45593999997E+02  0.45594000000E+02  0.51100000000E-03 0. -1.
         11   -1    0    0    0    0 -0.00000000000E+00 -0.00000000000E+00 -0.45593999997E+02  0.45594000000E+02  0.51100000000E-03 0.  1.
         23    2    1    2    0    0 -0.17763568394E-14  0.00000000000E+00  0.35527136788E-14  0.91188000000E+02  0.91188000000E+02 0.  0.
    9900012    2    3    3    0    0  0.10162181827E+02 -0.30719724464E+02 -0.17572949615E+02  0.54367082456E+02  0.39999996075E+02 0.  0.
         12    1    3    3    0    0 -0.10162181827E+02  0.30719724464E+02  0.17572949615E+02  0.36820917544E+02  0.00000000000E+00 0. -1.
         11    1    4    4    0    0  0.12586660375E+02 -0.11680722678E+02  0.10201474576E+02  0.19973316837E+02  0.51100000000E-03 0. -1.
        -11    1    4    4    0    0  0.14828787319E+01 -0.11202110635E+02 -0.13052131268E+02  0.17263960812E+02  0.51100000000E-03 0.  1.
         12    1    4    4    0    0 -0.39073572803E+01 -0.78368911510E+01 -0.14722292923E+02  0.17129804807E+02  0.00000000000E+00 0. -1.
</event>
<event>
 8    1  0.1254059E-006  0.9118800E+02  0.7816164E-02  0.1184000E+00
        -11   -1    0    0    0    0  0.00000000000E+00  0.00000000000E+00  0.45593999997E+02  0.45594000000E+02  0.51100000000E-03 0.  1.
         11   -1    0    0    0    0 -0.00000000000E+00 -0.00000000000E+00 -0.45593999997E+02  0.45594000000E+02  0.51100000000E-03 0. -1.
         23    2    1    2    0    0  0.00000000000E+00  0.00000000000E+00  0.35527136788E-14  0.91188000000E+02  0.91188000000E+02 0.  0.
    9900012    2    3    3    0    0  0.10385477940E+02  0.22784432602E+02  0.26996126142E+02  0.54367090889E+02  0.40000015300E+02 0.  0.
         12    1    3    3    0    0 -0.10385477940E+02 -0.22784432602E+02 -0.26996126142E+02  0.36820909111E+02  0.00000000000E+00 0. -1.
         11    1    4    4    0    0 -0.75755284263E+01  0.60656840212E-01 -0.21374457644E+01  0.78715300194E+01  0.51100000000E-03 0. -1.
        -11    1    4    4    0    0  0.15668212861E+02  0.26681336760E+02  0.21790603792E+02  0.37844643471E+02  0.51100000000E-03 0.  1.
        -12    1    4    4    0    0  0.22927935053E+01 -0.39575609981E+01  0.73429681142E+01  0.86509173987E+01  0.00000000000E+00 0.  1.
</event>
<event>
 8    1  0.1254059E-006  0.9118800E+02  0.7816164E-02  0.1184000E+00
        -11   -1    0    0    0    0  0.00000000000E+00  0.00000000000E+00  0.45593999997E+02  0.45594000000E+02  0.51100000000E-03 0. -1.
         11   -1    0    0    0    0 -0.00000000000E+00 -0.00000000000E+00 -0.45593999997E+02  0.45594000000E+02  0.51100000000E-03 0.  1.
         23    2    1    2    0    0  0.35527136788E-14 -0.88817841970E-15  0.00000000000E+00  0.91188000000E+02  0.91188000000E+02 0.  0.
    9900012    2    3    3    0    0 -0.26708036779E+02  0.51547124433E+01  0.24817193372E+02  0.54367036191E+02  0.39999890605E+02 0.  0.
        -12    1    3    3    0    0  0.26708036779E+02 -0.51547124433E+01 -0.24817193372E+02  0.36820963809E+02  0.00000000000E+00 0.  1.
         11    1    4    4    0    0 -0.13169954896E+02  0.18425827002E+02  0.26505662807E+02  0.34864150266E+02  0.51100000000E-03 0. -1.
        -11    1    4    4    0    0 -0.11240897210E+02 -0.84245092971E+01 -0.16046439364E+01  0.14138776800E+02  0.51100000000E-03 0.  1.
         12    1    4    4    0    0 -0.22971846733E+01 -0.48466052621E+01 -0.83825498540E-01  0.53641091249E+01  0.00000000000E+00 0. -1.
</event>
<event>
 8    1  0.1254059E-006  0.9118800E+02  0.7816164E-02  0.1184000E+00
        -11   -1    0    0    0    0  0.00000000000E+00  0.00000000000E+00  0.45593999997E+02  0.45594000000E+02  0.51100000000E-03 0.  1.
         11   -1    0    0    0    0 -0.00000000000E+00 -0.00000000000E+00 -0.45593999997E+02  0.45594000000E+02  0.51100000000E-03 0. -1.
         23    2    1    2    0    0  0.00000000000E+00  0.88817841970E-15 -0.35527136788E-14  0.91188000000E+02  0.91188000000E+02 0.  0.
    9900012    2    3    3    0    0  0.29108403096E+02 -0.32073496063E+01  0.22320283653E+02  0.54367064587E+02  0.39999955340E+02 0.  0.
         12    1    3    3    0    0 -0.29108403096E+02  0.32073496063E+01 -0.22320283653E+02  0.36820935413E+02  0.00000000000E+00 0. -1.
         11    1    4    4    0    0  0.40072838941E+01 -0.73732306679E+01  0.22793937345E+02  0.24289636363E+02  0.51100000000E-03 0. -1.
        -11    1    4    4    0    0  0.21628544899E+02 -0.24909225548E+01 -0.33685235778E+01  0.22030560615E+02  0.51100000000E-03 0.  1.
        -12    1    4    4    0    0  0.34725743024E+01  0.66568036164E+01  0.28948698858E+01  0.80468676098E+01  0.00000000000E+00 0.  1.
</event>
<event>
 8    1  0.1254059E-006  0.9118800E+02  0.7816164E-02  0.1184000E+00
        -11   -1    0    0    0    0  0.00000000000E+00  0.00000000000E+00  0.45593999997E+02  0.45594000000E+02  0.51100000000E-03 0.  1.
         11   -1    0    0    0    0 -0.00000000000E+00 -0.00000000000E+00 -0.45593999997E+02  0.45594000000E+02  0.51100000000E-03 0. -1.
         23    2    1    2    0    0  0.35527136788E-14  0.00000000000E+00  0.35527136788E-14  0.91188000000E+02  0.91188000000E+02 0.  0.
    9900012    2    3    3    0    0 -0.18422692859E+02  0.19179189129E+02 -0.25466658855E+02  0.54366978544E+02  0.39999759187E+02 0.  0.
        -12    1    3    3    0    0  0.18422692859E+02 -0.19179189129E+02  0.25466658855E+02  0.36821021456E+02  0.00000000000E+00 0.  1.
         11    1    4    4    0    0 -0.17485099354E+02  0.14654044485E+02 -0.28743563369E+02  0.36696895708E+02  0.51100000000E-03 0. -1.
        -11    1    4    4    0    0 -0.39377259431E+01  0.64773329555E+01  0.84675857897E+01  0.11364925745E+02  0.51100000000E-03 0.  1.
        -12    1    4    4    0    0  0.30001324382E+01 -0.19521883114E+01 -0.51906812751E+01  0.63051570916E+01  0.00000000000E+00 0.  1.
</event>
<event>
 8    1  0.1254059E-006  0.9118800E+02  0.7816164E-02  0.1184000E+00
        -11   -1    0    0    0    0  0.00000000000E+00  0.00000000000E+00  0.45593999997E+02  0.45594000000E+02  0.51100000000E-03 0.  1.
         11   -1    0    0    0    0 -0.00000000000E+00 -0.00000000000E+00 -0.45593999997E+02  0.45594000000E+02  0.51100000000E-03 0. -1.
         23    2    1    2    0    0  0.00000000000E+00  0.35527136788E-14  0.00000000000E+00  0.91188000000E+02  0.91188000000E+02 0.  0.
    9900012    2    3    3    0    0  0.13525336510E+02 -0.29759224499E+02  0.16947765941E+02  0.54367177890E+02  0.40000213634E+02 0.  0.
         12    1    3    3    0    0 -0.13525336510E+02  0.29759224499E+02 -0.16947765941E+02  0.36820822110E+02  0.00000000000E+00 0. -1.
         11    1    4    4    0    0 -0.42303282293E+01 -0.55669203025E+01  0.90393296428E+01  0.11427850158E+02  0.51100000000E-03 0. -1.
        -11    1    4    4    0    0  0.14133502223E+02 -0.16131038639E+02 -0.94686540433E+01  0.23444012078E+02  0.51100000000E-03 0.  1.
        -12    1    4    4    0    0  0.36221625158E+01 -0.80612655572E+01  0.17377090342E+02  0.19495315653E+02  0.00000000000E+00 0.  1.
</event>
<event>
 8    1  0.1254059E-006  0.9118800E+02  0.7816164E-02  0.1184000E+00
        -11   -1    0    0    0    0  0.00000000000E+00  0.00000000000E+00  0.45593999997E+02  0.45594000000E+02  0.51100000000E-03 0. -1.
         11   -1    0    0    0    0 -0.00000000000E+00 -0.00000000000E+00 -0.45593999997E+02  0.45594000000E+02  0.51100000000E-03 0.  1.
         23    2    1    2    0    0 -0.17763568394E-14  0.66613381478E-15 -0.71054273576E-14  0.91188000000E+02  0.91188000000E+02 0.  0.
    9900012    2    3    3    0    0  0.14227233477E+02 -0.15738626148E+01  0.33924761344E+02  0.54367073231E+02  0.39999975044E+02 0.  0.
        -12    1    3    3    0    0 -0.14227233477E+02  0.15738626148E+01 -0.33924761344E+02  0.36820926769E+02  0.00000000000E+00 0.  1.
         11    1    4    4    0    0  0.16568535972E+01 -0.41915369546E+01 -0.19871784824E+01  0.49257511575E+01  0.51100000000E-03 0. -1.
        -11    1    4    4    0    0  0.15752368307E+01  0.82317815985E+01 -0.27779372052E+01  0.88295263030E+01  0.51100000000E-03 0.  1.
         12    1    4    4    0    0  0.10995143049E+02 -0.56141072588E+01  0.38689877031E+02  0.40611795770E+02  0.00000000000E+00 0. -1.
</event>
<event>
 8    1  0.1254059E-006  0.9118800E+02  0.7816164E-02  0.1184000E+00
        -11   -1    0    0    0    0  0.00000000000E+00  0.00000000000E+00  0.45593999997E+02  0.45594000000E+02  0.51100000000E-03 0.  1.
         11   -1    0    0    0    0 -0.00000000000E+00 -0.00000000000E+00 -0.45593999997E+02  0.45594000000E+02  0.51100000000E-03 0. -1.
         23    2    1    2    0    0  0.00000000000E+00  0.00000000000E+00 -0.17763568394E-14  0.91188000000E+02  0.91188000000E+02 0.  0.
    9900012    2    3    3    0    0  0.30749086277E+02 -0.18537542858E+02  0.81629233932E+01  0.54367080397E+02  0.39999991380E+02 0.  0.
        -12    1    3    3    0    0 -0.30749086277E+02  0.18537542858E+02 -0.81629233932E+01  0.36820919603E+02  0.00000000000E+00 0.  1.
         11    1    4    4    0    0  0.80502627355E+00 -0.17005979790E+02  0.34049313922E+01  0.17362170774E+02  0.51100000000E-03 0. -1.
        -11    1    4    4    0    0  0.12898777044E+02  0.69441842652E+01 -0.51706428996E+01  0.15534982864E+02  0.51100000000E-03 0.  1.
         12    1    4    4    0    0  0.17045282960E+02 -0.84757473331E+01  0.99286349005E+01  0.21469926759E+02  0.00000000000E+00 0. -1.
</event>
<event>
 8    1  0.1254059E-006  0.9118800E+02  0.7816164E-02  0.1184000E+00
        -11   -1    0    0    0    0  0.00000000000E+00  0.00000000000E+00  0.45593999997E+02  0.45594000000E+02  0.51100000000E-03 0. -1.
         11   -1    0    0    0    0 -0.00000000000E+00 -0.00000000000E+00 -0.45593999997E+02  0.45594000000E+02  0.51100000000E-03 0.  1.
         23    2    1    2    0    0  0.00000000000E+00  0.17763568394E-14  0.00000000000E+00  0.91188000000E+02  0.91188000000E+02 0.  0.
    9900012    2    3    3    0    0  0.33485699390E+02 -0.14275406467E+02 -0.55406670618E+01  0.54367105321E+02  0.40000048201E+02 0.  0.
        -12    1    3    3    0    0 -0.33485699390E+02  0.14275406467E+02  0.55406670618E+01  0.36820894679E+02  0.00000000000E+00 0.  1.
         11    1    4    4    0    0  0.25524271639E+02  0.11058058463E+00 -0.50519943861E+01  0.26019671757E+02  0.51100000000E-03 0. -1.
        -11    1    4    4    0    0  0.31063008397E+01 -0.78057889529E+01 -0.11741234852E+02  0.14437314231E+02  0.51100000000E-03 0.  1.
        -12    1    4    4    0    0  0.48551269111E+01 -0.65801980989E+01  0.11252562177E+02  0.13910119334E+02  0.00000000000E+00 0.  1.
</event>
<event>
 8    1  0.1254059E-006  0.9118800E+02  0.7816164E-02  0.1184000E+00
        -11   -1    0    0    0    0  0.00000000000E+00  0.00000000000E+00  0.45593999997E+02  0.45594000000E+02  0.51100000000E-03 0.  1.
         11   -1    0    0    0    0 -0.00000000000E+00 -0.00000000000E+00 -0.45593999997E+02  0.45594000000E+02  0.51100000000E-03 0. -1.
         23    2    1    2    0    0  0.00000000000E+00  0.00000000000E+00  0.00000000000E+00  0.91188000000E+02  0.91188000000E+02 0.  0.
    9900012    2    3    3    0    0 -0.10800553129E+02 -0.19289594212E+02  0.29445532946E+02  0.54367084704E+02  0.40000001201E+02 0.  0.
         12    1    3    3    0    0  0.10800553129E+02  0.19289594212E+02 -0.29445532946E+02  0.36820915296E+02  0.00000000000E+00 0. -1.
         11    1    4    4    0    0 -0.18184718201E+01  0.36324023898E+01  0.39147873959E+00  0.40809855117E+01  0.51100000000E-03 0. -1.
        -11    1    4    4    0    0 -0.18035220838E+02 -0.24402203079E+02  0.27561043457E+02  0.40992045844E+02  0.51100000000E-03 0.  1.
        -12    1    4    4    0    0  0.90531395295E+01  0.14802064769E+01  0.14930107494E+01  0.92940533490E+01  0.00000000000E+00 0.  1.
</event>
<event>
 8    1  0.1254059E-006  0.9118800E+02  0.7816164E-02  0.1184000E+00
        -11   -1    0    0    0    0  0.00000000000E+00  0.00000000000E+00  0.45593999997E+02  0.45594000000E+02  0.51100000000E-03 0.  1.
         11   -1    0    0    0    0 -0.00000000000E+00 -0.00000000000E+00 -0.45593999997E+02  0.45594000000E+02  0.51100000000E-03 0. -1.
         23    2    1    2    0    0  0.00000000000E+00 -0.35527136788E-14  0.35527136788E-14  0.91188000000E+02  0.91188000000E+02 0.  0.
    9900012    2    3    3    0    0 -0.67184128367E+01  0.24884921178E+02 -0.26294177699E+02  0.54367079942E+02  0.39999990343E+02 0.  0.
         12    1    3    3    0    0  0.67184128367E+01 -0.24884921178E+02  0.26294177699E+02  0.36820920058E+02  0.00000000000E+00 0. -1.
         11    1    4    4    0    0  0.12898261232E+01  0.20264282458E+02 -0.18663550938E+02  0.27579574486E+02  0.51100000000E-03 0. -1.
        -11    1    4    4    0    0 -0.43008085561E+01 -0.92816795543E+01 -0.69809453690E+01  0.12384673112E+02  0.51100000000E-03 0.  1.
        -12    1    4    4    0    0 -0.37074304037E+01  0.13902318274E+02 -0.64968139224E+00  0.14402832343E+02  0.00000000000E+00 0.  1.
</event>
<event>
 8    1  0.1254059E-006  0.9118800E+02  0.7816164E-02  0.1184000E+00
        -11   -1    0    0    0    0  0.00000000000E+00  0.00000000000E+00  0.45593999997E+02  0.45594000000E+02  0.51100000000E-03 0. -1.
         11   -1    0    0    0    0 -0.00000000000E+00 -0.00000000000E+00 -0.45593999997E+02  0.45594000000E+02  0.51100000000E-03 0.  1.
         23    2    1    2    0    0  0.00000000000E+00  0.00000000000E+00  0.00000000000E+00  0.91188000000E+02  0.91188000000E+02 0.  0.
    9900012    2    3    3    0    0 -0.20863274389E+02 -0.24714112474E+02 -0.17598762841E+02  0.54367081664E+02  0.39999994269E+02 0.  0.
         12    1    3    3    0    0  0.20863274389E+02  0.24714112474E+02  0.17598762841E+02  0.36820918336E+02  0.00000000000E+00 0. -1.
         11    1    4    4    0    0 -0.30044397604E+01  0.44302431679E+01 -0.91469595161E+01  0.10598140471E+02  0.51100000000E-03 0. -1.
        -11    1    4    4    0    0 -0.24562393069E+02 -0.21822962444E+02 -0.48687187368E+01  0.33215316731E+02  0.51100000000E-03 0.  1.
        -12    1    4    4    0    0  0.67035584403E+01 -0.73213931976E+01 -0.35830845877E+01  0.10553624462E+02  0.00000000000E+00 0.  1.
</event>
<event>
 8    1  0.1254059E-006  0.9118800E+02  0.7816164E-02  0.1184000E+00
        -11   -1    0    0    0    0  0.00000000000E+00  0.00000000000E+00  0.45593999997E+02  0.45594000000E+02  0.51100000000E-03 0.  1.
         11   -1    0    0    0    0 -0.00000000000E+00 -0.00000000000E+00 -0.45593999997E+02  0.45594000000E+02  0.51100000000E-03 0. -1.
         23    2    1    2    0    0  0.00000000000E+00 -0.35527136788E-14  0.71054273576E-14  0.91188000000E+02  0.91188000000E+02 0.  0.
    9900012    2    3    3    0    0 -0.56829863210E+01 -0.15575804036E+02  0.32876680359E+02  0.54367107611E+02  0.40000053421E+02 0.  0.
         12    1    3    3    0    0  0.56829863210E+01  0.15575804036E+02 -0.32876680359E+02  0.36820892389E+02  0.00000000000E+00 0. -1.
         11    1    4    4    0    0 -0.41162565010E+01 -0.18886060907E+01 -0.39210536202E+01  0.59904142012E+01  0.51100000000E-03 0. -1.
        -11    1    4    4    0    0 -0.12232897510E+02 -0.16103195569E+02  0.26679198846E+02  0.33477400442E+02  0.51100000000E-03 0.  1.
         12    1    4    4    0    0  0.10666167690E+02  0.24159976230E+01  0.10118535133E+02  0.14899292968E+02  0.00000000000E+00 0. -1.
</event>
<event>
 8    1  0.1254059E-006  0.9118800E+02  0.7816164E-02  0.1184000E+00
        -11   -1    0    0    0    0  0.00000000000E+00  0.00000000000E+00  0.45593999997E+02  0.45594000000E+02  0.51100000000E-03 0.  1.
         11   -1    0    0    0    0 -0.00000000000E+00 -0.00000000000E+00 -0.45593999997E+02  0.45594000000E+02  0.51100000000E-03 0. -1.
         23    2    1    2    0    0 -0.35527136788E-14  0.17763568394E-14  0.00000000000E+00  0.91188000000E+02  0.91188000000E+02 0.  0.
    9900012    2    3    3    0    0 -0.19675101482E+02 -0.14391014677E+02 -0.27596536614E+02  0.54367085361E+02  0.40000002699E+02 0.  0.
        -12    1    3    3    0    0  0.19675101482E+02  0.14391014677E+02  0.27596536614E+02  0.36820914639E+02  0.00000000000E+00 0.  1.
         11    1    4    4    0    0 -0.17746451776E+02 -0.19950749484E+01 -0.10684113771E+02  0.20810265785E+02  0.51100000000E-03 0. -1.
        -11    1    4    4    0    0  0.11696231533E+02 -0.75912703518E+01 -0.11686395898E+02  0.18193434722E+02  0.51100000000E-03 0.  1.
        -12    1    4    4    0    0 -0.13624881238E+02 -0.48046693764E+01 -0.52260269445E+01  0.15363384855E+02  0.00000000000E+00 0.  1.
</event>
<event>
 8    1  0.1254059E-006  0.9118800E+02  0.7816164E-02  0.1184000E+00
        -11   -1    0    0    0    0  0.00000000000E+00  0.00000000000E+00  0.45593999997E+02  0.45594000000E+02  0.51100000000E-03 0. -1.
         11   -1    0    0    0    0 -0.00000000000E+00 -0.00000000000E+00 -0.45593999997E+02  0.45594000000E+02  0.51100000000E-03 0.  1.
         23    2    1    2    0    0 -0.35527136788E-14 -0.35527136788E-14  0.00000000000E+00  0.91188000000E+02  0.91188000000E+02 0.  0.
    9900012    2    3    3    0    0 -0.15033251028E+02 -0.14382669767E+02  0.30379607032E+02  0.54367077286E+02  0.39999984289E+02 0.  0.
        -12    1    3    3    0    0  0.15033251028E+02  0.14382669767E+02 -0.30379607032E+02  0.36820922714E+02  0.00000000000E+00 0.  1.
         11    1    4    4    0    0 -0.93341179399E+01 -0.21233447954E+02  0.31439585232E+02  0.39069586504E+02  0.51100000000E-03 0. -1.
        -11    1    4    4    0    0  0.22113959086E+01 -0.22378509292E+01  0.35292551440E+00  0.31658814453E+01  0.51100000000E-03 0.  1.
        -12    1    4    4    0    0 -0.79105289963E+01  0.90886291158E+01 -0.14129037150E+01  0.12131609337E+02  0.00000000000E+00 0.  1.
</event>
<event>
 8    1  0.1254059E-006  0.9118800E+02  0.7816164E-02  0.1184000E+00
        -11   -1    0    0    0    0  0.00000000000E+00  0.00000000000E+00  0.45593999997E+02  0.45594000000E+02  0.51100000000E-03 0.  1.
         11   -1    0    0    0    0 -0.00000000000E+00 -0.00000000000E+00 -0.45593999997E+02  0.45594000000E+02  0.51100000000E-03 0. -1.
         23    2    1    2    0    0  0.00000000000E+00  0.00000000000E+00 -0.35527136788E-14  0.91188000000E+02  0.91188000000E+02 0.  0.
    9900012    2    3    3    0    0  0.31213632767E+02 -0.18669502151E+02  0.57394233471E+01  0.54367052682E+02  0.39999928198E+02 0.  0.
         12    1    3    3    0    0 -0.31213632767E+02  0.18669502151E+02 -0.57394233471E+01  0.36820947318E+02  0.00000000000E+00 0. -1.
         11    1    4    4    0    0  0.15067864106E+02 -0.32782077670E+01 -0.13859181081E+02  0.20733163660E+02  0.51100000000E-03 0. -1.
        -11    1    4    4    0    0  0.92776942014E+01 -0.10802444478E+02  0.22460969083E+01  0.14415733349E+02  0.51100000000E-03 0.  1.
         12    1    4    4    0    0  0.68680744598E+01 -0.45888499058E+01  0.17352507520E+02  0.19218155673E+02  0.00000000000E+00 0. -1.
</event>
<event>
 8    1  0.1254059E-006  0.9118800E+02  0.7816164E-02  0.1184000E+00
        -11   -1    0    0    0    0  0.00000000000E+00  0.00000000000E+00  0.45593999997E+02  0.45594000000E+02  0.51100000000E-03 0.  1.
         11   -1    0    0    0    0 -0.00000000000E+00 -0.00000000000E+00 -0.45593999997E+02  0.45594000000E+02  0.51100000000E-03 0. -1.
         23    2    1    2    0    0  0.00000000000E+00  0.00000000000E+00 -0.44408920985E-15  0.91188000000E+02  0.91188000000E+02 0.  0.
    9900012    2    3    3    0    0  0.15149165727E+02  0.33523149764E+02 -0.15753417834E+01  0.54367075323E+02  0.39999979814E+02 0.  0.
         12    1    3    3    0    0 -0.15149165727E+02 -0.33523149764E+02  0.15753417834E+01  0.36820924677E+02  0.00000000000E+00 0. -1.
         11    1    4    4    0    0 -0.44798970163E+01 -0.33634322231E+01  0.83509791006E+01  0.10055894082E+02  0.51100000000E-03 0. -1.
        -11    1    4    4    0    0  0.13833479112E+02  0.27329354459E+02 -0.21727480220E+01  0.30707972804E+02  0.51100000000E-03 0.  1.
         12    1    4    4    0    0  0.57955836313E+01  0.95572275285E+01 -0.77535728620E+01  0.13603208437E+02  0.00000000000E+00 0. -1.
</event>
<event>
 8    1  0.1254059E-006  0.9118800E+02  0.7816164E-02  0.1184000E+00
        -11   -1    0    0    0    0  0.00000000000E+00  0.00000000000E+00  0.45593999997E+02  0.45594000000E+02  0.51100000000E-03 0. -1.
         11   -1    0    0    0    0 -0.00000000000E+00 -0.00000000000E+00 -0.45593999997E+02  0.45594000000E+02  0.51100000000E-03 0.  1.
         23    2    1    2    0    0  0.00000000000E+00  0.00000000000E+00  0.00000000000E+00  0.91188000000E+02  0.91188000000E+02 0.  0.
    9900012    2    3    3    0    0 -0.63032067650E+01  0.66518555670E+01  0.35662406417E+02  0.54367016451E+02  0.39999845604E+02 0.  0.
        -12    1    3    3    0    0  0.63032067650E+01 -0.66518555670E+01 -0.35662406417E+02  0.36820983549E+02  0.00000000000E+00 0.  1.
         11    1    4    4    0    0 -0.72389636279E+01 -0.45915670823E+01  0.78297622155E+01  0.11609920727E+02  0.51100000000E-03 0. -1.
        -11    1    4    4    0    0 -0.11357575116E+02 -0.44643150038E+01  0.13481353446E+02  0.18184375490E+02  0.51100000000E-03 0.  1.
        -12    1    4    4    0    0  0.12293331979E+02  0.15707737653E+02  0.14351290756E+02  0.24572720234E+02  0.00000000000E+00 0.  1.
</event>
<event>
 8    1  0.1254059E-006  0.9118800E+02  0.7816164E-02  0.1184000E+00
        -11   -1    0    0    0    0  0.00000000000E+00  0.00000000000E+00  0.45593999997E+02  0.45594000000E+02  0.51100000000E-03 0. -1.
         11   -1    0    0    0    0 -0.00000000000E+00 -0.00000000000E+00 -0.45593999997E+02  0.45594000000E+02  0.51100000000E-03 0.  1.
         23    2    1    2    0    0  0.17763568394E-14  0.00000000000E+00  0.00000000000E+00  0.91188000000E+02  0.91188000000E+02 0.  0.
    9900012    2    3    3    0    0  0.10879549301E+02  0.31303149650E+02 -0.16047660264E+02  0.54367093290E+02  0.40000020773E+02 0.  0.
         12    1    3    3    0    0 -0.10879549301E+02 -0.31303149650E+02  0.16047660264E+02  0.36820906710E+02  0.00000000000E+00 0. -1.
         11    1    4    4    0    0 -0.66853789292E+01  0.14971922560E+02 -0.11395906194E+02  0.19967960207E+02  0.51100000000E-03 0. -1.
        -11    1    4    4    0    0  0.15097331794E+02  0.21216712207E+02  0.16011924197E+01  0.26089118835E+02  0.51100000000E-03 0.  1.
         12    1    4    4    0    0  0.24675964359E+01 -0.48854851170E+01 -0.62529464896E+01  0.83100142479E+01  0.00000000000E+00 0. -1.
</event>
<event>
 8    1  0.1254059E-006  0.9118800E+02  0.7816164E-02  0.1184000E+00
        -11   -1    0    0    0    0  0.00000000000E+00  0.00000000000E+00  0.45593999997E+02  0.45594000000E+02  0.51100000000E-03 0.  1.
         11   -1    0    0    0    0 -0.00000000000E+00 -0.00000000000E+00 -0.45593999997E+02  0.45594000000E+02  0.51100000000E-03 0. -1.
         23    2    1    2    0    0 -0.17763568394E-14  0.00000000000E+00  0.35527136788E-14  0.91188000000E+02  0.91188000000E+02 0.  0.
    9900012    2    3    3    0    0 -0.10173946934E+02  0.29166157034E+02  0.20039988711E+02  0.54367149115E+02  0.40000148037E+02 0.  0.
         12    1    3    3    0    0  0.10173946934E+02 -0.29166157034E+02 -0.20039988711E+02  0.36820850885E+02  0.00000000000E+00 0. -1.
         11    1    4    4    0    0  0.10707777823E+01  0.17148283389E+02  0.28614673554E+02  0.33376784313E+02  0.51100000000E-03 0. -1.
        -11    1    4    4    0    0 -0.69663819455E+01  0.74782353450E+00 -0.41854210234E+01  0.81613397707E+01  0.51100000000E-03 0.  1.
         12    1    4    4    0    0 -0.42783427711E+01  0.11270050111E+02 -0.43892638198E+01  0.12829025031E+02  0.00000000000E+00 0. -1.
</event>
<event>
 8    1  0.1254059E-006  0.9118800E+02  0.7816164E-02  0.1184000E+00
        -11   -1    0    0    0    0  0.00000000000E+00  0.00000000000E+00  0.45593999997E+02  0.45594000000E+02  0.51100000000E-03 0. -1.
         11   -1    0    0    0    0 -0.00000000000E+00 -0.00000000000E+00 -0.45593999997E+02  0.45594000000E+02  0.51100000000E-03 0.  1.
         23    2    1    2    0    0 -0.17763568394E-14 -0.17763568394E-14  0.00000000000E+00  0.91188000000E+02  0.91188000000E+02 0.  0.
    9900012    2    3    3    0    0  0.11459534022E+02 -0.80159815109E+01  0.34061761658E+02  0.54367075421E+02  0.39999980038E+02 0.  0.
        -12    1    3    3    0    0 -0.11459534022E+02  0.80159815109E+01 -0.34061761658E+02  0.36820924579E+02  0.00000000000E+00 0.  1.
         11    1    4    4    0    0 -0.17410442821E+01 -0.12007615482E+02  0.77264743737E+01  0.14384452415E+02  0.51100000000E-03 0. -1.
        -11    1    4    4    0    0  0.14111528934E+02  0.98175227616E+01  0.50814547917E+01  0.17925963993E+02  0.51100000000E-03 0.  1.
         12    1    4    4    0    0 -0.91095062915E+00 -0.58258887904E+01  0.21253832492E+02  0.22056659014E+02  0.00000000000E+00 0. -1.
</event>
<event>
 8    1  0.1254059E-006  0.9118800E+02  0.7816164E-02  0.1184000E+00
        -11   -1    0    0    0    0  0.00000000000E+00  0.00000000000E+00  0.45593999997E+02  0.45594000000E+02  0.51100000000E-03 0. -1.
         11   -1    0    0    0    0 -0.00000000000E+00 -0.00000000000E+00 -0.45593999997E+02  0.45594000000E+02  0.51100000000E-03 0.  1.
         23    2    1    2    0    0 -0.35527136788E-14 -0.35527136788E-14  0.26645352591E-14  0.91188000000E+02  0.91188000000E+02 0.  0.
    9900012    2    3    3    0    0  0.22129094762E+02  0.28834038760E+02 -0.58890610197E+01  0.54367086568E+02  0.40000005450E+02 0.  0.
         12    1    3    3    0    0 -0.22129094762E+02 -0.28834038760E+02  0.58890610197E+01  0.36820913432E+02  0.00000000000E+00 0. -1.
         11    1    4    4    0    0  0.23497114553E+00  0.36477867064E+01  0.34054777836E+01  0.49958821534E+01  0.51100000000E-03 0. -1.
        -11    1    4    4    0    0 -0.53763056849E+00  0.19488688896E+02 -0.16059474135E+02  0.25258755932E+02  0.51100000000E-03 0.  1.
         12    1    4    4    0    0  0.22431754185E+02  0.56975631585E+01  0.67649353319E+01  0.24112448483E+02  0.00000000000E+00 0. -1.
</event>
<event>
 8    1  0.1254059E-006  0.9118800E+02  0.7816164E-02  0.1184000E+00
        -11   -1    0    0    0    0  0.00000000000E+00  0.00000000000E+00  0.45593999997E+02  0.45594000000E+02  0.51100000000E-03 0. -1.
         11   -1    0    0    0    0 -0.00000000000E+00 -0.00000000000E+00 -0.45593999997E+02  0.45594000000E+02  0.51100000000E-03 0.  1.
         23    2    1    2    0    0  0.00000000000E+00  0.35527136788E-14 -0.35527136788E-14  0.91188000000E+02  0.91188000000E+02 0.  0.
    9900012    2    3    3    0    0 -0.40211613927E+01 -0.30211281622E+02 -0.20661299605E+02  0.54367074190E+02  0.39999977230E+02 0.  0.
         12    1    3    3    0    0  0.40211613927E+01  0.30211281622E+02  0.20661299605E+02  0.36820925810E+02  0.00000000000E+00 0. -1.
         11    1    4    4    0    0 -0.23482993260E+01  0.14159058049E+01  0.10189824500E+01  0.29253417693E+01  0.51100000000E-03 0. -1.
        -11    1    4    4    0    0  0.91594262073E+00 -0.25507744954E+02 -0.30899114111E+02  0.40077914824E+02  0.51100000000E-03 0.  1.
         12    1    4    4    0    0 -0.25888046875E+01 -0.61194424728E+01  0.92188320564E+01  0.11363817597E+02  0.00000000000E+00 0. -1.
</event>
<event>
 8    1  0.1254059E-006  0.9118800E+02  0.7816164E-02  0.1184000E+00
        -11   -1    0    0    0    0  0.00000000000E+00  0.00000000000E+00  0.45593999997E+02  0.45594000000E+02  0.51100000000E-03 0.  1.
         11   -1    0    0    0    0 -0.00000000000E+00 -0.00000000000E+00 -0.45593999997E+02  0.45594000000E+02  0.51100000000E-03 0. -1.
         23    2    1    2    0    0  0.00000000000E+00  0.00000000000E+00  0.00000000000E+00  0.91188000000E+02  0.91188000000E+02 0.  0.
    9900012    2    3    3    0    0  0.24088732310E+02 -0.27289870211E+02 -0.55475882881E+01  0.54367085071E+02  0.40000002036E+02 0.  0.
        -12    1    3    3    0    0 -0.24088732310E+02  0.27289870211E+02  0.55475882881E+01  0.36820914929E+02  0.00000000000E+00 0.  1.
         11    1    4    4    0    0  0.27181892849E+02 -0.89854958187E+01 -0.39027001175E+01  0.28893347027E+02  0.51100000000E-03 0. -1.
        -11    1    4    4    0    0 -0.12174184097E+01 -0.19747312410E+02  0.32375956328E+01  0.20047954528E+02  0.51100000000E-03 0.  1.
         12    1    4    4    0    0 -0.18757421298E+01  0.14429380184E+01 -0.48824838034E+01  0.54257835152E+01  0.00000000000E+00 0. -1.
</event>
<event>
 8    1  0.1254059E-006  0.9118800E+02  0.7816164E-02  0.1184000E+00
        -11   -1    0    0    0    0  0.00000000000E+00  0.00000000000E+00  0.45593999997E+02  0.45594000000E+02  0.51100000000E-03 0.  1.
         11   -1    0    0    0    0 -0.00000000000E+00 -0.00000000000E+00 -0.45593999997E+02  0.45594000000E+02  0.51100000000E-03 0. -1.
         23    2    1    2    0    0  0.00000000000E+00  0.00000000000E+00  0.00000000000E+00  0.91188000000E+02  0.91188000000E+02 0.  0.
    9900012    2    3    3    0    0  0.21042292015E+02 -0.28899044175E+02 -0.88230539263E+01  0.54367094416E+02  0.40000023340E+02 0.  0.
        -12    1    3    3    0    0 -0.21042292015E+02  0.28899044175E+02  0.88230539263E+01  0.36820905584E+02  0.00000000000E+00 0.  1.
         11    1    4    4    0    0  0.30077263790E+02 -0.16592821358E+02 -0.11396632155E+02  0.36191804907E+02  0.51100000000E-03 0.  1.
        -11    1    4    4    0    0 -0.18610406413E+01 -0.87512778984E+01  0.43891455122E+01  0.99655875749E+01  0.51100000000E-03 0. -1.
        -12    1    4    4    0    0 -0.71739311335E+01 -0.35549449176E+01 -0.18155672840E+01  0.82097019335E+01  0.00000000000E+00 0.  1.
</event>
<event>
 8    1  0.1254059E-006  0.9118800E+02  0.7816164E-02  0.1184000E+00
        -11   -1    0    0    0    0  0.00000000000E+00  0.00000000000E+00  0.45593999997E+02  0.45594000000E+02  0.51100000000E-03 0.  1.
         11   -1    0    0    0    0 -0.00000000000E+00 -0.00000000000E+00 -0.45593999997E+02  0.45594000000E+02  0.51100000000E-03 0. -1.
         23    2    1    2    0    0  0.00000000000E+00  0.35527136788E-14  0.71054273576E-14  0.91188000000E+02  0.91188000000E+02 0.  0.
    9900012    2    3    3    0    0  0.17705501779E+02 -0.17531812310E+02 -0.27109697210E+02  0.54367015237E+02  0.39999842836E+02 0.  0.
         12    1    3    3    0    0 -0.17705501779E+02  0.17531812310E+02  0.27109697210E+02  0.36820984763E+02  0.00000000000E+00 0. -1.
         11    1    4    4    0    0  0.13254206292E+02 -0.34812104901E+01 -0.17575298291E+02  0.22286406646E+02  0.51100000000E-03 0. -1.
        -11    1    4    4    0    0  0.57066396434E+01 -0.77320494229E+01 -0.18613713255E+02  0.20948046346E+02  0.51100000000E-03 0.  1.
        -12    1    4    4    0    0 -0.12553441567E+01 -0.63185523966E+01  0.90793143360E+01  0.11132562246E+02  0.00000000000E+00 0.  1.
</event>
<event>
 8    1  0.1254059E-006  0.9118800E+02  0.7816164E-02  0.1184000E+00
        -11   -1    0    0    0    0  0.00000000000E+00  0.00000000000E+00  0.45593999997E+02  0.45594000000E+02  0.51100000000E-03 0.  1.
         11   -1    0    0    0    0 -0.00000000000E+00 -0.00000000000E+00 -0.45593999997E+02  0.45594000000E+02  0.51100000000E-03 0. -1.
         23    2    1    2    0    0 -0.38857805862E-15 -0.88817841970E-15 -0.71054273576E-14  0.91188000000E+02  0.91188000000E+02 0.  0.
    9900012    2    3    3    0    0 -0.37668150949E+00 -0.60458494456E+01  0.36319214947E+02  0.54367088022E+02  0.40000008764E+02 0.  0.
         12    1    3    3    0    0  0.37668150949E+00  0.60458494456E+01 -0.36319214947E+02  0.36820911978E+02  0.00000000000E+00 0. -1.
         11    1    4    4    0    0 -0.86480970465E+00  0.64870526498E+01 -0.33998394097E+01  0.73748665194E+01  0.51100000000E-03 0. -1.
        -11    1    4    4    0    0 -0.72526365261E+01 -0.39783392770E+01  0.35034976072E+01  0.89834523279E+01  0.51100000000E-03 0.  1.
        -12    1    4    4    0    0  0.77407647213E+01 -0.85545628184E+01  0.36215556750E+02  0.38008769175E+02  0.00000000000E+00 0.  1.
</event>
<event>
 8    1  0.1254059E-006  0.9118800E+02  0.7816164E-02  0.1184000E+00
        -11   -1    0    0    0    0  0.00000000000E+00  0.00000000000E+00  0.45593999997E+02  0.45594000000E+02  0.51100000000E-03 0.  1.
         11   -1    0    0    0    0 -0.00000000000E+00 -0.00000000000E+00 -0.45593999997E+02  0.45594000000E+02  0.51100000000E-03 0. -1.
         23    2    1    2    0    0  0.71054273576E-14  0.35527136788E-14  0.00000000000E+00  0.91188000000E+02  0.91188000000E+02 0.  0.
    9900012    2    3    3    0    0 -0.25515058891E+02 -0.16594864733E+02  0.20721300405E+02  0.54367081269E+02  0.39999993368E+02 0.  0.
         12    1    3    3    0    0  0.25515058891E+02  0.16594864733E+02 -0.20721300405E+02  0.36820918731E+02  0.00000000000E+00 0. -1.
         11    1    4    4    0    0 -0.95599019919E+00 -0.40137977927E+01  0.16287938324E+02  0.16802423191E+02  0.51100000000E-03 0. -1.
        -11    1    4    4    0    0  0.48133404178E+01  0.10185504252E+01  0.93700968423E+00  0.50083608452E+01  0.51100000000E-03 0.  1.
        -12    1    4    4    0    0 -0.29372409110E+02 -0.13599617366E+02  0.34963523967E+01  0.32556297233E+02  0.00000000000E+00 0.  1.
</event>
<event>
 8    1  0.1254059E-006  0.9118800E+02  0.7816164E-02  0.1184000E+00
        -11   -1    0    0    0    0  0.00000000000E+00  0.00000000000E+00  0.45593999997E+02  0.45594000000E+02  0.51100000000E-03 0. -1.
         11   -1    0    0    0    0 -0.00000000000E+00 -0.00000000000E+00 -0.45593999997E+02  0.45594000000E+02  0.51100000000E-03 0.  1.
         23    2    1    2    0    0 -0.71054273576E-14  0.00000000000E+00  0.00000000000E+00  0.91188000000E+02  0.91188000000E+02 0.  0.
    9900012    2    3    3    0    0  0.32218375313E+02  0.79792491530E+01  0.15940122557E+02  0.54367087030E+02  0.40000006501E+02 0.  0.
         12    1    3    3    0    0 -0.32218375313E+02 -0.79792491530E+01 -0.15940122557E+02  0.36820912970E+02  0.00000000000E+00 0. -1.
         11    1    4    4    0    0 -0.17583973944E+01 -0.73541768353E+01  0.33531132262E+01  0.82715927662E+01  0.51100000000E-03 0. -1.
        -11    1    4    4    0    0  0.18515348048E+02  0.11545561614E+02  0.19000605581E+02  0.28933391074E+02  0.51100000000E-03 0.  1.
        -12    1    4    4    0    0  0.15461424659E+02  0.37878643746E+01 -0.64135962508E+01  0.17162103189E+02  0.00000000000E+00 0.  1.
</event>
<event>
 8    1  0.1254059E-006  0.9118800E+02  0.7816164E-02  0.1184000E+00
        -11   -1    0    0    0    0  0.00000000000E+00  0.00000000000E+00  0.45593999997E+02  0.45594000000E+02  0.51100000000E-03 0.  1.
         11   -1    0    0    0    0 -0.00000000000E+00 -0.00000000000E+00 -0.45593999997E+02  0.45594000000E+02  0.51100000000E-03 0. -1.
         23    2    1    2    0    0  0.00000000000E+00  0.17763568394E-14  0.00000000000E+00  0.91188000000E+02  0.91188000000E+02 0.  0.
    9900012    2    3    3    0    0  0.56757454591E+01 -0.14251739614E+02  0.33473172920E+02  0.54367089176E+02  0.40000011395E+02 0.  0.
         12    1    3    3    0    0 -0.56757454591E+01  0.14251739614E+02 -0.33473172920E+02  0.36820910824E+02  0.00000000000E+00 0. -1.
         11    1    4    4    0    0  0.12081678112E+02  0.47014529982E+01  0.20668044815E+01  0.13127920145E+02  0.51100000000E-03 0. -1.
        -11    1    4    4    0    0  0.38306117627E+01 -0.96573449573E+00  0.41452394303E+00  0.39721606152E+01  0.51100000000E-03 0.  1.
        -12    1    4    4    0    0 -0.10236544415E+02 -0.17987458117E+02  0.30991844496E+02  0.37267008416E+02  0.00000000000E+00 0.  1.
</event>
<event>
 8    1  0.1254059E-006  0.9118800E+02  0.7816164E-02  0.1184000E+00
        -11   -1    0    0    0    0  0.00000000000E+00  0.00000000000E+00  0.45593999997E+02  0.45594000000E+02  0.51100000000E-03 0. -1.
         11   -1    0    0    0    0 -0.00000000000E+00 -0.00000000000E+00 -0.45593999997E+02  0.45594000000E+02  0.51100000000E-03 0.  1.
         23    2    1    2    0    0  0.00000000000E+00  0.00000000000E+00  0.35527136788E-14  0.91188000000E+02  0.91188000000E+02 0.  0.
    9900012    2    3    3    0    0 -0.60905574468E+01  0.23371832774E+02  0.27792840711E+02  0.54367089473E+02  0.40000012072E+02 0.  0.
        -12    1    3    3    0    0  0.60905574468E+01 -0.23371832774E+02 -0.27792840711E+02  0.36820910527E+02  0.00000000000E+00 0.  1.
         11    1    4    4    0    0 -0.21866236192E+01 -0.71888448194E+00 -0.34381718383E+01  0.41375286828E+01  0.51100000000E-03 0. -1.
        -11    1    4    4    0    0  0.86298292721E+01  0.47352834500E+01  0.24195001413E+02  0.26120776334E+02  0.51100000000E-03 0.  1.
         12    1    4    4    0    0 -0.12533763100E+02  0.19355433806E+02  0.70360111362E+01  0.24108784456E+02  0.00000000000E+00 0. -1.
</event>
<event>
 8    1  0.1254059E-006  0.9118800E+02  0.7816164E-02  0.1184000E+00
        -11   -1    0    0    0    0  0.00000000000E+00  0.00000000000E+00  0.45593999997E+02  0.45594000000E+02  0.51100000000E-03 0.  1.
         11   -1    0    0    0    0 -0.00000000000E+00 -0.00000000000E+00 -0.45593999997E+02  0.45594000000E+02  0.51100000000E-03 0. -1.
         23    2    1    2    0    0 -0.35527136788E-14  0.00000000000E+00  0.00000000000E+00  0.91188000000E+02  0.91188000000E+02 0.  0.
    9900012    2    3    3    0    0  0.93468858453E+01 -0.32479474244E+02 -0.14611561868E+02  0.54367105627E+02  0.40000048898E+02 0.  0.
        -12    1    3    3    0    0 -0.93468858453E+01  0.32479474244E+02  0.14611561868E+02  0.36820894373E+02  0.00000000000E+00 0.  1.
         11    1    4    4    0    0 -0.31328877071E+01  0.29063269691E+01  0.35244575363E+01  0.55392709829E+01  0.51100000000E-03 0. -1.
        -11    1    4    4    0    0 -0.74756779024E-01  0.22607221792E+01  0.30850919872E+01  0.38254733273E+01  0.51100000000E-03 0.  1.
         12    1    4    4    0    0  0.12554530331E+02 -0.37646523393E+02 -0.21221111391E+02  0.45002361317E+02  0.00000000000E+00 0. -1.
</event>
<event>
 8    1  0.1254059E-006  0.9118800E+02  0.7816164E-02  0.1184000E+00
        -11   -1    0    0    0    0  0.00000000000E+00  0.00000000000E+00  0.45593999997E+02  0.45594000000E+02  0.51100000000E-03 0.  1.
         11   -1    0    0    0    0 -0.00000000000E+00 -0.00000000000E+00 -0.45593999997E+02  0.45594000000E+02  0.51100000000E-03 0. -1.
         23    2    1    2    0    0  0.00000000000E+00  0.17763568394E-14  0.17763568394E-14  0.91188000000E+02  0.91188000000E+02 0.  0.
    9900012    2    3    3    0    0  0.31792261702E+02  0.14718113081E+02  0.11331768235E+02  0.54367085724E+02  0.40000003525E+02 0.  0.
        -12    1    3    3    0    0 -0.31792261702E+02 -0.14718113081E+02 -0.11331768235E+02  0.36820914276E+02  0.00000000000E+00 0.  1.
         11    1    4    4    0    0  0.56799604726E+01 -0.99814898141E+00 -0.67877866266E+00  0.58068057565E+01  0.51100000000E-03 0. -1.
        -11    1    4    4    0    0  0.31339213235E+02  0.21915215670E+02  0.65860529487E+01  0.38804626758E+02  0.51100000000E-03 0.  1.
        -12    1    4    4    0    0 -0.52269120060E+01 -0.61989536077E+01  0.54244939487E+01  0.97556532098E+01  0.00000000000E+00 0.  1.
</event>
<event>
 8    1  0.1254059E-006  0.9118800E+02  0.7816164E-02  0.1184000E+00
        -11   -1    0    0    0    0  0.00000000000E+00  0.00000000000E+00  0.45593999997E+02  0.45594000000E+02  0.51100000000E-03 0. -1.
         11   -1    0    0    0    0 -0.00000000000E+00 -0.00000000000E+00 -0.45593999997E+02  0.45594000000E+02  0.51100000000E-03 0.  1.
         23    2    1    2    0    0  0.17763568394E-14 -0.71054273576E-14  0.17763568394E-14  0.91188000000E+02  0.91188000000E+02 0.  0.
    9900012    2    3    3    0    0 -0.29043468126E+01  0.35792434910E+02 -0.81391495588E+01  0.54367090414E+02  0.40000014217E+02 0.  0.
         12    1    3    3    0    0  0.29043468126E+01 -0.35792434910E+02  0.81391495588E+01  0.36820909586E+02  0.00000000000E+00 0. -1.
         11    1    4    4    0    0 -0.17641275654E+01  0.45099546010E+00  0.24121832724E+01  0.30222791685E+01  0.51100000000E-03 0. -1.
        -11    1    4    4    0    0 -0.12087275586E+02  0.34459125191E+02 -0.15022726644E+02  0.39486907401E+02  0.51100000000E-03 0.  1.
         12    1    4    4    0    0  0.10947056339E+02  0.88231425867E+00  0.44713938127E+01  0.11857903844E+02  0.00000000000E+00 0. -1.
</event>
<event>
 8    1  0.1254059E-006  0.9118800E+02  0.7816164E-02  0.1184000E+00
        -11   -1    0    0    0    0  0.00000000000E+00  0.00000000000E+00  0.45593999997E+02  0.45594000000E+02  0.51100000000E-03 0.  1.
         11   -1    0    0    0    0 -0.00000000000E+00 -0.00000000000E+00 -0.45593999997E+02  0.45594000000E+02  0.51100000000E-03 0. -1.
         23    2    1    2    0    0 -0.17763568394E-14  0.00000000000E+00  0.00000000000E+00  0.91188000000E+02  0.91188000000E+02 0.  0.
    9900012    2    3    3    0    0  0.14838038707E+02 -0.32255833794E+02  0.97556543626E+01  0.54367095632E+02  0.40000026112E+02 0.  0.
         12    1    3    3    0    0 -0.14838038707E+02  0.32255833794E+02 -0.97556543626E+01  0.36820904368E+02  0.00000000000E+00 0. -1.
         11    1    4    4    0    0  0.45369846337E+01 -0.69983175800E+00  0.11464223689E+02  0.12349186982E+02  0.51100000000E-03 0. -1.
        -11    1    4    4    0    0 -0.71708988800E+01 -0.18879578301E+02  0.12285220332E+01  0.20232882499E+02  0.51100000000E-03 0.  1.
        -12    1    4    4    0    0  0.17471952954E+02 -0.12676423735E+02 -0.29370913598E+01  0.21785026151E+02  0.00000000000E+00 0.  1.
</event>
<event>
 8    1  0.1254059E-006  0.9118800E+02  0.7816164E-02  0.1184000E+00
        -11   -1    0    0    0    0  0.00000000000E+00  0.00000000000E+00  0.45593999997E+02  0.45594000000E+02  0.51100000000E-03 0. -1.
         11   -1    0    0    0    0 -0.00000000000E+00 -0.00000000000E+00 -0.45593999997E+02  0.45594000000E+02  0.51100000000E-03 0.  1.
         23    2    1    2    0    0  0.35527136788E-14  0.17763568394E-14  0.00000000000E+00  0.91188000000E+02  0.91188000000E+02 0.  0.
    9900012    2    3    3    0    0 -0.27972815031E+02 -0.91484631837E+01 -0.22127076538E+02  0.54367078291E+02  0.39999986579E+02 0.  0.
         12    1    3    3    0    0  0.27972815031E+02  0.91484631837E+01  0.22127076538E+02  0.36820921709E+02  0.00000000000E+00 0. -1.
         11    1    4    4    0    0 -0.52227431106E+01  0.13128805288E+02 -0.88030113801E+01  0.16647389691E+02  0.51100000000E-03 0. -1.
        -11    1    4    4    0    0 -0.66316486804E+00 -0.14468954156E+01 -0.63800472205E+01  0.65755833797E+01  0.51100000000E-03 0.  1.
        -12    1    4    4    0    0 -0.22086907053E+02 -0.20830373057E+02 -0.69440179375E+01  0.31144105220E+02  0.00000000000E+00 0.  1.
</event>
<event>
 8    1  0.1254059E-006  0.9118800E+02  0.7816164E-02  0.1184000E+00
        -11   -1    0    0    0    0  0.00000000000E+00  0.00000000000E+00  0.45593999997E+02  0.45594000000E+02  0.51100000000E-03 0. -1.
         11   -1    0    0    0    0 -0.00000000000E+00 -0.00000000000E+00 -0.45593999997E+02  0.45594000000E+02  0.51100000000E-03 0.  1.
         23    2    1    2    0    0 -0.17763568394E-14  0.00000000000E+00 -0.71054273576E-14  0.91188000000E+02  0.91188000000E+02 0.  0.
    9900012    2    3    3    0    0  0.10966929272E+02  0.88226860499E+01  0.34024498147E+02  0.54367084735E+02  0.40000001271E+02 0.  0.
        -12    1    3    3    0    0 -0.10966929272E+02 -0.88226860499E+01 -0.34024498147E+02  0.36820915265E+02  0.00000000000E+00 0.  1.
         11    1    4    4    0    0 -0.40456638267E+01  0.41587924364E+00  0.19190402589E+02  0.19616623133E+02  0.51100000000E-03 0. -1.
        -11    1    4    4    0    0 -0.31048187144E+01  0.11657280779E+02  0.18023180536E+01  0.12197558978E+02  0.51100000000E-03 0.  1.
        -12    1    4    4    0    0  0.18117411813E+02 -0.32504739725E+01  0.13031777505E+02  0.22552902624E+02  0.00000000000E+00 0.  1.
</event>
<event>
 8    1  0.1254059E-006  0.9118800E+02  0.7816164E-02  0.1184000E+00
        -11   -1    0    0    0    0  0.00000000000E+00  0.00000000000E+00  0.45593999997E+02  0.45594000000E+02  0.51100000000E-03 0.  1.
         11   -1    0    0    0    0 -0.00000000000E+00 -0.00000000000E+00 -0.45593999997E+02  0.45594000000E+02  0.51100000000E-03 0. -1.
         23    2    1    2    0    0 -0.35527136788E-14  0.00000000000E+00  0.00000000000E+00  0.91188000000E+02  0.91188000000E+02 0.  0.
    9900012    2    3    3    0    0  0.25679677017E+02 -0.91128875134E+01 -0.24764700094E+02  0.54367069793E+02  0.39999967208E+02 0.  0.
        -12    1    3    3    0    0 -0.25679677017E+02  0.91128875134E+01  0.24764700094E+02  0.36820930207E+02  0.00000000000E+00 0.  1.
         11    1    4    4    0    0  0.60166771297E+00 -0.47665428353E+01  0.79630796801E+01  0.93001383264E+01  0.51100000000E-03 0.  1.
        -11    1    4    4    0    0  0.27842496885E+02 -0.35159519940E+01 -0.30248587172E+02  0.41261890133E+02  0.51100000000E-03 0. -1.
        -12    1    4    4    0    0 -0.27644875808E+01 -0.83039268407E+00 -0.24791926020E+01  0.38050413338E+01  0.00000000000E+00 0.  1.
</event>
<event>
 8    1  0.1254059E-006  0.9118800E+02  0.7816164E-02  0.1184000E+00
        -11   -1    0    0    0    0  0.00000000000E+00  0.00000000000E+00  0.45593999997E+02  0.45594000000E+02  0.51100000000E-03 0.  1.
         11   -1    0    0    0    0 -0.00000000000E+00 -0.00000000000E+00 -0.45593999997E+02  0.45594000000E+02  0.51100000000E-03 0. -1.
         23    2    1    2    0    0  0.00000000000E+00  0.35527136788E-14  0.00000000000E+00  0.91188000000E+02  0.91188000000E+02 0.  0.
    9900012    2    3    3    0    0 -0.13589065379E+02 -0.21268719706E+02 -0.26809743764E+02  0.54367034552E+02  0.39999886869E+02 0.  0.
        -12    1    3    3    0    0  0.13589065379E+02  0.21268719706E+02  0.26809743764E+02  0.36820965448E+02  0.00000000000E+00 0.  1.
         11    1    4    4    0    0 -0.22465141276E+02 -0.47385708578E+01 -0.18686628223E+02  0.29602815760E+02  0.51100000000E-03 0. -1.
        -11    1    4    4    0    0  0.56975375573E+01 -0.17795898994E+02 -0.96352577762E+01  0.21023656863E+02  0.51100000000E-03 0.  1.
         12    1    4    4    0    0  0.31785383392E+01  0.12657501455E+01  0.15121422356E+01  0.37405619291E+01  0.00000000000E+00 0. -1.
</event>
<event>
 8    1  0.1254059E-006  0.9118800E+02  0.7816164E-02  0.1184000E+00
        -11   -1    0    0    0    0  0.00000000000E+00  0.00000000000E+00  0.45593999997E+02  0.45594000000E+02  0.51100000000E-03 0. -1.
         11   -1    0    0    0    0 -0.00000000000E+00 -0.00000000000E+00 -0.45593999997E+02  0.45594000000E+02  0.51100000000E-03 0.  1.
         23    2    1    2    0    0 -0.35527136788E-14  0.88817841970E-15 -0.35527136788E-14  0.91188000000E+02  0.91188000000E+02 0.  0.
    9900012    2    3    3    0    0 -0.23314536903E+02  0.72735766949E+01 -0.27555522675E+02  0.54367090467E+02  0.40000014338E+02 0.  0.
         12    1    3    3    0    0  0.23314536903E+02 -0.72735766949E+01  0.27555522675E+02  0.36820909533E+02  0.00000000000E+00 0. -1.
         11    1    4    4    0    0 -0.76458461749E+01  0.81282725443E+01 -0.26992901782E+02  0.29208637852E+02  0.51100000000E-03 0. -1.
        -11    1    4    4    0    0 -0.77774379510E+00 -0.80667943006E+01 -0.25454062975E+01  0.84945364311E+01  0.51100000000E-03 0.  1.
         12    1    4    4    0    0 -0.14890946933E+02  0.72120984512E+01  0.19827854043E+01  0.16663916184E+02  0.00000000000E+00 0. -1.
</event>
<event>
 8    1  0.1254059E-006  0.9118800E+02  0.7816164E-02  0.1184000E+00
        -11   -1    0    0    0    0  0.00000000000E+00  0.00000000000E+00  0.45593999997E+02  0.45594000000E+02  0.51100000000E-03 0. -1.
         11   -1    0    0    0    0 -0.00000000000E+00 -0.00000000000E+00 -0.45593999997E+02  0.45594000000E+02  0.51100000000E-03 0.  1.
         23    2    1    2    0    0  0.00000000000E+00 -0.22204460493E-15  0.00000000000E+00  0.91188000000E+02  0.91188000000E+02 0.  0.
    9900012    2    3    3    0    0 -0.36677808724E+02 -0.12373930215E+01  0.29978577601E+01  0.54367082773E+02  0.39999996797E+02 0.  0.
        -12    1    3    3    0    0  0.36677808724E+02  0.12373930215E+01 -0.29978577601E+01  0.36820917227E+02  0.00000000000E+00 0.  1.
         11    1    4    4    0    0  0.21511950341E+01 -0.20636615001E+01  0.51679554547E+01  0.59660793411E+01  0.51100000000E-03 0. -1.
        -11    1    4    4    0    0 -0.38550293547E+02  0.80130362491E+01 -0.66439637142E+01  0.39930892008E+02  0.51100000000E-03 0.  1.
        -12    1    4    4    0    0 -0.27871021142E+00 -0.71867677704E+01  0.44738660195E+01  0.84701114237E+01  0.00000000000E+00 0.  1.
</event>
<event>
 8    1  0.1254059E-006  0.9118800E+02  0.7816164E-02  0.1184000E+00
        -11   -1    0    0    0    0  0.00000000000E+00  0.00000000000E+00  0.45593999997E+02  0.45594000000E+02  0.51100000000E-03 0. -1.
         11   -1    0    0    0    0 -0.00000000000E+00 -0.00000000000E+00 -0.45593999997E+02  0.45594000000E+02  0.51100000000E-03 0.  1.
         23    2    1    2    0    0  0.00000000000E+00  0.00000000000E+00  0.00000000000E+00  0.91188000000E+02  0.91188000000E+02 0.  0.
    9900012    2    3    3    0    0  0.11935805694E+02  0.34553078457E+02 -0.44044738348E+01  0.54367108129E+02  0.40000054601E+02 0.  0.
        -12    1    3    3    0    0 -0.11935805694E+02 -0.34553078457E+02  0.44044738348E+01  0.36820891871E+02  0.00000000000E+00 0.  1.
         11    1    4    4    0    0 -0.32808337965E+01  0.14088449650E+02 -0.13393850436E+02  0.19714043566E+02  0.51100000000E-03 0. -1.
        -11    1    4    4    0    0  0.98100636154E+00 -0.39808444881E+00 -0.54555505910E+01  0.55573264455E+01  0.51100000000E-03 0.  1.
         12    1    4    4    0    0  0.14235633129E+02  0.20862713256E+02  0.14444927192E+02  0.29095738117E+02  0.00000000000E+00 0. -1.
</event>
<event>
 8    1  0.1254059E-006  0.9118800E+02  0.7816164E-02  0.1184000E+00
        -11   -1    0    0    0    0  0.00000000000E+00  0.00000000000E+00  0.45593999997E+02  0.45594000000E+02  0.51100000000E-03 0.  1.
         11   -1    0    0    0    0 -0.00000000000E+00 -0.00000000000E+00 -0.45593999997E+02  0.45594000000E+02  0.51100000000E-03 0. -1.
         23    2    1    2    0    0  0.00000000000E+00 -0.17763568394E-14  0.00000000000E+00  0.91188000000E+02  0.91188000000E+02 0.  0.
    9900012    2    3    3    0    0  0.32338242394E+02  0.15341046521E+02 -0.86411691404E+01  0.54367089723E+02  0.40000012642E+02 0.  0.
         12    1    3    3    0    0 -0.32338242394E+02 -0.15341046521E+02  0.86411691404E+01  0.36820910277E+02  0.00000000000E+00 0. -1.
         11    1    4    4    0    0  0.18960725016E+02  0.24445623324E+02 -0.12430751667E+02  0.33340983491E+02  0.51100000000E-03 0. -1.
        -11    1    4    4    0    0  0.11435968740E+02 -0.66929134240E-01  0.19587087989E+01  0.11602689384E+02  0.51100000000E-03 0.  1.
         12    1    4    4    0    0  0.19415486381E+01 -0.90376476688E+01  0.18308737277E+01  0.94234168488E+01  0.00000000000E+00 0. -1.
</event>
<event>
 8    1  0.1254059E-006  0.9118800E+02  0.7816164E-02  0.1184000E+00
        -11   -1    0    0    0    0  0.00000000000E+00  0.00000000000E+00  0.45593999997E+02  0.45594000000E+02  0.51100000000E-03 0. -1.
         11   -1    0    0    0    0 -0.00000000000E+00 -0.00000000000E+00 -0.45593999997E+02  0.45594000000E+02  0.51100000000E-03 0.  1.
         23    2    1    2    0    0  0.71054273576E-14  0.26645352591E-14  0.35527136788E-14  0.91188000000E+02  0.91188000000E+02 0.  0.
    9900012    2    3    3    0    0  0.32067004411E+02 -0.31724805752E+01  0.17816361496E+02  0.54367080105E+02  0.39999990716E+02 0.  0.
         12    1    3    3    0    0 -0.32067004411E+02  0.31724805752E+01 -0.17816361496E+02  0.36820919895E+02  0.00000000000E+00 0. -1.
         11    1    4    4    0    0  0.21670554295E+02  0.50057891574E+01 -0.39547016114E+01  0.22590053422E+02  0.51100000000E-03 0. -1.
        -11    1    4    4    0    0  0.25095876286E+01  0.39497762665E+01 -0.10130350639E+01  0.47880061532E+01  0.51100000000E-03 0.  1.
         12    1    4    4    0    0  0.78868624878E+01 -0.12128045999E+02  0.22784098172E+02  0.26989020530E+02  0.00000000000E+00 0. -1.
</event>
<event>
 8    1  0.1254059E-006  0.9118800E+02  0.7816164E-02  0.1184000E+00
        -11   -1    0    0    0    0  0.00000000000E+00  0.00000000000E+00  0.45593999997E+02  0.45594000000E+02  0.51100000000E-03 0. -1.
         11   -1    0    0    0    0 -0.00000000000E+00 -0.00000000000E+00 -0.45593999997E+02  0.45594000000E+02  0.51100000000E-03 0.  1.
         23    2    1    2    0    0  0.00000000000E+00  0.17763568394E-14  0.10658141036E-13  0.91188000000E+02  0.91188000000E+02 0.  0.
    9900012    2    3    3    0    0 -0.17680712290E+02 -0.15054129373E+02 -0.28575293093E+02  0.54367057948E+02  0.39999940204E+02 0.  0.
         12    1    3    3    0    0  0.17680712290E+02  0.15054129373E+02  0.28575293093E+02  0.36820942052E+02  0.00000000000E+00 0. -1.
         11    1    4    4    0    0 -0.11430448164E+02 -0.74026450002E+01  0.35297119093E+01  0.14068161381E+02  0.51100000000E-03 0. -1.
        -11    1    4    4    0    0 -0.45823223577E+01 -0.23697099066E+01  0.21573476681E+01  0.55917217790E+01  0.51100000000E-03 0.  1.
        -12    1    4    4    0    0 -0.16679417686E+01 -0.52817744664E+01 -0.34262352670E+02  0.34707174788E+02  0.00000000000E+00 0.  1.
</event>
<event>
 8    1  0.1254059E-006  0.9118800E+02  0.7816164E-02  0.1184000E+00
        -11   -1    0    0    0    0  0.00000000000E+00  0.00000000000E+00  0.45593999997E+02  0.45594000000E+02  0.51100000000E-03 0.  1.
         11   -1    0    0    0    0 -0.00000000000E+00 -0.00000000000E+00 -0.45593999997E+02  0.45594000000E+02  0.51100000000E-03 0. -1.
         23    2    1    2    0    0  0.00000000000E+00  0.00000000000E+00 -0.35527136788E-14  0.91188000000E+02  0.91188000000E+02 0.  0.
    9900012    2    3    3    0    0  0.17006235257E+02  0.12384686491E+02  0.30219007016E+02  0.54367070053E+02  0.39999967800E+02 0.  0.
         12    1    3    3    0    0 -0.17006235257E+02 -0.12384686491E+02 -0.30219007016E+02  0.36820929947E+02  0.00000000000E+00 0. -1.
         11    1    4    4    0    0  0.90200458665E+01  0.66823095148E+01  0.35962018600E+00  0.11231376355E+02  0.51100000000E-03 0. -1.
        -11    1    4    4    0    0  0.12917924415E+02 -0.58617848248E+01  0.26603141117E+02  0.30148970299E+02  0.51100000000E-03 0.  1.
        -12    1    4    4    0    0 -0.49317350249E+01  0.11564161801E+02  0.32562457135E+01  0.12986723400E+02  0.00000000000E+00 0.  1.
</event>
<event>
 8    1  0.1254059E-006  0.9118800E+02  0.7816164E-02  0.1184000E+00
        -11   -1    0    0    0    0  0.00000000000E+00  0.00000000000E+00  0.45593999997E+02  0.45594000000E+02  0.51100000000E-03 0. -1.
         11   -1    0    0    0    0 -0.00000000000E+00 -0.00000000000E+00 -0.45593999997E+02  0.45594000000E+02  0.51100000000E-03 0.  1.
         23    2    1    2    0    0 -0.35527136788E-14 -0.88817841970E-15  0.00000000000E+00  0.91188000000E+02  0.91188000000E+02 0.  0.
    9900012    2    3    3    0    0  0.14785941330E+02 -0.46873361842E+01 -0.33394393803E+02  0.54367072269E+02  0.39999972852E+02 0.  0.
         12    1    3    3    0    0 -0.14785941330E+02  0.46873361842E+01  0.33394393803E+02  0.36820927731E+02  0.00000000000E+00 0. -1.
         11    1    4    4    0    0 -0.31976166385E+01 -0.78518948173E+01 -0.73767166897E+01  0.11238013782E+02  0.51100000000E-03 0. -1.
        -11    1    4    4    0    0  0.72434519555E+01  0.14959416828E+02 -0.20177329301E+02  0.26141468323E+02  0.51100000000E-03 0.  1.
         12    1    4    4    0    0  0.10740106013E+02 -0.11794858195E+02 -0.58403478117E+01  0.16987590164E+02  0.00000000000E+00 0. -1.
</event>
<event>
 8    1  0.1254059E-006  0.9118800E+02  0.7816164E-02  0.1184000E+00
        -11   -1    0    0    0    0  0.00000000000E+00  0.00000000000E+00  0.45593999997E+02  0.45594000000E+02  0.51100000000E-03 0. -1.
         11   -1    0    0    0    0 -0.00000000000E+00 -0.00000000000E+00 -0.45593999997E+02  0.45594000000E+02  0.51100000000E-03 0.  1.
         23    2    1    2    0    0  0.00000000000E+00  0.00000000000E+00 -0.11102230246E-15  0.91188000000E+02  0.91188000000E+02 0.  0.
    9900012    2    3    3    0    0  0.21404513129E+02  0.29956124463E+02  0.50700128755E+00  0.54367087118E+02  0.40000006702E+02 0.  0.
        -12    1    3    3    0    0 -0.21404513129E+02 -0.29956124463E+02 -0.50700128755E+00  0.36820912882E+02  0.00000000000E+00 0.  1.
         11    1    4    4    0    0 -0.39187988760E+01  0.13048024348E+02  0.12419880724E+02  0.18435329166E+02  0.51100000000E-03 0. -1.
        -11    1    4    4    0    0 -0.15626284208E+01 -0.73256672256E+00 -0.36107837240E+00  0.17631901306E+01  0.51100000000E-03 0.  1.
         12    1    4    4    0    0  0.26885940426E+02  0.17640666838E+02 -0.11551801064E+02  0.34168567821E+02  0.00000000000E+00 0. -1.
</event>
<event>
 8    1  0.1254059E-006  0.9118800E+02  0.7816164E-02  0.1184000E+00
        -11   -1    0    0    0    0  0.00000000000E+00  0.00000000000E+00  0.45593999997E+02  0.45594000000E+02  0.51100000000E-03 0.  1.
         11   -1    0    0    0    0 -0.00000000000E+00 -0.00000000000E+00 -0.45593999997E+02  0.45594000000E+02  0.51100000000E-03 0. -1.
         23    2    1    2    0    0  0.00000000000E+00  0.00000000000E+00  0.66613381478E-15  0.91188000000E+02  0.91188000000E+02 0.  0.
    9900012    2    3    3    0    0 -0.34331209057E+02 -0.13161036300E+02  0.19832913994E+01  0.54367105978E+02  0.40000049698E+02 0.  0.
        -12    1    3    3    0    0  0.34331209057E+02  0.13161036300E+02 -0.19832913994E+01  0.36820894022E+02  0.00000000000E+00 0.  1.
         11    1    4    4    0    0 -0.19908411931E+02 -0.11255176655E+02  0.15538592691E+02  0.27649081906E+02  0.51100000000E-03 0. -1.
        -11    1    4    4    0    0 -0.42705509283E+01  0.78108507217E+01 -0.62740862692E+01  0.10890874758E+02  0.51100000000E-03 0.  1.
         12    1    4    4    0    0 -0.10152246197E+02 -0.97167103665E+01 -0.72812150223E+01  0.15827149314E+02  0.00000000000E+00 0. -1.
</event>
<event>
 8    1  0.1254059E-006  0.9118800E+02  0.7816164E-02  0.1184000E+00
        -11   -1    0    0    0    0  0.00000000000E+00  0.00000000000E+00  0.45593999997E+02  0.45594000000E+02  0.51100000000E-03 0. -1.
         11   -1    0    0    0    0 -0.00000000000E+00 -0.00000000000E+00 -0.45593999997E+02  0.45594000000E+02  0.51100000000E-03 0.  1.
         23    2    1    2    0    0 -0.53290705182E-14  0.00000000000E+00  0.35527136788E-14  0.91188000000E+02  0.91188000000E+02 0.  0.
    9900012    2    3    3    0    0 -0.14682164103E+02  0.13557056821E+02  0.30926047383E+02  0.54367080143E+02  0.39999990802E+02 0.  0.
        -12    1    3    3    0    0  0.14682164103E+02 -0.13557056821E+02 -0.30926047383E+02  0.36820919857E+02  0.00000000000E+00 0.  1.
         11    1    4    4    0    0  0.24011596334E+01  0.14599369696E+01  0.74463047530E+01  0.79589219293E+01  0.51100000000E-03 0. -1.
        -11    1    4    4    0    0 -0.82299601905E+01 -0.10998362343E+02  0.14806668239E+02  0.20197367244E+02  0.51100000000E-03 0.  1.
         12    1    4    4    0    0 -0.88533635460E+01  0.23095482195E+02  0.86730743907E+01  0.26210790970E+02  0.00000000000E+00 0. -1.
</event>
<event>
 8    1  0.1254059E-006  0.9118800E+02  0.7816164E-02  0.1184000E+00
        -11   -1    0    0    0    0  0.00000000000E+00  0.00000000000E+00  0.45593999997E+02  0.45594000000E+02  0.51100000000E-03 0. -1.
         11   -1    0    0    0    0 -0.00000000000E+00 -0.00000000000E+00 -0.45593999997E+02  0.45594000000E+02  0.51100000000E-03 0.  1.
         23    2    1    2    0    0  0.00000000000E+00  0.35527136788E-14  0.00000000000E+00  0.91188000000E+02  0.91188000000E+02 0.  0.
    9900012    2    3    3    0    0  0.15573568528E+02  0.28875154300E+02  0.16717314750E+02  0.54367093099E+02  0.40000020337E+02 0.  0.
        -12    1    3    3    0    0 -0.15573568528E+02 -0.28875154300E+02 -0.16717314750E+02  0.36820906901E+02  0.00000000000E+00 0.  1.
         11    1    4    4    0    0  0.19058047851E+02  0.13588295778E+02  0.11407595034E+02  0.26038129633E+02  0.51100000000E-03 0. -1.
        -11    1    4    4    0    0  0.90708269885E+00 -0.58891100195E+01  0.27128658271E+01  0.65470647699E+01  0.51100000000E-03 0.  1.
         12    1    4    4    0    0 -0.43915620221E+01  0.21175968541E+02  0.25968538893E+01  0.21781898696E+02  0.00000000000E+00 0. -1.
</event>
<event>
 8    1  0.1254059E-006  0.9118800E+02  0.7816164E-02  0.1184000E+00
        -11   -1    0    0    0    0  0.00000000000E+00  0.00000000000E+00  0.45593999997E+02  0.45594000000E+02  0.51100000000E-03 0. -1.
         11   -1    0    0    0    0 -0.00000000000E+00 -0.00000000000E+00 -0.45593999997E+02  0.45594000000E+02  0.51100000000E-03 0.  1.
         23    2    1    2    0    0  0.00000000000E+00  0.00000000000E+00 -0.22204460493E-15  0.91188000000E+02  0.91188000000E+02 0.  0.
    9900012    2    3    3    0    0  0.23228992936E+02 -0.28540503015E+02 -0.12781202321E+01  0.54367081808E+02  0.39999994598E+02 0.  0.
        -12    1    3    3    0    0 -0.23228992936E+02  0.28540503015E+02  0.12781202321E+01  0.36820918192E+02  0.00000000000E+00 0.  1.
         11    1    4    4    0    0 -0.75813598647E+01 -0.75760114534E+01  0.31998612282E+01  0.11185351093E+02  0.51100000000E-03 0. -1.
        -11    1    4    4    0    0 -0.22928199780E+01  0.14187470558E+01 -0.15598764681E+01  0.31149769689E+01  0.51100000000E-03 0.  1.
        -12    1    4    4    0    0  0.33103172779E+02 -0.22383238617E+02 -0.29181049921E+01  0.40066753746E+02  0.00000000000E+00 0.  1.
</event>
<event>
 8    1  0.1254059E-006  0.9118800E+02  0.7816164E-02  0.1184000E+00
        -11   -1    0    0    0    0  0.00000000000E+00  0.00000000000E+00  0.45593999997E+02  0.45594000000E+02  0.51100000000E-03 0.  1.
         11   -1    0    0    0    0 -0.00000000000E+00 -0.00000000000E+00 -0.45593999997E+02  0.45594000000E+02  0.51100000000E-03 0. -1.
         23    2    1    2    0    0  0.00000000000E+00  0.17763568394E-14 -0.35527136788E-14  0.91188000000E+02  0.91188000000E+02 0.  0.
    9900012    2    3    3    0    0 -0.24999659176E+02  0.55611154688E+01  0.26455079218E+02  0.54367079579E+02  0.39999989517E+02 0.  0.
         12    1    3    3    0    0  0.24999659176E+02 -0.55611154688E+01 -0.26455079218E+02  0.36820920421E+02  0.00000000000E+00 0. -1.
         11    1    4    4    0    0 -0.51958548739E+01  0.18254622919E+02  0.50107751390E+01  0.19629977931E+02  0.51100000000E-03 0. -1.
        -11    1    4    4    0    0 -0.89479153148E+01  0.95992948362E+00  0.33459981340E+01  0.96011643496E+01  0.51100000000E-03 0.  1.
         12    1    4    4    0    0 -0.10855888987E+02 -0.13653436934E+02  0.18098305945E+02  0.25135937299E+02  0.00000000000E+00 0. -1.
</event>
<event>
 8    1  0.1254059E-006  0.9118800E+02  0.7816164E-02  0.1184000E+00
        -11   -1    0    0    0    0  0.00000000000E+00  0.00000000000E+00  0.45593999997E+02  0.45594000000E+02  0.51100000000E-03 0.  1.
         11   -1    0    0    0    0 -0.00000000000E+00 -0.00000000000E+00 -0.45593999997E+02  0.45594000000E+02  0.51100000000E-03 0. -1.
         23    2    1    2    0    0  0.00000000000E+00  0.00000000000E+00  0.00000000000E+00  0.91188000000E+02  0.91188000000E+02 0.  0.
    9900012    2    3    3    0    0  0.25828391255E+02  0.95041606757E+01  0.24461117077E+02  0.54367066910E+02  0.39999960634E+02 0.  0.
         12    1    3    3    0    0 -0.25828391255E+02 -0.95041606757E+01 -0.24461117077E+02  0.36820933090E+02  0.00000000000E+00 0. -1.
         11    1    4    4    0    0  0.20986546687E+00  0.11345815078E+01 -0.22861186284E+01  0.25607923297E+01  0.51100000000E-03 0. -1.
        -11    1    4    4    0    0  0.33192691915E+02  0.17694811211E+01  0.25039856912E+02  0.41615865898E+02  0.51100000000E-03 0.  1.
        -12    1    4    4    0    0 -0.75741661275E+01  0.66000980468E+01  0.17073787937E+01  0.10190408682E+02  0.00000000000E+00 0.  1.
</event>
<event>
 8    1  0.1254059E-006  0.9118800E+02  0.7816164E-02  0.1184000E+00
        -11   -1    0    0    0    0  0.00000000000E+00  0.00000000000E+00  0.45593999997E+02  0.45594000000E+02  0.51100000000E-03 0.  1.
         11   -1    0    0    0    0 -0.00000000000E+00 -0.00000000000E+00 -0.45593999997E+02  0.45594000000E+02  0.51100000000E-03 0. -1.
         23    2    1    2    0    0  0.35527136788E-14  0.35527136788E-14 -0.35527136788E-14  0.91188000000E+02  0.91188000000E+02 0.  0.
    9900012    2    3    3    0    0 -0.18691133117E+02 -0.21621029477E+02 -0.23215336451E+02  0.54367092632E+02  0.40000019274E+02 0.  0.
        -12    1    3    3    0    0  0.18691133117E+02  0.21621029477E+02  0.23215336451E+02  0.36820907368E+02  0.00000000000E+00 0.  1.
         11    1    4    4    0    0 -0.14684514804E+02 -0.41770927353E+01 -0.91718632429E+01  0.17810282265E+02  0.51100000000E-03 0. -1.
        -11    1    4    4    0    0  0.63708535731E+01 -0.21639604816E+02 -0.93161108236E+01  0.24405945853E+02  0.51100000000E-03 0.  1.
        -12    1    4    4    0    0 -0.10377471887E+02  0.41956680741E+01 -0.47273623842E+01  0.12150864515E+02  0.00000000000E+00 0.  1.
</event>
<event>
 8    1  0.1254059E-006  0.9118800E+02  0.7816164E-02  0.1184000E+00
        -11   -1    0    0    0    0  0.00000000000E+00  0.00000000000E+00  0.45593999997E+02  0.45594000000E+02  0.51100000000E-03 0. -1.
         11   -1    0    0    0    0 -0.00000000000E+00 -0.00000000000E+00 -0.45593999997E+02  0.45594000000E+02  0.51100000000E-03 0.  1.
         23    2    1    2    0    0  0.00000000000E+00  0.88817841970E-15  0.00000000000E+00  0.91188000000E+02  0.91188000000E+02 0.  0.
    9900012    2    3    3    0    0  0.22912741597E+02 -0.78417402148E+01  0.27736167274E+02  0.54367060412E+02  0.39999945820E+02 0.  0.
        -12    1    3    3    0    0 -0.22912741597E+02  0.78417402148E+01 -0.27736167274E+02  0.36820939588E+02  0.00000000000E+00 0.  1.
         11    1    4    4    0    0  0.17523062789E+02 -0.11648267743E+01  0.18418663589E+02  0.25449198801E+02  0.51100000000E-03 0. -1.
        -11    1    4    4    0    0  0.31764697923E+01 -0.14914492325E+02  0.12597229638E+02  0.19779338626E+02  0.51100000000E-03 0.  1.
        -12    1    4    4    0    0  0.22132090161E+01  0.82375788843E+01 -0.32797259531E+01  0.91385229853E+01  0.00000000000E+00 0.  1.
</event>
<event>
 8    1  0.1254059E-006  0.9118800E+02  0.7816164E-02  0.1184000E+00
        -11   -1    0    0    0    0  0.00000000000E+00  0.00000000000E+00  0.45593999997E+02  0.45594000000E+02  0.51100000000E-03 0.  1.
         11   -1    0    0    0    0 -0.00000000000E+00 -0.00000000000E+00 -0.45593999997E+02  0.45594000000E+02  0.51100000000E-03 0. -1.
         23    2    1    2    0    0  0.00000000000E+00  0.00000000000E+00  0.00000000000E+00  0.91188000000E+02  0.91188000000E+02 0.  0.
    9900012    2    3    3    0    0 -0.14460112931E+02 -0.33840333272E+02  0.12317422598E+01  0.54367079168E+02  0.39999988580E+02 0.  0.
        -12    1    3    3    0    0  0.14460112931E+02  0.33840333272E+02 -0.12317422598E+01  0.36820920832E+02  0.00000000000E+00 0.  1.
         11    1    4    4    0    0 -0.17743939029E+02 -0.48611808420E+01  0.14594220623E+01  0.18455578139E+02  0.51100000000E-03 0. -1.
        -11    1    4    4    0    0 -0.10211466652E+01  0.32367258539E+01 -0.32095673005E+00  0.34091271975E+01  0.51100000000E-03 0.  1.
         12    1    4    4    0    0  0.43049727636E+01 -0.32215878284E+02  0.93276927592E-01  0.32502373831E+02  0.00000000000E+00 0. -1.
</event>
<event>
 8    1  0.1254059E-006  0.9118800E+02  0.7816164E-02  0.1184000E+00
        -11   -1    0    0    0    0  0.00000000000E+00  0.00000000000E+00  0.45593999997E+02  0.45594000000E+02  0.51100000000E-03 0. -1.
         11   -1    0    0    0    0 -0.00000000000E+00 -0.00000000000E+00 -0.45593999997E+02  0.45594000000E+02  0.51100000000E-03 0.  1.
         23    2    1    2    0    0  0.00000000000E+00  0.00000000000E+00  0.00000000000E+00  0.91188000000E+02  0.91188000000E+02 0.  0.
    9900012    2    3    3    0    0  0.33269559874E+02 -0.86904142855E+01 -0.13167912357E+02  0.54367070754E+02  0.39999969398E+02 0.  0.
         12    1    3    3    0    0 -0.33269559874E+02  0.86904142855E+01  0.13167912357E+02  0.36820929246E+02  0.00000000000E+00 0. -1.
         11    1    4    4    0    0  0.11318899912E+02 -0.17242075350E+02 -0.49268331832E+01  0.21205667711E+02  0.51100000000E-03 0. -1.
        -11    1    4    4    0    0  0.51966764543E+00 -0.36445998747E+01 -0.76570562570E+01  0.84960975449E+01  0.51100000000E-03 0.  1.
        -12    1    4    4    0    0  0.21430992317E+02  0.12196260939E+02 -0.58402291698E+00  0.24665305499E+02  0.00000000000E+00 0.  1.
</event>
<event>
 8    1  0.1254059E-006  0.9118800E+02  0.7816164E-02  0.1184000E+00
        -11   -1    0    0    0    0  0.00000000000E+00  0.00000000000E+00  0.45593999997E+02  0.45594000000E+02  0.51100000000E-03 0.  1.
         11   -1    0    0    0    0 -0.00000000000E+00 -0.00000000000E+00 -0.45593999997E+02  0.45594000000E+02  0.51100000000E-03 0. -1.
         23    2    1    2    0    0  0.35527136788E-14 -0.35527136788E-14  0.17763568394E-14  0.91188000000E+02  0.91188000000E+02 0.  0.
    9900012    2    3    3    0    0  0.27865507462E+02 -0.20722926800E+02  0.12241497617E+02  0.54367075715E+02  0.39999980708E+02 0.  0.
         12    1    3    3    0    0 -0.27865507462E+02  0.20722926800E+02 -0.12241497617E+02  0.36820924285E+02  0.00000000000E+00 0. -1.
         11    1    4    4    0    0  0.34455042985E+01  0.71527945491E+01  0.35189274715E+01  0.86842858396E+01  0.51100000000E-03 0. -1.
        -11    1    4    4    0    0  0.13607827593E+02 -0.56397718413E+00  0.89694088781E+01  0.16307707931E+02  0.51100000000E-03 0.  1.
        -12    1    4    4    0    0  0.10812175570E+02 -0.27311744165E+02 -0.24683873230E+00  0.29375081945E+02  0.00000000000E+00 0.  1.
</event>
<event>
 8    1  0.1254059E-006  0.9118800E+02  0.7816164E-02  0.1184000E+00
        -11   -1    0    0    0    0  0.00000000000E+00  0.00000000000E+00  0.45593999997E+02  0.45594000000E+02  0.51100000000E-03 0. -1.
         11   -1    0    0    0    0 -0.00000000000E+00 -0.00000000000E+00 -0.45593999997E+02  0.45594000000E+02  0.51100000000E-03 0.  1.
         23    2    1    2    0    0  0.00000000000E+00  0.17763568394E-14  0.88817841970E-15  0.91188000000E+02  0.91188000000E+02 0.  0.
    9900012    2    3    3    0    0 -0.35688039390E+02  0.45560623034E+01  0.78349242526E+01  0.54367083427E+02  0.39999998289E+02 0.  0.
        -12    1    3    3    0    0  0.35688039390E+02 -0.45560623034E+01 -0.78349242526E+01  0.36820916573E+02  0.00000000000E+00 0.  1.
         11    1    4    4    0    0 -0.73505876705E+01  0.91805119461E+01 -0.10507976427E+02  0.15771192331E+02  0.51100000000E-03 0. -1.
        -11    1    4    4    0    0  0.44363213431E-01 -0.27004870422E+01 -0.22191896287E+01  0.34956260139E+01  0.51100000000E-03 0.  1.
        -12    1    4    4    0    0 -0.28381814933E+02 -0.19239626005E+01  0.20562090309E+02  0.35100265082E+02  0.00000000000E+00 0.  1.
</event>
<event>
 8    1  0.1254059E-006  0.9118800E+02  0.7816164E-02  0.1184000E+00
        -11   -1    0    0    0    0  0.00000000000E+00  0.00000000000E+00  0.45593999997E+02  0.45594000000E+02  0.51100000000E-03 0. -1.
         11   -1    0    0    0    0 -0.00000000000E+00 -0.00000000000E+00 -0.45593999997E+02  0.45594000000E+02  0.51100000000E-03 0.  1.
         23    2    1    2    0    0  0.00000000000E+00  0.00000000000E+00  0.00000000000E+00  0.91188000000E+02  0.91188000000E+02 0.  0.
    9900012    2    3    3    0    0  0.57891984865E+01 -0.58837959634E+01 -0.35883797677E+02  0.54367071036E+02  0.39999970041E+02 0.  0.
         12    1    3    3    0    0 -0.57891984865E+01  0.58837959634E+01  0.35883797677E+02  0.36820928964E+02  0.00000000000E+00 0. -1.
         11    1    4    4    0    0  0.48411999094E+00 -0.13033083763E+02 -0.15898790001E+01  0.13138620934E+02  0.51100000000E-03 0. -1.
        -11    1    4    4    0    0  0.40252081644E+01 -0.72314191780E+01 -0.14987353763E+02  0.17120645349E+02  0.51100000000E-03 0.  1.
        -12    1    4    4    0    0  0.12798703311E+01  0.14380706978E+02 -0.19306564914E+02  0.24107804753E+02  0.00000000000E+00 0.  1.
</event>
<event>
 8    1  0.1254059E-006  0.9118800E+02  0.7816164E-02  0.1184000E+00
        -11   -1    0    0    0    0  0.00000000000E+00  0.00000000000E+00  0.45593999997E+02  0.45594000000E+02  0.51100000000E-03 0. -1.
         11   -1    0    0    0    0 -0.00000000000E+00 -0.00000000000E+00 -0.45593999997E+02  0.45594000000E+02  0.51100000000E-03 0.  1.
         23    2    1    2    0    0 -0.71054273576E-14  0.44408920985E-15 -0.35527136788E-14  0.91188000000E+02  0.91188000000E+02 0.  0.
    9900012    2    3    3    0    0  0.27644511360E+02 -0.52269729576E+00 -0.24316414371E+02  0.54367078927E+02  0.39999988030E+02 0.  0.
         12    1    3    3    0    0 -0.27644511360E+02  0.52269729576E+00  0.24316414371E+02  0.36820921073E+02  0.00000000000E+00 0. -1.
         11    1    4    4    0    0  0.34987798411E+02  0.31667372345E+01 -0.17910965344E+02  0.39433195942E+02  0.51100000000E-03 0. -1.
        -11    1    4    4    0    0  0.17935411371E+00 -0.56049974345E+01 -0.17153732647E+01  0.58643558757E+01  0.51100000000E-03 0.  1.
         12    1    4    4    0    0 -0.75226411649E+01  0.19155629042E+01 -0.46900757626E+01  0.90695271097E+01  0.00000000000E+00 0. -1.
</event>
<event>
 8    1  0.1254059E-006  0.9118800E+02  0.7816164E-02  0.1184000E+00
        -11   -1    0    0    0    0  0.00000000000E+00  0.00000000000E+00  0.45593999997E+02  0.45594000000E+02  0.51100000000E-03 0.  1.
         11   -1    0    0    0    0 -0.00000000000E+00 -0.00000000000E+00 -0.45593999997E+02  0.45594000000E+02  0.51100000000E-03 0. -1.
         23    2    1    2    0    0 -0.17763568394E-14  0.00000000000E+00 -0.53290705182E-14  0.91188000000E+02  0.91188000000E+02 0.  0.
    9900012    2    3    3    0    0 -0.10971897598E+02 -0.32875649912E+02 -0.12433404585E+02  0.54367076008E+02  0.39999981376E+02 0.  0.
        -12    1    3    3    0    0  0.10971897598E+02  0.32875649912E+02  0.12433404585E+02  0.36820923992E+02  0.00000000000E+00 0.  1.
         11    1    4    4    0    0  0.25171721260E+01 -0.43375512690E+01  0.91673723085E+01  0.10449460361E+02  0.51100000000E-03 0. -1.
        -11    1    4    4    0    0  0.57980663854E+00 -0.10815343089E+02  0.22269628942E+01  0.11057449338E+02  0.51100000000E-03 0.  1.
         12    1    4    4    0    0 -0.14068876362E+02 -0.17722755554E+02 -0.23827739787E+02  0.32860166309E+02  0.00000000000E+00 0. -1.
</event>
<event>
 8    1  0.1254059E-006  0.9118800E+02  0.7816164E-02  0.1184000E+00
        -11   -1    0    0    0    0  0.00000000000E+00  0.00000000000E+00  0.45593999997E+02  0.45594000000E+02  0.51100000000E-03 0.  1.
         11   -1    0    0    0    0 -0.00000000000E+00 -0.00000000000E+00 -0.45593999997E+02  0.45594000000E+02  0.51100000000E-03 0. -1.
         23    2    1    2    0    0  0.00000000000E+00 -0.88817841970E-15  0.35527136788E-14  0.91188000000E+02  0.91188000000E+02 0.  0.
    9900012    2    3    3    0    0 -0.23829188743E+02 -0.41739544043E+01  0.27758391020E+02  0.54367076553E+02  0.39999982617E+02 0.  0.
         12    1    3    3    0    0  0.23829188743E+02  0.41739544043E+01 -0.27758391020E+02  0.36820923447E+02  0.00000000000E+00 0. -1.
         11    1    4    4    0    0 -0.97198888664E+01  0.96299675967E+01  0.26685378424E+02  0.29988696827E+02  0.51100000000E-03 0. -1.
        -11    1    4    4    0    0 -0.60555926719E+00  0.13695160380E+01  0.36101373606E+01  0.39083715571E+01  0.51100000000E-03 0.  1.
        -12    1    4    4    0    0 -0.13503740609E+02 -0.15173438039E+02 -0.25371247647E+01  0.20470008169E+02  0.00000000000E+00 0.  1.
</event>
<event>
 8    1  0.1254059E-006  0.9118800E+02  0.7816164E-02  0.1184000E+00
        -11   -1    0    0    0    0  0.00000000000E+00  0.00000000000E+00  0.45593999997E+02  0.45594000000E+02  0.51100000000E-03 0.  1.
         11   -1    0    0    0    0 -0.00000000000E+00 -0.00000000000E+00 -0.45593999997E+02  0.45594000000E+02  0.51100000000E-03 0. -1.
         23    2    1    2    0    0  0.22204460493E-15 -0.17763568394E-14  0.00000000000E+00  0.91188000000E+02  0.91188000000E+02 0.  0.
    9900012    2    3    3    0    0  0.73895945381E+00 -0.15356029411E+02  0.33457832413E+02  0.54367078636E+02  0.39999987366E+02 0.  0.
         12    1    3    3    0    0 -0.73895945381E+00  0.15356029411E+02 -0.33457832413E+02  0.36820921364E+02  0.00000000000E+00 0. -1.
         11    1    4    4    0    0 -0.43997375834E+01 -0.16746840882E+02  0.25374140021E+02  0.30719071477E+02  0.51100000000E-03 0. -1.
        -11    1    4    4    0    0  0.24582589275E+01 -0.99359383811E+01  0.58716418724E+01  0.11800088432E+02  0.51100000000E-03 0.  1.
         12    1    4    4    0    0  0.26804381097E+01  0.11326749852E+02  0.22120505192E+01  0.11847918727E+02  0.00000000000E+00 0. -1.
</event>
<event>
 8    1  0.1254059E-006  0.9118800E+02  0.7816164E-02  0.1184000E+00
        -11   -1    0    0    0    0  0.00000000000E+00  0.00000000000E+00  0.45593999997E+02  0.45594000000E+02  0.51100000000E-03 0. -1.
         11   -1    0    0    0    0 -0.00000000000E+00 -0.00000000000E+00 -0.45593999997E+02  0.45594000000E+02  0.51100000000E-03 0.  1.
         23    2    1    2    0    0 -0.44408920985E-15  0.00000000000E+00  0.00000000000E+00  0.91188000000E+02  0.91188000000E+02 0.  0.
    9900012    2    3    3    0    0 -0.18540350844E+01 -0.35665636252E+02 -0.89615088321E+01  0.54367031845E+02  0.39999880696E+02 0.  0.
         12    1    3    3    0    0  0.18540350844E+01  0.35665636252E+02  0.89615088321E+01  0.36820968155E+02  0.00000000000E+00 0. -1.
         11    1    4    4    0    0 -0.78586143846E+01 -0.10540253710E+01  0.64046027097E+01  0.10192532838E+02  0.51100000000E-03 0. -1.
        -11    1    4    4    0    0 -0.74892820843E+01 -0.99526490552E+01 -0.71586428093E+00  0.12476258705E+02  0.51100000000E-03 0.  1.
        -12    1    4    4    0    0  0.13493861385E+02 -0.24658961826E+02 -0.14650247261E+02  0.31698240301E+02  0.00000000000E+00 0.  1.
</event>
<event>
 8    1  0.1254059E-006  0.9118800E+02  0.7816164E-02  0.1184000E+00
        -11   -1    0    0    0    0  0.00000000000E+00  0.00000000000E+00  0.45593999997E+02  0.45594000000E+02  0.51100000000E-03 0.  1.
         11   -1    0    0    0    0 -0.00000000000E+00 -0.00000000000E+00 -0.45593999997E+02  0.45594000000E+02  0.51100000000E-03 0. -1.
         23    2    1    2    0    0 -0.71054273576E-14  0.00000000000E+00  0.00000000000E+00  0.91188000000E+02  0.91188000000E+02 0.  0.
    9900012    2    3    3    0    0  0.33124895068E+02 -0.45241958702E+01 -0.15428969191E+02  0.54367080514E+02  0.39999991647E+02 0.  0.
        -12    1    3    3    0    0 -0.33124895068E+02  0.45241958702E+01  0.15428969191E+02  0.36820919486E+02  0.00000000000E+00 0.  1.
         11    1    4    4    0    0  0.28002692584E+02  0.83373059365E+01 -0.14477631833E+02  0.32607718197E+02  0.51100000000E-03 0. -1.
        -11    1    4    4    0    0  0.33476686086E+01  0.36307331625E+01  0.10582547073E+01  0.50506446813E+01  0.51100000000E-03 0.  1.
        -12    1    4    4    0    0  0.17745338752E+01 -0.16492234969E+02 -0.20095920644E+01  0.16708717635E+02  0.00000000000E+00 0.  1.
</event>
<event>
 8    1  0.1254059E-006  0.9118800E+02  0.7816164E-02  0.1184000E+00
        -11   -1    0    0    0    0  0.00000000000E+00  0.00000000000E+00  0.45593999997E+02  0.45594000000E+02  0.51100000000E-03 0. -1.
         11   -1    0    0    0    0 -0.00000000000E+00 -0.00000000000E+00 -0.45593999997E+02  0.45594000000E+02  0.51100000000E-03 0.  1.
         23    2    1    2    0    0  0.00000000000E+00  0.00000000000E+00  0.00000000000E+00  0.91188000000E+02  0.91188000000E+02 0.  0.
    9900012    2    3    3    0    0 -0.33178222491E+02 -0.11983159862E+02 -0.10554123969E+02  0.54367080664E+02  0.39999991990E+02 0.  0.
         12    1    3    3    0    0  0.33178222491E+02  0.11983159862E+02  0.10554123969E+02  0.36820919336E+02  0.00000000000E+00 0. -1.
         11    1    4    4    0    0  0.25016824116E+01 -0.68605200169E+01  0.65711991749E+00  0.73319135727E+01  0.51100000000E-03 0. -1.
        -11    1    4    4    0    0 -0.34776903754E+02 -0.12812552545E+02 -0.12646942750E+02  0.39160435373E+02  0.51100000000E-03 0.  1.
        -12    1    4    4    0    0 -0.90300114876E+00  0.76899126998E+01  0.14356988635E+01  0.78747317181E+01  0.00000000000E+00 0.  1.
</event>
<event>
 8    1  0.1254059E-006  0.9118800E+02  0.7816164E-02  0.1184000E+00
        -11   -1    0    0    0    0  0.00000000000E+00  0.00000000000E+00  0.45593999997E+02  0.45594000000E+02  0.51100000000E-03 0. -1.
         11   -1    0    0    0    0 -0.00000000000E+00 -0.00000000000E+00 -0.45593999997E+02  0.45594000000E+02  0.51100000000E-03 0.  1.
         23    2    1    2    0    0  0.00000000000E+00  0.00000000000E+00  0.71054273576E-14  0.91188000000E+02  0.91188000000E+02 0.  0.
    9900012    2    3    3    0    0  0.20813434039E+02  0.10794359241E+02  0.28391249960E+02  0.54367077929E+02  0.39999985754E+02 0.  0.
        -12    1    3    3    0    0 -0.20813434039E+02 -0.10794359241E+02 -0.28391249960E+02  0.36820922071E+02  0.00000000000E+00 0.  1.
         11    1    4    4    0    0  0.16659122232E+02  0.26251393000E+01  0.24882102733E+02  0.30058887979E+02  0.51100000000E-03 0. -1.
        -11    1    4    4    0    0 -0.50397274291E+01  0.11276115565E+02 -0.28885167297E+01  0.12684366912E+02  0.51100000000E-03 0.  1.
        -12    1    4    4    0    0  0.91940392362E+01 -0.31068956246E+01  0.63976639568E+01  0.11623823037E+02  0.00000000000E+00 0.  1.
</event>
<event>
 8    1  0.1254059E-006  0.9118800E+02  0.7816164E-02  0.1184000E+00
        -11   -1    0    0    0    0  0.00000000000E+00  0.00000000000E+00  0.45593999997E+02  0.45594000000E+02  0.51100000000E-03 0.  1.
         11   -1    0    0    0    0 -0.00000000000E+00 -0.00000000000E+00 -0.45593999997E+02  0.45594000000E+02  0.51100000000E-03 0. -1.
         23    2    1    2    0    0 -0.88817841970E-15  0.00000000000E+00  0.00000000000E+00  0.91188000000E+02  0.91188000000E+02 0.  0.
    9900012    2    3    3    0    0  0.72096601698E+01 -0.30935422869E+02  0.18622492526E+02  0.54367125272E+02  0.40000093683E+02 0.  0.
         12    1    3    3    0    0 -0.72096601698E+01  0.30935422869E+02 -0.18622492526E+02  0.36820874728E+02  0.00000000000E+00 0. -1.
         11    1    4    4    0    0 -0.75180412920E+01 -0.10348812302E+02  0.25027735462E+00  0.12793807094E+02  0.51100000000E-03 0. -1.
        -11    1    4    4    0    0  0.21343903991E+02 -0.16876283367E+02  0.20056683102E+02  0.33802983820E+02  0.51100000000E-03 0.  1.
        -12    1    4    4    0    0 -0.66162025287E+01 -0.37103271999E+01 -0.16844679311E+01  0.77703343585E+01  0.00000000000E+00 0.  1.
</event>
<event>
 8    1  0.1254059E-006  0.9118800E+02  0.7816164E-02  0.1184000E+00
        -11   -1    0    0    0    0  0.00000000000E+00  0.00000000000E+00  0.45593999997E+02  0.45594000000E+02  0.51100000000E-03 0.  1.
         11   -1    0    0    0    0 -0.00000000000E+00 -0.00000000000E+00 -0.45593999997E+02  0.45594000000E+02  0.51100000000E-03 0. -1.
         23    2    1    2    0    0 -0.35527136788E-14  0.12767564783E-14  0.71054273576E-14  0.91188000000E+02  0.91188000000E+02 0.  0.
    9900012    2    3    3    0    0 -0.16988374384E+02 -0.14709124332E+00  0.32667262870E+02  0.54367128697E+02  0.40000101491E+02 0.  0.
         12    1    3    3    0    0  0.16988374384E+02  0.14709124332E+00 -0.32667262870E+02  0.36820871303E+02  0.00000000000E+00 0. -1.
         11    1    4    4    0    0  0.46320065076E+01 -0.57350523675E+01  0.68454750032E+01  0.10060160944E+02  0.51100000000E-03 0. -1.
        -11    1    4    4    0    0 -0.28367368099E+02  0.67452118008E+01  0.21038869401E+02  0.35956077109E+02  0.51100000000E-03 0.  1.
         12    1    4    4    0    0  0.67469872073E+01 -0.11572506766E+01  0.47829184659E+01  0.83508906445E+01  0.00000000000E+00 0. -1.
</event>
<event>
 8    1  0.1254059E-006  0.9118800E+02  0.7816164E-02  0.1184000E+00
        -11   -1    0    0    0    0  0.00000000000E+00  0.00000000000E+00  0.45593999997E+02  0.45594000000E+02  0.51100000000E-03 0. -1.
         11   -1    0    0    0    0 -0.00000000000E+00 -0.00000000000E+00 -0.45593999997E+02  0.45594000000E+02  0.51100000000E-03 0.  1.
         23    2    1    2    0    0  0.00000000000E+00  0.36776137691E-15  0.00000000000E+00  0.91188000000E+02  0.91188000000E+02 0.  0.
    9900012    2    3    3    0    0 -0.17178391125E+02  0.52982653211E-01 -0.32568080624E+02  0.54367084689E+02  0.40000001165E+02 0.  0.
         12    1    3    3    0    0  0.17178391125E+02 -0.52982653211E-01  0.32568080624E+02  0.36820915311E+02  0.00000000000E+00 0. -1.
         11    1    4    4    0    0 -0.44984175468E+01 -0.19022683446E+01  0.44743405081E+01  0.66237533562E+01  0.51100000000E-03 0. -1.
        -11    1    4    4    0    0 -0.15705576176E+02  0.11030138204E+02 -0.17444096170E+02  0.25935025800E+02  0.51100000000E-03 0.  1.
        -12    1    4    4    0    0  0.30256025971E+01 -0.90748872061E+01 -0.19598324962E+02  0.21808305532E+02  0.00000000000E+00 0.  1.
</event>
<event>
 8    1  0.1254059E-006  0.9118800E+02  0.7816164E-02  0.1184000E+00
        -11   -1    0    0    0    0  0.00000000000E+00  0.00000000000E+00  0.45593999997E+02  0.45594000000E+02  0.51100000000E-03 0. -1.
         11   -1    0    0    0    0 -0.00000000000E+00 -0.00000000000E+00 -0.45593999997E+02  0.45594000000E+02  0.51100000000E-03 0.  1.
         23    2    1    2    0    0  0.00000000000E+00  0.35527136788E-14  0.71054273576E-14  0.91188000000E+02  0.91188000000E+02 0.  0.
    9900012    2    3    3    0    0  0.62492991572E+01  0.15940047714E+02  0.32598180833E+02  0.54367078573E+02  0.39999987223E+02 0.  0.
        -12    1    3    3    0    0 -0.62492991572E+01 -0.15940047714E+02 -0.32598180833E+02  0.36820921427E+02  0.00000000000E+00 0.  1.
         11    1    4    4    0    0  0.41923401333E+01 -0.69353175905E+01  0.24982455799E+02  0.26263995200E+02  0.51100000000E-03 0. -1.
        -11    1    4    4    0    0  0.31601170934E+01  0.33425441576E+01 -0.33361229646E+01  0.56823109898E+01  0.51100000000E-03 0.  1.
        -12    1    4    4    0    0 -0.11031580696E+01  0.19532821146E+02  0.10951847999E+02  0.22420772383E+02  0.00000000000E+00 0.  1.
</event>
<event>
 8    1  0.1254059E-006  0.9118800E+02  0.7816164E-02  0.1184000E+00
        -11   -1    0    0    0    0  0.00000000000E+00  0.00000000000E+00  0.45593999997E+02  0.45594000000E+02  0.51100000000E-03 0.  1.
         11   -1    0    0    0    0 -0.00000000000E+00 -0.00000000000E+00 -0.45593999997E+02  0.45594000000E+02  0.51100000000E-03 0. -1.
         23    2    1    2    0    0  0.00000000000E+00  0.35527136788E-14 -0.35527136788E-14  0.91188000000E+02  0.91188000000E+02 0.  0.
    9900012    2    3    3    0    0 -0.17980192523E+02 -0.28600395970E+02  0.14646200690E+02  0.54367066179E+02  0.39999958968E+02 0.  0.
         12    1    3    3    0    0  0.17980192523E+02  0.28600395970E+02 -0.14646200690E+02  0.36820933821E+02  0.00000000000E+00 0. -1.
         11    1    4    4    0    0 -0.38277289020E+01  0.43483106329E+01  0.10554023597E+01  0.58883943744E+01  0.51100000000E-03 0. -1.
        -11    1    4    4    0    0 -0.54235888449E+01 -0.19408870829E+02 -0.78782797307E+01  0.21637626362E+02  0.51100000000E-03 0.  1.
        -12    1    4    4    0    0 -0.87288747760E+01 -0.13539835774E+02  0.21469078061E+02  0.26841045442E+02  0.00000000000E+00 0.  1.
</event>
<event>
 8    1  0.1254059E-006  0.9118800E+02  0.7816164E-02  0.1184000E+00
        -11   -1    0    0    0    0  0.00000000000E+00  0.00000000000E+00  0.45593999997E+02  0.45594000000E+02  0.51100000000E-03 0.  1.
         11   -1    0    0    0    0 -0.00000000000E+00 -0.00000000000E+00 -0.45593999997E+02  0.45594000000E+02  0.51100000000E-03 0. -1.
         23    2    1    2    0    0  0.44408920985E-15  0.00000000000E+00  0.00000000000E+00  0.91188000000E+02  0.91188000000E+02 0.  0.
    9900012    2    3    3    0    0  0.36898865338E+01  0.12703086743E+01 -0.36613542438E+02  0.54367076103E+02  0.39999981591E+02 0.  0.
        -12    1    3    3    0    0 -0.36898865338E+01 -0.12703086743E+01  0.36613542438E+02  0.36820923897E+02  0.00000000000E+00 0.  1.
         11    1    4    4    0    0 -0.52914900147E+01 -0.74082735390E+00 -0.12007035932E+02  0.13142206963E+02  0.51100000000E-03 0. -1.
        -11    1    4    4    0    0 -0.31233436629E+01  0.24637199071E+01 -0.28286634888E+02  0.28564994398E+02  0.51100000000E-03 0.  1.
        -12    1    4    4    0    0  0.12104720211E+02 -0.45258387896E+00  0.36801283810E+01  0.12659874741E+02  0.00000000000E+00 0.  1.
</event>
<event>
 8    1  0.1254059E-006  0.9118800E+02  0.7816164E-02  0.1184000E+00
        -11   -1    0    0    0    0  0.00000000000E+00  0.00000000000E+00  0.45593999997E+02  0.45594000000E+02  0.51100000000E-03 0. -1.
         11   -1    0    0    0    0 -0.00000000000E+00 -0.00000000000E+00 -0.45593999997E+02  0.45594000000E+02  0.51100000000E-03 0.  1.
         23    2    1    2    0    0 -0.44408920985E-15 -0.17763568394E-14  0.00000000000E+00  0.91188000000E+02  0.91188000000E+02 0.  0.
    9900012    2    3    3    0    0 -0.36718076739E+01  0.15921251689E+02 -0.32997093148E+02  0.54367128430E+02  0.40000100882E+02 0.  0.
         12    1    3    3    0    0  0.36718076739E+01 -0.15921251689E+02  0.32997093148E+02  0.36820871570E+02  0.00000000000E+00 0. -1.
         11    1    4    4    0    0 -0.10339176895E+02  0.16321646015E+02 -0.22769014829E+02  0.29861727077E+02  0.51100000000E-03 0. -1.
        -11    1    4    4    0    0  0.21393132759E+01  0.83929738091E+01  0.18881626905E+01  0.88647520698E+01  0.51100000000E-03 0.  1.
         12    1    4    4    0    0  0.45280559448E+01 -0.87933681350E+01 -0.12116241009E+02  0.15640649283E+02  0.00000000000E+00 0. -1.
</event>
<event>
 8    1  0.1254059E-006  0.9118800E+02  0.7816164E-02  0.1184000E+00
        -11   -1    0    0    0    0  0.00000000000E+00  0.00000000000E+00  0.45593999997E+02  0.45594000000E+02  0.51100000000E-03 0.  1.
         11   -1    0    0    0    0 -0.00000000000E+00 -0.00000000000E+00 -0.45593999997E+02  0.45594000000E+02  0.51100000000E-03 0. -1.
         23    2    1    2    0    0  0.17763568394E-14 -0.35527136788E-14 -0.71054273576E-14  0.91188000000E+02  0.91188000000E+02 0.  0.
    9900012    2    3    3    0    0 -0.11853993821E+02  0.24679382740E+02  0.24620939661E+02  0.54367085132E+02  0.40000002174E+02 0.  0.
        -12    1    3    3    0    0  0.11853993821E+02 -0.24679382740E+02 -0.24620939661E+02  0.36820914868E+02  0.00000000000E+00 0.  1.
         11    1    4    4    0    0 -0.46554189400E+01  0.10003293119E+02  0.16806409112E+02  0.20104581225E+02  0.51100000000E-03 0. -1.
        -11    1    4    4    0    0  0.64360191934E+01  0.82484529842E+01 -0.74236240572E+01  0.12828464994E+02  0.51100000000E-03 0.  1.
        -12    1    4    4    0    0 -0.13634594074E+02  0.64276366373E+01  0.15238154607E+02  0.21434038913E+02  0.00000000000E+00 0.  1.
</event>
<event>
 8    1  0.1254059E-006  0.9118800E+02  0.7816164E-02  0.1184000E+00
        -11   -1    0    0    0    0  0.00000000000E+00  0.00000000000E+00  0.45593999997E+02  0.45594000000E+02  0.51100000000E-03 0.  1.
         11   -1    0    0    0    0 -0.00000000000E+00 -0.00000000000E+00 -0.45593999997E+02  0.45594000000E+02  0.51100000000E-03 0. -1.
         23    2    1    2    0    0  0.00000000000E+00 -0.44408920985E-15  0.00000000000E+00  0.91188000000E+02  0.91188000000E+02 0.  0.
    9900012    2    3    3    0    0  0.65680489046E+01  0.27183808411E+01  0.36128260298E+02  0.54367081313E+02  0.39999993469E+02 0.  0.
         12    1    3    3    0    0 -0.65680489046E+01 -0.27183808411E+01 -0.36128260298E+02  0.36820918687E+02  0.00000000000E+00 0. -1.
         11    1    4    4    0    0  0.31900417062E+01 -0.80272205588E+01  0.93018433668E+01  0.12693972045E+02  0.51100000000E-03 0. -1.
        -11    1    4    4    0    0 -0.10970000786E+02  0.71978219304E+01  0.22880211007E+02  0.26375246231E+02  0.51100000000E-03 0.  1.
         12    1    4    4    0    0  0.14348007985E+02  0.35477794695E+01  0.39462059243E+01  0.15297863037E+02  0.00000000000E+00 0. -1.
</event>
<event>
 8    1  0.1254059E-006  0.9118800E+02  0.7816164E-02  0.1184000E+00
        -11   -1    0    0    0    0  0.00000000000E+00  0.00000000000E+00  0.45593999997E+02  0.45594000000E+02  0.51100000000E-03 0. -1.
         11   -1    0    0    0    0 -0.00000000000E+00 -0.00000000000E+00 -0.45593999997E+02  0.45594000000E+02  0.51100000000E-03 0.  1.
         23    2    1    2    0    0  0.00000000000E+00  0.00000000000E+00  0.00000000000E+00  0.91188000000E+02  0.91188000000E+02 0.  0.
    9900012    2    3    3    0    0 -0.81794840126E+01  0.60192575230E+01  0.35392784576E+02  0.54367019298E+02  0.39999852093E+02 0.  0.
        -12    1    3    3    0    0  0.81794840126E+01 -0.60192575230E+01 -0.35392784576E+02  0.36820980702E+02  0.00000000000E+00 0.  1.
         11    1    4    4    0    0 -0.12941491358E+01  0.79064796473E+01  0.14904122928E+02  0.16920996511E+02  0.51100000000E-03 0. -1.
        -11    1    4    4    0    0 -0.17039640815E+02  0.55373633335E+01  0.76800815815E+01  0.19493470834E+02  0.51100000000E-03 0.  1.
         12    1    4    4    0    0  0.10154305938E+02 -0.74245854579E+01  0.12808580066E+02  0.17952551953E+02  0.00000000000E+00 0. -1.
</event>
<event>
 8    1  0.1254059E-006  0.9118800E+02  0.7816164E-02  0.1184000E+00
        -11   -1    0    0    0    0  0.00000000000E+00  0.00000000000E+00  0.45593999997E+02  0.45594000000E+02  0.51100000000E-03 0. -1.
         11   -1    0    0    0    0 -0.00000000000E+00 -0.00000000000E+00 -0.45593999997E+02  0.45594000000E+02  0.51100000000E-03 0.  1.
         23    2    1    2    0    0 -0.35527136788E-14  0.00000000000E+00  0.00000000000E+00  0.91188000000E+02  0.91188000000E+02 0.  0.
    9900012    2    3    3    0    0  0.28937889355E+02 -0.19816697943E+02 -0.11210666438E+02  0.54367054878E+02  0.39999933206E+02 0.  0.
         12    1    3    3    0    0 -0.28937889355E+02  0.19816697943E+02  0.11210666438E+02  0.36820945122E+02  0.00000000000E+00 0. -1.
         11    1    4    4    0    0  0.25805257016E+01 -0.13791131950E+02  0.91610879805E+01  0.16756490283E+02  0.51100000000E-03 0. -1.
        -11    1    4    4    0    0  0.23810036302E+02 -0.10773102422E+02 -0.15756515598E+02  0.30516312827E+02  0.51100000000E-03 0.  1.
         12    1    4    4    0    0  0.25473273515E+01  0.47475364293E+01 -0.46152388208E+01  0.70942517686E+01  0.00000000000E+00 0. -1.
</event>
<event>
 8    1  0.1254059E-006  0.9118800E+02  0.7816164E-02  0.1184000E+00
        -11   -1    0    0    0    0  0.00000000000E+00  0.00000000000E+00  0.45593999997E+02  0.45594000000E+02  0.51100000000E-03 0. -1.
         11   -1    0    0    0    0 -0.00000000000E+00 -0.00000000000E+00 -0.45593999997E+02  0.45594000000E+02  0.51100000000E-03 0.  1.
         23    2    1    2    0    0  0.00000000000E+00 -0.35527136788E-14 -0.17763568394E-14  0.91188000000E+02  0.91188000000E+02 0.  0.
    9900012    2    3    3    0    0 -0.17757603895E+02 -0.31160712275E+02 -0.83340200679E+01  0.54367104084E+02  0.40000045380E+02 0.  0.
         12    1    3    3    0    0  0.17757603895E+02  0.31160712275E+02  0.83340200679E+01  0.36820895916E+02  0.00000000000E+00 0. -1.
         11    1    4    4    0    0 -0.13718370946E+02 -0.34310517509E+01 -0.17826060048E+02  0.22753774074E+02  0.51100000000E-03 0. -1.
        -11    1    4    4    0    0  0.28584231371E+01 -0.93967942102E+01  0.65511094818E+01  0.11806242415E+02  0.51100000000E-03 0.  1.
         12    1    4    4    0    0 -0.68976560864E+01 -0.18332866314E+02  0.29409304984E+01  0.19807087594E+02  0.00000000000E+00 0. -1.
</event>
<event>
 8    1  0.1254059E-006  0.9118800E+02  0.7816164E-02  0.1184000E+00
        -11   -1    0    0    0    0  0.00000000000E+00  0.00000000000E+00  0.45593999997E+02  0.45594000000E+02  0.51100000000E-03 0. -1.
         11   -1    0    0    0    0 -0.00000000000E+00 -0.00000000000E+00 -0.45593999997E+02  0.45594000000E+02  0.51100000000E-03 0.  1.
         23    2    1    2    0    0  0.00000000000E+00  0.00000000000E+00  0.35527136788E-14  0.91188000000E+02  0.91188000000E+02 0.  0.
    9900012    2    3    3    0    0  0.62565432429E+01  0.26506965604E+02  0.24779372720E+02  0.54367070201E+02  0.39999968137E+02 0.  0.
        -12    1    3    3    0    0 -0.62565432429E+01 -0.26506965604E+02 -0.24779372720E+02  0.36820929799E+02  0.00000000000E+00 0.  1.
         11    1    4    4    0    0 -0.54981912776E+00  0.19350296520E+01 -0.98984753691E+01  0.10100814607E+02  0.51100000000E-03 0. -1.
        -11    1    4    4    0    0  0.30961693282E+01  0.44684288338E+01  0.14739650183E+02  0.15710200780E+02  0.51100000000E-03 0.  1.
         12    1    4    4    0    0  0.37101930425E+01  0.20103507118E+02  0.19938197906E+02  0.28556054815E+02  0.00000000000E+00 0. -1.
</event>
<event>
 8    1  0.1254059E-006  0.9118800E+02  0.7816164E-02  0.1184000E+00
        -11   -1    0    0    0    0  0.00000000000E+00  0.00000000000E+00  0.45593999997E+02  0.45594000000E+02  0.51100000000E-03 0.  1.
         11   -1    0    0    0    0 -0.00000000000E+00 -0.00000000000E+00 -0.45593999997E+02  0.45594000000E+02  0.51100000000E-03 0. -1.
         23    2    1    2    0    0  0.00000000000E+00  0.00000000000E+00  0.00000000000E+00  0.91188000000E+02  0.91188000000E+02 0.  0.
    9900012    2    3    3    0    0 -0.33791174295E+02  0.81980057232E+01  0.12113180658E+02  0.54367083339E+02  0.39999998089E+02 0.  0.
        -12    1    3    3    0    0  0.33791174295E+02 -0.81980057232E+01 -0.12113180658E+02  0.36820916661E+02  0.00000000000E+00 0.  1.
         11    1    4    4    0    0 -0.17118513817E+02 -0.75715258537E+00  0.11635489296E+01  0.17174709363E+02  0.51100000000E-03 0.  1.
        -11    1    4    4    0    0 -0.99576615347E+01  0.27647045873E+01  0.21126249179E+02  0.23518439985E+02  0.51100000000E-03 0. -1.
         12    1    4    4    0    0 -0.67149989432E+01  0.61904537213E+01 -0.10176617450E+02  0.13673933992E+02  0.00000000000E+00 0. -1.
</event>
<event>
 8    1  0.1254059E-006  0.9118800E+02  0.7816164E-02  0.1184000E+00
        -11   -1    0    0    0    0  0.00000000000E+00  0.00000000000E+00  0.45593999997E+02  0.45594000000E+02  0.51100000000E-03 0. -1.
         11   -1    0    0    0    0 -0.00000000000E+00 -0.00000000000E+00 -0.45593999997E+02  0.45594000000E+02  0.51100000000E-03 0.  1.
         23    2    1    2    0    0  0.35527136788E-14  0.00000000000E+00 -0.26645352591E-14  0.91188000000E+02  0.91188000000E+02 0.  0.
    9900012    2    3    3    0    0 -0.31060885674E+02  0.19335222769E+02  0.41413058675E+01  0.54367083761E+02  0.39999999050E+02 0.  0.
         12    1    3    3    0    0  0.31060885674E+02 -0.19335222769E+02 -0.41413058675E+01  0.36820916239E+02  0.00000000000E+00 0. -1.
         11    1    4    4    0    0 -0.18795870923E+02  0.15091711087E+02 -0.40455088047E+01  0.24441985374E+02  0.51100000000E-03 0. -1.
        -11    1    4    4    0    0 -0.38339586426E+01  0.26538126729E+01 -0.93242648552E+01  0.10425155919E+02  0.51100000000E-03 0.  1.
         12    1    4    4    0    0 -0.84310561092E+01  0.15896990091E+01  0.17511079527E+02  0.19499942468E+02  0.00000000000E+00 0. -1.
</event>
<event>
 8    1  0.1254059E-006  0.9118800E+02  0.7816164E-02  0.1184000E+00
        -11   -1    0    0    0    0  0.00000000000E+00  0.00000000000E+00  0.45593999997E+02  0.45594000000E+02  0.51100000000E-03 0.  1.
         11   -1    0    0    0    0 -0.00000000000E+00 -0.00000000000E+00 -0.45593999997E+02  0.45594000000E+02  0.51100000000E-03 0. -1.
         23    2    1    2    0    0  0.00000000000E+00  0.00000000000E+00 -0.17763568394E-14  0.91188000000E+02  0.91188000000E+02 0.  0.
    9900012    2    3    3    0    0  0.35039652301E+02 -0.78007045482E+01 -0.81946563416E+01  0.54367073649E+02  0.39999975997E+02 0.  0.
        -12    1    3    3    0    0 -0.35039652301E+02  0.78007045482E+01  0.81946563416E+01  0.36820926351E+02  0.00000000000E+00 0.  1.
         11    1    4    4    0    0  0.31726363479E+01 -0.71747542731E+00 -0.80284963164E+01  0.86623983832E+01  0.51100000000E-03 0. -1.
        -11    1    4    4    0    0 -0.33843764899E+01  0.41861761965E+01  0.61363994081E+01  0.81629328878E+01  0.51100000000E-03 0.  1.
         12    1    4    4    0    0  0.35251392443E+02 -0.11269405317E+02 -0.63025594333E+01  0.37541742378E+02  0.00000000000E+00 0. -1.
</event>
<event>
 8    1  0.1254059E-006  0.9118800E+02  0.7816164E-02  0.1184000E+00
        -11   -1    0    0    0    0  0.00000000000E+00  0.00000000000E+00  0.45593999997E+02  0.45594000000E+02  0.51100000000E-03 0.  1.
         11   -1    0    0    0    0 -0.00000000000E+00 -0.00000000000E+00 -0.45593999997E+02  0.45594000000E+02  0.51100000000E-03 0. -1.
         23    2    1    2    0    0  0.00000000000E+00  0.00000000000E+00  0.35527136788E-14  0.91188000000E+02  0.91188000000E+02 0.  0.
    9900012    2    3    3    0    0  0.17530158078E+02  0.25894830863E+02 -0.19440446224E+02  0.54367086689E+02  0.40000005725E+02 0.  0.
        -12    1    3    3    0    0 -0.17530158078E+02 -0.25894830863E+02  0.19440446224E+02  0.36820913311E+02  0.00000000000E+00 0.  1.
         11    1    4    4    0    0  0.10934666134E+02  0.20171975109E+02 -0.20256565536E+02  0.30607253239E+02  0.51100000000E-03 0. -1.
        -11    1    4    4    0    0  0.11836213857E+02  0.61070773566E+01  0.74782799445E+01  0.15274718442E+02  0.51100000000E-03 0.  1.
        -12    1    4    4    0    0 -0.52407219130E+01 -0.38422160192E+00 -0.66621606323E+01  0.84851150081E+01  0.00000000000E+00 0.  1.
</event>
<event>
 8    1  0.1254059E-006  0.9118800E+02  0.7816164E-02  0.1184000E+00
        -11   -1    0    0    0    0  0.00000000000E+00  0.00000000000E+00  0.45593999997E+02  0.45594000000E+02  0.51100000000E-03 0. -1.
         11   -1    0    0    0    0 -0.00000000000E+00 -0.00000000000E+00 -0.45593999997E+02  0.45594000000E+02  0.51100000000E-03 0.  1.
         23    2    1    2    0    0 -0.17763568394E-14  0.35527136788E-14 -0.35527136788E-14  0.91188000000E+02  0.91188000000E+02 0.  0.
    9900012    2    3    3    0    0  0.11438331718E+02 -0.28411197526E+02  0.20439021520E+02  0.54367011718E+02  0.39999834813E+02 0.  0.
        -12    1    3    3    0    0 -0.11438331718E+02  0.28411197526E+02 -0.20439021520E+02  0.36820988282E+02  0.00000000000E+00 0.  1.
         11    1    4    4    0    0  0.45556083450E+01  0.53214217238E+00  0.26420113328E+01  0.52931055939E+01  0.51100000000E-03 0. -1.
        -11    1    4    4    0    0  0.98347643697E+01  0.24559124713E+01  0.14034622028E+02  0.17312559372E+02  0.51100000000E-03 0.  1.
         12    1    4    4    0    0 -0.29520409967E+01 -0.31399252169E+02  0.37623881593E+01  0.31761346752E+02  0.00000000000E+00 0. -1.
</event>
<event>
 8    1  0.1254059E-006  0.9118800E+02  0.7816164E-02  0.1184000E+00
        -11   -1    0    0    0    0  0.00000000000E+00  0.00000000000E+00  0.45593999997E+02  0.45594000000E+02  0.51100000000E-03 0.  1.
         11   -1    0    0    0    0 -0.00000000000E+00 -0.00000000000E+00 -0.45593999997E+02  0.45594000000E+02  0.51100000000E-03 0. -1.
         23    2    1    2    0    0  0.00000000000E+00  0.35527136788E-14 -0.88817841970E-15  0.91188000000E+02  0.91188000000E+02 0.  0.
    9900012    2    3    3    0    0 -0.30390615751E+02 -0.19799442312E+02  0.63383233083E+01  0.54367057807E+02  0.39999939884E+02 0.  0.
         12    1    3    3    0    0  0.30390615751E+02  0.19799442312E+02 -0.63383233083E+01  0.36820942193E+02  0.00000000000E+00 0. -1.
         11    1    4    4    0    0 -0.85067983012E+00 -0.64352886517E+00  0.13511991285E+02  0.13554028711E+02  0.51100000000E-03 0. -1.
        -11    1    4    4    0    0 -0.24603092083E+02 -0.20878603529E+02 -0.41868033066E+00  0.32270784292E+02  0.51100000000E-03 0.  1.
         12    1    4    4    0    0 -0.49368438383E+01  0.17226900821E+01 -0.67549876456E+01  0.85422448042E+01  0.00000000000E+00 0. -1.
</event>
<event>
 8    1  0.1254059E-006  0.9118800E+02  0.7816164E-02  0.1184000E+00
        -11   -1    0    0    0    0  0.00000000000E+00  0.00000000000E+00  0.45593999997E+02  0.45594000000E+02  0.51100000000E-03 0.  1.
         11   -1    0    0    0    0 -0.00000000000E+00 -0.00000000000E+00 -0.45593999997E+02  0.45594000000E+02  0.51100000000E-03 0. -1.
         23    2    1    2    0    0  0.26645352591E-14  0.71054273576E-14  0.35527136788E-14  0.91188000000E+02  0.91188000000E+02 0.  0.
    9900012    2    3    3    0    0 -0.16177549402E+01 -0.31288061205E+02 -0.19344800685E+02  0.54367065485E+02  0.39999957386E+02 0.  0.
        -12    1    3    3    0    0  0.16177549402E+01  0.31288061205E+02  0.19344800685E+02  0.36820934515E+02  0.00000000000E+00 0.  1.
         11    1    4    4    0    0  0.80808972993E+01 -0.26061916865E+02 -0.76800836319E+01  0.28346218384E+02  0.51100000000E-03 0. -1.
        -11    1    4    4    0    0  0.90182079447E+00  0.64501163423E+01 -0.70306573136E+01  0.95837061775E+01  0.51100000000E-03 0.  1.
         12    1    4    4    0    0 -0.10600473034E+02 -0.11676260683E+02 -0.46340597394E+01  0.16437140924E+02  0.00000000000E+00 0. -1.
</event>
<event>
 8    1  0.1254059E-006  0.9118800E+02  0.7816164E-02  0.1184000E+00
        -11   -1    0    0    0    0  0.00000000000E+00  0.00000000000E+00  0.45593999997E+02  0.45594000000E+02  0.51100000000E-03 0.  1.
         11   -1    0    0    0    0 -0.00000000000E+00 -0.00000000000E+00 -0.45593999997E+02  0.45594000000E+02  0.51100000000E-03 0. -1.
         23    2    1    2    0    0 -0.35527136788E-14  0.00000000000E+00  0.35527136788E-14  0.91188000000E+02  0.91188000000E+02 0.  0.
    9900012    2    3    3    0    0 -0.28054170449E+02 -0.68120378877E+01 -0.22854746508E+02  0.54367085051E+02  0.40000001990E+02 0.  0.
         12    1    3    3    0    0  0.28054170449E+02  0.68120378877E+01  0.22854746508E+02  0.36820914949E+02  0.00000000000E+00 0. -1.
         11    1    4    4    0    0 -0.76650182520E+01  0.31790032205E+01 -0.15531651981E+02  0.17609394646E+02  0.51100000000E-03 0. -1.
        -11    1    4    4    0    0 -0.25647888571E+02 -0.61057024551E+01  0.74217214367E+00  0.26375075552E+02  0.51100000000E-03 0.  1.
        -12    1    4    4    0    0  0.52587363746E+01 -0.38853386531E+01 -0.80652666704E+01  0.10382614852E+02  0.00000000000E+00 0.  1.
</event>
<event>
 8    1  0.1254059E-006  0.9118800E+02  0.7816164E-02  0.1184000E+00
        -11   -1    0    0    0    0  0.00000000000E+00  0.00000000000E+00  0.45593999997E+02  0.45594000000E+02  0.51100000000E-03 0.  1.
         11   -1    0    0    0    0 -0.00000000000E+00 -0.00000000000E+00 -0.45593999997E+02  0.45594000000E+02  0.51100000000E-03 0. -1.
         23    2    1    2    0    0  0.00000000000E+00 -0.17763568394E-14  0.00000000000E+00  0.91188000000E+02  0.91188000000E+02 0.  0.
    9900012    2    3    3    0    0  0.25177287671E+02 -0.13766914081E+02  0.23072914760E+02  0.54367039485E+02  0.39999898113E+02 0.  0.
         12    1    3    3    0    0 -0.25177287671E+02  0.13766914081E+02 -0.23072914760E+02  0.36820960515E+02  0.00000000000E+00 0. -1.
         11    1    4    4    0    0  0.11745083227E+02  0.12390791083E+02  0.41373606977E+01  0.17566913146E+02  0.51100000000E-03 0. -1.
        -11    1    4    4    0    0  0.82985954857E+01 -0.48147330760E+01  0.61597991698E+01  0.11401380079E+02  0.51100000000E-03 0.  1.
         12    1    4    4    0    0  0.51336089580E+01 -0.21342972088E+02  0.12775754892E+02  0.25398746260E+02  0.00000000000E+00 0. -1.
</event>
<event>
 8    1  0.1254059E-006  0.9118800E+02  0.7816164E-02  0.1184000E+00
        -11   -1    0    0    0    0  0.00000000000E+00  0.00000000000E+00  0.45593999997E+02  0.45594000000E+02  0.51100000000E-03 0. -1.
         11   -1    0    0    0    0 -0.00000000000E+00 -0.00000000000E+00 -0.45593999997E+02  0.45594000000E+02  0.51100000000E-03 0.  1.
         23    2    1    2    0    0  0.35527136788E-14  0.35527136788E-14  0.17763568394E-14  0.91188000000E+02  0.91188000000E+02 0.  0.
    9900012    2    3    3    0    0  0.25175320112E+02  0.21837626072E+02  0.15655627305E+02  0.54367118404E+02  0.40000078026E+02 0.  0.
        -12    1    3    3    0    0 -0.25175320112E+02 -0.21837626072E+02 -0.15655627305E+02  0.36820881596E+02  0.00000000000E+00 0.  1.
         11    1    4    4    0    0  0.44750337967E+01 -0.23854890992E+01  0.12657472835E+02  0.13635545627E+02  0.51100000000E-03 0.  1.
        -11    1    4    4    0    0  0.24577271238E+02  0.25758129511E+02  0.52584790450E+01  0.35988541225E+02  0.51100000000E-03 0. -1.
        -12    1    4    4    0    0 -0.38769849224E+01 -0.15350143406E+01 -0.22603245748E+01  0.47430315514E+01  0.00000000000E+00 0.  1.
</event>
<event>
 8    1  0.1254059E-006  0.9118800E+02  0.7816164E-02  0.1184000E+00
        -11   -1    0    0    0    0  0.00000000000E+00  0.00000000000E+00  0.45593999997E+02  0.45594000000E+02  0.51100000000E-03 0. -1.
         11   -1    0    0    0    0 -0.00000000000E+00 -0.00000000000E+00 -0.45593999997E+02  0.45594000000E+02  0.51100000000E-03 0.  1.
         23    2    1    2    0    0  0.00000000000E+00  0.00000000000E+00  0.00000000000E+00  0.91188000000E+02  0.91188000000E+02 0.  0.
    9900012    2    3    3    0    0 -0.19793657686E+02  0.30676530891E+02  0.47896430181E+01  0.54367094086E+02  0.40000022588E+02 0.  0.
         12    1    3    3    0    0  0.19793657686E+02 -0.30676530891E+02 -0.47896430181E+01  0.36820905914E+02  0.00000000000E+00 0. -1.
         11    1    4    4    0    0  0.96157615244E-01 -0.17628085449E+01  0.28734885586E+00  0.17886614769E+01  0.51100000000E-03 0. -1.
        -11    1    4    4    0    0 -0.13525749415E+02  0.33117071082E+01 -0.12104359262E+02  0.18450713119E+02  0.51100000000E-03 0.  1.
        -12    1    4    4    0    0 -0.63640658859E+01  0.29127632328E+02  0.16606653424E+02  0.34127719490E+02  0.00000000000E+00 0.  1.
</event>
<event>
 8    1  0.1254059E-006  0.9118800E+02  0.7816164E-02  0.1184000E+00
        -11   -1    0    0    0    0  0.00000000000E+00  0.00000000000E+00  0.45593999997E+02  0.45594000000E+02  0.51100000000E-03 0.  1.
         11   -1    0    0    0    0 -0.00000000000E+00 -0.00000000000E+00 -0.45593999997E+02  0.45594000000E+02  0.51100000000E-03 0. -1.
         23    2    1    2    0    0  0.00000000000E+00 -0.17763568394E-14  0.35527136788E-14  0.91188000000E+02  0.91188000000E+02 0.  0.
    9900012    2    3    3    0    0 -0.24867127031E+02 -0.85370072857E+01  0.25778390128E+02  0.54367083420E+02  0.39999998273E+02 0.  0.
         12    1    3    3    0    0  0.24867127031E+02  0.85370072857E+01 -0.25778390128E+02  0.36820916580E+02  0.00000000000E+00 0. -1.
         11    1    4    4    0    0 -0.13690710053E+02 -0.53092763734E+01 -0.63028516966E+00  0.14697660257E+02  0.51100000000E-03 0. -1.
        -11    1    4    4    0    0 -0.27784752496E+01 -0.91988889039E+01  0.27667223439E+02  0.29288474437E+02  0.51100000000E-03 0.  1.
         12    1    4    4    0    0 -0.83979417282E+01  0.59711579916E+01 -0.12585481408E+01  0.10380948726E+02  0.00000000000E+00 0. -1.
</event>
<event>
 8    1  0.1254059E-006  0.9118800E+02  0.7816164E-02  0.1184000E+00
        -11   -1    0    0    0    0  0.00000000000E+00  0.00000000000E+00  0.45593999997E+02  0.45594000000E+02  0.51100000000E-03 0. -1.
         11   -1    0    0    0    0 -0.00000000000E+00 -0.00000000000E+00 -0.45593999997E+02  0.45594000000E+02  0.51100000000E-03 0.  1.
         23    2    1    2    0    0  0.00000000000E+00  0.00000000000E+00  0.00000000000E+00  0.91188000000E+02  0.91188000000E+02 0.  0.
    9900012    2    3    3    0    0 -0.55727098464E+01 -0.17734634965E+02  0.31783779556E+02  0.54367068246E+02  0.39999963680E+02 0.  0.
        -12    1    3    3    0    0  0.55727098464E+01  0.17734634965E+02 -0.31783779556E+02  0.36820931754E+02  0.00000000000E+00 0.  1.
         11    1    4    4    0    0 -0.59059240423E+01 -0.84154849334E+01  0.85809516160E+01  0.13391529276E+02  0.51100000000E-03 0. -1.
        -11    1    4    4    0    0 -0.60887658449E+01 -0.12406837888E+02 -0.27249153125E+01  0.14086442405E+02  0.51100000000E-03 0.  1.
        -12    1    4    4    0    0  0.64219800409E+01  0.30876878560E+01  0.25927743252E+02  0.26889096565E+02  0.00000000000E+00 0.  1.
</event>
<event>
 8    1  0.1254059E-006  0.9118800E+02  0.7816164E-02  0.1184000E+00
        -11   -1    0    0    0    0  0.00000000000E+00  0.00000000000E+00  0.45593999997E+02  0.45594000000E+02  0.51100000000E-03 0.  1.
         11   -1    0    0    0    0 -0.00000000000E+00 -0.00000000000E+00 -0.45593999997E+02  0.45594000000E+02  0.51100000000E-03 0. -1.
         23    2    1    2    0    0  0.17763568394E-14  0.00000000000E+00  0.00000000000E+00  0.91188000000E+02  0.91188000000E+02 0.  0.
    9900012    2    3    3    0    0 -0.11764576885E+02 -0.47770308060E+01  0.34562336392E+02  0.54367076743E+02  0.39999983052E+02 0.  0.
         12    1    3    3    0    0  0.11764576885E+02  0.47770308060E+01 -0.34562336392E+02  0.36820923257E+02  0.00000000000E+00 0. -1.
         11    1    4    4    0    0  0.95174394115E+00  0.14431904415E+01  0.20781709692E+02  0.20853490671E+02  0.51100000000E-03 0. -1.
        -11    1    4    4    0    0 -0.10101864628E+02 -0.48436921406E+01  0.22049671089E+02  0.24732509333E+02  0.51100000000E-03 0.  1.
         12    1    4    4    0    0 -0.26144561988E+01 -0.13765291069E+01 -0.82690443891E+01  0.87810767396E+01  0.00000000000E+00 0. -1.
</event>
<event>
 8    1  0.1254059E-006  0.9118800E+02  0.7816164E-02  0.1184000E+00
        -11   -1    0    0    0    0  0.00000000000E+00  0.00000000000E+00  0.45593999997E+02  0.45594000000E+02  0.51100000000E-03 0.  1.
         11   -1    0    0    0    0 -0.00000000000E+00 -0.00000000000E+00 -0.45593999997E+02  0.45594000000E+02  0.51100000000E-03 0. -1.
         23    2    1    2    0    0  0.00000000000E+00  0.00000000000E+00  0.00000000000E+00  0.91188000000E+02  0.91188000000E+02 0.  0.
    9900012    2    3    3    0    0 -0.31793925547E+02  0.17801096663E+02  0.52958864684E+01  0.54367093472E+02  0.40000021188E+02 0.  0.
        -12    1    3    3    0    0  0.31793925547E+02 -0.17801096663E+02 -0.52958864684E+01  0.36820906528E+02  0.00000000000E+00 0.  1.
         11    1    4    4    0    0 -0.27633083222E+02  0.26106100124E+02  0.59315245002E+01  0.38474650553E+02  0.51100000000E-03 0. -1.
        -11    1    4    4    0    0  0.93864204955E-01 -0.58212624087E+01 -0.61698220384E+01  0.84830779064E+01  0.51100000000E-03 0.  1.
        -12    1    4    4    0    0 -0.42547065297E+01 -0.24837410522E+01  0.55341840066E+01  0.74093650124E+01  0.00000000000E+00 0.  1.
</event>
<event>
 8    1  0.1254059E-006  0.9118800E+02  0.7816164E-02  0.1184000E+00
        -11   -1    0    0    0    0  0.00000000000E+00  0.00000000000E+00  0.45593999997E+02  0.45594000000E+02  0.51100000000E-03 0.  1.
         11   -1    0    0    0    0 -0.00000000000E+00 -0.00000000000E+00 -0.45593999997E+02  0.45594000000E+02  0.51100000000E-03 0. -1.
         23    2    1    2    0    0  0.00000000000E+00  0.00000000000E+00  0.17763568394E-14  0.91188000000E+02  0.91188000000E+02 0.  0.
    9900012    2    3    3    0    0  0.14091465793E+02  0.32039676052E+02  0.11431651815E+02  0.54366906685E+02  0.39999595367E+02 0.  0.
         12    1    3    3    0    0 -0.14091465793E+02 -0.32039676052E+02 -0.11431651815E+02  0.36821093315E+02  0.00000000000E+00 0. -1.
         11    1    4    4    0    0  0.64535892189E+01  0.63064359647E+01 -0.47159342463E+01  0.10181354746E+02  0.51100000000E-03 0. -1.
        -11    1    4    4    0    0  0.10515867428E+02 -0.39543576523E+01  0.32996378934E+01  0.11709313502E+02  0.51100000000E-03 0.  1.
        -12    1    4    4    0    0 -0.28779908533E+01  0.29687597739E+02  0.12847948168E+02  0.32476238437E+02  0.00000000000E+00 0.  1.
</event>
<event>
 8    1  0.1254059E-006  0.9118800E+02  0.7816164E-02  0.1184000E+00
        -11   -1    0    0    0    0  0.00000000000E+00  0.00000000000E+00  0.45593999997E+02  0.45594000000E+02  0.51100000000E-03 0. -1.
         11   -1    0    0    0    0 -0.00000000000E+00 -0.00000000000E+00 -0.45593999997E+02  0.45594000000E+02  0.51100000000E-03 0.  1.
         23    2    1    2    0    0  0.17763568394E-14  0.17763568394E-14  0.35527136788E-14  0.91188000000E+02  0.91188000000E+02 0.  0.
    9900012    2    3    3    0    0  0.12371243446E+02  0.15271937179E+02 -0.31136799824E+02  0.54367081586E+02  0.39999994091E+02 0.  0.
         12    1    3    3    0    0 -0.12371243446E+02 -0.15271937179E+02  0.31136799824E+02  0.36820918414E+02  0.00000000000E+00 0. -1.
         11    1    4    4    0    0 -0.66460874589E+00  0.95700551873E+01  0.10807146232E+01  0.96537871031E+01  0.51100000000E-03 0. -1.
        -11    1    4    4    0    0 -0.53268233717E+01 -0.67413382450E+01 -0.11552207394E+02  0.14397019986E+02  0.51100000000E-03 0.  1.
        -12    1    4    4    0    0  0.18362675564E+02  0.12443220236E+02 -0.20665307054E+02  0.30316274496E+02  0.00000000000E+00 0.  1.
</event>
<event>
 8    1  0.1254059E-006  0.9118800E+02  0.7816164E-02  0.1184000E+00
        -11   -1    0    0    0    0  0.00000000000E+00  0.00000000000E+00  0.45593999997E+02  0.45594000000E+02  0.51100000000E-03 0.  1.
         11   -1    0    0    0    0 -0.00000000000E+00 -0.00000000000E+00 -0.45593999997E+02  0.45594000000E+02  0.51100000000E-03 0. -1.
         23    2    1    2    0    0 -0.17763568394E-14 -0.35527136788E-14  0.00000000000E+00  0.91188000000E+02  0.91188000000E+02 0.  0.
    9900012    2    3    3    0    0 -0.49337603727E+01 -0.25035953579E+02  0.26545010600E+02  0.54367101711E+02  0.40000039971E+02 0.  0.
         12    1    3    3    0    0  0.49337603727E+01  0.25035953579E+02 -0.26545010600E+02  0.36820898289E+02  0.00000000000E+00 0. -1.
         11    1    4    4    0    0  0.48415902464E+01 -0.37691301410E+01 -0.33727474256E+01  0.70016257820E+01  0.51100000000E-03 0. -1.
        -11    1    4    4    0    0  0.97080631267E+01 -0.34220836718E+01  0.79803380687E+01  0.13024705075E+02  0.51100000000E-03 0.  1.
        -12    1    4    4    0    0 -0.19483413746E+02 -0.17844739767E+02  0.21937419957E+02  0.34340770855E+02  0.00000000000E+00 0.  1.
</event>
<event>
 8    1  0.1254059E-006  0.9118800E+02  0.7816164E-02  0.1184000E+00
        -11   -1    0    0    0    0  0.00000000000E+00  0.00000000000E+00  0.45593999997E+02  0.45594000000E+02  0.51100000000E-03 0.  1.
         11   -1    0    0    0    0 -0.00000000000E+00 -0.00000000000E+00 -0.45593999997E+02  0.45594000000E+02  0.51100000000E-03 0. -1.
         23    2    1    2    0    0  0.44408920985E-15  0.44408920985E-15  0.00000000000E+00  0.91188000000E+02  0.91188000000E+02 0.  0.
    9900012    2    3    3    0    0  0.36503617720E+00 -0.15156451050E+01 -0.36787889543E+02  0.54367092237E+02  0.40000018372E+02 0.  0.
        -12    1    3    3    0    0 -0.36503617720E+00  0.15156451050E+01  0.36787889543E+02  0.36820907763E+02  0.00000000000E+00 0.  1.
         11    1    4    4    0    0 -0.67532632414E+00  0.42185640707E+01 -0.24967709323E+00  0.42795662601E+01  0.51100000000E-03 0. -1.
        -11    1    4    4    0    0 -0.10157784872E+02  0.34976200265E+01 -0.33605925069E+02  0.35281328481E+02  0.51100000000E-03 0.  1.
        -12    1    4    4    0    0  0.11198147373E+02 -0.92318292021E+01 -0.29322873802E+01  0.14806197496E+02  0.00000000000E+00 0.  1.
</event>
<event>
 8    1  0.1254059E-006  0.9118800E+02  0.7816164E-02  0.1184000E+00
        -11   -1    0    0    0    0  0.00000000000E+00  0.00000000000E+00  0.45593999997E+02  0.45594000000E+02  0.51100000000E-03 0.  1.
         11   -1    0    0    0    0 -0.00000000000E+00 -0.00000000000E+00 -0.45593999997E+02  0.45594000000E+02  0.51100000000E-03 0. -1.
         23    2    1    2    0    0 -0.44408920985E-15  0.00000000000E+00  0.00000000000E+00  0.91188000000E+02  0.91188000000E+02 0.  0.
    9900012    2    3    3    0    0  0.26957613043E+01 -0.25013462973E+02  0.26885671079E+02  0.54367085179E+02  0.40000002282E+02 0.  0.
         12    1    3    3    0    0 -0.26957613043E+01  0.25013462973E+02 -0.26885671079E+02  0.36820914821E+02  0.00000000000E+00 0. -1.
         11    1    4    4    0    0 -0.58058832760E+01 -0.37519292651E+01  0.22961258709E+02  0.23979254692E+02  0.51100000000E-03 0. -1.
        -11    1    4    4    0    0 -0.56974311365E+01 -0.72565162828E+01  0.48490674253E+01  0.10422629480E+02  0.51100000000E-03 0.  1.
         12    1    4    4    0    0  0.14199075717E+02 -0.14005017425E+02 -0.92465505491E+00  0.19965201007E+02  0.00000000000E+00 0. -1.
</event>
<event>
 8    1  0.1254059E-006  0.9118800E+02  0.7816164E-02  0.1184000E+00
        -11   -1    0    0    0    0  0.00000000000E+00  0.00000000000E+00  0.45593999997E+02  0.45594000000E+02  0.51100000000E-03 0. -1.
         11   -1    0    0    0    0 -0.00000000000E+00 -0.00000000000E+00 -0.45593999997E+02  0.45594000000E+02  0.51100000000E-03 0.  1.
         23    2    1    2    0    0  0.00000000000E+00  0.00000000000E+00  0.00000000000E+00  0.91188000000E+02  0.91188000000E+02 0.  0.
    9900012    2    3    3    0    0  0.15454453456E+02  0.26882049119E+02  0.19856863178E+02  0.54367085946E+02  0.40000004031E+02 0.  0.
        -12    1    3    3    0    0 -0.15454453456E+02 -0.26882049119E+02 -0.19856863178E+02  0.36820914054E+02  0.00000000000E+00 0.  1.
         11    1    4    4    0    0  0.69947445772E+01 -0.11872857648E+01  0.85498649210E+01  0.11110188550E+02  0.51100000000E-03 0. -1.
        -11    1    4    4    0    0 -0.26678607421E+01 -0.53887860500E+01 -0.59477716349E+00  0.60423717336E+01  0.51100000000E-03 0.  1.
         12    1    4    4    0    0  0.11127569621E+02  0.33458120934E+02  0.11901775421E+02  0.37214525662E+02  0.00000000000E+00 0. -1.
</event>
<event>
 8    1  0.1254059E-006  0.9118800E+02  0.7816164E-02  0.1184000E+00
        -11   -1    0    0    0    0  0.00000000000E+00  0.00000000000E+00  0.45593999997E+02  0.45594000000E+02  0.51100000000E-03 0.  1.
         11   -1    0    0    0    0 -0.00000000000E+00 -0.00000000000E+00 -0.45593999997E+02  0.45594000000E+02  0.51100000000E-03 0. -1.
         23    2    1    2    0    0  0.00000000000E+00  0.00000000000E+00  0.35527136788E-14  0.91188000000E+02  0.91188000000E+02 0.  0.
    9900012    2    3    3    0    0 -0.33159629032E+02  0.70322815552E+01 -0.14379526727E+02  0.54367017255E+02  0.39999847436E+02 0.  0.
        -12    1    3    3    0    0  0.33159629032E+02 -0.70322815552E+01  0.14379526727E+02  0.36820982745E+02  0.00000000000E+00 0.  1.
         11    1    4    4    0    0 -0.11297593171E+02  0.13603895872E+02 -0.16616925373E+02  0.24265691901E+02  0.51100000000E-03 0. -1.
        -11    1    4    4    0    0  0.35620474455E+01  0.56721368514E+00  0.11319551031E+00  0.36087015467E+01  0.51100000000E-03 0.  1.
        -12    1    4    4    0    0 -0.25424083307E+02 -0.71388280015E+01  0.21242031349E+01  0.26492623807E+02  0.00000000000E+00 0.  1.
</event>
<event>
 8    1  0.1254059E-006  0.9118800E+02  0.7816164E-02  0.1184000E+00
        -11   -1    0    0    0    0  0.00000000000E+00  0.00000000000E+00  0.45593999997E+02  0.45594000000E+02  0.51100000000E-03 0.  1.
         11   -1    0    0    0    0 -0.00000000000E+00 -0.00000000000E+00 -0.45593999997E+02  0.45594000000E+02  0.51100000000E-03 0. -1.
         23    2    1    2    0    0 -0.17763568394E-14  0.00000000000E+00  0.00000000000E+00  0.91188000000E+02  0.91188000000E+02 0.  0.
    9900012    2    3    3    0    0  0.22708633325E+01 -0.33496379224E+02  0.15119989640E+02  0.54367104735E+02  0.40000046865E+02 0.  0.
        -12    1    3    3    0    0 -0.22708633325E+01  0.33496379224E+02 -0.15119989640E+02  0.36820895265E+02  0.00000000000E+00 0.  1.
         11    1    4    4    0    0 -0.13199754260E+02 -0.10368355861E+02  0.12380511699E+02  0.20856974516E+02  0.51100000000E-03 0. -1.
        -11    1    4    4    0    0  0.12366607278E+02 -0.16634072608E+02 -0.65690389131E+01  0.21743450039E+02  0.51100000000E-03 0.  1.
        -12    1    4    4    0    0  0.31040103143E+01 -0.64939507547E+01  0.93085168541E+01  0.11766680180E+02  0.00000000000E+00 0.  1.
</event>
<event>
 8    1  0.1254059E-006  0.9118800E+02  0.7816164E-02  0.1184000E+00
        -11   -1    0    0    0    0  0.00000000000E+00  0.00000000000E+00  0.45593999997E+02  0.45594000000E+02  0.51100000000E-03 0.  1.
         11   -1    0    0    0    0 -0.00000000000E+00 -0.00000000000E+00 -0.45593999997E+02  0.45594000000E+02  0.51100000000E-03 0. -1.
         23    2    1    2    0    0  0.00000000000E+00  0.55511151231E-15 -0.30531133177E-15  0.91188000000E+02  0.91188000000E+02 0.  0.
    9900012    2    3    3    0    0 -0.36812406728E+02 -0.76199781425E+00 -0.21413512862E+00  0.54367084970E+02  0.40000001807E+02 0.  0.
        -12    1    3    3    0    0  0.36812406728E+02  0.76199781425E+00  0.21413512862E+00  0.36820915030E+02  0.00000000000E+00 0.  1.
         11    1    4    4    0    0 -0.53584602996E+01  0.52143533511E+01 -0.84411594299E+01  0.11276335860E+02  0.51100000000E-03 0. -1.
        -11    1    4    4    0    0 -0.28016350434E+02  0.43043831333E+01 -0.16943933067E+01  0.28395678804E+02  0.51100000000E-03 0.  1.
        -12    1    4    4    0    0 -0.34375959943E+01 -0.10280734299E+02  0.99214176080E+01  0.14695070306E+02  0.00000000000E+00 0.  1.
</event>
<event>
 8    1  0.1254059E-006  0.9118800E+02  0.7816164E-02  0.1184000E+00
        -11   -1    0    0    0    0  0.00000000000E+00  0.00000000000E+00  0.45593999997E+02  0.45594000000E+02  0.51100000000E-03 0.  1.
         11   -1    0    0    0    0 -0.00000000000E+00 -0.00000000000E+00 -0.45593999997E+02  0.45594000000E+02  0.51100000000E-03 0. -1.
         23    2    1    2    0    0 -0.44408920985E-15  0.11102230246E-15  0.00000000000E+00  0.91188000000E+02  0.91188000000E+02 0.  0.
    9900012    2    3    3    0    0  0.27937022928E+01  0.77460087530E+00 -0.36706610895E+02  0.54367081184E+02  0.39999993176E+02 0.  0.
        -12    1    3    3    0    0 -0.27937022928E+01 -0.77460087530E+00  0.36706610895E+02  0.36820918816E+02  0.00000000000E+00 0.  1.
         11    1    4    4    0    0 -0.81439961699E+01 -0.40449947061E+01 -0.96390090358E+01  0.13251307529E+02  0.51100000000E-03 0. -1.
        -11    1    4    4    0    0 -0.87208905346E+01 -0.34363687838E+01 -0.10775587280E+02  0.14282011190E+02  0.51100000000E-03 0.  1.
         12    1    4    4    0    0  0.19658588997E+02  0.82559643652E+01 -0.16292014580E+02  0.26833762465E+02  0.00000000000E+00 0. -1.
</event>
<event>
 8    1  0.1254059E-006  0.9118800E+02  0.7816164E-02  0.1184000E+00
        -11   -1    0    0    0    0  0.00000000000E+00  0.00000000000E+00  0.45593999997E+02  0.45594000000E+02  0.51100000000E-03 0.  1.
         11   -1    0    0    0    0 -0.00000000000E+00 -0.00000000000E+00 -0.45593999997E+02  0.45594000000E+02  0.51100000000E-03 0. -1.
         23    2    1    2    0    0  0.00000000000E+00  0.00000000000E+00 -0.44408920985E-15  0.91188000000E+02  0.91188000000E+02 0.  0.
    9900012    2    3    3    0    0 -0.36362167876E+02  0.54032035266E+01  0.20924380693E+01  0.54367079886E+02  0.39999990216E+02 0.  0.
         12    1    3    3    0    0  0.36362167876E+02 -0.54032035266E+01 -0.20924380693E+01  0.36820920114E+02  0.00000000000E+00 0. -1.
         11    1    4    4    0    0 -0.12159007035E+02 -0.18191239681E+01  0.19209624144E+01  0.12443502760E+02  0.51100000000E-03 0. -1.
        -11    1    4    4    0    0 -0.26482372637E+02  0.15607101489E+02 -0.59304150621E+01  0.31306029778E+02  0.51100000000E-03 0.  1.
         12    1    4    4    0    0  0.22792117963E+01 -0.83847739946E+01  0.61018907170E+01  0.10617547347E+02  0.00000000000E+00 0. -1.
</event>
<event>
 8    1  0.1254059E-006  0.9118800E+02  0.7816164E-02  0.1184000E+00
        -11   -1    0    0    0    0  0.00000000000E+00  0.00000000000E+00  0.45593999997E+02  0.45594000000E+02  0.51100000000E-03 0. -1.
         11   -1    0    0    0    0 -0.00000000000E+00 -0.00000000000E+00 -0.45593999997E+02  0.45594000000E+02  0.51100000000E-03 0.  1.
         23    2    1    2    0    0 -0.13322676296E-14  0.00000000000E+00  0.00000000000E+00  0.91188000000E+02  0.91188000000E+02 0.  0.
    9900012    2    3    3    0    0  0.12440025245E+01 -0.21648426229E+02  0.29758611519E+02  0.54367124671E+02  0.40000092311E+02 0.  0.
        -12    1    3    3    0    0 -0.12440025245E+01  0.21648426229E+02 -0.29758611519E+02  0.36820875329E+02  0.00000000000E+00 0.  1.
         11    1    4    4    0    0  0.70182226104E+01  0.64643885917E+01  0.86570264053E+01  0.12883628174E+02  0.51100000000E-03 0. -1.
        -11    1    4    4    0    0  0.65840878196E+01 -0.16648506214E+02  0.60880960278E+01  0.18909994317E+02  0.51100000000E-03 0.  1.
         12    1    4    4    0    0 -0.12358307905E+02 -0.11464308607E+02  0.15013489086E+02  0.22573502180E+02  0.00000000000E+00 0. -1.
</event>
<event>
 8    1  0.1254059E-006  0.9118800E+02  0.7816164E-02  0.1184000E+00
        -11   -1    0    0    0    0  0.00000000000E+00  0.00000000000E+00  0.45593999997E+02  0.45594000000E+02  0.51100000000E-03 0. -1.
         11   -1    0    0    0    0 -0.00000000000E+00 -0.00000000000E+00 -0.45593999997E+02  0.45594000000E+02  0.51100000000E-03 0.  1.
         23    2    1    2    0    0 -0.35527136788E-14  0.10658141036E-13  0.00000000000E+00  0.91188000000E+02  0.91188000000E+02 0.  0.
    9900012    2    3    3    0    0 -0.23422433048E+02  0.22600651496E+02  0.17215846340E+02  0.54367011649E+02  0.39999834656E+02 0.  0.
        -12    1    3    3    0    0  0.23422433048E+02 -0.22600651496E+02 -0.17215846340E+02  0.36820988351E+02  0.00000000000E+00 0.  1.
         11    1    4    4    0    0 -0.33837269362E+01  0.21291714078E+02  0.64126863586E+01  0.22492426346E+02  0.51100000000E-03 0. -1.
        -11    1    4    4    0    0 -0.56744284461E+01 -0.98376240677E+01  0.15141575504E+01  0.11457340827E+02  0.51100000000E-03 0.  1.
        -12    1    4    4    0    0 -0.14364277665E+02  0.11146561486E+02  0.92890024308E+01  0.20417244476E+02  0.00000000000E+00 0.  1.
</event>
<event>
 8    1  0.1254059E-006  0.9118800E+02  0.7816164E-02  0.1184000E+00
        -11   -1    0    0    0    0  0.00000000000E+00  0.00000000000E+00  0.45593999997E+02  0.45594000000E+02  0.51100000000E-03 0.  1.
         11   -1    0    0    0    0 -0.00000000000E+00 -0.00000000000E+00 -0.45593999997E+02  0.45594000000E+02  0.51100000000E-03 0. -1.
         23    2    1    2    0    0  0.00000000000E+00 -0.35527136788E-14  0.00000000000E+00  0.91188000000E+02  0.91188000000E+02 0.  0.
    9900012    2    3    3    0    0  0.19711139502E+02  0.21177545139E+02 -0.22776350146E+02  0.54367087946E+02  0.40000008590E+02 0.  0.
        -12    1    3    3    0    0 -0.19711139502E+02 -0.21177545139E+02  0.22776350146E+02  0.36820912054E+02  0.00000000000E+00 0.  1.
         11    1    4    4    0    0  0.76094728962E+01  0.28122555218E+00 -0.10256206755E+02  0.12773916503E+02  0.51100000000E-03 0. -1.
        -11    1    4    4    0    0  0.55947596049E+01 -0.71574418427E+01  0.20583921209E+01  0.93148959819E+01  0.51100000000E-03 0.  1.
        -12    1    4    4    0    0  0.65069070004E+01  0.28053761429E+02 -0.14578535512E+02  0.32278275461E+02  0.00000000000E+00 0.  1.
</event>
<event>
 8    1  0.1254059E-006  0.9118800E+02  0.7816164E-02  0.1184000E+00
        -11   -1    0    0    0    0  0.00000000000E+00  0.00000000000E+00  0.45593999997E+02  0.45594000000E+02  0.51100000000E-03 0.  1.
         11   -1    0    0    0    0 -0.00000000000E+00 -0.00000000000E+00 -0.45593999997E+02  0.45594000000E+02  0.51100000000E-03 0. -1.
         23    2    1    2    0    0 -0.17763568394E-14  0.00000000000E+00  0.00000000000E+00  0.91188000000E+02  0.91188000000E+02 0.  0.
    9900012    2    3    3    0    0  0.96081712064E+01 -0.33408807617E+02  0.12137293173E+02  0.54367092001E+02  0.40000017834E+02 0.  0.
         12    1    3    3    0    0 -0.96081712064E+01  0.33408807617E+02 -0.12137293173E+02  0.36820907999E+02  0.00000000000E+00 0. -1.
         11    1    4    4    0    0  0.10865152539E+01 -0.14761593788E+02 -0.65835534585E+00  0.14816160049E+02  0.51100000000E-03 0. -1.
        -11    1    4    4    0    0  0.15994923049E+01 -0.91123989338E+01  0.22473482556E+02  0.24303325048E+02  0.51100000000E-03 0.  1.
        -12    1    4    4    0    0  0.69221636476E+01 -0.95348148951E+01 -0.96778340372E+01  0.15247606904E+02  0.00000000000E+00 0.  1.
</event>
<event>
 8    1  0.1254059E-006  0.9118800E+02  0.7816164E-02  0.1184000E+00
        -11   -1    0    0    0    0  0.00000000000E+00  0.00000000000E+00  0.45593999997E+02  0.45594000000E+02  0.51100000000E-03 0.  1.
         11   -1    0    0    0    0 -0.00000000000E+00 -0.00000000000E+00 -0.45593999997E+02  0.45594000000E+02  0.51100000000E-03 0. -1.
         23    2    1    2    0    0 -0.17763568394E-14  0.00000000000E+00 -0.44408920985E-15  0.91188000000E+02  0.91188000000E+02 0.  0.
    9900012    2    3    3    0    0  0.91411920576E+01  0.35448111493E+02  0.39559220441E+01  0.54367091268E+02  0.40000016164E+02 0.  0.
        -12    1    3    3    0    0 -0.91411920576E+01 -0.35448111493E+02 -0.39559220441E+01  0.36820908732E+02  0.00000000000E+00 0.  1.
         11    1    4    4    0    0 -0.33804724752E+01  0.60204411476E+01 -0.10556675741E+02  0.12614147166E+02  0.51100000000E-03 0. -1.
        -11    1    4    4    0    0  0.89124020805E+00 -0.37216077595E+01  0.24121973428E+00  0.38344309415E+01  0.51100000000E-03 0.  1.
         12    1    4    4    0    0  0.11630424325E+02  0.33149278105E+02  0.14271378051E+02  0.37918513160E+02  0.00000000000E+00 0. -1.
</event>
<event>
 8    1  0.1254059E-006  0.9118800E+02  0.7816164E-02  0.1184000E+00
        -11   -1    0    0    0    0  0.00000000000E+00  0.00000000000E+00  0.45593999997E+02  0.45594000000E+02  0.51100000000E-03 0. -1.
         11   -1    0    0    0    0 -0.00000000000E+00 -0.00000000000E+00 -0.45593999997E+02  0.45594000000E+02  0.51100000000E-03 0.  1.
         23    2    1    2    0    0 -0.88817841970E-15  0.00000000000E+00 -0.71054273576E-14  0.91188000000E+02  0.91188000000E+02 0.  0.
    9900012    2    3    3    0    0  0.65137226909E+01 -0.10643604121E+02  0.34641953171E+02  0.54367084592E+02  0.40000000945E+02 0.  0.
        -12    1    3    3    0    0 -0.65137226909E+01  0.10643604121E+02 -0.34641953171E+02  0.36820915408E+02  0.00000000000E+00 0.  1.
         11    1    4    4    0    0  0.40903744009E+01 -0.84456702042E+01  0.21732688310E+00  0.93865722803E+01  0.51100000000E-03 0. -1.
        -11    1    4    4    0    0 -0.66960132217E+01 -0.35936438718E+01 -0.16232529465E+01  0.77708313411E+01  0.51100000000E-03 0.  1.
         12    1    4    4    0    0  0.91193615117E+01  0.13957099549E+01  0.36047879234E+02  0.37209680971E+02  0.00000000000E+00 0. -1.
</event>
<event>
 8    1  0.1254059E-006  0.9118800E+02  0.7816164E-02  0.1184000E+00
        -11   -1    0    0    0    0  0.00000000000E+00  0.00000000000E+00  0.45593999997E+02  0.45594000000E+02  0.51100000000E-03 0.  1.
         11   -1    0    0    0    0 -0.00000000000E+00 -0.00000000000E+00 -0.45593999997E+02  0.45594000000E+02  0.51100000000E-03 0. -1.
         23    2    1    2    0    0  0.00000000000E+00  0.35527136788E-14  0.00000000000E+00  0.91188000000E+02  0.91188000000E+02 0.  0.
    9900012    2    3    3    0    0 -0.17196508608E+02 -0.25823857320E+02  0.19828997399E+02  0.54367073164E+02  0.39999974893E+02 0.  0.
         12    1    3    3    0    0  0.17196508608E+02  0.25823857320E+02 -0.19828997399E+02  0.36820926836E+02  0.00000000000E+00 0. -1.
         11    1    4    4    0    0 -0.34932094980E+01  0.12290180537E+01 -0.15207142207E+01  0.40031949710E+01  0.51100000000E-03 0. -1.
        -11    1    4    4    0    0  0.28921675968E+01 -0.34099285345E+00  0.18566641002E+02  0.18793644348E+02  0.51100000000E-03 0.  1.
        -12    1    4    4    0    0 -0.16595466707E+02 -0.26711882520E+02  0.27830706178E+01  0.31570233845E+02  0.00000000000E+00 0.  1.
</event>
<event>
 8    1  0.1254059E-006  0.9118800E+02  0.7816164E-02  0.1184000E+00
        -11   -1    0    0    0    0  0.00000000000E+00  0.00000000000E+00  0.45593999997E+02  0.45594000000E+02  0.51100000000E-03 0. -1.
         11   -1    0    0    0    0 -0.00000000000E+00 -0.00000000000E+00 -0.45593999997E+02  0.45594000000E+02  0.51100000000E-03 0.  1.
         23    2    1    2    0    0  0.00000000000E+00  0.00000000000E+00  0.00000000000E+00  0.91188000000E+02  0.91188000000E+02 0.  0.
    9900012    2    3    3    0    0  0.35616910856E+02 -0.76401450234E+01 -0.53706332806E+01  0.54367083977E+02  0.39999999543E+02 0.  0.
         12    1    3    3    0    0 -0.35616910856E+02  0.76401450234E+01  0.53706332806E+01  0.36820916023E+02  0.00000000000E+00 0. -1.
         11    1    4    4    0    0  0.33039266737E+02 -0.52673957838E+01  0.34658905531E+01  0.33635561575E+02  0.51100000000E-03 0. -1.
        -11    1    4    4    0    0  0.17340344319E+00  0.79336754921E+01 -0.54227407642E+01  0.96114199380E+01  0.51100000000E-03 0.  1.
        -12    1    4    4    0    0  0.24042406761E+01 -0.10306424732E+02 -0.34137830695E+01  0.11120102465E+02  0.00000000000E+00 0.  1.
</event>
<event>
 8    1  0.1254059E-006  0.9118800E+02  0.7816164E-02  0.1184000E+00
        -11   -1    0    0    0    0  0.00000000000E+00  0.00000000000E+00  0.45593999997E+02  0.45594000000E+02  0.51100000000E-03 0.  1.
         11   -1    0    0    0    0 -0.00000000000E+00 -0.00000000000E+00 -0.45593999997E+02  0.45594000000E+02  0.51100000000E-03 0. -1.
         23    2    1    2    0    0  0.35527136788E-14  0.17763568394E-14  0.35527136788E-14  0.91188000000E+02  0.91188000000E+02 0.  0.
    9900012    2    3    3    0    0 -0.20030303884E+02  0.15242486092E+02  0.26874402268E+02  0.54367082668E+02  0.39999996558E+02 0.  0.
         12    1    3    3    0    0  0.20030303884E+02 -0.15242486092E+02 -0.26874402268E+02  0.36820917332E+02  0.00000000000E+00 0. -1.
         11    1    4    4    0    0  0.53776818877E+01  0.52172253018E+01  0.99243196197E+00  0.75580304178E+01  0.51100000000E-03 0. -1.
        -11    1    4    4    0    0  0.50530370977E+01 -0.29950539907E+01  0.40537128762E+01  0.71369545789E+01  0.51100000000E-03 0.  1.
         12    1    4    4    0    0 -0.30461022869E+02  0.13020314781E+02  0.21828257429E+02  0.39672097671E+02  0.00000000000E+00 0. -1.
</event>
<event>
 8    1  0.1254059E-006  0.9118800E+02  0.7816164E-02  0.1184000E+00
        -11   -1    0    0    0    0  0.00000000000E+00  0.00000000000E+00  0.45593999997E+02  0.45594000000E+02  0.51100000000E-03 0. -1.
         11   -1    0    0    0    0 -0.00000000000E+00 -0.00000000000E+00 -0.45593999997E+02  0.45594000000E+02  0.51100000000E-03 0.  1.
         23    2    1    2    0    0  0.00000000000E+00  0.00000000000E+00  0.00000000000E+00  0.91188000000E+02  0.91188000000E+02 0.  0.
    9900012    2    3    3    0    0 -0.15952910308E+02 -0.32883212449E+02  0.44696632222E+01  0.54367097001E+02  0.40000029234E+02 0.  0.
        -12    1    3    3    0    0  0.15952910308E+02  0.32883212449E+02 -0.44696632222E+01  0.36820902999E+02  0.00000000000E+00 0.  1.
         11    1    4    4    0    0 -0.13280177137E+02 -0.28908743688E+02  0.75386483000E+01  0.32694185796E+02  0.51100000000E-03 0. -1.
        -11    1    4    4    0    0 -0.82857421845E+01 -0.96401881011E+01 -0.46627593122E+01  0.13539869823E+02  0.51100000000E-03 0.  1.
         12    1    4    4    0    0  0.56130090130E+01  0.56657193395E+01  0.15937742343E+01  0.81330413822E+01  0.00000000000E+00 0. -1.
</event>
<event>
 8    1  0.1254059E-006  0.9118800E+02  0.7816164E-02  0.1184000E+00
        -11   -1    0    0    0    0  0.00000000000E+00  0.00000000000E+00  0.45593999997E+02  0.45594000000E+02  0.51100000000E-03 0.  1.
         11   -1    0    0    0    0 -0.00000000000E+00 -0.00000000000E+00 -0.45593999997E+02  0.45594000000E+02  0.51100000000E-03 0. -1.
         23    2    1    2    0    0  0.00000000000E+00  0.71054273576E-14  0.00000000000E+00  0.91188000000E+02  0.91188000000E+02 0.  0.
    9900012    2    3    3    0    0  0.13852632311E+02  0.22117086765E+02 -0.25975353686E+02  0.54367082738E+02  0.39999996717E+02 0.  0.
        -12    1    3    3    0    0 -0.13852632311E+02 -0.22117086765E+02  0.25975353686E+02  0.36820917262E+02  0.00000000000E+00 0.  1.
         11    1    4    4    0    0 -0.22165083667E+01  0.23246428859E+02 -0.22470314120E+02  0.32407165581E+02  0.51100000000E-03 0. -1.
        -11    1    4    4    0    0  0.45873158497E+01 -0.48720140584E+01 -0.66985353701E+01  0.94683876165E+01  0.51100000000E-03 0.  1.
        -12    1    4    4    0    0  0.11481824828E+02  0.37426719643E+01  0.31934958044E+01  0.12491529540E+02  0.00000000000E+00 0.  1.
</event>
<event>
 8    1  0.1254059E-006  0.9118800E+02  0.7816164E-02  0.1184000E+00
        -11   -1    0    0    0    0  0.00000000000E+00  0.00000000000E+00  0.45593999997E+02  0.45594000000E+02  0.51100000000E-03 0. -1.
         11   -1    0    0    0    0 -0.00000000000E+00 -0.00000000000E+00 -0.45593999997E+02  0.45594000000E+02  0.51100000000E-03 0.  1.
         23    2    1    2    0    0  0.71054273576E-14 -0.17763568394E-14  0.00000000000E+00  0.91188000000E+02  0.91188000000E+02 0.  0.
    9900012    2    3    3    0    0  0.34759944617E+02 -0.90716515668E+01  0.80765980901E+01  0.54367081372E+02  0.39999993603E+02 0.  0.
        -12    1    3    3    0    0 -0.34759944617E+02  0.90716515668E+01 -0.80765980901E+01  0.36820918628E+02  0.00000000000E+00 0.  1.
         11    1    4    4    0    0  0.19418338921E+02  0.36823371493E+01  0.37416982107E+01  0.20115461693E+02  0.51100000000E-03 0. -1.
        -11    1    4    4    0    0  0.16203705873E+02 -0.13743228180E+02  0.13381876672E+02  0.25109978660E+02  0.51100000000E-03 0.  1.
        -12    1    4    4    0    0 -0.86210017720E+00  0.98923946368E+00 -0.90469767922E+01  0.91416410184E+01  0.00000000000E+00 0.  1.
</event>
<event>
 8    1  0.1254059E-006  0.9118800E+02  0.7816164E-02  0.1184000E+00
        -11   -1    0    0    0    0  0.00000000000E+00  0.00000000000E+00  0.45593999997E+02  0.45594000000E+02  0.51100000000E-03 0. -1.
         11   -1    0    0    0    0 -0.00000000000E+00 -0.00000000000E+00 -0.45593999997E+02  0.45594000000E+02  0.51100000000E-03 0.  1.
         23    2    1    2    0    0  0.00000000000E+00  0.44408920985E-15  0.00000000000E+00  0.91188000000E+02  0.91188000000E+02 0.  0.
    9900012    2    3    3    0    0  0.32607282455E+02 -0.32790761472E+01  0.16786755231E+02  0.54367049976E+02  0.39999922030E+02 0.  0.
        -12    1    3    3    0    0 -0.32607282455E+02  0.32790761472E+01 -0.16786755231E+02  0.36820950024E+02  0.00000000000E+00 0.  1.
         11    1    4    4    0    0  0.79501045599E+01 -0.56862466510E+01  0.22367135390E+02  0.24409553648E+02  0.51100000000E-03 0. -1.
        -11    1    4    4    0    0  0.30062130522E+01 -0.61096896981E+00 -0.74108471209E+01  0.80206767363E+01  0.51100000000E-03 0.  1.
         12    1    4    4    0    0  0.21650964843E+02  0.30181394736E+01  0.18304669624E+01  0.21936819592E+02  0.00000000000E+00 0. -1.
</event>
<event>
 8    1  0.1254059E-006  0.9118800E+02  0.7816164E-02  0.1184000E+00
        -11   -1    0    0    0    0  0.00000000000E+00  0.00000000000E+00  0.45593999997E+02  0.45594000000E+02  0.51100000000E-03 0.  1.
         11   -1    0    0    0    0 -0.00000000000E+00 -0.00000000000E+00 -0.45593999997E+02  0.45594000000E+02  0.51100000000E-03 0. -1.
         23    2    1    2    0    0  0.00000000000E+00 -0.17763568394E-14  0.71054273576E-14  0.91188000000E+02  0.91188000000E+02 0.  0.
    9900012    2    3    3    0    0  0.89666663738E+01 -0.14243783514E+02  0.32748928461E+02  0.54367098463E+02  0.40000032566E+02 0.  0.
         12    1    3    3    0    0 -0.89666663738E+01  0.14243783514E+02 -0.32748928461E+02  0.36820901537E+02  0.00000000000E+00 0. -1.
         11    1    4    4    0    0  0.34104682044E+01 -0.47534437307E+01  0.68729575094E+01  0.90257446153E+01  0.51100000000E-03 0. -1.
        -11    1    4    4    0    0  0.15314593469E+02 -0.98880145421E+00  0.28281924217E+02  0.32177348230E+02  0.51100000000E-03 0.  1.
         12    1    4    4    0    0 -0.97583952999E+01 -0.85015383289E+01 -0.24059532652E+01  0.13164005618E+02  0.00000000000E+00 0. -1.
</event>
<event>
 8    1  0.1254059E-006  0.9118800E+02  0.7816164E-02  0.1184000E+00
        -11   -1    0    0    0    0  0.00000000000E+00  0.00000000000E+00  0.45593999997E+02  0.45594000000E+02  0.51100000000E-03 0.  1.
         11   -1    0    0    0    0 -0.00000000000E+00 -0.00000000000E+00 -0.45593999997E+02  0.45594000000E+02  0.51100000000E-03 0. -1.
         23    2    1    2    0    0  0.35527136788E-14 -0.35527136788E-14 -0.17763568394E-14  0.91188000000E+02  0.91188000000E+02 0.  0.
    9900012    2    3    3    0    0 -0.25170859261E+02 -0.26786489913E+02  0.21657674578E+01  0.54367099054E+02  0.40000033914E+02 0.  0.
         12    1    3    3    0    0  0.25170859261E+02  0.26786489913E+02 -0.21657674578E+01  0.36820900946E+02  0.00000000000E+00 0. -1.
         11    1    4    4    0    0 -0.31229952932E+01 -0.39114837072E+01 -0.85311614493E+01  0.98910828693E+01  0.51100000000E-03 0. -1.
        -11    1    4    4    0    0 -0.32712570497E+01  0.67350564381E+01 -0.91132651508E+00  0.75427199462E+01  0.51100000000E-03 0.  1.
        -12    1    4    4    0    0 -0.18776606918E+02 -0.29610062644E+02  0.11608255422E+02  0.36933296239E+02  0.00000000000E+00 0.  1.
</event>
<event>
 8    1  0.1254059E-006  0.9118800E+02  0.7816164E-02  0.1184000E+00
        -11   -1    0    0    0    0  0.00000000000E+00  0.00000000000E+00  0.45593999997E+02  0.45594000000E+02  0.51100000000E-03 0.  1.
         11   -1    0    0    0    0 -0.00000000000E+00 -0.00000000000E+00 -0.45593999997E+02  0.45594000000E+02  0.51100000000E-03 0. -1.
         23    2    1    2    0    0  0.36082248300E-15  0.17763568394E-14  0.00000000000E+00  0.91188000000E+02  0.91188000000E+02 0.  0.
    9900012    2    3    3    0    0 -0.11298680660E+00 -0.14464938984E+02  0.33860501425E+02  0.54367071406E+02  0.39999970883E+02 0.  0.
         12    1    3    3    0    0  0.11298680660E+00  0.14464938984E+02 -0.33860501425E+02  0.36820928594E+02  0.00000000000E+00 0. -1.
         11    1    4    4    0    0  0.77605384689E-01 -0.19243520914E+02  0.20972077150E+02  0.28463083811E+02  0.51100000000E-03 0. -1.
        -11    1    4    4    0    0 -0.83972128934E+01  0.79909524111E+01  0.12550455888E+02  0.17084567541E+02  0.51100000000E-03 0.  1.
         12    1    4    4    0    0  0.82066207021E+01 -0.32123704808E+01  0.33796838716E+00  0.88194200537E+01  0.00000000000E+00 0. -1.
</event>
<event>
 8    1  0.1254059E-006  0.9118800E+02  0.7816164E-02  0.1184000E+00
        -11   -1    0    0    0    0  0.00000000000E+00  0.00000000000E+00  0.45593999997E+02  0.45594000000E+02  0.51100000000E-03 0.  1.
         11   -1    0    0    0    0 -0.00000000000E+00 -0.00000000000E+00 -0.45593999997E+02  0.45594000000E+02  0.51100000000E-03 0. -1.
         23    2    1    2    0    0  0.00000000000E+00  0.00000000000E+00  0.00000000000E+00  0.91188000000E+02  0.91188000000E+02 0.  0.
    9900012    2    3    3    0    0  0.21476592195E+02 -0.23721849242E+02 -0.18215728080E+02  0.54367042744E+02  0.39999905543E+02 0.  0.
        -12    1    3    3    0    0 -0.21476592195E+02  0.23721849242E+02  0.18215728080E+02  0.36820957256E+02  0.00000000000E+00 0.  1.
         11    1    4    4    0    0  0.45101043525E-01 -0.11878051351E+02  0.41042768768E+01  0.12567228292E+02  0.51100000000E-03 0. -1.
        -11    1    4    4    0    0  0.21086385292E+02 -0.54227145246E+01 -0.26372752344E+02  0.34198882204E+02  0.51100000000E-03 0.  1.
        -12    1    4    4    0    0  0.34510585951E+00 -0.64210833661E+01  0.40527473873E+01  0.76009322477E+01  0.00000000000E+00 0.  1.
</event>
<event>
 8    1  0.1254059E-006  0.9118800E+02  0.7816164E-02  0.1184000E+00
        -11   -1    0    0    0    0  0.00000000000E+00  0.00000000000E+00  0.45593999997E+02  0.45594000000E+02  0.51100000000E-03 0.  1.
         11   -1    0    0    0    0 -0.00000000000E+00 -0.00000000000E+00 -0.45593999997E+02  0.45594000000E+02  0.51100000000E-03 0. -1.
         23    2    1    2    0    0  0.11102230246E-14  0.00000000000E+00 -0.88817841970E-15  0.91188000000E+02  0.91188000000E+02 0.  0.
    9900012    2    3    3    0    0 -0.19350335893E+01  0.36143259650E+02 -0.67601433227E+01  0.54367094106E+02  0.40000022634E+02 0.  0.
        -12    1    3    3    0    0  0.19350335893E+01 -0.36143259650E+02  0.67601433227E+01  0.36820905894E+02  0.00000000000E+00 0.  1.
         11    1    4    4    0    0  0.66744568207E+01  0.45223871130E+01 -0.67913521239E+01  0.10541481062E+02  0.51100000000E-03 0. -1.
        -11    1    4    4    0    0  0.94250107953E+01  0.42639709692E+01 -0.33779920831E+01  0.10882238175E+02  0.51100000000E-03 0.  1.
         12    1    4    4    0    0 -0.18034501205E+02  0.27356901568E+02  0.34092008844E+01  0.32943374869E+02  0.00000000000E+00 0. -1.
</event>
<event>
 8    1  0.1254059E-006  0.9118800E+02  0.7816164E-02  0.1184000E+00
        -11   -1    0    0    0    0  0.00000000000E+00  0.00000000000E+00  0.45593999997E+02  0.45594000000E+02  0.51100000000E-03 0.  1.
         11   -1    0    0    0    0 -0.00000000000E+00 -0.00000000000E+00 -0.45593999997E+02  0.45594000000E+02  0.51100000000E-03 0. -1.
         23    2    1    2    0    0 -0.35527136788E-14  0.35527136788E-14  0.00000000000E+00  0.91188000000E+02  0.91188000000E+02 0.  0.
    9900012    2    3    3    0    0 -0.22552627190E+02  0.27457794914E+02  0.96555142765E+01  0.54367075913E+02  0.39999981158E+02 0.  0.
         12    1    3    3    0    0  0.22552627190E+02 -0.27457794914E+02 -0.96555142765E+01  0.36820924087E+02  0.00000000000E+00 0. -1.
         11    1    4    4    0    0 -0.20709868427E+02  0.29432436477E+01  0.48477766217E+01  0.21472360650E+02  0.51100000000E-03 0. -1.
        -11    1    4    4    0    0  0.20963645550E+01  0.25067239297E+02  0.93688219115E+01  0.26842802659E+02  0.51100000000E-03 0.  1.
        -12    1    4    4    0    0 -0.39391233176E+01 -0.55268803011E+00 -0.45610842567E+01  0.60519126040E+01  0.00000000000E+00 0.  1.
</event>
<event>
 8    1  0.1254059E-006  0.9118800E+02  0.7816164E-02  0.1184000E+00
        -11   -1    0    0    0    0  0.00000000000E+00  0.00000000000E+00  0.45593999997E+02  0.45594000000E+02  0.51100000000E-03 0.  1.
         11   -1    0    0    0    0 -0.00000000000E+00 -0.00000000000E+00 -0.45593999997E+02  0.45594000000E+02  0.51100000000E-03 0. -1.
         23    2    1    2    0    0  0.00000000000E+00  0.35527136788E-14  0.17763568394E-14  0.91188000000E+02  0.91188000000E+02 0.  0.
    9900012    2    3    3    0    0 -0.29616869462E+02 -0.19000658444E+02 -0.10844132186E+02  0.54367093155E+02  0.40000020465E+02 0.  0.
         12    1    3    3    0    0  0.29616869462E+02  0.19000658444E+02  0.10844132186E+02  0.36820906845E+02  0.00000000000E+00 0. -1.
         11    1    4    4    0    0 -0.15192830557E+02  0.15022512427E+01 -0.31722978819E+01  0.15593021941E+02  0.51100000000E-03 0.  1.
        -11    1    4    4    0    0 -0.88403973282E+01 -0.26898666943E+02 -0.16442648235E+01  0.28361849645E+02  0.51100000000E-03 0. -1.
         12    1    4    4    0    0 -0.55836415770E+01  0.63957572567E+01 -0.60275694805E+01  0.10412221568E+02  0.00000000000E+00 0. -1.
</event>
<event>
 8    1  0.1254059E-006  0.9118800E+02  0.7816164E-02  0.1184000E+00
        -11   -1    0    0    0    0  0.00000000000E+00  0.00000000000E+00  0.45593999997E+02  0.45594000000E+02  0.51100000000E-03 0. -1.
         11   -1    0    0    0    0 -0.00000000000E+00 -0.00000000000E+00 -0.45593999997E+02  0.45594000000E+02  0.51100000000E-03 0.  1.
         23    2    1    2    0    0  0.00000000000E+00  0.00000000000E+00 -0.71054273576E-14  0.91188000000E+02  0.91188000000E+02 0.  0.
    9900012    2    3    3    0    0  0.24591532004E+02 -0.10011276631E+02 -0.25510997849E+02  0.54367080439E+02  0.39999991477E+02 0.  0.
         12    1    3    3    0    0 -0.24591532004E+02  0.10011276631E+02  0.25510997849E+02  0.36820919561E+02  0.00000000000E+00 0. -1.
         11    1    4    4    0    0  0.15912613469E+02  0.41960333243E+01  0.46193358630E+01  0.17092578131E+02  0.51100000000E-03 0. -1.
        -11    1    4    4    0    0  0.89362991371E+01 -0.75040564350E+01 -0.79956024963E+01  0.14145598778E+02  0.51100000000E-03 0.  1.
         12    1    4    4    0    0 -0.25738060247E+00 -0.67032535205E+01 -0.22134731215E+02  0.23128903530E+02  0.00000000000E+00 0. -1.
</event>
<event>
 8    1  0.1254059E-006  0.9118800E+02  0.7816164E-02  0.1184000E+00
        -11   -1    0    0    0    0  0.00000000000E+00  0.00000000000E+00  0.45593999997E+02  0.45594000000E+02  0.51100000000E-03 0.  1.
         11   -1    0    0    0    0 -0.00000000000E+00 -0.00000000000E+00 -0.45593999997E+02  0.45594000000E+02  0.51100000000E-03 0. -1.
         23    2    1    2    0    0  0.35527136788E-14  0.00000000000E+00 -0.17763568394E-14  0.91188000000E+02  0.91188000000E+02 0.  0.
    9900012    2    3    3    0    0 -0.16806600044E+02  0.32120642467E+02 -0.64484401290E+01  0.54367083965E+02  0.39999999516E+02 0.  0.
         12    1    3    3    0    0  0.16806600044E+02 -0.32120642467E+02  0.64484401290E+01  0.36820916035E+02  0.00000000000E+00 0. -1.
         11    1    4    4    0    0 -0.18735942028E+02  0.10853298256E+02  0.23981189486E+01  0.21784870471E+02  0.51100000000E-03 0. -1.
        -11    1    4    4    0    0 -0.63195707477E+01  0.19469940152E+02 -0.16219983162E+00  0.20470511792E+02  0.51100000000E-03 0.  1.
         12    1    4    4    0    0  0.82489127318E+01  0.17974040591E+01 -0.86843592460E+01  0.12111701702E+02  0.00000000000E+00 0. -1.
</event>
<event>
 8    1  0.1254059E-006  0.9118800E+02  0.7816164E-02  0.1184000E+00
        -11   -1    0    0    0    0  0.00000000000E+00  0.00000000000E+00  0.45593999997E+02  0.45594000000E+02  0.51100000000E-03 0.  1.
         11   -1    0    0    0    0 -0.00000000000E+00 -0.00000000000E+00 -0.45593999997E+02  0.45594000000E+02  0.51100000000E-03 0. -1.
         23    2    1    2    0    0  0.00000000000E+00  0.26645352591E-14 -0.71054273576E-14  0.91188000000E+02  0.91188000000E+02 0.  0.
    9900012    2    3    3    0    0 -0.20327288502E+01 -0.49246790676E+01  0.36433423117E+02  0.54367098728E+02  0.40000033170E+02 0.  0.
         12    1    3    3    0    0  0.20327288502E+01  0.49246790676E+01 -0.36433423117E+02  0.36820901272E+02  0.00000000000E+00 0. -1.
         11    1    4    4    0    0 -0.39805238393E+01  0.96997539688E+01  0.21377261162E+02  0.23810020834E+02  0.51100000000E-03 0. -1.
        -11    1    4    4    0    0 -0.76747566292E+01 -0.15114879587E+02  0.93584455772E+01  0.19363418555E+02  0.51100000000E-03 0.  1.
        -12    1    4    4    0    0  0.96225516184E+01  0.49044655064E+00  0.56977163779E+01  0.11193659339E+02  0.00000000000E+00 0.  1.
</event>
<event>
 8    1  0.1254059E-006  0.9118800E+02  0.7816164E-02  0.1184000E+00
        -11   -1    0    0    0    0  0.00000000000E+00  0.00000000000E+00  0.45593999997E+02  0.45594000000E+02  0.51100000000E-03 0.  1.
         11   -1    0    0    0    0 -0.00000000000E+00 -0.00000000000E+00 -0.45593999997E+02  0.45594000000E+02  0.51100000000E-03 0. -1.
         23    2    1    2    0    0 -0.35527136788E-14  0.00000000000E+00 -0.35527136788E-14  0.91188000000E+02  0.91188000000E+02 0.  0.
    9900012    2    3    3    0    0  0.24236558487E+02  0.15358322167E+02  0.23075885225E+02  0.54367009980E+02  0.39999830852E+02 0.  0.
         12    1    3    3    0    0 -0.24236558487E+02 -0.15358322167E+02 -0.23075885225E+02  0.36820990020E+02  0.00000000000E+00 0. -1.
         11    1    4    4    0    0  0.10763910747E+02 -0.33181987191E+01  0.98154869847E+01  0.14940415065E+02  0.51100000000E-03 0.  1.
        -11    1    4    4    0    0 -0.44126269727E+01  0.17243870763E+02  0.12666219364E+01  0.17844514201E+02  0.51100000000E-03 0. -1.
         12    1    4    4    0    0  0.17885274713E+02  0.14326501239E+01  0.11993776304E+02  0.21582080715E+02  0.00000000000E+00 0. -1.
</event>
<event>
 8    1  0.1254059E-006  0.9118800E+02  0.7816164E-02  0.1184000E+00
        -11   -1    0    0    0    0  0.00000000000E+00  0.00000000000E+00  0.45593999997E+02  0.45594000000E+02  0.51100000000E-03 0. -1.
         11   -1    0    0    0    0 -0.00000000000E+00 -0.00000000000E+00 -0.45593999997E+02  0.45594000000E+02  0.51100000000E-03 0.  1.
         23    2    1    2    0    0  0.00000000000E+00  0.00000000000E+00 -0.44408920985E-15  0.91188000000E+02  0.91188000000E+02 0.  0.
    9900012    2    3    3    0    0 -0.31607947027E+02 -0.18734993727E+02  0.23910752782E+01  0.54367088195E+02  0.40000009158E+02 0.  0.
        -12    1    3    3    0    0  0.31607947027E+02  0.18734993727E+02 -0.23910752782E+01  0.36820911805E+02  0.00000000000E+00 0.  1.
         11    1    4    4    0    0 -0.11989388066E+02  0.15667324015E+01 -0.21324650799E+00  0.12093202675E+02  0.51100000000E-03 0. -1.
        -11    1    4    4    0    0  0.39410177142E+01 -0.43275198133E+01 -0.96478120212E+01  0.11284472758E+02  0.51100000000E-03 0.  1.
         12    1    4    4    0    0 -0.23559576675E+02 -0.15974206315E+02  0.12252133807E+02  0.30989412762E+02  0.00000000000E+00 0. -1.
</event>
<event>
 8    1  0.1254059E-006  0.9118800E+02  0.7816164E-02  0.1184000E+00
        -11   -1    0    0    0    0  0.00000000000E+00  0.00000000000E+00  0.45593999997E+02  0.45594000000E+02  0.51100000000E-03 0.  1.
         11   -1    0    0    0    0 -0.00000000000E+00 -0.00000000000E+00 -0.45593999997E+02  0.45594000000E+02  0.51100000000E-03 0. -1.
         23    2    1    2    0    0  0.00000000000E+00 -0.88817841970E-15  0.99920072216E-15  0.91188000000E+02  0.91188000000E+02 0.  0.
    9900012    2    3    3    0    0  0.36572464895E+02 -0.42180493955E+01  0.66471570415E+00  0.54367095935E+02  0.40000026804E+02 0.  0.
         12    1    3    3    0    0 -0.36572464895E+02  0.42180493955E+01 -0.66471570415E+00  0.36820904065E+02  0.00000000000E+00 0. -1.
         11    1    4    4    0    0  0.14270120444E+02  0.28475464417E+01 -0.32894228663E+01  0.14918617942E+02  0.51100000000E-03 0. -1.
        -11    1    4    4    0    0  0.21922961146E+02 -0.74699491059E+01  0.15513230586E+02  0.27876095288E+02  0.51100000000E-03 0.  1.
         12    1    4    4    0    0  0.37938330486E+00  0.40435326864E+00 -0.11559092016E+02  0.11572382706E+02  0.00000000000E+00 0. -1.
</event>
<event>
 8    1  0.1254059E-006  0.9118800E+02  0.7816164E-02  0.1184000E+00
        -11   -1    0    0    0    0  0.00000000000E+00  0.00000000000E+00  0.45593999997E+02  0.45594000000E+02  0.51100000000E-03 0.  1.
         11   -1    0    0    0    0 -0.00000000000E+00 -0.00000000000E+00 -0.45593999997E+02  0.45594000000E+02  0.51100000000E-03 0. -1.
         23    2    1    2    0    0  0.00000000000E+00  0.17763568394E-14  0.00000000000E+00  0.91188000000E+02  0.91188000000E+02 0.  0.
    9900012    2    3    3    0    0  0.35421787303E+02  0.88759362587E+01 -0.47216346398E+01  0.54367094337E+02  0.40000023160E+02 0.  0.
         12    1    3    3    0    0 -0.35421787303E+02 -0.88759362587E+01  0.47216346398E+01  0.36820905663E+02  0.00000000000E+00 0. -1.
         11    1    4    4    0    0  0.55207088367E+01  0.85305528212E+01 -0.17467031508E+02  0.20207566589E+02  0.51100000000E-03 0. -1.
        -11    1    4    4    0    0  0.16724920211E+02  0.37387036338E+01  0.29392311935E+01  0.17387925155E+02  0.51100000000E-03 0.  1.
        -12    1    4    4    0    0  0.13176158255E+02 -0.33933201962E+01  0.98061656743E+01  0.16771602593E+02  0.00000000000E+00 0.  1.
</event>
<event>
 8    1  0.1254059E-006  0.9118800E+02  0.7816164E-02  0.1184000E+00
        -11   -1    0    0    0    0  0.00000000000E+00  0.00000000000E+00  0.45593999997E+02  0.45594000000E+02  0.51100000000E-03 0. -1.
         11   -1    0    0    0    0 -0.00000000000E+00 -0.00000000000E+00 -0.45593999997E+02  0.45594000000E+02  0.51100000000E-03 0.  1.
         23    2    1    2    0    0  0.35527136788E-14 -0.35527136788E-14 -0.10658141036E-13  0.91188000000E+02  0.91188000000E+02 0.  0.
    9900012    2    3    3    0    0 -0.19825750649E+02  0.19852373547E+02  0.23845382549E+02  0.54367090273E+02  0.40000013895E+02 0.  0.
        -12    1    3    3    0    0  0.19825750649E+02 -0.19852373547E+02 -0.23845382549E+02  0.36820909727E+02  0.00000000000E+00 0.  1.
         11    1    4    4    0    0 -0.74332604267E-01 -0.88994292925E+00 -0.31623576481E+01  0.32860355916E+01  0.51100000000E-03 0.  1.
        -11    1    4    4    0    0 -0.82054453159E+01  0.26207953068E+02  0.87977159625E+01  0.28837231894E+02  0.51100000000E-03 0. -1.
         12    1    4    4    0    0 -0.11545972729E+02 -0.54656365917E+01  0.18210024234E+02  0.22243822788E+02  0.00000000000E+00 0. -1.
</event>
<event>
 8    1  0.1254059E-006  0.9118800E+02  0.7816164E-02  0.1184000E+00
        -11   -1    0    0    0    0  0.00000000000E+00  0.00000000000E+00  0.45593999997E+02  0.45594000000E+02  0.51100000000E-03 0.  1.
         11   -1    0    0    0    0 -0.00000000000E+00 -0.00000000000E+00 -0.45593999997E+02  0.45594000000E+02  0.51100000000E-03 0. -1.
         23    2    1    2    0    0  0.00000000000E+00  0.55511151231E-16  0.00000000000E+00  0.91188000000E+02  0.91188000000E+02 0.  0.
    9900012    2    3    3    0    0  0.25599447119E+02 -0.44523368434E+00  0.26462144676E+02  0.54367149566E+02  0.40000149066E+02 0.  0.
         12    1    3    3    0    0 -0.25599447119E+02  0.44523368434E+00 -0.26462144676E+02  0.36820850434E+02  0.00000000000E+00 0. -1.
         11    1    4    4    0    0 -0.65903518421E+01  0.56526017828E+01  0.68957322505E+01  0.11087640319E+02  0.51100000000E-03 0. -1.
        -11    1    4    4    0    0 -0.28219084273E+00 -0.57843152726E+01  0.51496807464E+01  0.77496546308E+01  0.51100000000E-03 0.  1.
        -12    1    4    4    0    0  0.32471989804E+02 -0.31352019446E+00  0.14416731679E+02  0.35529854616E+02  0.00000000000E+00 0.  1.
</event>
<event>
 8    1  0.1254059E-006  0.9118800E+02  0.7816164E-02  0.1184000E+00
        -11   -1    0    0    0    0  0.00000000000E+00  0.00000000000E+00  0.45593999997E+02  0.45594000000E+02  0.51100000000E-03 0. -1.
         11   -1    0    0    0    0 -0.00000000000E+00 -0.00000000000E+00 -0.45593999997E+02  0.45594000000E+02  0.51100000000E-03 0.  1.
         23    2    1    2    0    0  0.00000000000E+00 -0.88817841970E-15 -0.35527136788E-14  0.91188000000E+02  0.91188000000E+02 0.  0.
    9900012    2    3    3    0    0  0.23883877963E+02 -0.74678057355E+01 -0.27010591169E+02  0.54367084960E+02  0.40000001783E+02 0.  0.
         12    1    3    3    0    0 -0.23883877963E+02  0.74678057355E+01  0.27010591169E+02  0.36820915040E+02  0.00000000000E+00 0. -1.
         11    1    4    4    0    0  0.45004730740E+01 -0.55178757027E+01 -0.49667724291E+00  0.71377796761E+01  0.51100000000E-03 0. -1.
        -11    1    4    4    0    0  0.11235100501E+02 -0.89217389813E+00 -0.34180939867E+02  0.35991111514E+02  0.51100000000E-03 0.  1.
        -12    1    4    4    0    0  0.81483043882E+01 -0.10577561346E+01  0.76670259404E+01  0.11238193770E+02  0.00000000000E+00 0.  1.
</event>
<event>
 8    1  0.1254059E-006  0.9118800E+02  0.7816164E-02  0.1184000E+00
        -11   -1    0    0    0    0  0.00000000000E+00  0.00000000000E+00  0.45593999997E+02  0.45594000000E+02  0.51100000000E-03 0.  1.
         11   -1    0    0    0    0 -0.00000000000E+00 -0.00000000000E+00 -0.45593999997E+02  0.45594000000E+02  0.51100000000E-03 0. -1.
         23    2    1    2    0    0  0.00000000000E+00  0.35527136788E-14  0.00000000000E+00  0.91188000000E+02  0.91188000000E+02 0.  0.
    9900012    2    3    3    0    0 -0.23471150433E+02  0.26831411344E+02 -0.92173414102E+01  0.54367096697E+02  0.40000028541E+02 0.  0.
        -12    1    3    3    0    0  0.23471150433E+02 -0.26831411344E+02  0.92173414102E+01  0.36820903303E+02  0.00000000000E+00 0.  1.
         11    1    4    4    0    0  0.64485492784E+01  0.49980172168E+01  0.43737089635E+01  0.92570672599E+01  0.51100000000E-03 0.  1.
        -11    1    4    4    0    0 -0.22141208609E+02  0.96403078007E+01 -0.17853676967E+02  0.30032023486E+02  0.51100000000E-03 0. -1.
        -12    1    4    4    0    0 -0.77784911018E+01  0.12193086327E+02  0.42626265934E+01  0.15078005951E+02  0.00000000000E+00 0.  1.
</event>
<event>
 8    1  0.1254059E-006  0.9118800E+02  0.7816164E-02  0.1184000E+00
        -11   -1    0    0    0    0  0.00000000000E+00  0.00000000000E+00  0.45593999997E+02  0.45594000000E+02  0.51100000000E-03 0.  1.
         11   -1    0    0    0    0 -0.00000000000E+00 -0.00000000000E+00 -0.45593999997E+02  0.45594000000E+02  0.51100000000E-03 0. -1.
         23    2    1    2    0    0  0.00000000000E+00  0.17763568394E-14  0.00000000000E+00  0.91188000000E+02  0.91188000000E+02 0.  0.
    9900012    2    3    3    0    0 -0.23868670912E+02  0.95380980946E+01  0.26364580022E+02  0.54367084121E+02  0.39999999871E+02 0.  0.
         12    1    3    3    0    0  0.23868670912E+02 -0.95380980946E+01 -0.26364580022E+02  0.36820915879E+02  0.00000000000E+00 0. -1.
         11    1    4    4    0    0 -0.16126071164E+01 -0.43225239709E+01 -0.97996010484E+00  0.47164644872E+01  0.51100000000E-03 0. -1.
        -11    1    4    4    0    0 -0.46840330415E+01 -0.23363752638E+01  0.25108316788E+02  0.25648126385E+02  0.51100000000E-03 0.  1.
         12    1    4    4    0    0 -0.17572030755E+02  0.16196997329E+02  0.22362233395E+01  0.24002493249E+02  0.00000000000E+00 0. -1.
</event>
<event>
 8    1  0.1254059E-006  0.9118800E+02  0.7816164E-02  0.1184000E+00
        -11   -1    0    0    0    0  0.00000000000E+00  0.00000000000E+00  0.45593999997E+02  0.45594000000E+02  0.51100000000E-03 0.  1.
         11   -1    0    0    0    0 -0.00000000000E+00 -0.00000000000E+00 -0.45593999997E+02  0.45594000000E+02  0.51100000000E-03 0. -1.
         23    2    1    2    0    0  0.00000000000E+00 -0.71054273576E-14  0.17763568394E-14  0.91188000000E+02  0.91188000000E+02 0.  0.
    9900012    2    3    3    0    0  0.89818461849E+01 -0.33279786220E+02  0.12944478378E+02  0.54367119345E+02  0.40000080171E+02 0.  0.
         12    1    3    3    0    0 -0.89818461849E+01  0.33279786220E+02 -0.12944478378E+02  0.36820880655E+02  0.00000000000E+00 0. -1.
         11    1    4    4    0    0  0.47883167038E+01 -0.28413577766E+02  0.80290200672E+01  0.29911946473E+02  0.51100000000E-03 0. -1.
        -11    1    4    4    0    0 -0.69547859862E+01  0.35999104093E+01  0.67475641876E+01  0.10337215573E+02  0.51100000000E-03 0.  1.
        -12    1    4    4    0    0  0.11148315467E+02 -0.84661188634E+01 -0.18321058763E+01  0.14117957299E+02  0.00000000000E+00 0.  1.
</event>
<event>
 8    1  0.1254059E-006  0.9118800E+02  0.7816164E-02  0.1184000E+00
        -11   -1    0    0    0    0  0.00000000000E+00  0.00000000000E+00  0.45593999997E+02  0.45594000000E+02  0.51100000000E-03 0. -1.
         11   -1    0    0    0    0 -0.00000000000E+00 -0.00000000000E+00 -0.45593999997E+02  0.45594000000E+02  0.51100000000E-03 0.  1.
         23    2    1    2    0    0 -0.35527136788E-14 -0.88817841970E-15  0.00000000000E+00  0.91188000000E+02  0.91188000000E+02 0.  0.
    9900012    2    3    3    0    0  0.28120099440E+02  0.66275142496E+01  0.22828041990E+02  0.54367035337E+02  0.39999888657E+02 0.  0.
        -12    1    3    3    0    0 -0.28120099440E+02 -0.66275142496E+01 -0.22828041990E+02  0.36820964663E+02  0.00000000000E+00 0.  1.
         11    1    4    4    0    0  0.25909169044E+01 -0.31427303337E+01  0.18512428239E+02  0.18955199918E+02  0.51100000000E-03 0. -1.
        -11    1    4    4    0    0 -0.19507962542E+00  0.12852041731E+01  0.79732195061E+01  0.80784921477E+01  0.51100000000E-03 0.  1.
         12    1    4    4    0    0  0.25724262161E+02  0.84850404102E+01 -0.36576057555E+01  0.27333343271E+02  0.00000000000E+00 0. -1.
</event>
<event>
 8    1  0.1254059E-006  0.9118800E+02  0.7816164E-02  0.1184000E+00
        -11   -1    0    0    0    0  0.00000000000E+00  0.00000000000E+00  0.45593999997E+02  0.45594000000E+02  0.51100000000E-03 0.  1.
         11   -1    0    0    0    0 -0.00000000000E+00 -0.00000000000E+00 -0.45593999997E+02  0.45594000000E+02  0.51100000000E-03 0. -1.
         23    2    1    2    0    0  0.88817841970E-15  0.22204460493E-14  0.71054273576E-14  0.91188000000E+02  0.91188000000E+02 0.  0.
    9900012    2    3    3    0    0  0.47222426083E+01 -0.21655099062E+01  0.36452586865E+02  0.54367080707E+02  0.39999992088E+02 0.  0.
         12    1    3    3    0    0 -0.47222426083E+01  0.21655099062E+01 -0.36452586865E+02  0.36820919293E+02  0.00000000000E+00 0. -1.
         11    1    4    4    0    0 -0.42953351060E+01  0.11687476273E+02 -0.37671184285E+00  0.12457484392E+02  0.51100000000E-03 0. -1.
        -11    1    4    4    0    0  0.48175026957E+01  0.67968951489E+00  0.94712634773E+01  0.10647776396E+02  0.51100000000E-03 0.  1.
         12    1    4    4    0    0  0.42000750186E+01 -0.14532675694E+02  0.27358035231E+02  0.31261819919E+02  0.00000000000E+00 0. -1.
</event>
<event>
 8    1  0.1254059E-006  0.9118800E+02  0.7816164E-02  0.1184000E+00
        -11   -1    0    0    0    0  0.00000000000E+00  0.00000000000E+00  0.45593999997E+02  0.45594000000E+02  0.51100000000E-03 0. -1.
         11   -1    0    0    0    0 -0.00000000000E+00 -0.00000000000E+00 -0.45593999997E+02  0.45594000000E+02  0.51100000000E-03 0.  1.
         23    2    1    2    0    0 -0.35527136788E-14  0.00000000000E+00  0.00000000000E+00  0.91188000000E+02  0.91188000000E+02 0.  0.
    9900012    2    3    3    0    0  0.18646727812E+02  0.16387979807E+02  0.27194023488E+02  0.54367065008E+02  0.39999956298E+02 0.  0.
        -12    1    3    3    0    0 -0.18646727812E+02 -0.16387979807E+02 -0.27194023488E+02  0.36820934992E+02  0.00000000000E+00 0.  1.
         11    1    4    4    0    0  0.10212288839E+02  0.12742642396E+02 -0.70759600713E+01  0.17797050030E+02  0.51100000000E-03 0. -1.
        -11    1    4    4    0    0  0.38237197385E+01 -0.10366510438E+01  0.41336917250E+01  0.57256340753E+01  0.51100000000E-03 0.  1.
         12    1    4    4    0    0  0.46107192340E+01  0.46819884550E+01  0.30136291834E+02  0.30844380903E+02  0.00000000000E+00 0. -1.
</event>
<event>
 8    1  0.1254059E-006  0.9118800E+02  0.7816164E-02  0.1184000E+00
        -11   -1    0    0    0    0  0.00000000000E+00  0.00000000000E+00  0.45593999997E+02  0.45594000000E+02  0.51100000000E-03 0.  1.
         11   -1    0    0    0    0 -0.00000000000E+00 -0.00000000000E+00 -0.45593999997E+02  0.45594000000E+02  0.51100000000E-03 0. -1.
         23    2    1    2    0    0  0.00000000000E+00  0.17763568394E-14  0.71054273576E-14  0.91188000000E+02  0.91188000000E+02 0.  0.
    9900012    2    3    3    0    0 -0.13177097384E+02  0.75522341370E+01 -0.33542630580E+02  0.54367079287E+02  0.39999988851E+02 0.  0.
        -12    1    3    3    0    0  0.13177097384E+02 -0.75522341370E+01  0.33542630580E+02  0.36820920713E+02  0.00000000000E+00 0.  1.
         11    1    4    4    0    0 -0.14614320264E+02  0.19146096848E+02 -0.24753776605E+02  0.34538396572E+02  0.51100000000E-03 0. -1.
        -11    1    4    4    0    0 -0.25257437781E+01 -0.10226329092E+02 -0.10880085880E+02  0.15143759683E+02  0.51100000000E-03 0.  1.
         12    1    4    4    0    0  0.39629666580E+01 -0.13675336191E+01  0.20912319052E+01  0.46849230317E+01  0.00000000000E+00 0. -1.
</event>
<event>
 8    1  0.1254059E-006  0.9118800E+02  0.7816164E-02  0.1184000E+00
        -11   -1    0    0    0    0  0.00000000000E+00  0.00000000000E+00  0.45593999997E+02  0.45594000000E+02  0.51100000000E-03 0.  1.
         11   -1    0    0    0    0 -0.00000000000E+00 -0.00000000000E+00 -0.45593999997E+02  0.45594000000E+02  0.51100000000E-03 0. -1.
         23    2    1    2    0    0 -0.44408920985E-15  0.00000000000E+00  0.00000000000E+00  0.91188000000E+02  0.91188000000E+02 0.  0.
    9900012    2    3    3    0    0  0.28472119476E+01 -0.18934685341E+02  0.31450777342E+02  0.54367077683E+02  0.39999985194E+02 0.  0.
         12    1    3    3    0    0 -0.28472119476E+01  0.18934685341E+02 -0.31450777342E+02  0.36820922317E+02  0.00000000000E+00 0. -1.
         11    1    4    4    0    0 -0.11029780542E+02 -0.47235666240E+01 -0.20853583368E+01  0.12178540968E+02  0.51100000000E-03 0. -1.
        -11    1    4    4    0    0  0.55993432379E+01  0.30492393658E+01  0.98611416938E+01  0.11742768889E+02  0.51100000000E-03 0.  1.
        -12    1    4    4    0    0  0.82776492522E+01 -0.17260358083E+02  0.23674993986E+02  0.30445767826E+02  0.00000000000E+00 0.  1.
</event>
<event>
 8    1  0.1254059E-006  0.9118800E+02  0.7816164E-02  0.1184000E+00
        -11   -1    0    0    0    0  0.00000000000E+00  0.00000000000E+00  0.45593999997E+02  0.45594000000E+02  0.51100000000E-03 0.  1.
         11   -1    0    0    0    0 -0.00000000000E+00 -0.00000000000E+00 -0.45593999997E+02  0.45594000000E+02  0.51100000000E-03 0. -1.
         23    2    1    2    0    0  0.35527136788E-14  0.17763568394E-14  0.00000000000E+00  0.91188000000E+02  0.91188000000E+02 0.  0.
    9900012    2    3    3    0    0  0.30890619883E+02 -0.84709533309E+01  0.18160179300E+02  0.54367088017E+02  0.40000008752E+02 0.  0.
         12    1    3    3    0    0 -0.30890619883E+02  0.84709533309E+01 -0.18160179300E+02  0.36820911983E+02  0.00000000000E+00 0. -1.
         11    1    4    4    0    0 -0.24205532273E+01  0.76582507267E+01  0.12340235392E+01  0.81259274225E+01  0.51100000000E-03 0. -1.
        -11    1    4    4    0    0  0.14892727148E+02  0.19589313448E+01  0.13506758109E+02  0.20200575457E+02  0.51100000000E-03 0.  1.
        -12    1    4    4    0    0  0.18418445962E+02 -0.18088135402E+02  0.34193976514E+01  0.26040585137E+02  0.00000000000E+00 0.  1.
</event>
<event>
 8    1  0.1254059E-006  0.9118800E+02  0.7816164E-02  0.1184000E+00
        -11   -1    0    0    0    0  0.00000000000E+00  0.00000000000E+00  0.45593999997E+02  0.45594000000E+02  0.51100000000E-03 0. -1.
         11   -1    0    0    0    0 -0.00000000000E+00 -0.00000000000E+00 -0.45593999997E+02  0.45594000000E+02  0.51100000000E-03 0.  1.
         23    2    1    2    0    0  0.00000000000E+00  0.00000000000E+00  0.35527136788E-14  0.91188000000E+02  0.91188000000E+02 0.  0.
    9900012    2    3    3    0    0  0.23526820366E+02  0.19059841064E+02 -0.20952145259E+02  0.54367065617E+02  0.39999957687E+02 0.  0.
         12    1    3    3    0    0 -0.23526820366E+02 -0.19059841064E+02  0.20952145259E+02  0.36820934383E+02  0.00000000000E+00 0. -1.
         11    1    4    4    0    0  0.74546619200E+01  0.54421698366E+00  0.26692501629E+01  0.79368163113E+01  0.51100000000E-03 0. -1.
        -11    1    4    4    0    0  0.27932072383E+01 -0.32785996587E+01 -0.20231803477E+02  0.20685190224E+02  0.51100000000E-03 0.  1.
        -12    1    4    4    0    0  0.13278951208E+02  0.21794223739E+02 -0.33895919441E+01  0.25745059081E+02  0.00000000000E+00 0.  1.
</event>
<event>
 8    1  0.1254059E-006  0.9118800E+02  0.7816164E-02  0.1184000E+00
        -11   -1    0    0    0    0  0.00000000000E+00  0.00000000000E+00  0.45593999997E+02  0.45594000000E+02  0.51100000000E-03 0.  1.
         11   -1    0    0    0    0 -0.00000000000E+00 -0.00000000000E+00 -0.45593999997E+02  0.45594000000E+02  0.51100000000E-03 0. -1.
         23    2    1    2    0    0 -0.35527136788E-14 -0.35527136788E-14  0.35527136788E-14  0.91188000000E+02  0.91188000000E+02 0.  0.
    9900012    2    3    3    0    0  0.17352670900E+02  0.20868251901E+02 -0.24883393096E+02  0.54367049758E+02  0.39999921533E+02 0.  0.
        -12    1    3    3    0    0 -0.17352670900E+02 -0.20868251901E+02  0.24883393096E+02  0.36820950242E+02  0.00000000000E+00 0.  1.
         11    1    4    4    0    0  0.20028188623E+02  0.11068351276E+02 -0.10939710289E+02  0.25363635405E+02  0.51100000000E-03 0. -1.
        -11    1    4    4    0    0  0.10052391911E+02  0.63997757886E+01 -0.89948435937E+01  0.14930335724E+02  0.51100000000E-03 0.  1.
        -12    1    4    4    0    0 -0.12727909634E+02  0.34001248363E+01 -0.49488392135E+01  0.14073078630E+02  0.00000000000E+00 0.  1.
</event>
<event>
 8    1  0.1254059E-006  0.9118800E+02  0.7816164E-02  0.1184000E+00
        -11   -1    0    0    0    0  0.00000000000E+00  0.00000000000E+00  0.45593999997E+02  0.45594000000E+02  0.51100000000E-03 0. -1.
         11   -1    0    0    0    0 -0.00000000000E+00 -0.00000000000E+00 -0.45593999997E+02  0.45594000000E+02  0.51100000000E-03 0.  1.
         23    2    1    2    0    0  0.88817841970E-15  0.00000000000E+00  0.00000000000E+00  0.91188000000E+02  0.91188000000E+02 0.  0.
    9900012    2    3    3    0    0  0.46388558770E+01  0.32527906492E+02  0.16619154476E+02  0.54367082302E+02  0.39999995724E+02 0.  0.
        -12    1    3    3    0    0 -0.46388558770E+01 -0.32527906492E+02 -0.16619154476E+02  0.36820917698E+02  0.00000000000E+00 0.  1.
         11    1    4    4    0    0  0.13957178796E+02  0.11171394412E+02  0.63318155141E+01  0.18965621029E+02  0.51100000000E-03 0. -1.
        -11    1    4    4    0    0  0.75063815439E+00  0.21969954345E+01  0.13342250766E+02  0.13542743531E+02  0.51100000000E-03 0.  1.
        -12    1    4    4    0    0 -0.10068961074E+02  0.19159516646E+02 -0.30549118036E+01  0.21858717742E+02  0.00000000000E+00 0.  1.
</event>
<event>
 8    1  0.1254059E-006  0.9118800E+02  0.7816164E-02  0.1184000E+00
        -11   -1    0    0    0    0  0.00000000000E+00  0.00000000000E+00  0.45593999997E+02  0.45594000000E+02  0.51100000000E-03 0.  1.
         11   -1    0    0    0    0 -0.00000000000E+00 -0.00000000000E+00 -0.45593999997E+02  0.45594000000E+02  0.51100000000E-03 0. -1.
         23    2    1    2    0    0  0.00000000000E+00 -0.17763568394E-14 -0.17763568394E-14  0.91188000000E+02  0.91188000000E+02 0.  0.
    9900012    2    3    3    0    0 -0.34833960747E+02 -0.55034166711E+01  0.10587079675E+02  0.54367100060E+02  0.40000036206E+02 0.  0.
         12    1    3    3    0    0  0.34833960747E+02  0.55034166711E+01 -0.10587079675E+02  0.36820899940E+02  0.00000000000E+00 0. -1.
         11    1    4    4    0    0 -0.11347991787E+02  0.12191956390E+02 -0.11510185757E+01  0.16695674956E+02  0.51100000000E-03 0. -1.
        -11    1    4    4    0    0 -0.13560818530E+02  0.20304405211E+01  0.43043597994E+01  0.14371708369E+02  0.51100000000E-03 0.  1.
        -12    1    4    4    0    0 -0.99251504307E+01 -0.19725813582E+02  0.74337384517E+01  0.23299716735E+02  0.00000000000E+00 0.  1.
</event>
<event>
 8    1  0.1254059E-006  0.9118800E+02  0.7816164E-02  0.1184000E+00
        -11   -1    0    0    0    0  0.00000000000E+00  0.00000000000E+00  0.45593999997E+02  0.45594000000E+02  0.51100000000E-03 0.  1.
         11   -1    0    0    0    0 -0.00000000000E+00 -0.00000000000E+00 -0.45593999997E+02  0.45594000000E+02  0.51100000000E-03 0. -1.
         23    2    1    2    0    0  0.71054273576E-14  0.17763568394E-14  0.88817841970E-15  0.91188000000E+02  0.91188000000E+02 0.  0.
    9900012    2    3    3    0    0 -0.35613598164E+02 -0.80287826977E+01  0.47948859702E+01  0.54367073107E+02  0.39999974762E+02 0.  0.
         12    1    3    3    0    0  0.35613598164E+02  0.80287826977E+01 -0.47948859702E+01  0.36820926893E+02  0.00000000000E+00 0. -1.
         11    1    4    4    0    0 -0.13088454729E+02  0.18065221084E+01 -0.84091530622E+01  0.15661577980E+02  0.51100000000E-03 0. -1.
        -11    1    4    4    0    0 -0.28156117780E+02 -0.10543084287E+02  0.82615805898E+01  0.31179757998E+02  0.51100000000E-03 0.  1.
         12    1    4    4    0    0  0.56309743456E+01  0.70777948141E+00  0.49424584426E+01  0.75257371288E+01  0.00000000000E+00 0. -1.
</event>
<event>
 8    1  0.1254059E-006  0.9118800E+02  0.7816164E-02  0.1184000E+00
        -11   -1    0    0    0    0  0.00000000000E+00  0.00000000000E+00  0.45593999997E+02  0.45594000000E+02  0.51100000000E-03 0. -1.
         11   -1    0    0    0    0 -0.00000000000E+00 -0.00000000000E+00 -0.45593999997E+02  0.45594000000E+02  0.51100000000E-03 0.  1.
         23    2    1    2    0    0 -0.17763568394E-14  0.17763568394E-14  0.00000000000E+00  0.91188000000E+02  0.91188000000E+02 0.  0.
    9900012    2    3    3    0    0  0.12353633088E+02 -0.12329330761E+02 -0.32421523750E+02  0.54367084072E+02  0.39999999760E+02 0.  0.
         12    1    3    3    0    0 -0.12353633088E+02  0.12329330761E+02  0.32421523750E+02  0.36820915928E+02  0.00000000000E+00 0. -1.
         11    1    4    4    0    0  0.14113034093E+02  0.48489707135E+00 -0.36467072023E+01  0.14584626500E+02  0.51100000000E-03 0. -1.
        -11    1    4    4    0    0  0.73717381674E+01 -0.16014860676E+02 -0.16444066160E+02  0.24108620828E+02  0.51100000000E-03 0.  1.
         12    1    4    4    0    0 -0.91311391718E+01  0.32006328437E+01 -0.12330750387E+02  0.15673836744E+02  0.00000000000E+00 0. -1.
</event>
<event>
 8    1  0.1254059E-006  0.9118800E+02  0.7816164E-02  0.1184000E+00
        -11   -1    0    0    0    0  0.00000000000E+00  0.00000000000E+00  0.45593999997E+02  0.45594000000E+02  0.51100000000E-03 0.  1.
         11   -1    0    0    0    0 -0.00000000000E+00 -0.00000000000E+00 -0.45593999997E+02  0.45594000000E+02  0.51100000000E-03 0. -1.
         23    2    1    2    0    0  0.00000000000E+00  0.88817841970E-15  0.00000000000E+00  0.91188000000E+02  0.91188000000E+02 0.  0.
    9900012    2    3    3    0    0 -0.16885947147E+02  0.60447709724E+01 -0.32157485480E+02  0.54367104580E+02  0.40000046511E+02 0.  0.
        -12    1    3    3    0    0  0.16885947147E+02 -0.60447709724E+01  0.32157485480E+02  0.36820895420E+02  0.00000000000E+00 0.  1.
         11    1    4    4    0    0 -0.63730173766E+01  0.69948052973E+01 -0.15589022854E+02  0.18236235506E+02  0.51100000000E-03 0. -1.
        -11    1    4    4    0    0  0.68036179131E+00 -0.73437777644E+01  0.64179107329E+01  0.97766836124E+01  0.51100000000E-03 0.  1.
        -12    1    4    4    0    0 -0.11193291561E+02  0.63937434396E+01 -0.22986373359E+02  0.26354185461E+02  0.00000000000E+00 0.  1.
</event>
<event>
 8    1  0.1254059E-006  0.9118800E+02  0.7816164E-02  0.1184000E+00
        -11   -1    0    0    0    0  0.00000000000E+00  0.00000000000E+00  0.45593999997E+02  0.45594000000E+02  0.51100000000E-03 0. -1.
         11   -1    0    0    0    0 -0.00000000000E+00 -0.00000000000E+00 -0.45593999997E+02  0.45594000000E+02  0.51100000000E-03 0.  1.
         23    2    1    2    0    0  0.00000000000E+00  0.00000000000E+00  0.00000000000E+00  0.91188000000E+02  0.91188000000E+02 0.  0.
    9900012    2    3    3    0    0 -0.19206854404E+02  0.26062756379E+02  0.17538845885E+02  0.54367059747E+02  0.39999944305E+02 0.  0.
        -12    1    3    3    0    0  0.19206854404E+02 -0.26062756379E+02 -0.17538845885E+02  0.36820940253E+02  0.00000000000E+00 0.  1.
         11    1    4    4    0    0  0.52641339232E+01  0.83251880706E+01  0.36171022432E+01  0.10493011544E+02  0.51100000000E-03 0. -1.
        -11    1    4    4    0    0 -0.15311148551E+01 -0.38601450436E+01 -0.54774442548E+01  0.68736764750E+01  0.51100000000E-03 0.  1.
         12    1    4    4    0    0 -0.22939873472E+02  0.21597713352E+02  0.19399187897E+02  0.37000371728E+02  0.00000000000E+00 0. -1.
</event>
<event>
 8    1  0.1254059E-006  0.9118800E+02  0.7816164E-02  0.1184000E+00
        -11   -1    0    0    0    0  0.00000000000E+00  0.00000000000E+00  0.45593999997E+02  0.45594000000E+02  0.51100000000E-03 0. -1.
         11   -1    0    0    0    0 -0.00000000000E+00 -0.00000000000E+00 -0.45593999997E+02  0.45594000000E+02  0.51100000000E-03 0.  1.
         23    2    1    2    0    0  0.17763568394E-14 -0.35527136788E-14  0.35527136788E-14  0.91188000000E+02  0.91188000000E+02 0.  0.
    9900012    2    3    3    0    0  0.45585845036E+01 -0.30513237962E+02  0.20098338383E+02  0.54367060450E+02  0.39999945907E+02 0.  0.
         12    1    3    3    0    0 -0.45585845036E+01  0.30513237962E+02 -0.20098338383E+02  0.36820939550E+02  0.00000000000E+00 0. -1.
         11    1    4    4    0    0 -0.14247193245E+01 -0.55919263487E+01 -0.47030262827E+01  0.74443214546E+01  0.51100000000E-03 0.  1.
        -11    1    4    4    0    0  0.70886580836E+01  0.57283587619E+01  0.47189352068E+01  0.10263114404E+02  0.51100000000E-03 0. -1.
         12    1    4    4    0    0 -0.11053542555E+01 -0.30649670375E+02  0.20082429459E+02  0.36659624591E+02  0.00000000000E+00 0. -1.
</event>
<event>
 8    1  0.1254059E-006  0.9118800E+02  0.7816164E-02  0.1184000E+00
        -11   -1    0    0    0    0  0.00000000000E+00  0.00000000000E+00  0.45593999997E+02  0.45594000000E+02  0.51100000000E-03 0. -1.
         11   -1    0    0    0    0 -0.00000000000E+00 -0.00000000000E+00 -0.45593999997E+02  0.45594000000E+02  0.51100000000E-03 0.  1.
         23    2    1    2    0    0  0.00000000000E+00  0.17763568394E-14  0.00000000000E+00  0.91188000000E+02  0.91188000000E+02 0.  0.
    9900012    2    3    3    0    0  0.14585317943E+02  0.12218002610E+02  0.31524088603E+02  0.54367092223E+02  0.40000018342E+02 0.  0.
        -12    1    3    3    0    0 -0.14585317943E+02 -0.12218002610E+02 -0.31524088603E+02  0.36820907777E+02  0.00000000000E+00 0.  1.
         11    1    4    4    0    0  0.11537504044E+02 -0.55254993382E+01  0.10150341898E+02  0.16330174017E+02  0.51100000000E-03 0. -1.
        -11    1    4    4    0    0  0.82302202509E+01  0.22127944346E+02  0.20355766127E+02  0.31172739072E+02  0.51100000000E-03 0.  1.
        -12    1    4    4    0    0 -0.51824063523E+01 -0.43844423977E+01  0.10179805776E+01  0.68641791349E+01  0.00000000000E+00 0.  1.
</event>
<event>
 8    1  0.1254059E-006  0.9118800E+02  0.7816164E-02  0.1184000E+00
        -11   -1    0    0    0    0  0.00000000000E+00  0.00000000000E+00  0.45593999997E+02  0.45594000000E+02  0.51100000000E-03 0.  1.
         11   -1    0    0    0    0 -0.00000000000E+00 -0.00000000000E+00 -0.45593999997E+02  0.45594000000E+02  0.51100000000E-03 0. -1.
         23    2    1    2    0    0 -0.35527136788E-14 -0.71054273576E-14  0.53290705182E-14  0.91188000000E+02  0.91188000000E+02 0.  0.
    9900012    2    3    3    0    0  0.21342796066E+02  0.25506624400E+02 -0.15801173402E+02  0.54367083213E+02  0.39999997800E+02 0.  0.
        -12    1    3    3    0    0 -0.21342796066E+02 -0.25506624400E+02  0.15801173402E+02  0.36820916787E+02  0.00000000000E+00 0.  1.
         11    1    4    4    0    0  0.53626441391E+01  0.95214950841E+01  0.57369770343E+01  0.12342192939E+02  0.51100000000E-03 0. -1.
        -11    1    4    4    0    0  0.11729269250E+02 -0.15487749657E+01  0.23770490373E+01  0.12067511070E+02  0.51100000000E-03 0.  1.
         12    1    4    4    0    0  0.42508826770E+01  0.17533904281E+02 -0.23915199474E+02  0.29957379204E+02  0.00000000000E+00 0. -1.
</event>
<event>
 8    1  0.1254059E-006  0.9118800E+02  0.7816164E-02  0.1184000E+00
        -11   -1    0    0    0    0  0.00000000000E+00  0.00000000000E+00  0.45593999997E+02  0.45594000000E+02  0.51100000000E-03 0. -1.
         11   -1    0    0    0    0 -0.00000000000E+00 -0.00000000000E+00 -0.45593999997E+02  0.45594000000E+02  0.51100000000E-03 0.  1.
         23    2    1    2    0    0  0.00000000000E+00  0.00000000000E+00  0.35527136788E-14  0.91188000000E+02  0.91188000000E+02 0.  0.
    9900012    2    3    3    0    0 -0.65638313423E+01  0.25341918474E+02 -0.25893692858E+02  0.54367081439E+02  0.39999993756E+02 0.  0.
         12    1    3    3    0    0  0.65638313423E+01 -0.25341918474E+02  0.25893692858E+02  0.36820918561E+02  0.00000000000E+00 0. -1.
         11    1    4    4    0    0  0.15407822139E+01  0.10865862111E+02 -0.23955049367E+02  0.26349295240E+02  0.51100000000E-03 0. -1.
        -11    1    4    4    0    0 -0.40556146147E+01  0.16081049231E+02 -0.96307979764E+01  0.19178123584E+02  0.51100000000E-03 0.  1.
        -12    1    4    4    0    0 -0.40489989415E+01 -0.16049928671E+01  0.76921544846E+01  0.88396626150E+01  0.00000000000E+00 0.  1.
</event>
<event>
 8    1  0.1254059E-006  0.9118800E+02  0.7816164E-02  0.1184000E+00
        -11   -1    0    0    0    0  0.00000000000E+00  0.00000000000E+00  0.45593999997E+02  0.45594000000E+02  0.51100000000E-03 0.  1.
         11   -1    0    0    0    0 -0.00000000000E+00 -0.00000000000E+00 -0.45593999997E+02  0.45594000000E+02  0.51100000000E-03 0. -1.
         23    2    1    2    0    0  0.44408920985E-15 -0.71054273576E-14 -0.44408920985E-15  0.91188000000E+02  0.91188000000E+02 0.  0.
    9900012    2    3    3    0    0 -0.34346803461E+00  0.36660573046E+02 -0.34152681672E+01  0.54367086879E+02  0.40000006159E+02 0.  0.
         12    1    3    3    0    0  0.34346803461E+00 -0.36660573046E+02  0.34152681672E+01  0.36820913121E+02  0.00000000000E+00 0. -1.
         11    1    4    4    0    0  0.62806891232E+01  0.16569327594E+01 -0.56969904189E+01  0.86399179466E+01  0.51100000000E-03 0. -1.
        -11    1    4    4    0    0  0.11802263650E+01  0.35166144510E+02  0.79590357547E+01  0.36074879132E+02  0.51100000000E-03 0.  1.
         12    1    4    4    0    0 -0.78043835228E+01 -0.16250422257E+00 -0.56773135031E+01  0.96522898011E+01  0.00000000000E+00 0. -1.
</event>
<event>
 8    1  0.1254059E-006  0.9118800E+02  0.7816164E-02  0.1184000E+00
        -11   -1    0    0    0    0  0.00000000000E+00  0.00000000000E+00  0.45593999997E+02  0.45594000000E+02  0.51100000000E-03 0.  1.
         11   -1    0    0    0    0 -0.00000000000E+00 -0.00000000000E+00 -0.45593999997E+02  0.45594000000E+02  0.51100000000E-03 0. -1.
         23    2    1    2    0    0 -0.35527136788E-14 -0.66613381478E-15  0.00000000000E+00  0.91188000000E+02  0.91188000000E+02 0.  0.
    9900012    2    3    3    0    0 -0.30850632322E+02  0.12140108192E+01  0.20063359256E+02  0.54367167288E+02  0.40000189467E+02 0.  0.
         12    1    3    3    0    0  0.30850632322E+02 -0.12140108192E+01 -0.20063359256E+02  0.36820832712E+02  0.00000000000E+00 0. -1.
         11    1    4    4    0    0 -0.21963912137E+02 -0.87796028846E+01  0.91747086870E+01  0.25370655154E+02  0.51100000000E-03 0. -1.
        -11    1    4    4    0    0 -0.66813486753E+01 -0.66453861643E+01  0.90402825617E+00  0.94667230203E+01  0.51100000000E-03 0.  1.
         12    1    4    4    0    0 -0.22053715094E+01  0.16638999868E+02  0.99846223130E+01  0.19529789114E+02  0.00000000000E+00 0. -1.
</event>
<event>
 8    1  0.1254059E-006  0.9118800E+02  0.7816164E-02  0.1184000E+00
        -11   -1    0    0    0    0  0.00000000000E+00  0.00000000000E+00  0.45593999997E+02  0.45594000000E+02  0.51100000000E-03 0.  1.
         11   -1    0    0    0    0 -0.00000000000E+00 -0.00000000000E+00 -0.45593999997E+02  0.45594000000E+02  0.51100000000E-03 0. -1.
         23    2    1    2    0    0  0.00000000000E+00  0.00000000000E+00  0.17763568394E-14  0.91188000000E+02  0.91188000000E+02 0.  0.
    9900012    2    3    3    0    0 -0.34202528901E+02  0.70945825098E+01  0.11646245947E+02  0.54367066703E+02  0.39999960164E+02 0.  0.
        -12    1    3    3    0    0  0.34202528901E+02 -0.70945825098E+01 -0.11646245947E+02  0.36820933297E+02  0.00000000000E+00 0.  1.
         11    1    4    4    0    0 -0.15983238069E+02 -0.13858822882E+01  0.13206035469E+02  0.20779411493E+02  0.51100000000E-03 0. -1.
        -11    1    4    4    0    0 -0.37197277751E+01  0.36439088598E+00  0.11729512250E+02  0.12310589479E+02  0.51100000000E-03 0.  1.
         12    1    4    4    0    0 -0.14499563056E+02  0.81160739120E+01 -0.13289301772E+02  0.21277065732E+02  0.00000000000E+00 0. -1.
</event>
<event>
 8    1  0.1254059E-006  0.9118800E+02  0.7816164E-02  0.1184000E+00
        -11   -1    0    0    0    0  0.00000000000E+00  0.00000000000E+00  0.45593999997E+02  0.45594000000E+02  0.51100000000E-03 0.  1.
         11   -1    0    0    0    0 -0.00000000000E+00 -0.00000000000E+00 -0.45593999997E+02  0.45594000000E+02  0.51100000000E-03 0. -1.
         23    2    1    2    0    0  0.00000000000E+00  0.00000000000E+00  0.00000000000E+00  0.91188000000E+02  0.91188000000E+02 0.  0.
    9900012    2    3    3    0    0  0.11075108623E+02  0.19915896107E+02 -0.28921933462E+02  0.54367093113E+02  0.40000020370E+02 0.  0.
        -12    1    3    3    0    0 -0.11075108623E+02 -0.19915896107E+02  0.28921933462E+02  0.36820906887E+02  0.00000000000E+00 0.  1.
         11    1    4    4    0    0  0.41775156209E+01  0.10498954788E+02 -0.17699980218E+02  0.20999261615E+02  0.51100000000E-03 0. -1.
        -11    1    4    4    0    0 -0.15149091817E+01 -0.25023556320E+01 -0.17312955677E+02  0.17558336142E+02  0.51100000000E-03 0.  1.
        -12    1    4    4    0    0  0.84125021841E+01  0.11919296951E+02  0.60910024321E+01  0.15809495357E+02  0.00000000000E+00 0.  1.
</event>
<event>
 8    1  0.1254059E-006  0.9118800E+02  0.7816164E-02  0.1184000E+00
        -11   -1    0    0    0    0  0.00000000000E+00  0.00000000000E+00  0.45593999997E+02  0.45594000000E+02  0.51100000000E-03 0. -1.
         11   -1    0    0    0    0 -0.00000000000E+00 -0.00000000000E+00 -0.45593999997E+02  0.45594000000E+02  0.51100000000E-03 0.  1.
         23    2    1    2    0    0 -0.35527136788E-14  0.00000000000E+00  0.00000000000E+00  0.91188000000E+02  0.91188000000E+02 0.  0.
    9900012    2    3    3    0    0  0.27334569218E+02  0.21638352726E+02  0.11848382385E+02  0.54367066441E+02  0.39999959565E+02 0.  0.
        -12    1    3    3    0    0 -0.27334569218E+02 -0.21638352726E+02 -0.11848382385E+02  0.36820933559E+02  0.00000000000E+00 0.  1.
         11    1    4    4    0    0 -0.27954845624E+01  0.11698544544E+02  0.92715957526E+01  0.15186611421E+02  0.51100000000E-03 0.  1.
        -11    1    4    4    0    0  0.18909870486E+02  0.16964420098E+02  0.45126628138E+01  0.25801916149E+02  0.51100000000E-03 0. -1.
        -12    1    4    4    0    0  0.11220183295E+02 -0.70246119156E+01 -0.19358761818E+01  0.13378538871E+02  0.00000000000E+00 0.  1.
</event>
<event>
 8    1  0.1254059E-006  0.9118800E+02  0.7816164E-02  0.1184000E+00
        -11   -1    0    0    0    0  0.00000000000E+00  0.00000000000E+00  0.45593999997E+02  0.45594000000E+02  0.51100000000E-03 0.  1.
         11   -1    0    0    0    0 -0.00000000000E+00 -0.00000000000E+00 -0.45593999997E+02  0.45594000000E+02  0.51100000000E-03 0. -1.
         23    2    1    2    0    0  0.88817841970E-15 -0.22204460493E-15 -0.71054273576E-14  0.91188000000E+02  0.91188000000E+02 0.  0.
    9900012    2    3    3    0    0  0.73537051478E+01 -0.50003468425E+00 -0.36075650683E+02  0.54367087650E+02  0.40000007915E+02 0.  0.
        -12    1    3    3    0    0 -0.73537051478E+01  0.50003468425E+00  0.36075650683E+02  0.36820912350E+02  0.00000000000E+00 0.  1.
         11    1    4    4    0    0  0.17309138335E+01 -0.44653382180E+01 -0.22136702087E+02  0.22648816474E+02  0.51100000000E-03 0. -1.
        -11    1    4    4    0    0  0.92681020747E+01 -0.36825223992E+01 -0.19277502970E+02  0.21704396060E+02  0.51100000000E-03 0.  1.
        -12    1    4    4    0    0 -0.36453107605E+01  0.76478259329E+01  0.53385543742E+01  0.10013875116E+02  0.00000000000E+00 0.  1.
</event>
<event>
 8    1  0.1254059E-006  0.9118800E+02  0.7816164E-02  0.1184000E+00
        -11   -1    0    0    0    0  0.00000000000E+00  0.00000000000E+00  0.45593999997E+02  0.45594000000E+02  0.51100000000E-03 0.  1.
         11   -1    0    0    0    0 -0.00000000000E+00 -0.00000000000E+00 -0.45593999997E+02  0.45594000000E+02  0.51100000000E-03 0. -1.
         23    2    1    2    0    0  0.00000000000E+00  0.00000000000E+00  0.00000000000E+00  0.91188000000E+02  0.91188000000E+02 0.  0.
    9900012    2    3    3    0    0  0.10818110861E+02  0.13039752509E+02  0.32691203739E+02  0.54367062071E+02  0.39999949603E+02 0.  0.
         12    1    3    3    0    0 -0.10818110861E+02 -0.13039752509E+02 -0.32691203739E+02  0.36820937929E+02  0.00000000000E+00 0. -1.
         11    1    4    4    0    0  0.11211014913E+02  0.71886825594E+01 -0.25161253770E+01  0.13553409147E+02  0.51100000000E-03 0. -1.
        -11    1    4    4    0    0  0.55197984350E+01  0.81944252506E+01  0.75504115124E+01  0.12434849988E+02  0.51100000000E-03 0.  1.
         12    1    4    4    0    0 -0.59127024874E+01 -0.23433553010E+01  0.27656917603E+02  0.28378802936E+02  0.00000000000E+00 0. -1.
</event>
<event>
 8    1  0.1254059E-006  0.9118800E+02  0.7816164E-02  0.1184000E+00
        -11   -1    0    0    0    0  0.00000000000E+00  0.00000000000E+00  0.45593999997E+02  0.45594000000E+02  0.51100000000E-03 0.  1.
         11   -1    0    0    0    0 -0.00000000000E+00 -0.00000000000E+00 -0.45593999997E+02  0.45594000000E+02  0.51100000000E-03 0. -1.
         23    2    1    2    0    0  0.00000000000E+00  0.00000000000E+00  0.00000000000E+00  0.91188000000E+02  0.91188000000E+02 0.  0.
    9900012    2    3    3    0    0  0.18811114019E+02  0.25665084278E+02 -0.18526323241E+02  0.54367092699E+02  0.40000019426E+02 0.  0.
        -12    1    3    3    0    0 -0.18811114019E+02 -0.25665084278E+02  0.18526323241E+02  0.36820907301E+02  0.00000000000E+00 0.  1.
         11    1    4    4    0    0  0.39239082346E+01 -0.78243546035E+01  0.48023941565E+01  0.99840157598E+01  0.51100000000E-03 0. -1.
        -11    1    4    4    0    0  0.30725594085E+01  0.41808892829E+01 -0.14511453949E+00  0.51905216506E+01  0.51100000000E-03 0.  1.
         12    1    4    4    0    0  0.11814646376E+02  0.29308549599E+02 -0.23183602858E+02  0.39192555289E+02  0.00000000000E+00 0. -1.
</event>
<event>
 8    1  0.1254059E-006  0.9118800E+02  0.7816164E-02  0.1184000E+00
        -11   -1    0    0    0    0  0.00000000000E+00  0.00000000000E+00  0.45593999997E+02  0.45594000000E+02  0.51100000000E-03 0. -1.
         11   -1    0    0    0    0 -0.00000000000E+00 -0.00000000000E+00 -0.45593999997E+02  0.45594000000E+02  0.51100000000E-03 0.  1.
         23    2    1    2    0    0  0.00000000000E+00  0.17763568394E-14  0.00000000000E+00  0.91188000000E+02  0.91188000000E+02 0.  0.
    9900012    2    3    3    0    0  0.35023415532E+02  0.10458164960E+02 -0.44463937155E+01  0.54367037670E+02  0.39999893976E+02 0.  0.
         12    1    3    3    0    0 -0.35023415532E+02 -0.10458164960E+02  0.44463937155E+01  0.36820962330E+02  0.00000000000E+00 0. -1.
         11    1    4    4    0    0 -0.57736300846E+01 -0.11836159409E+00 -0.11571267033E+01  0.58896312524E+01  0.51100000000E-03 0. -1.
        -11    1    4    4    0    0  0.30164579385E+01 -0.62810117793E+01 -0.10448210962E+01  0.70456922194E+01  0.51100000000E-03 0.  1.
        -12    1    4    4    0    0  0.37780587678E+02  0.16857538333E+02 -0.22444459161E+01  0.41431714198E+02  0.00000000000E+00 0.  1.
</event>
<event>
 8    1  0.1254059E-006  0.9118800E+02  0.7816164E-02  0.1184000E+00
        -11   -1    0    0    0    0  0.00000000000E+00  0.00000000000E+00  0.45593999997E+02  0.45594000000E+02  0.51100000000E-03 0.  1.
         11   -1    0    0    0    0 -0.00000000000E+00 -0.00000000000E+00 -0.45593999997E+02  0.45594000000E+02  0.51100000000E-03 0. -1.
         23    2    1    2    0    0  0.00000000000E+00  0.88817841970E-15  0.00000000000E+00  0.91188000000E+02  0.91188000000E+02 0.  0.
    9900012    2    3    3    0    0 -0.67221676359E+01 -0.49607867189E+01  0.35860586008E+02  0.54367101430E+02  0.40000039331E+02 0.  0.
         12    1    3    3    0    0  0.67221676359E+01  0.49607867189E+01 -0.35860586008E+02  0.36820898570E+02  0.00000000000E+00 0. -1.
         11    1    4    4    0    0 -0.40741006190E+01  0.50011773165E+00  0.77497808652E+01  0.87696931143E+01  0.51100000000E-03 0. -1.
        -11    1    4    4    0    0 -0.18628842177E+02 -0.10058739038E+01  0.19178107388E+02  0.26755286326E+02  0.51100000000E-03 0.  1.
         12    1    4    4    0    0  0.15980775160E+02 -0.44550305467E+01  0.89326977558E+01  0.18842121990E+02  0.00000000000E+00 0. -1.
</event>
<event>
 8    1  0.1254059E-006  0.9118800E+02  0.7816164E-02  0.1184000E+00
        -11   -1    0    0    0    0  0.00000000000E+00  0.00000000000E+00  0.45593999997E+02  0.45594000000E+02  0.51100000000E-03 0. -1.
         11   -1    0    0    0    0 -0.00000000000E+00 -0.00000000000E+00 -0.45593999997E+02  0.45594000000E+02  0.51100000000E-03 0.  1.
         23    2    1    2    0    0  0.00000000000E+00  0.17763568394E-14  0.00000000000E+00  0.91188000000E+02  0.91188000000E+02 0.  0.
    9900012    2    3    3    0    0 -0.90089526280E+01  0.14722668898E+02 -0.32524762570E+02  0.54367103933E+02  0.40000045035E+02 0.  0.
         12    1    3    3    0    0  0.90089526280E+01 -0.14722668898E+02  0.32524762570E+02  0.36820896067E+02  0.00000000000E+00 0. -1.
         11    1    4    4    0    0 -0.11182316324E+02  0.15503556285E+02 -0.20202938825E+02  0.27813004032E+02  0.51100000000E-03 0. -1.
        -11    1    4    4    0    0 -0.73361753638E+00 -0.69264192782E+01 -0.16953076783E+02  0.18328128420E+02  0.51100000000E-03 0.  1.
         12    1    4    4    0    0  0.29069812328E+01  0.61455318911E+01  0.46312530372E+01  0.82259714810E+01  0.00000000000E+00 0. -1.
</event>
<event>
 8    1  0.1254059E-006  0.9118800E+02  0.7816164E-02  0.1184000E+00
        -11   -1    0    0    0    0  0.00000000000E+00  0.00000000000E+00  0.45593999997E+02  0.45594000000E+02  0.51100000000E-03 0.  1.
         11   -1    0    0    0    0 -0.00000000000E+00 -0.00000000000E+00 -0.45593999997E+02  0.45594000000E+02  0.51100000000E-03 0. -1.
         23    2    1    2    0    0  0.44408920985E-15  0.00000000000E+00 -0.14210854715E-13  0.91188000000E+02  0.91188000000E+02 0.  0.
    9900012    2    3    3    0    0  0.28690961198E+01 -0.10555824113E+02  0.35158536914E+02  0.54367084026E+02  0.39999999654E+02 0.  0.
         12    1    3    3    0    0 -0.28690961198E+01  0.10555824113E+02 -0.35158536914E+02  0.36820915974E+02  0.00000000000E+00 0. -1.
         11    1    4    4    0    0  0.11581557516E+01 -0.92010424966E+00 -0.17754966738E+01  0.23109100535E+01  0.51100000000E-03 0. -1.
        -11    1    4    4    0    0  0.93597301219E+01 -0.77599994440E+00 -0.34535868623E+01  0.10006697075E+02  0.51100000000E-03 0.  1.
        -12    1    4    4    0    0 -0.76487897538E+01 -0.88597199193E+01  0.40387620450E+02  0.42049476898E+02  0.00000000000E+00 0.  1.
</event>
<event>
 8    1  0.1254059E-006  0.9118800E+02  0.7816164E-02  0.1184000E+00
        -11   -1    0    0    0    0  0.00000000000E+00  0.00000000000E+00  0.45593999997E+02  0.45594000000E+02  0.51100000000E-03 0.  1.
         11   -1    0    0    0    0 -0.00000000000E+00 -0.00000000000E+00 -0.45593999997E+02  0.45594000000E+02  0.51100000000E-03 0. -1.
         23    2    1    2    0    0  0.00000000000E+00  0.00000000000E+00  0.35527136788E-14  0.91188000000E+02  0.91188000000E+02 0.  0.
    9900012    2    3    3    0    0  0.18012829241E+02 -0.25820392260E+02  0.19095151160E+02  0.54367089208E+02  0.40000011466E+02 0.  0.
        -12    1    3    3    0    0 -0.18012829241E+02  0.25820392260E+02 -0.19095151160E+02  0.36820910792E+02  0.00000000000E+00 0.  1.
         11    1    4    4    0    0 -0.53144028406E+01 -0.22937381524E+02  0.16378305333E+02  0.28681269752E+02  0.51100000000E-03 0. -1.
        -11    1    4    4    0    0  0.63528226780E+01 -0.48784131497E+01  0.31037725648E+01  0.85901498959E+01  0.51100000000E-03 0.  1.
        -12    1    4    4    0    0  0.16974409404E+02  0.19954024133E+01 -0.38692673762E+00  0.17095669560E+02  0.00000000000E+00 0.  1.
</event>
<event>
 8    1  0.1254059E-006  0.9118800E+02  0.7816164E-02  0.1184000E+00
        -11   -1    0    0    0    0  0.00000000000E+00  0.00000000000E+00  0.45593999997E+02  0.45594000000E+02  0.51100000000E-03 0.  1.
         11   -1    0    0    0    0 -0.00000000000E+00 -0.00000000000E+00 -0.45593999997E+02  0.45594000000E+02  0.51100000000E-03 0. -1.
         23    2    1    2    0    0  0.00000000000E+00  0.00000000000E+00  0.17763568394E-14  0.91188000000E+02  0.91188000000E+02 0.  0.
    9900012    2    3    3    0    0  0.30460579430E+02 -0.18730326273E+02 -0.87805259320E+01  0.54367222480E+02  0.40000315286E+02 0.  0.
        -12    1    3    3    0    0 -0.30460579430E+02  0.18730326273E+02  0.87805259320E+01  0.36820777520E+02  0.00000000000E+00 0.  1.
         11    1    4    4    0    0  0.39282772545E+02 -0.17890464673E+02 -0.24900112340E+01  0.43236617597E+02  0.51100000000E-03 0. -1.
        -11    1    4    4    0    0 -0.69888058273E+01 -0.14347905150E+01 -0.56456359483E+01  0.90980897025E+01  0.51100000000E-03 0.  1.
         12    1    4    4    0    0 -0.18333872871E+01  0.59492891450E+00 -0.64487874967E+00  0.20325151807E+01  0.00000000000E+00 0. -1.
</event>
<event>
 8    1  0.1254059E-006  0.9118800E+02  0.7816164E-02  0.1184000E+00
        -11   -1    0    0    0    0  0.00000000000E+00  0.00000000000E+00  0.45593999997E+02  0.45594000000E+02  0.51100000000E-03 0.  1.
         11   -1    0    0    0    0 -0.00000000000E+00 -0.00000000000E+00 -0.45593999997E+02  0.45594000000E+02  0.51100000000E-03 0. -1.
         23    2    1    2    0    0  0.71054273576E-14 -0.13322676296E-14 -0.17763568394E-14  0.91188000000E+02  0.91188000000E+02 0.  0.
    9900012    2    3    3    0    0  0.33419124965E+02 -0.35516820110E+01 -0.15044192667E+02  0.54367080790E+02  0.39999992276E+02 0.  0.
        -12    1    3    3    0    0 -0.33419124965E+02  0.35516820110E+01  0.15044192667E+02  0.36820919210E+02  0.00000000000E+00 0.  1.
         11    1    4    4    0    0  0.49535618034E+01  0.61664104686E+01 -0.19657524812E+01  0.81502500383E+01  0.51100000000E-03 0. -1.
        -11    1    4    4    0    0 -0.10658140613E+01 -0.79585618652E-01  0.83887048433E+01  0.84565159902E+01  0.51100000000E-03 0.  1.
         12    1    4    4    0    0  0.29531377222E+02 -0.96385068610E+01 -0.21467145029E+02  0.37760314761E+02  0.00000000000E+00 0. -1.
</event>
<event>
 8    1  0.1254059E-006  0.9118800E+02  0.7816164E-02  0.1184000E+00
        -11   -1    0    0    0    0  0.00000000000E+00  0.00000000000E+00  0.45593999997E+02  0.45594000000E+02  0.51100000000E-03 0.  1.
         11   -1    0    0    0    0 -0.00000000000E+00 -0.00000000000E+00 -0.45593999997E+02  0.45594000000E+02  0.51100000000E-03 0. -1.
         23    2    1    2    0    0  0.17763568394E-14  0.44408920985E-15  0.00000000000E+00  0.91188000000E+02  0.91188000000E+02 0.  0.
    9900012    2    3    3    0    0  0.14037324835E+02 -0.39157941262E+01  0.33814204875E+02  0.54367076825E+02  0.39999983237E+02 0.  0.
         12    1    3    3    0    0 -0.14037324835E+02  0.39157941262E+01 -0.33814204875E+02  0.36820923175E+02  0.00000000000E+00 0. -1.
         11    1    4    4    0    0 -0.80700315621E+01 -0.76425689581E+01  0.59723012657E+01  0.12617553343E+02  0.51100000000E-03 0. -1.
        -11    1    4    4    0    0  0.24276998493E+02  0.27142543542E+01  0.29887390996E+02  0.38600465973E+02  0.51100000000E-03 0.  1.
        -12    1    4    4    0    0 -0.21696420958E+01  0.10125204778E+01 -0.20454873869E+01  0.31490575085E+01  0.00000000000E+00 0.  1.
</event>
<event>
 8    1  0.1254059E-006  0.9118800E+02  0.7816164E-02  0.1184000E+00
        -11   -1    0    0    0    0  0.00000000000E+00  0.00000000000E+00  0.45593999997E+02  0.45594000000E+02  0.51100000000E-03 0. -1.
         11   -1    0    0    0    0 -0.00000000000E+00 -0.00000000000E+00 -0.45593999997E+02  0.45594000000E+02  0.51100000000E-03 0.  1.
         23    2    1    2    0    0  0.88817841970E-15  0.00000000000E+00  0.71054273576E-14  0.91188000000E+02  0.91188000000E+02 0.  0.
    9900012    2    3    3    0    0  0.72583232257E+01 -0.31775548016E+01  0.35958142024E+02  0.54367243784E+02  0.40000363852E+02 0.  0.
        -12    1    3    3    0    0 -0.72583232257E+01  0.31775548016E+01 -0.35958142024E+02  0.36820756216E+02  0.00000000000E+00 0.  1.
         11    1    4    4    0    0  0.13877003336E+02  0.46438445085E+01  0.11468047011E+02  0.18591735151E+02  0.51100000000E-03 0. -1.
        -11    1    4    4    0    0  0.36450370480E+01 -0.66857736839E+01 -0.15426081385E+01  0.77695241144E+01  0.51100000000E-03 0.  1.
        -12    1    4    4    0    0 -0.10263717159E+02 -0.11356256262E+01  0.26032703152E+02  0.28005984519E+02  0.00000000000E+00 0.  1.
</event>
<event>
 8    1  0.1254059E-006  0.9118800E+02  0.7816164E-02  0.1184000E+00
        -11   -1    0    0    0    0  0.00000000000E+00  0.00000000000E+00  0.45593999997E+02  0.45594000000E+02  0.51100000000E-03 0. -1.
         11   -1    0    0    0    0 -0.00000000000E+00 -0.00000000000E+00 -0.45593999997E+02  0.45594000000E+02  0.51100000000E-03 0.  1.
         23    2    1    2    0    0  0.00000000000E+00  0.00000000000E+00 -0.44408920985E-15  0.91188000000E+02  0.91188000000E+02 0.  0.
    9900012    2    3    3    0    0 -0.29819552999E+02 -0.21313704351E+02  0.35071026467E+01  0.54367088778E+02  0.40000010488E+02 0.  0.
         12    1    3    3    0    0  0.29819552999E+02  0.21313704351E+02 -0.35071026467E+01  0.36820911222E+02  0.00000000000E+00 0. -1.
         11    1    4    4    0    0 -0.24110841096E+01 -0.25602817022E+01  0.24121529051E+01  0.42646044221E+01  0.51100000000E-03 0. -1.
        -11    1    4    4    0    0 -0.18627226344E+02 -0.16311742898E+02  0.18194184413E+02  0.30725801281E+02  0.51100000000E-03 0.  1.
        -12    1    4    4    0    0 -0.87812425450E+01 -0.24416797513E+01 -0.17099234672E+02  0.19376683075E+02  0.00000000000E+00 0.  1.
</event>
<event>
 8    1  0.1254059E-006  0.9118800E+02  0.7816164E-02  0.1184000E+00
        -11   -1    0    0    0    0  0.00000000000E+00  0.00000000000E+00  0.45593999997E+02  0.45594000000E+02  0.51100000000E-03 0. -1.
         11   -1    0    0    0    0 -0.00000000000E+00 -0.00000000000E+00 -0.45593999997E+02  0.45594000000E+02  0.51100000000E-03 0.  1.
         23    2    1    2    0    0 -0.71054273576E-14 -0.17763568394E-14 -0.13322676296E-14  0.91188000000E+02  0.91188000000E+02 0.  0.
    9900012    2    3    3    0    0 -0.35183315222E+02  0.10319849600E+02 -0.33785369571E+01  0.54367089124E+02  0.40000011277E+02 0.  0.
        -12    1    3    3    0    0  0.35183315222E+02 -0.10319849600E+02  0.33785369571E+01  0.36820910876E+02  0.00000000000E+00 0.  1.
         11    1    4    4    0    0 -0.26766295448E+02  0.17169920138E+01 -0.19893200519E+02  0.33393443379E+02  0.51100000000E-03 0. -1.
        -11    1    4    4    0    0 -0.30233923717E+01  0.18663349815E+01  0.84314481747E+01  0.91495041549E+01  0.51100000000E-03 0.  1.
         12    1    4    4    0    0 -0.53936274016E+01  0.67365226049E+01  0.80832153867E+01  0.11824141590E+02  0.00000000000E+00 0. -1.
</event>
<event>
 8    1  0.1254059E-006  0.9118800E+02  0.7816164E-02  0.1184000E+00
        -11   -1    0    0    0    0  0.00000000000E+00  0.00000000000E+00  0.45593999997E+02  0.45594000000E+02  0.51100000000E-03 0. -1.
         11   -1    0    0    0    0 -0.00000000000E+00 -0.00000000000E+00 -0.45593999997E+02  0.45594000000E+02  0.51100000000E-03 0.  1.
         23    2    1    2    0    0  0.71054273576E-14 -0.44408920985E-15  0.00000000000E+00  0.91188000000E+02  0.91188000000E+02 0.  0.
    9900012    2    3    3    0    0 -0.35643805147E+02 -0.28406984515E+01  0.87889654554E+01  0.54366860327E+02  0.39999489683E+02 0.  0.
        -12    1    3    3    0    0  0.35643805147E+02  0.28406984515E+01 -0.87889654554E+01  0.36821139673E+02  0.00000000000E+00 0.  1.
         11    1    4    4    0    0 -0.34217546876E+02  0.15490468236E+01 -0.67001559320E-01  0.34252657557E+02  0.51100000000E-03 0. -1.
        -11    1    4    4    0    0  0.42342500620E+01  0.52428277315E+01  0.21045997758E+01  0.70601314922E+01  0.51100000000E-03 0.  1.
        -12    1    4    4    0    0 -0.56605083337E+01 -0.96325730065E+01  0.67513672389E+01  0.13054071277E+02  0.00000000000E+00 0.  1.
</event>
<event>
 8    1  0.1254059E-006  0.9118800E+02  0.7816164E-02  0.1184000E+00
        -11   -1    0    0    0    0  0.00000000000E+00  0.00000000000E+00  0.45593999997E+02  0.45594000000E+02  0.51100000000E-03 0.  1.
         11   -1    0    0    0    0 -0.00000000000E+00 -0.00000000000E+00 -0.45593999997E+02  0.45594000000E+02  0.51100000000E-03 0. -1.
         23    2    1    2    0    0  0.00000000000E+00  0.71054273576E-14  0.17763568394E-14  0.91188000000E+02  0.91188000000E+02 0.  0.
    9900012    2    3    3    0    0  0.27088381210E+02 -0.19747715580E+02 -0.15232503932E+02  0.54367057003E+02  0.39999938049E+02 0.  0.
        -12    1    3    3    0    0 -0.27088381210E+02  0.19747715580E+02  0.15232503932E+02  0.36820942997E+02  0.00000000000E+00 0.  1.
         11    1    4    4    0    0  0.75856122695E+01  0.67038407276E+01 -0.11288732708E+02  0.15163063029E+02  0.51100000000E-03 0. -1.
        -11    1    4    4    0    0 -0.14155764904E+01 -0.75779369183E+01  0.55213316702E+01  0.94823039612E+01  0.51100000000E-03 0.  1.
         12    1    4    4    0    0  0.20918345431E+02 -0.18873619389E+02 -0.94651028937E+01  0.29721690012E+02  0.00000000000E+00 0. -1.
</event>
<event>
 8    1  0.1254059E-006  0.9118800E+02  0.7816164E-02  0.1184000E+00
        -11   -1    0    0    0    0  0.00000000000E+00  0.00000000000E+00  0.45593999997E+02  0.45594000000E+02  0.51100000000E-03 0.  1.
         11   -1    0    0    0    0 -0.00000000000E+00 -0.00000000000E+00 -0.45593999997E+02  0.45594000000E+02  0.51100000000E-03 0. -1.
         23    2    1    2    0    0  0.71054273576E-14 -0.44408920985E-15 -0.17763568394E-14  0.91188000000E+02  0.91188000000E+02 0.  0.
    9900012    2    3    3    0    0  0.34349156961E+02  0.28553977254E+01 -0.12952295201E+02  0.54367084326E+02  0.40000000338E+02 0.  0.
        -12    1    3    3    0    0 -0.34349156961E+02 -0.28553977254E+01  0.12952295201E+02  0.36820915674E+02  0.00000000000E+00 0.  1.
         11    1    4    4    0    0  0.31092616992E+01  0.33208778306E+01  0.46587372095E+01  0.65114952605E+01  0.51100000000E-03 0.  1.
        -11    1    4    4    0    0  0.17424969321E+02 -0.15722306984E+02 -0.12741956614E+02  0.26705391803E+02  0.51100000000E-03 0. -1.
         12    1    4    4    0    0  0.13814925940E+02  0.15256826879E+02 -0.48690757959E+01  0.21150197263E+02  0.00000000000E+00 0. -1.
</event>
<event>
 8    1  0.1254059E-006  0.9118800E+02  0.7816164E-02  0.1184000E+00
        -11   -1    0    0    0    0  0.00000000000E+00  0.00000000000E+00  0.45593999997E+02  0.45594000000E+02  0.51100000000E-03 0. -1.
         11   -1    0    0    0    0 -0.00000000000E+00 -0.00000000000E+00 -0.45593999997E+02  0.45594000000E+02  0.51100000000E-03 0.  1.
         23    2    1    2    0    0 -0.71054273576E-14 -0.88817841970E-15  0.17763568394E-14  0.91188000000E+02  0.91188000000E+02 0.  0.
    9900012    2    3    3    0    0  0.32821075645E+02  0.72192038540E+01 -0.15047930834E+02  0.54367080224E+02  0.39999990987E+02 0.  0.
         12    1    3    3    0    0 -0.32821075645E+02 -0.72192038540E+01  0.15047930834E+02  0.36820919776E+02  0.00000000000E+00 0. -1.
         11    1    4    4    0    0  0.26255650343E+01  0.10513951849E+02  0.52989497349E+01  0.12062986520E+02  0.51100000000E-03 0.  1.
        -11    1    4    4    0    0  0.24401720152E+02 -0.10522896431E+02 -0.19580890911E+02  0.33008886453E+02  0.51100000000E-03 0. -1.
         12    1    4    4    0    0  0.57937904579E+01  0.72281484364E+01 -0.76598965784E+00  0.92952072513E+01  0.00000000000E+00 0. -1.
</event>
<event>
 8    1  0.1254059E-006  0.9118800E+02  0.7816164E-02  0.1184000E+00
        -11   -1    0    0    0    0  0.00000000000E+00  0.00000000000E+00  0.45593999997E+02  0.45594000000E+02  0.51100000000E-03 0. -1.
         11   -1    0    0    0    0 -0.00000000000E+00 -0.00000000000E+00 -0.45593999997E+02  0.45594000000E+02  0.51100000000E-03 0.  1.
         23    2    1    2    0    0  0.00000000000E+00  0.00000000000E+00  0.00000000000E+00  0.91188000000E+02  0.91188000000E+02 0.  0.
    9900012    2    3    3    0    0  0.23964855988E+02  0.24874287728E+02  0.12756796801E+02  0.54367076911E+02  0.39999983434E+02 0.  0.
         12    1    3    3    0    0 -0.23964855988E+02 -0.24874287728E+02 -0.12756796801E+02  0.36820923089E+02  0.00000000000E+00 0. -1.
         11    1    4    4    0    0  0.75918651364E+01  0.10317580033E+02  0.72793343797E+01  0.14733552975E+02  0.51100000000E-03 0. -1.
        -11    1    4    4    0    0  0.12182574611E+02  0.23961879174E+02  0.95981211853E+01  0.28543137673E+02  0.51100000000E-03 0.  1.
         12    1    4    4    0    0  0.41904162409E+01 -0.94051714788E+01 -0.41206587642E+01  0.11090386263E+02  0.00000000000E+00 0. -1.
</event>
<event>
 8    1  0.1254059E-006  0.9118800E+02  0.7816164E-02  0.1184000E+00
        -11   -1    0    0    0    0  0.00000000000E+00  0.00000000000E+00  0.45593999997E+02  0.45594000000E+02  0.51100000000E-03 0.  1.
         11   -1    0    0    0    0 -0.00000000000E+00 -0.00000000000E+00 -0.45593999997E+02  0.45594000000E+02  0.51100000000E-03 0. -1.
         23    2    1    2    0    0  0.00000000000E+00  0.00000000000E+00  0.00000000000E+00  0.91188000000E+02  0.91188000000E+02 0.  0.
    9900012    2    3    3    0    0 -0.18709267844E+02 -0.31146389504E+02  0.59701587293E+01  0.54367121716E+02  0.40000085575E+02 0.  0.
         12    1    3    3    0    0  0.18709267844E+02  0.31146389504E+02 -0.59701587293E+01  0.36820878284E+02  0.00000000000E+00 0. -1.
         11    1    4    4    0    0 -0.36742137387E+01 -0.27713984057E+02 -0.74477189279E+01  0.28931527378E+02  0.51100000000E-03 0. -1.
        -11    1    4    4    0    0 -0.61456744655E+01 -0.89965689370E+01  0.86688753502E+01  0.13923252758E+02  0.51100000000E-03 0.  1.
         12    1    4    4    0    0 -0.88893796398E+01  0.55641634907E+01  0.47490023070E+01  0.11512341579E+02  0.00000000000E+00 0. -1.
</event>
<event>
 8    1  0.1254059E-006  0.9118800E+02  0.7816164E-02  0.1184000E+00
        -11   -1    0    0    0    0  0.00000000000E+00  0.00000000000E+00  0.45593999997E+02  0.45594000000E+02  0.51100000000E-03 0. -1.
         11   -1    0    0    0    0 -0.00000000000E+00 -0.00000000000E+00 -0.45593999997E+02  0.45594000000E+02  0.51100000000E-03 0.  1.
         23    2    1    2    0    0  0.00000000000E+00  0.00000000000E+00  0.44408920985E-15  0.91188000000E+02  0.91188000000E+02 0.  0.
    9900012    2    3    3    0    0 -0.21390046744E+02  0.29773361280E+02  0.34340706524E+01  0.54367082265E+02  0.39999995639E+02 0.  0.
        -12    1    3    3    0    0  0.21390046744E+02 -0.29773361280E+02 -0.34340706524E+01  0.36820917735E+02  0.00000000000E+00 0.  1.
         11    1    4    4    0    0 -0.43089603474E+01 -0.33201319577E+01 -0.81840484740E+01  0.98269560485E+01  0.51100000000E-03 0. -1.
        -11    1    4    4    0    0 -0.10131608117E+02  0.10560168475E+02  0.14719464876E+02  0.20756427625E+02  0.51100000000E-03 0.  1.
        -12    1    4    4    0    0 -0.69494782793E+01  0.22533324763E+02 -0.31013457498E+01  0.23783698591E+02  0.00000000000E+00 0.  1.
</event>
<event>
 8    1  0.1254059E-006  0.9118800E+02  0.7816164E-02  0.1184000E+00
        -11   -1    0    0    0    0  0.00000000000E+00  0.00000000000E+00  0.45593999997E+02  0.45594000000E+02  0.51100000000E-03 0.  1.
         11   -1    0    0    0    0 -0.00000000000E+00 -0.00000000000E+00 -0.45593999997E+02  0.45594000000E+02  0.51100000000E-03 0. -1.
         23    2    1    2    0    0 -0.99920072216E-15  0.00000000000E+00  0.00000000000E+00  0.91188000000E+02  0.91188000000E+02 0.  0.
    9900012    2    3    3    0    0  0.60191260650E+00  0.26050133099E+02 -0.26015539296E+02  0.54367081785E+02  0.39999994546E+02 0.  0.
        -12    1    3    3    0    0 -0.60191260650E+00 -0.26050133099E+02  0.26015539296E+02  0.36820918215E+02  0.00000000000E+00 0.  1.
         11    1    4    4    0    0 -0.64940550139E+01  0.16032900489E+02  0.18450385470E+01  0.17396287424E+02  0.51100000000E-03 0.  1.
        -11    1    4    4    0    0 -0.22309712282E+01  0.10253234305E+02 -0.37922405244E+01  0.11157380283E+02  0.51100000000E-03 0. -1.
         12    1    4    4    0    0  0.93269388486E+01 -0.23600169465E+00 -0.24068337319E+02  0.25813414078E+02  0.00000000000E+00 0. -1.
</event>
<event>
 8    1  0.1254059E-006  0.9118800E+02  0.7816164E-02  0.1184000E+00
        -11   -1    0    0    0    0  0.00000000000E+00  0.00000000000E+00  0.45593999997E+02  0.45594000000E+02  0.51100000000E-03 0.  1.
         11   -1    0    0    0    0 -0.00000000000E+00 -0.00000000000E+00 -0.45593999997E+02  0.45594000000E+02  0.51100000000E-03 0. -1.
         23    2    1    2    0    0 -0.71054273576E-14  0.35527136788E-14  0.71054273576E-14  0.91188000000E+02  0.91188000000E+02 0.  0.
    9900012    2    3    3    0    0  0.25817028591E+02 -0.20037191806E+02 -0.16963811027E+02  0.54367096897E+02  0.40000028996E+02 0.  0.
         12    1    3    3    0    0 -0.25817028591E+02  0.20037191806E+02  0.16963811027E+02  0.36820903103E+02  0.00000000000E+00 0. -1.
         11    1    4    4    0    0  0.30825286023E+01 -0.46216319316E+01 -0.93735198238E+00  0.56338346883E+01  0.51100000000E-03 0. -1.
        -11    1    4    4    0    0  0.87624542887E+01 -0.24068683887E+02  0.23245383119E+00  0.25615155363E+02  0.51100000000E-03 0.  1.
         12    1    4    4    0    0  0.13972045700E+02  0.86531240121E+01 -0.16258912876E+02  0.23118106846E+02  0.00000000000E+00 0. -1.
</event>
<event>
 8    1  0.1254059E-006  0.9118800E+02  0.7816164E-02  0.1184000E+00
        -11   -1    0    0    0    0  0.00000000000E+00  0.00000000000E+00  0.45593999997E+02  0.45594000000E+02  0.51100000000E-03 0.  1.
         11   -1    0    0    0    0 -0.00000000000E+00 -0.00000000000E+00 -0.45593999997E+02  0.45594000000E+02  0.51100000000E-03 0. -1.
         23    2    1    2    0    0  0.35527136788E-14  0.00000000000E+00  0.15543122345E-14  0.91188000000E+02  0.91188000000E+02 0.  0.
    9900012    2    3    3    0    0  0.31062893709E+02 -0.19724663677E+02 -0.13468690276E+01  0.54367085034E+02  0.40000001952E+02 0.  0.
         12    1    3    3    0    0 -0.31062893709E+02  0.19724663677E+02  0.13468690276E+01  0.36820914966E+02  0.00000000000E+00 0. -1.
         11    1    4    4    0    0  0.83973130489E+01  0.31816408329E+01 -0.33787096132E+01  0.95944454630E+01  0.51100000000E-03 0. -1.
        -11    1    4    4    0    0  0.60894194616E+01 -0.21356650859E+02  0.12126394322E+02  0.25302905067E+02  0.51100000000E-03 0.  1.
         12    1    4    4    0    0  0.16576161199E+02 -0.15496536512E+01 -0.10094553737E+02  0.19469734504E+02  0.00000000000E+00 0. -1.
</event>
<event>
 8    1  0.1254059E-006  0.9118800E+02  0.7816164E-02  0.1184000E+00
        -11   -1    0    0    0    0  0.00000000000E+00  0.00000000000E+00  0.45593999997E+02  0.45594000000E+02  0.51100000000E-03 0. -1.
         11   -1    0    0    0    0 -0.00000000000E+00 -0.00000000000E+00 -0.45593999997E+02  0.45594000000E+02  0.51100000000E-03 0.  1.
         23    2    1    2    0    0 -0.35527136788E-14  0.00000000000E+00 -0.35527136788E-14  0.91188000000E+02  0.91188000000E+02 0.  0.
    9900012    2    3    3    0    0  0.15583206682E+02 -0.24019177627E+02  0.23152151465E+02  0.54367090969E+02  0.40000015483E+02 0.  0.
        -12    1    3    3    0    0 -0.15583206682E+02  0.24019177627E+02 -0.23152151465E+02  0.36820909031E+02  0.00000000000E+00 0.  1.
         11    1    4    4    0    0  0.14547483964E+02 -0.65250267434E+01  0.23759465911E+02  0.28613239668E+02  0.51100000000E-03 0. -1.
        -11    1    4    4    0    0  0.29533914277E+01 -0.21242789675E+02  0.28800726026E+00  0.21449046192E+02  0.51100000000E-03 0.  1.
        -12    1    4    4    0    0 -0.19176687094E+01  0.37486387913E+01 -0.89532170652E+00  0.43048051088E+01  0.00000000000E+00 0.  1.
</event>
<event>
 8    1  0.1254059E-006  0.9118800E+02  0.7816164E-02  0.1184000E+00
        -11   -1    0    0    0    0  0.00000000000E+00  0.00000000000E+00  0.45593999997E+02  0.45594000000E+02  0.51100000000E-03 0.  1.
         11   -1    0    0    0    0 -0.00000000000E+00 -0.00000000000E+00 -0.45593999997E+02  0.45594000000E+02  0.51100000000E-03 0. -1.
         23    2    1    2    0    0 -0.35527136788E-14  0.35527136788E-14  0.00000000000E+00  0.91188000000E+02  0.91188000000E+02 0.  0.
    9900012    2    3    3    0    0  0.84034331511E+01 -0.27274533247E+02 -0.23265044469E+02  0.54367080040E+02  0.39999990566E+02 0.  0.
         12    1    3    3    0    0 -0.84034331511E+01  0.27274533247E+02  0.23265044469E+02  0.36820919960E+02  0.00000000000E+00 0. -1.
         11    1    4    4    0    0  0.14843299819E+02  0.25178837199E+01 -0.30652977957E+01  0.15364222688E+02  0.51100000000E-03 0. -1.
        -11    1    4    4    0    0 -0.38503814855E+01 -0.28978564751E+02 -0.21198716404E+02  0.36110500275E+02  0.51100000000E-03 0.  1.
        -12    1    4    4    0    0 -0.25894851828E+01 -0.81385221572E+00  0.99896973076E+00  0.28923570775E+01  0.00000000000E+00 0.  1.
</event>
<event>
 8    1  0.1254059E-006  0.9118800E+02  0.7816164E-02  0.1184000E+00
        -11   -1    0    0    0    0  0.00000000000E+00  0.00000000000E+00  0.45593999997E+02  0.45594000000E+02  0.51100000000E-03 0.  1.
         11   -1    0    0    0    0 -0.00000000000E+00 -0.00000000000E+00 -0.45593999997E+02  0.45594000000E+02  0.51100000000E-03 0. -1.
         23    2    1    2    0    0  0.44408920985E-15 -0.35527136788E-14  0.00000000000E+00  0.91188000000E+02  0.91188000000E+02 0.  0.
    9900012    2    3    3    0    0 -0.33259738721E+01 -0.26789754652E+02  0.25040484202E+02  0.54367096893E+02  0.40000028988E+02 0.  0.
         12    1    3    3    0    0  0.33259738721E+01  0.26789754652E+02 -0.25040484202E+02  0.36820903107E+02  0.00000000000E+00 0. -1.
         11    1    4    4    0    0  0.96230338236E+01 -0.12532705081E+02  0.78184959594E+01  0.17629530792E+02  0.51100000000E-03 0. -1.
        -11    1    4    4    0    0  0.41599638712E+01 -0.10974505596E+02 -0.68250875756E+00  0.11756312813E+02  0.51100000000E-03 0.  1.
        -12    1    4    4    0    0 -0.17108971567E+02 -0.32825439752E+01  0.17904497000E+02  0.24981253288E+02  0.00000000000E+00 0.  1.
</event>
<event>
 8    1  0.1254059E-006  0.9118800E+02  0.7816164E-02  0.1184000E+00
        -11   -1    0    0    0    0  0.00000000000E+00  0.00000000000E+00  0.45593999997E+02  0.45594000000E+02  0.51100000000E-03 0. -1.
         11   -1    0    0    0    0 -0.00000000000E+00 -0.00000000000E+00 -0.45593999997E+02  0.45594000000E+02  0.51100000000E-03 0.  1.
         23    2    1    2    0    0  0.17763568394E-14  0.00000000000E+00  0.35527136788E-14  0.91188000000E+02  0.91188000000E+02 0.  0.
    9900012    2    3    3    0    0 -0.78564761938E+01 -0.23136970839E+02 -0.27545171325E+02  0.54367080659E+02  0.39999991979E+02 0.  0.
         12    1    3    3    0    0  0.78564761938E+01  0.23136970839E+02  0.27545171325E+02  0.36820919341E+02  0.00000000000E+00 0. -1.
         11    1    4    4    0    0 -0.10168588983E+02 -0.82196550729E+01 -0.51990703923E+01  0.14071007946E+02  0.51100000000E-03 0. -1.
        -11    1    4    4    0    0  0.14019079141E+02 -0.12647858908E+02 -0.55179092493E+01  0.19671050751E+02  0.51100000000E-03 0.  1.
         12    1    4    4    0    0 -0.11706966352E+02 -0.22694568586E+01 -0.16828191683E+02  0.20625021962E+02  0.00000000000E+00 0. -1.
</event>
<event>
 8    1  0.1254059E-006  0.9118800E+02  0.7816164E-02  0.1184000E+00
        -11   -1    0    0    0    0  0.00000000000E+00  0.00000000000E+00  0.45593999997E+02  0.45594000000E+02  0.51100000000E-03 0. -1.
         11   -1    0    0    0    0 -0.00000000000E+00 -0.00000000000E+00 -0.45593999997E+02  0.45594000000E+02  0.51100000000E-03 0.  1.
         23    2    1    2    0    0  0.17763568394E-14  0.00000000000E+00  0.00000000000E+00  0.91188000000E+02  0.91188000000E+02 0.  0.
    9900012    2    3    3    0    0  0.14797078077E+02 -0.88993754986E+01 -0.32521202547E+02  0.54367068195E+02  0.39999963564E+02 0.  0.
         12    1    3    3    0    0 -0.14797078077E+02  0.88993754986E+01  0.32521202547E+02  0.36820931805E+02  0.00000000000E+00 0. -1.
         11    1    4    4    0    0  0.86438667681E+01 -0.15622574549E+02 -0.19590299695E+01  0.17961599787E+02  0.51100000000E-03 0. -1.
        -11    1    4    4    0    0  0.11794648333E+02  0.76473113709E+01 -0.22194183306E+02  0.26271217585E+02  0.51100000000E-03 0.  1.
        -12    1    4    4    0    0 -0.56414370246E+01 -0.92411232087E+00 -0.83679892719E+01  0.10134250823E+02  0.00000000000E+00 0.  1.
</event>
<event>
 8    1  0.1254059E-006  0.9118800E+02  0.7816164E-02  0.1184000E+00
        -11   -1    0    0    0    0  0.00000000000E+00  0.00000000000E+00  0.45593999997E+02  0.45594000000E+02  0.51100000000E-03 0.  1.
         11   -1    0    0    0    0 -0.00000000000E+00 -0.00000000000E+00 -0.45593999997E+02  0.45594000000E+02  0.51100000000E-03 0. -1.
         23    2    1    2    0    0  0.00000000000E+00 -0.71054273576E-14  0.00000000000E+00  0.91188000000E+02  0.91188000000E+02 0.  0.
    9900012    2    3    3    0    0  0.44117799972E+01  0.36332210943E+02  0.40355289585E+01  0.54367097665E+02  0.40000030748E+02 0.  0.
         12    1    3    3    0    0 -0.44117799972E+01 -0.36332210943E+02 -0.40355289585E+01  0.36820902335E+02  0.00000000000E+00 0. -1.
         11    1    4    4    0    0  0.50648880307E+01  0.14180793408E+01 -0.76744320031E+01  0.93038135521E+01  0.51100000000E-03 0. -1.
        -11    1    4    4    0    0  0.92735833819E+01  0.95470832167E+01  0.11853443259E+02  0.17822745693E+02  0.51100000000E-03 0.  1.
        -12    1    4    4    0    0 -0.99266914155E+01  0.25367048386E+02 -0.14348229708E+00  0.27240538420E+02  0.00000000000E+00 0.  1.
</event>
<event>
 8    1  0.1254059E-006  0.9118800E+02  0.7816164E-02  0.1184000E+00
        -11   -1    0    0    0    0  0.00000000000E+00  0.00000000000E+00  0.45593999997E+02  0.45594000000E+02  0.51100000000E-03 0. -1.
         11   -1    0    0    0    0 -0.00000000000E+00 -0.00000000000E+00 -0.45593999997E+02  0.45594000000E+02  0.51100000000E-03 0.  1.
         23    2    1    2    0    0  0.00000000000E+00 -0.22204460493E-15  0.00000000000E+00  0.91188000000E+02  0.91188000000E+02 0.  0.
    9900012    2    3    3    0    0  0.14573408361E+02 -0.18238119908E+01  0.33764924752E+02  0.54367073003E+02  0.39999974525E+02 0.  0.
        -12    1    3    3    0    0 -0.14573408361E+02  0.18238119908E+01 -0.33764924752E+02  0.36820926997E+02  0.00000000000E+00 0.  1.
         11    1    4    4    0    0  0.19315624007E+02  0.54666643144E-02  0.37052666668E+02  0.41785086671E+02  0.51100000000E-03 0. -1.
        -11    1    4    4    0    0  0.99517810867E+00 -0.47940437080E+01 -0.36601907335E+01  0.61131195807E+01  0.51100000000E-03 0.  1.
        -12    1    4    4    0    0 -0.57373937552E+01  0.29647650529E+01  0.37244881754E+00  0.64688667510E+01  0.00000000000E+00 0.  1.
</event>
<event>
 8    1  0.1254059E-006  0.9118800E+02  0.7816164E-02  0.1184000E+00
        -11   -1    0    0    0    0  0.00000000000E+00  0.00000000000E+00  0.45593999997E+02  0.45594000000E+02  0.51100000000E-03 0.  1.
         11   -1    0    0    0    0 -0.00000000000E+00 -0.00000000000E+00 -0.45593999997E+02  0.45594000000E+02  0.51100000000E-03 0. -1.
         23    2    1    2    0    0 -0.35527136788E-14  0.44408920985E-15  0.00000000000E+00  0.91188000000E+02  0.91188000000E+02 0.  0.
    9900012    2    3    3    0    0  0.26435645760E+02 -0.21601144732E+01  0.25539582695E+02  0.54367085488E+02  0.40000002986E+02 0.  0.
         12    1    3    3    0    0 -0.26435645760E+02  0.21601144732E+01 -0.25539582695E+02  0.36820914512E+02  0.00000000000E+00 0. -1.
         11    1    4    4    0    0 -0.25610957597E+01 -0.29928122922E+00 -0.18474248302E+01  0.31720276652E+01  0.51100000000E-03 0. -1.
        -11    1    4    4    0    0  0.10132809513E+02  0.14899605483E+02  0.11578222065E+02  0.21417920035E+02  0.51100000000E-03 0.  1.
        -12    1    4    4    0    0  0.18863932007E+02 -0.16760438727E+02  0.15808785461E+02  0.29777137788E+02  0.00000000000E+00 0.  1.
</event>
<event>
 8    1  0.1254059E-006  0.9118800E+02  0.7816164E-02  0.1184000E+00
        -11   -1    0    0    0    0  0.00000000000E+00  0.00000000000E+00  0.45593999997E+02  0.45594000000E+02  0.51100000000E-03 0.  1.
         11   -1    0    0    0    0 -0.00000000000E+00 -0.00000000000E+00 -0.45593999997E+02  0.45594000000E+02  0.51100000000E-03 0. -1.
         23    2    1    2    0    0 -0.25535129566E-14  0.35527136788E-14  0.35527136788E-14  0.91188000000E+02  0.91188000000E+02 0.  0.
    9900012    2    3    3    0    0  0.74951440027E+00 -0.19642077322E+02 -0.31135273561E+02  0.54367106026E+02  0.40000049807E+02 0.  0.
        -12    1    3    3    0    0 -0.74951440027E+00  0.19642077322E+02  0.31135273561E+02  0.36820893974E+02  0.00000000000E+00 0.  1.
         11    1    4    4    0    0 -0.15524787397E+01 -0.14406420865E+02 -0.26125369901E+01  0.14723467736E+02  0.51100000000E-03 0. -1.
        -11    1    4    4    0    0 -0.11377523771E+02 -0.74342119101E+01 -0.12550365486E+02  0.18499384530E+02  0.51100000000E-03 0.  1.
        -12    1    4    4    0    0  0.13679516911E+02  0.21985554539E+01 -0.15972371084E+02  0.21144253760E+02  0.00000000000E+00 0.  1.
</event>
<event>
 8    1  0.1254059E-006  0.9118800E+02  0.7816164E-02  0.1184000E+00
        -11   -1    0    0    0    0  0.00000000000E+00  0.00000000000E+00  0.45593999997E+02  0.45594000000E+02  0.51100000000E-03 0. -1.
         11   -1    0    0    0    0 -0.00000000000E+00 -0.00000000000E+00 -0.45593999997E+02  0.45594000000E+02  0.51100000000E-03 0.  1.
         23    2    1    2    0    0  0.00000000000E+00  0.00000000000E+00  0.00000000000E+00  0.91188000000E+02  0.91188000000E+02 0.  0.
    9900012    2    3    3    0    0 -0.22525522796E+02 -0.21843021651E+02  0.19268223440E+02  0.54367065647E+02  0.39999957755E+02 0.  0.
        -12    1    3    3    0    0  0.22525522796E+02  0.21843021651E+02 -0.19268223440E+02  0.36820934353E+02  0.00000000000E+00 0.  1.
         11    1    4    4    0    0 -0.18855951677E+02 -0.21488090251E+02  0.69328192698E+01  0.29416813552E+02  0.51100000000E-03 0. -1.
        -11    1    4    4    0    0  0.90235762569E+00 -0.87543447501E+01 -0.64859164841E+00  0.88245947598E+01  0.51100000000E-03 0.  1.
         12    1    4    4    0    0 -0.45719287447E+01  0.83994133495E+01  0.12983995819E+02  0.16125657335E+02  0.00000000000E+00 0. -1.
</event>
<event>
 8    1  0.1254059E-006  0.9118800E+02  0.7816164E-02  0.1184000E+00
        -11   -1    0    0    0    0  0.00000000000E+00  0.00000000000E+00  0.45593999997E+02  0.45594000000E+02  0.51100000000E-03 0. -1.
         11   -1    0    0    0    0 -0.00000000000E+00 -0.00000000000E+00 -0.45593999997E+02  0.45594000000E+02  0.51100000000E-03 0.  1.
         23    2    1    2    0    0  0.00000000000E+00  0.00000000000E+00  0.35527136788E-14  0.91188000000E+02  0.91188000000E+02 0.  0.
    9900012    2    3    3    0    0  0.22310246773E+02 -0.16175776403E+01 -0.29247484411E+02  0.54367095436E+02  0.40000025666E+02 0.  0.
         12    1    3    3    0    0 -0.22310246773E+02  0.16175776403E+01  0.29247484411E+02  0.36820904564E+02  0.00000000000E+00 0. -1.
         11    1    4    4    0    0  0.16157516307E+02  0.32006620010E+01 -0.98431047571E+01  0.19188441364E+02  0.51100000000E-03 0. -1.
        -11    1    4    4    0    0  0.95372443220E+01  0.55379037259E+01  0.19555464577E+01  0.11200516468E+02  0.51100000000E-03 0.  1.
         12    1    4    4    0    0 -0.33845138560E+01 -0.10356143367E+02 -0.21359926112E+02  0.23978137605E+02  0.00000000000E+00 0. -1.
</event>
<event>
 8    1  0.1254059E-006  0.9118800E+02  0.7816164E-02  0.1184000E+00
        -11   -1    0    0    0    0  0.00000000000E+00  0.00000000000E+00  0.45593999997E+02  0.45594000000E+02  0.51100000000E-03 0.  1.
         11   -1    0    0    0    0 -0.00000000000E+00 -0.00000000000E+00 -0.45593999997E+02  0.45594000000E+02  0.51100000000E-03 0. -1.
         23    2    1    2    0    0  0.00000000000E+00  0.35527136788E-14  0.00000000000E+00  0.91188000000E+02  0.91188000000E+02 0.  0.
    9900012    2    3    3    0    0  0.25585603808E+02 -0.22495507322E+02  0.13968073851E+02  0.54367108390E+02  0.40000055196E+02 0.  0.
         12    1    3    3    0    0 -0.25585603808E+02  0.22495507322E+02 -0.13968073851E+02  0.36820891610E+02  0.00000000000E+00 0. -1.
         11    1    4    4    0    0  0.19044877558E+01 -0.12184616003E+01 -0.55626233863E+01  0.60045400725E+01  0.51100000000E-03 0. -1.
        -11    1    4    4    0    0 -0.20236871288E+01  0.41504884638E+01  0.99330337064E+01  0.10953858816E+02  0.51100000000E-03 0.  1.
        -12    1    4    4    0    0  0.25704803181E+02 -0.25427534185E+02  0.95976635314E+01  0.37408709501E+02  0.00000000000E+00 0.  1.
</event>
<event>
 8    1  0.1254059E-006  0.9118800E+02  0.7816164E-02  0.1184000E+00
        -11   -1    0    0    0    0  0.00000000000E+00  0.00000000000E+00  0.45593999997E+02  0.45594000000E+02  0.51100000000E-03 0.  1.
         11   -1    0    0    0    0 -0.00000000000E+00 -0.00000000000E+00 -0.45593999997E+02  0.45594000000E+02  0.51100000000E-03 0. -1.
         23    2    1    2    0    0  0.00000000000E+00  0.17763568394E-14  0.00000000000E+00  0.91188000000E+02  0.91188000000E+02 0.  0.
    9900012    2    3    3    0    0  0.26103910800E+02  0.12363411457E+02 -0.22836623828E+02  0.54367088961E+02  0.40000010905E+02 0.  0.
        -12    1    3    3    0    0 -0.26103910800E+02 -0.12363411457E+02  0.22836623828E+02  0.36820911039E+02  0.00000000000E+00 0.  1.
         11    1    4    4    0    0 -0.33194252525E+01  0.17435547931E+01 -0.10869576926E+02  0.11498098544E+02  0.51100000000E-03 0. -1.
        -11    1    4    4    0    0  0.11276814280E+02  0.54935240048E+01  0.84127981208E+01  0.15103659118E+02  0.51100000000E-03 0.  1.
         12    1    4    4    0    0  0.18146521773E+02  0.51263326591E+01 -0.20379845022E+02  0.27765331298E+02  0.00000000000E+00 0. -1.
</event>
<event>
 8    1  0.1254059E-006  0.9118800E+02  0.7816164E-02  0.1184000E+00
        -11   -1    0    0    0    0  0.00000000000E+00  0.00000000000E+00  0.45593999997E+02  0.45594000000E+02  0.51100000000E-03 0.  1.
         11   -1    0    0    0    0 -0.00000000000E+00 -0.00000000000E+00 -0.45593999997E+02  0.45594000000E+02  0.51100000000E-03 0. -1.
         23    2    1    2    0    0 -0.35527136788E-14  0.00000000000E+00  0.88817841970E-15  0.91188000000E+02  0.91188000000E+02 0.  0.
    9900012    2    3    3    0    0  0.22831640709E+02 -0.27771064305E+02 -0.79539764759E+01  0.54367060688E+02  0.39999946449E+02 0.  0.
        -12    1    3    3    0    0 -0.22831640709E+02  0.27771064305E+02  0.79539764759E+01  0.36820939312E+02  0.00000000000E+00 0.  1.
         11    1    4    4    0    0  0.12521317880E+02 -0.22100016580E+02 -0.68303028038E+01  0.26302987871E+02  0.51100000000E-03 0. -1.
        -11    1    4    4    0    0 -0.76331388032E+01  0.16567777723E+01  0.27836531976E+01  0.82920712708E+01  0.51100000000E-03 0.  1.
         12    1    4    4    0    0  0.17943461632E+02 -0.73278254966E+01 -0.39073268696E+01  0.19772001545E+02  0.00000000000E+00 0. -1.
</event>
<event>
 8    1  0.1254059E-006  0.9118800E+02  0.7816164E-02  0.1184000E+00
        -11   -1    0    0    0    0  0.00000000000E+00  0.00000000000E+00  0.45593999997E+02  0.45594000000E+02  0.51100000000E-03 0. -1.
         11   -1    0    0    0    0 -0.00000000000E+00 -0.00000000000E+00 -0.45593999997E+02  0.45594000000E+02  0.51100000000E-03 0.  1.
         23    2    1    2    0    0  0.35527136788E-14  0.88817841970E-15  0.35527136788E-14  0.91188000000E+02  0.91188000000E+02 0.  0.
    9900012    2    3    3    0    0  0.26697571200E+02  0.70316449195E+01  0.24363386439E+02  0.54367096466E+02  0.40000028014E+02 0.  0.
        -12    1    3    3    0    0 -0.26697571200E+02 -0.70316449195E+01 -0.24363386439E+02  0.36820903534E+02  0.00000000000E+00 0.  1.
         11    1    4    4    0    0  0.48146440876E+01  0.10868624590E+02 -0.37178314405E+00  0.11893108136E+02  0.51100000000E-03 0. -1.
        -11    1    4    4    0    0  0.27198322378E+02 -0.70686903967E+01  0.21949444220E+02  0.35658003673E+02  0.51100000000E-03 0.  1.
        -12    1    4    4    0    0 -0.53153952656E+01  0.32317107257E+01  0.27857253633E+01  0.68159846570E+01  0.00000000000E+00 0.  1.
</event>
<event>
 8    1  0.1254059E-006  0.9118800E+02  0.7816164E-02  0.1184000E+00
        -11   -1    0    0    0    0  0.00000000000E+00  0.00000000000E+00  0.45593999997E+02  0.45594000000E+02  0.51100000000E-03 0.  1.
         11   -1    0    0    0    0 -0.00000000000E+00 -0.00000000000E+00 -0.45593999997E+02  0.45594000000E+02  0.51100000000E-03 0. -1.
         23    2    1    2    0    0 -0.17763568394E-14  0.00000000000E+00  0.00000000000E+00  0.91188000000E+02  0.91188000000E+02 0.  0.
    9900012    2    3    3    0    0 -0.11455743333E+02 -0.32035296683E+02  0.14081396133E+02  0.54367081952E+02  0.39999994925E+02 0.  0.
         12    1    3    3    0    0  0.11455743333E+02  0.32035296683E+02 -0.14081396133E+02  0.36820918048E+02  0.00000000000E+00 0. -1.
         11    1    4    4    0    0  0.11453355323E+01 -0.17109521938E+00  0.75538524723E+01  0.76421040617E+01  0.51100000000E-03 0. -1.
        -11    1    4    4    0    0  0.10296315529E+01 -0.28135119842E+02  0.13202975838E+02  0.31096039634E+02  0.51100000000E-03 0.  1.
        -12    1    4    4    0    0 -0.13630710419E+02 -0.37290816215E+01 -0.66754321775E+01  0.15628938256E+02  0.00000000000E+00 0.  1.
</event>
<event>
 8    1  0.1254059E-006  0.9118800E+02  0.7816164E-02  0.1184000E+00
        -11   -1    0    0    0    0  0.00000000000E+00  0.00000000000E+00  0.45593999997E+02  0.45594000000E+02  0.51100000000E-03 0.  1.
         11   -1    0    0    0    0 -0.00000000000E+00 -0.00000000000E+00 -0.45593999997E+02  0.45594000000E+02  0.51100000000E-03 0. -1.
         23    2    1    2    0    0  0.71054273576E-14  0.00000000000E+00  0.00000000000E+00  0.91188000000E+02  0.91188000000E+02 0.  0.
    9900012    2    3    3    0    0 -0.32589650377E+02 -0.12956867443E+02 -0.11216658933E+02  0.54367093395E+02  0.40000021012E+02 0.  0.
        -12    1    3    3    0    0  0.32589650377E+02  0.12956867443E+02  0.11216658933E+02  0.36820906605E+02  0.00000000000E+00 0.  1.
         11    1    4    4    0    0 -0.17559579281E+02 -0.68160459321E+01 -0.71027517624E+01  0.20130732464E+02  0.51100000000E-03 0. -1.
        -11    1    4    4    0    0 -0.18019768523E+02 -0.11171331640E+02  0.64490088155E+01  0.22160785708E+02  0.51100000000E-03 0.  1.
        -12    1    4    4    0    0  0.29896974272E+01  0.50305101283E+01 -0.10562915986E+02  0.12075575223E+02  0.00000000000E+00 0.  1.
</event>
<event>
 8    1  0.1254059E-006  0.9118800E+02  0.7816164E-02  0.1184000E+00
        -11   -1    0    0    0    0  0.00000000000E+00  0.00000000000E+00  0.45593999997E+02  0.45594000000E+02  0.51100000000E-03 0. -1.
         11   -1    0    0    0    0 -0.00000000000E+00 -0.00000000000E+00 -0.45593999997E+02  0.45594000000E+02  0.51100000000E-03 0.  1.
         23    2    1    2    0    0  0.88817841970E-15  0.35527136788E-14  0.00000000000E+00  0.91188000000E+02  0.91188000000E+02 0.  0.
    9900012    2    3    3    0    0 -0.62400287232E+01 -0.21556094583E+02  0.29192060261E+02  0.54367088083E+02  0.40000008902E+02 0.  0.
        -12    1    3    3    0    0  0.62400287232E+01  0.21556094583E+02 -0.29192060261E+02  0.36820911917E+02  0.00000000000E+00 0.  1.
         11    1    4    4    0    0  0.81170141669E+01 -0.25721447635E+02  0.25752543604E+02  0.37291718783E+02  0.51100000000E-03 0. -1.
        -11    1    4    4    0    0 -0.82073634758E+00  0.10642412346E+01 -0.17882476677E+01  0.22369728518E+01  0.51100000000E-03 0.  1.
         12    1    4    4    0    0 -0.13536306543E+02  0.31011118176E+01  0.52277643246E+01  0.14838396448E+02  0.00000000000E+00 0. -1.
</event>
<event>
 8    1  0.1254059E-006  0.9118800E+02  0.7816164E-02  0.1184000E+00
        -11   -1    0    0    0    0  0.00000000000E+00  0.00000000000E+00  0.45593999997E+02  0.45594000000E+02  0.51100000000E-03 0.  1.
         11   -1    0    0    0    0 -0.00000000000E+00 -0.00000000000E+00 -0.45593999997E+02  0.45594000000E+02  0.51100000000E-03 0. -1.
         23    2    1    2    0    0  0.00000000000E+00 -0.33306690739E-15  0.00000000000E+00  0.91188000000E+02  0.91188000000E+02 0.  0.
    9900012    2    3    3    0    0  0.36515409414E+02 -0.80017094033E+00 -0.46650977837E+01  0.54367101919E+02  0.40000040444E+02 0.  0.
        -12    1    3    3    0    0 -0.36515409414E+02  0.80017094033E+00  0.46650977837E+01  0.36820898081E+02  0.00000000000E+00 0.  1.
         11    1    4    4    0    0  0.14300338415E+02 -0.94684992508E+00 -0.44817142850E+01  0.15016056964E+02  0.51100000000E-03 0. -1.
        -11    1    4    4    0    0  0.88322911492E+01  0.15513731577E+02 -0.47398330920E+01  0.18470280247E+02  0.51100000000E-03 0.  1.
        -12    1    4    4    0    0  0.13382779850E+02 -0.15367052593E+02  0.45564495932E+01  0.20880764708E+02  0.00000000000E+00 0.  1.
</event>
<event>
 8    1  0.1254059E-006  0.9118800E+02  0.7816164E-02  0.1184000E+00
        -11   -1    0    0    0    0  0.00000000000E+00  0.00000000000E+00  0.45593999997E+02  0.45594000000E+02  0.51100000000E-03 0. -1.
         11   -1    0    0    0    0 -0.00000000000E+00 -0.00000000000E+00 -0.45593999997E+02  0.45594000000E+02  0.51100000000E-03 0.  1.
         23    2    1    2    0    0  0.17763568394E-14  0.00000000000E+00  0.00000000000E+00  0.91188000000E+02  0.91188000000E+02 0.  0.
    9900012    2    3    3    0    0  0.15025213293E+02 -0.21822116586E+02  0.25569862803E+02  0.54367086235E+02  0.40000004689E+02 0.  0.
        -12    1    3    3    0    0 -0.15025213293E+02  0.21822116586E+02 -0.25569862803E+02  0.36820913765E+02  0.00000000000E+00 0.  1.
         11    1    4    4    0    0  0.10640991388E+02 -0.27676036357E+02  0.78643696405E+01  0.30676407812E+02  0.51100000000E-03 0. -1.
        -11    1    4    4    0    0  0.12837401253E+00 -0.86049487369E+00  0.15384688673E+02  0.15409269196E+02  0.51100000000E-03 0.  1.
         12    1    4    4    0    0  0.42558478920E+01  0.67144146450E+01  0.23208044889E+01  0.82814092267E+01  0.00000000000E+00 0. -1.
</event>
<event>
 8    1  0.1254059E-006  0.9118800E+02  0.7816164E-02  0.1184000E+00
        -11   -1    0    0    0    0  0.00000000000E+00  0.00000000000E+00  0.45593999997E+02  0.45594000000E+02  0.51100000000E-03 0.  1.
         11   -1    0    0    0    0 -0.00000000000E+00 -0.00000000000E+00 -0.45593999997E+02  0.45594000000E+02  0.51100000000E-03 0. -1.
         23    2    1    2    0    0  0.17763568394E-14  0.00000000000E+00  0.00000000000E+00  0.91188000000E+02  0.91188000000E+02 0.  0.
    9900012    2    3    3    0    0  0.15846022094E+02  0.91470024231E+01  0.31953321269E+02  0.54367098197E+02  0.40000031959E+02 0.  0.
         12    1    3    3    0    0 -0.15846022094E+02 -0.91470024231E+01 -0.31953321269E+02  0.36820901803E+02  0.00000000000E+00 0. -1.
         11    1    4    4    0    0  0.22846647834E+02 -0.71523931754E+01  0.10281511660E+02  0.26054472316E+02  0.51100000000E-03 0. -1.
        -11    1    4    4    0    0 -0.17391328811E+01  0.75595881677E+01  0.70381106213E+01  0.10474108927E+02  0.51100000000E-03 0.  1.
        -12    1    4    4    0    0 -0.52614928593E+01  0.87398074307E+01  0.14633698988E+02  0.17838516953E+02  0.00000000000E+00 0.  1.
</event>
<event>
 8    1  0.1254059E-006  0.9118800E+02  0.7816164E-02  0.1184000E+00
        -11   -1    0    0    0    0  0.00000000000E+00  0.00000000000E+00  0.45593999997E+02  0.45594000000E+02  0.51100000000E-03 0. -1.
         11   -1    0    0    0    0 -0.00000000000E+00 -0.00000000000E+00 -0.45593999997E+02  0.45594000000E+02  0.51100000000E-03 0.  1.
         23    2    1    2    0    0 -0.35527136788E-14 -0.35527136788E-14  0.17763568394E-14  0.91188000000E+02  0.91188000000E+02 0.  0.
    9900012    2    3    3    0    0  0.27477022039E+02 -0.19319040212E+02  0.15085320946E+02  0.54367096115E+02  0.40000027214E+02 0.  0.
        -12    1    3    3    0    0 -0.27477022039E+02  0.19319040212E+02 -0.15085320946E+02  0.36820903885E+02  0.00000000000E+00 0.  1.
         11    1    4    4    0    0  0.16459171535E+02 -0.40143057086E+01  0.15364416547E+02  0.22871035701E+02  0.51100000000E-03 0. -1.
        -11    1    4    4    0    0  0.13043923515E+02  0.91156915672E+00  0.54674306080E+01  0.14172780133E+02  0.51100000000E-03 0.  1.
        -12    1    4    4    0    0 -0.20260730114E+01 -0.16216303660E+02 -0.57465262081E+01  0.17323280281E+02  0.00000000000E+00 0.  1.
</event>
<event>
 8    1  0.1254059E-006  0.9118800E+02  0.7816164E-02  0.1184000E+00
        -11   -1    0    0    0    0  0.00000000000E+00  0.00000000000E+00  0.45593999997E+02  0.45594000000E+02  0.51100000000E-03 0.  1.
         11   -1    0    0    0    0 -0.00000000000E+00 -0.00000000000E+00 -0.45593999997E+02  0.45594000000E+02  0.51100000000E-03 0. -1.
         23    2    1    2    0    0  0.35527136788E-14  0.00000000000E+00  0.00000000000E+00  0.91188000000E+02  0.91188000000E+02 0.  0.
    9900012    2    3    3    0    0 -0.25409038123E+02 -0.22560467575E+02 -0.14183910121E+02  0.54367119758E+02  0.40000081111E+02 0.  0.
        -12    1    3    3    0    0  0.25409038123E+02  0.22560467575E+02  0.14183910121E+02  0.36820880242E+02  0.00000000000E+00 0.  1.
         11    1    4    4    0    0 -0.24160308690E+02 -0.22092382130E+02 -0.26296785686E+02  0.41991842087E+02  0.51100000000E-03 0. -1.
        -11    1    4    4    0    0 -0.10807315030E+01  0.50803620522E+00  0.96040971754E+01  0.96780558059E+01  0.51100000000E-03 0.  1.
         12    1    4    4    0    0 -0.16799792991E+00 -0.97612164993E+00  0.25087783897E+01  0.26972218649E+01  0.00000000000E+00 0. -1.
</event>
<event>
 8    1  0.1254059E-006  0.9118800E+02  0.7816164E-02  0.1184000E+00
        -11   -1    0    0    0    0  0.00000000000E+00  0.00000000000E+00  0.45593999997E+02  0.45594000000E+02  0.51100000000E-03 0.  1.
         11   -1    0    0    0    0 -0.00000000000E+00 -0.00000000000E+00 -0.45593999997E+02  0.45594000000E+02  0.51100000000E-03 0. -1.
         23    2    1    2    0    0  0.88817841970E-15  0.35527136788E-14  0.35527136788E-14  0.91188000000E+02  0.91188000000E+02 0.  0.
    9900012    2    3    3    0    0  0.47091536554E+01 -0.25758132873E+02  0.25886725773E+02  0.54367080559E+02  0.39999991751E+02 0.  0.
         12    1    3    3    0    0 -0.47091536554E+01  0.25758132873E+02 -0.25886725773E+02  0.36820919441E+02  0.00000000000E+00 0. -1.
         11    1    4    4    0    0  0.76763206989E+01 -0.35030215620E+01 -0.42416464058E+01  0.94439728943E+01  0.51100000000E-03 0. -1.
        -11    1    4    4    0    0  0.22834091769E+01 -0.17918478917E+02  0.47929864528E+01  0.18688460706E+02  0.51100000000E-03 0.  1.
        -12    1    4    4    0    0 -0.52505762203E+01 -0.43366323935E+01  0.25335385726E+02  0.26234646959E+02  0.00000000000E+00 0.  1.
</event>
<event>
 8    1  0.1254059E-006  0.9118800E+02  0.7816164E-02  0.1184000E+00
        -11   -1    0    0    0    0  0.00000000000E+00  0.00000000000E+00  0.45593999997E+02  0.45594000000E+02  0.51100000000E-03 0.  1.
         11   -1    0    0    0    0 -0.00000000000E+00 -0.00000000000E+00 -0.45593999997E+02  0.45594000000E+02  0.51100000000E-03 0. -1.
         23    2    1    2    0    0  0.00000000000E+00  0.00000000000E+00 -0.35527136788E-14  0.91188000000E+02  0.91188000000E+02 0.  0.
    9900012    2    3    3    0    0  0.68541970143E+01 -0.19020275747E+02 -0.30773843011E+02  0.54367077689E+02  0.39999985207E+02 0.  0.
        -12    1    3    3    0    0 -0.68541970143E+01  0.19020275747E+02  0.30773843011E+02  0.36820922311E+02  0.00000000000E+00 0.  1.
         11    1    4    4    0    0 -0.25920111938E+01 -0.12682023284E+02 -0.15703376322E+02  0.20350633031E+02  0.51100000000E-03 0. -1.
        -11    1    4    4    0    0 -0.28537964819E+00 -0.16157547785E+02 -0.50108026076E+01  0.16919099710E+02  0.51100000000E-03 0.  1.
        -12    1    4    4    0    0  0.97315878563E+01  0.98192953220E+01 -0.10059664081E+02  0.17097344947E+02  0.00000000000E+00 0.  1.
</event>
<event>
 8    1  0.1254059E-006  0.9118800E+02  0.7816164E-02  0.1184000E+00
        -11   -1    0    0    0    0  0.00000000000E+00  0.00000000000E+00  0.45593999997E+02  0.45594000000E+02  0.51100000000E-03 0. -1.
         11   -1    0    0    0    0 -0.00000000000E+00 -0.00000000000E+00 -0.45593999997E+02  0.45594000000E+02  0.51100000000E-03 0.  1.
         23    2    1    2    0    0  0.00000000000E+00  0.00000000000E+00 -0.35527136788E-14  0.91188000000E+02  0.91188000000E+02 0.  0.
    9900012    2    3    3    0    0  0.19643697892E+02  0.41726087089E+01 -0.30862505298E+02  0.54367085242E+02  0.40000002427E+02 0.  0.
         12    1    3    3    0    0 -0.19643697892E+02 -0.41726087089E+01  0.30862505298E+02  0.36820914758E+02  0.00000000000E+00 0. -1.
         11    1    4    4    0    0  0.96417820802E+01  0.14326926557E+02 -0.90790657233E+01  0.19510361886E+02  0.51100000000E-03 0. -1.
        -11    1    4    4    0    0  0.16371688592E+02 -0.90686394992E+01 -0.95260016177E+01  0.21000407539E+02  0.51100000000E-03 0.  1.
        -12    1    4    4    0    0 -0.63697727804E+01 -0.10856783492E+01 -0.12257437957E+02  0.13856315817E+02  0.00000000000E+00 0.  1.
</event>
<event>
 8    1  0.1254059E-006  0.9118800E+02  0.7816164E-02  0.1184000E+00
        -11   -1    0    0    0    0  0.00000000000E+00  0.00000000000E+00  0.45593999997E+02  0.45594000000E+02  0.51100000000E-03 0.  1.
         11   -1    0    0    0    0 -0.00000000000E+00 -0.00000000000E+00 -0.45593999997E+02  0.45594000000E+02  0.51100000000E-03 0. -1.
         23    2    1    2    0    0 -0.35527136788E-14  0.00000000000E+00  0.00000000000E+00  0.91188000000E+02  0.91188000000E+02 0.  0.
    9900012    2    3    3    0    0  0.28432708255E+02  0.22540284284E+02 -0.62687032015E+01  0.54367082655E+02  0.39999996528E+02 0.  0.
        -12    1    3    3    0    0 -0.28432708255E+02 -0.22540284284E+02  0.62687032015E+01  0.36820917345E+02  0.00000000000E+00 0.  1.
         11    1    4    4    0    0  0.42243376595E+01 -0.21998879092E+01 -0.21294428445E+01  0.52171891439E+01  0.51100000000E-03 0. -1.
        -11    1    4    4    0    0  0.32168203752E+02  0.13507572538E+02 -0.42909378041E+00  0.34891717789E+02  0.51100000000E-03 0.  1.
        -12    1    4    4    0    0 -0.79598331569E+01  0.11232599655E+02 -0.37101665766E+01  0.14258175722E+02  0.00000000000E+00 0.  1.
</event>
<event>
 8    1  0.1254059E-006  0.9118800E+02  0.7816164E-02  0.1184000E+00
        -11   -1    0    0    0    0  0.00000000000E+00  0.00000000000E+00  0.45593999997E+02  0.45594000000E+02  0.51100000000E-03 0. -1.
         11   -1    0    0    0    0 -0.00000000000E+00 -0.00000000000E+00 -0.45593999997E+02  0.45594000000E+02  0.51100000000E-03 0.  1.
         23    2    1    2    0    0  0.00000000000E+00  0.88817841970E-15  0.00000000000E+00  0.91188000000E+02  0.91188000000E+02 0.  0.
    9900012    2    3    3    0    0 -0.12937877201E+01  0.60862897633E+01 -0.36291333445E+02  0.54367113360E+02  0.40000066527E+02 0.  0.
         12    1    3    3    0    0  0.12937877201E+01 -0.60862897633E+01  0.36291333445E+02  0.36820886640E+02  0.00000000000E+00 0. -1.
         11    1    4    4    0    0 -0.40761882201E+01  0.41239434362E+01 -0.12846993742E+02  0.14094944780E+02  0.51100000000E-03 0. -1.
        -11    1    4    4    0    0 -0.69672741054E+01 -0.86712817897E+01  0.17297413992E+01  0.11257266183E+02  0.51100000000E-03 0.  1.
         12    1    4    4    0    0  0.97496746053E+01  0.10633628117E+02 -0.25174081101E+02  0.29014902398E+02  0.00000000000E+00 0. -1.
</event>
<event>
 8    1  0.1254059E-006  0.9118800E+02  0.7816164E-02  0.1184000E+00
        -11   -1    0    0    0    0  0.00000000000E+00  0.00000000000E+00  0.45593999997E+02  0.45594000000E+02  0.51100000000E-03 0.  1.
         11   -1    0    0    0    0 -0.00000000000E+00 -0.00000000000E+00 -0.45593999997E+02  0.45594000000E+02  0.51100000000E-03 0. -1.
         23    2    1    2    0    0  0.35527136788E-14 -0.71054273576E-14  0.88817841970E-15  0.91188000000E+02  0.91188000000E+02 0.  0.
    9900012    2    3    3    0    0 -0.15034859593E+02 -0.33103471603E+02 -0.58217935280E+01  0.54367080470E+02  0.39999991548E+02 0.  0.
        -12    1    3    3    0    0  0.15034859593E+02  0.33103471603E+02  0.58217935280E+01  0.36820919530E+02  0.00000000000E+00 0.  1.
         11    1    4    4    0    0 -0.19161930759E+02 -0.23712398771E+02 -0.99871828809E+01  0.32081166875E+02  0.51100000000E-03 0. -1.
        -11    1    4    4    0    0  0.12785220552E+01 -0.13785576084E+02 -0.22264862334E+01  0.14022623429E+02  0.51100000000E-03 0.  1.
        -12    1    4    4    0    0  0.28485491109E+01  0.43945032520E+01  0.63918755863E+01  0.82632901667E+01  0.00000000000E+00 0.  1.
</event>
<event>
 8    1  0.1254059E-006  0.9118800E+02  0.7816164E-02  0.1184000E+00
        -11   -1    0    0    0    0  0.00000000000E+00  0.00000000000E+00  0.45593999997E+02  0.45594000000E+02  0.51100000000E-03 0.  1.
         11   -1    0    0    0    0 -0.00000000000E+00 -0.00000000000E+00 -0.45593999997E+02  0.45594000000E+02  0.51100000000E-03 0. -1.
         23    2    1    2    0    0  0.00000000000E+00  0.00000000000E+00  0.00000000000E+00  0.91188000000E+02  0.91188000000E+02 0.  0.
    9900012    2    3    3    0    0 -0.21607027765E+02  0.20565342447E+02  0.21586729315E+02  0.54367029870E+02  0.39999876195E+02 0.  0.
         12    1    3    3    0    0  0.21607027765E+02 -0.20565342447E+02 -0.21586729315E+02  0.36820970130E+02  0.00000000000E+00 0. -1.
         11    1    4    4    0    0 -0.23036474333E+02  0.99913763821E+01  0.83587628880E+01  0.26464611635E+02  0.51100000000E-03 0.  1.
        -11    1    4    4    0    0  0.10490893949E+02  0.48232047205E+01  0.93580449319E+00  0.11584381292E+02  0.51100000000E-03 0. -1.
        -12    1    4    4    0    0 -0.90614473801E+01  0.57507613446E+01  0.12292161933E+02  0.16318036943E+02  0.00000000000E+00 0.  1.
</event>
<event>
 8    1  0.1254059E-006  0.9118800E+02  0.7816164E-02  0.1184000E+00
        -11   -1    0    0    0    0  0.00000000000E+00  0.00000000000E+00  0.45593999997E+02  0.45594000000E+02  0.51100000000E-03 0. -1.
         11   -1    0    0    0    0 -0.00000000000E+00 -0.00000000000E+00 -0.45593999997E+02  0.45594000000E+02  0.51100000000E-03 0.  1.
         23    2    1    2    0    0  0.35527136788E-14  0.00000000000E+00  0.00000000000E+00  0.91188000000E+02  0.91188000000E+02 0.  0.
    9900012    2    3    3    0    0  0.27823625495E+02  0.17865016776E+02 -0.16201000113E+02  0.54367009183E+02  0.39999829035E+02 0.  0.
         12    1    3    3    0    0 -0.27823625495E+02 -0.17865016776E+02  0.16201000113E+02  0.36820990817E+02  0.00000000000E+00 0. -1.
         11    1    4    4    0    0 -0.12069718370E+01  0.25903918353E+01 -0.13970612855E+02  0.14259906545E+02  0.51100000000E-03 0. -1.
        -11    1    4    4    0    0  0.30826713597E+01  0.29477324828E+01 -0.95525489535E+01  0.10461509512E+02  0.51100000000E-03 0.  1.
         12    1    4    4    0    0  0.25947925972E+02  0.12326892458E+02  0.73221616954E+01  0.29645593126E+02  0.00000000000E+00 0. -1.
</event>
<event>
 8    1  0.1254059E-006  0.9118800E+02  0.7816164E-02  0.1184000E+00
        -11   -1    0    0    0    0  0.00000000000E+00  0.00000000000E+00  0.45593999997E+02  0.45594000000E+02  0.51100000000E-03 0. -1.
         11   -1    0    0    0    0 -0.00000000000E+00 -0.00000000000E+00 -0.45593999997E+02  0.45594000000E+02  0.51100000000E-03 0.  1.
         23    2    1    2    0    0  0.22204460493E-15  0.71054273576E-14  0.00000000000E+00  0.91188000000E+02  0.91188000000E+02 0.  0.
    9900012    2    3    3    0    0 -0.14702769893E+01  0.30055180500E+02  0.21220369316E+02  0.54367086606E+02  0.40000005535E+02 0.  0.
        -12    1    3    3    0    0  0.14702769893E+01 -0.30055180500E+02 -0.21220369316E+02  0.36820913394E+02  0.00000000000E+00 0.  1.
         11    1    4    4    0    0 -0.56401215281E+01  0.11897825902E+02 -0.15707793755E+01  0.13260338614E+02  0.51100000000E-03 0. -1.
        -11    1    4    4    0    0 -0.26835380844E+01 -0.70428454033E+01  0.22039995945E+01  0.78524303562E+01  0.51100000000E-03 0.  1.
        -12    1    4    4    0    0  0.68533826233E+01  0.25200200001E+02  0.20587149097E+02  0.33254317636E+02  0.00000000000E+00 0.  1.
</event>
<event>
 8    1  0.1254059E-006  0.9118800E+02  0.7816164E-02  0.1184000E+00
        -11   -1    0    0    0    0  0.00000000000E+00  0.00000000000E+00  0.45593999997E+02  0.45594000000E+02  0.51100000000E-03 0. -1.
         11   -1    0    0    0    0 -0.00000000000E+00 -0.00000000000E+00 -0.45593999997E+02  0.45594000000E+02  0.51100000000E-03 0.  1.
         23    2    1    2    0    0  0.88817841970E-15  0.00000000000E+00 -0.17763568394E-14  0.91188000000E+02  0.91188000000E+02 0.  0.
    9900012    2    3    3    0    0 -0.20687403867E+01  0.36693003586E+02 -0.22632007201E+01  0.54367105437E+02  0.40000048464E+02 0.  0.
         12    1    3    3    0    0  0.20687403867E+01 -0.36693003586E+02  0.22632007201E+01  0.36820894563E+02  0.00000000000E+00 0. -1.
         11    1    4    4    0    0  0.47415109620E+01  0.34089777543E+01  0.76127921555E+01  0.95946683213E+01  0.51100000000E-03 0. -1.
        -11    1    4    4    0    0  0.76603587136E+01  0.48191169897E+01 -0.90955061804E+01  0.12830947631E+02  0.51100000000E-03 0.  1.
        -12    1    4    4    0    0 -0.14470610062E+02  0.28464908842E+02 -0.78048669521E+00  0.31941489484E+02  0.00000000000E+00 0.  1.
</event>
<event>
 8    1  0.1254059E-006  0.9118800E+02  0.7816164E-02  0.1184000E+00
        -11   -1    0    0    0    0  0.00000000000E+00  0.00000000000E+00  0.45593999997E+02  0.45594000000E+02  0.51100000000E-03 0. -1.
         11   -1    0    0    0    0 -0.00000000000E+00 -0.00000000000E+00 -0.45593999997E+02  0.45594000000E+02  0.51100000000E-03 0.  1.
         23    2    1    2    0    0  0.00000000000E+00  0.88817841970E-15  0.00000000000E+00  0.91188000000E+02  0.91188000000E+02 0.  0.
    9900012    2    3    3    0    0  0.15049674260E+02  0.37446773238E+01 -0.33395569669E+02  0.54367090491E+02  0.40000014391E+02 0.  0.
         12    1    3    3    0    0 -0.15049674260E+02 -0.37446773238E+01  0.33395569669E+02  0.36820909509E+02  0.00000000000E+00 0. -1.
         11    1    4    4    0    0 -0.44505584413E+01  0.23075362245E+01 -0.15894742502E+02  0.16666584333E+02  0.51100000000E-03 0. -1.
        -11    1    4    4    0    0  0.71718741236E+01  0.99609577876E+01  0.26793102827E+01  0.12563246489E+02  0.51100000000E-03 0.  1.
        -12    1    4    4    0    0  0.12328358578E+02 -0.85238166884E+01 -0.20180137450E+02  0.25137259669E+02  0.00000000000E+00 0.  1.
</event>
<event>
 8    1  0.1254059E-006  0.9118800E+02  0.7816164E-02  0.1184000E+00
        -11   -1    0    0    0    0  0.00000000000E+00  0.00000000000E+00  0.45593999997E+02  0.45594000000E+02  0.51100000000E-03 0.  1.
         11   -1    0    0    0    0 -0.00000000000E+00 -0.00000000000E+00 -0.45593999997E+02  0.45594000000E+02  0.51100000000E-03 0. -1.
         23    2    1    2    0    0 -0.35527136788E-14  0.17763568394E-14  0.00000000000E+00  0.91188000000E+02  0.91188000000E+02 0.  0.
    9900012    2    3    3    0    0  0.19461262549E+02  0.49983755629E+01 -0.30855375410E+02  0.54367099822E+02  0.40000035664E+02 0.  0.
        -12    1    3    3    0    0 -0.19461262549E+02 -0.49983755629E+01  0.30855375410E+02  0.36820900178E+02  0.00000000000E+00 0.  1.
         11    1    4    4    0    0  0.14791029702E+02 -0.60857310181E+01 -0.20735256833E+02  0.26187049430E+02  0.51100000000E-03 0. -1.
        -11    1    4    4    0    0  0.35434543394E+01  0.15622432201E+02 -0.14621931766E+02  0.21689106606E+02  0.51100000000E-03 0.  1.
        -12    1    4    4    0    0  0.11267785076E+01 -0.45383256202E+01  0.45018131892E+01  0.64909437858E+01  0.00000000000E+00 0.  1.
</event>
<event>
 8    1  0.1254059E-006  0.9118800E+02  0.7816164E-02  0.1184000E+00
        -11   -1    0    0    0    0  0.00000000000E+00  0.00000000000E+00  0.45593999997E+02  0.45594000000E+02  0.51100000000E-03 0. -1.
         11   -1    0    0    0    0 -0.00000000000E+00 -0.00000000000E+00 -0.45593999997E+02  0.45594000000E+02  0.51100000000E-03 0.  1.
         23    2    1    2    0    0 -0.35527136788E-14 -0.44408920985E-15  0.35527136788E-14  0.91188000000E+02  0.91188000000E+02 0.  0.
    9900012    2    3    3    0    0 -0.26855788516E+02 -0.31071705847E+01  0.24997831328E+02  0.54367089406E+02  0.40000011919E+02 0.  0.
        -12    1    3    3    0    0  0.26855788516E+02  0.31071705847E+01 -0.24997831328E+02  0.36820910594E+02  0.00000000000E+00 0.  1.
         11    1    4    4    0    0 -0.71908775051E+01  0.77587926989E+01  0.18837871283E+02  0.21604929488E+02  0.51100000000E-03 0. -1.
        -11    1    4    4    0    0 -0.50325205474E+01 -0.83950682880E+00 -0.83903854863E+01  0.98198576184E+01  0.51100000000E-03 0.  1.
         12    1    4    4    0    0 -0.14632390464E+02 -0.10026456455E+02  0.14550345531E+02  0.22942302300E+02  0.00000000000E+00 0. -1.
</event>
<event>
 8    1  0.1254059E-006  0.9118800E+02  0.7816164E-02  0.1184000E+00
        -11   -1    0    0    0    0  0.00000000000E+00  0.00000000000E+00  0.45593999997E+02  0.45594000000E+02  0.51100000000E-03 0. -1.
         11   -1    0    0    0    0 -0.00000000000E+00 -0.00000000000E+00 -0.45593999997E+02  0.45594000000E+02  0.51100000000E-03 0.  1.
         23    2    1    2    0    0  0.17763568394E-14  0.00000000000E+00  0.00000000000E+00  0.91188000000E+02  0.91188000000E+02 0.  0.
    9900012    2    3    3    0    0 -0.15850963569E+02  0.32844356101E+02  0.50767506622E+01  0.54367106868E+02  0.40000051727E+02 0.  0.
        -12    1    3    3    0    0  0.15850963569E+02 -0.32844356101E+02 -0.50767506622E+01  0.36820893132E+02  0.00000000000E+00 0.  1.
         11    1    4    4    0    0 -0.22956285774E+02  0.30358244224E+02 -0.42959207125E+01  0.38302336534E+02  0.51100000000E-03 0. -1.
        -11    1    4    4    0    0 -0.28403740095E+00 -0.32867841923E+01  0.88212269443E+00  0.34149331298E+01  0.51100000000E-03 0.  1.
         12    1    4    4    0    0  0.73893596057E+01  0.57728960686E+01  0.84905486802E+01  0.12649837204E+02  0.00000000000E+00 0. -1.
</event>
<event>
 8    1  0.1254059E-006  0.9118800E+02  0.7816164E-02  0.1184000E+00
        -11   -1    0    0    0    0  0.00000000000E+00  0.00000000000E+00  0.45593999997E+02  0.45594000000E+02  0.51100000000E-03 0.  1.
         11   -1    0    0    0    0 -0.00000000000E+00 -0.00000000000E+00 -0.45593999997E+02  0.45594000000E+02  0.51100000000E-03 0. -1.
         23    2    1    2    0    0  0.35527136788E-14 -0.71054273576E-14 -0.71054273576E-14  0.91188000000E+02  0.91188000000E+02 0.  0.
    9900012    2    3    3    0    0  0.23652380695E+02 -0.21701734694E+02 -0.18038266158E+02  0.54367089538E+02  0.40000012221E+02 0.  0.
        -12    1    3    3    0    0 -0.23652380695E+02  0.21701734694E+02  0.18038266158E+02  0.36820910462E+02  0.00000000000E+00 0.  1.
         11    1    4    4    0    0 -0.54123101994E+01 -0.53441294454E+01 -0.15668143547E+02  0.17416760425E+02  0.51100000000E-03 0. -1.
        -11    1    4    4    0    0  0.14174648428E+02 -0.17529141876E+01  0.45265405877E+01  0.14982754625E+02  0.51100000000E-03 0.  1.
        -12    1    4    4    0    0  0.14890042467E+02 -0.14604691061E+02 -0.68966631980E+01  0.21967574488E+02  0.00000000000E+00 0.  1.
</event>
<event>
 8    1  0.1254059E-006  0.9118800E+02  0.7816164E-02  0.1184000E+00
        -11   -1    0    0    0    0  0.00000000000E+00  0.00000000000E+00  0.45593999997E+02  0.45594000000E+02  0.51100000000E-03 0.  1.
         11   -1    0    0    0    0 -0.00000000000E+00 -0.00000000000E+00 -0.45593999997E+02  0.45594000000E+02  0.51100000000E-03 0. -1.
         23    2    1    2    0    0 -0.44408920985E-15  0.00000000000E+00  0.00000000000E+00  0.91188000000E+02  0.91188000000E+02 0.  0.
    9900012    2    3    3    0    0  0.20171973481E+01  0.27812310510E+02 -0.24045505258E+02  0.54367081704E+02  0.39999994360E+02 0.  0.
        -12    1    3    3    0    0 -0.20171973481E+01 -0.27812310510E+02  0.24045505258E+02  0.36820918296E+02  0.00000000000E+00 0.  1.
         11    1    4    4    0    0 -0.58660166447E+01 -0.10021871905E+01 -0.18902660408E+02  0.19817292984E+02  0.51100000000E-03 0. -1.
        -11    1    4    4    0    0 -0.37426269186E+01  0.33414779490E+01 -0.41837819826E+01  0.65327454470E+01  0.51100000000E-03 0.  1.
        -12    1    4    4    0    0  0.11625840911E+02  0.25473019752E+02 -0.95906286763E+00  0.28017043273E+02  0.00000000000E+00 0.  1.
</event>
<event>
 8    1  0.1254059E-006  0.9118800E+02  0.7816164E-02  0.1184000E+00
        -11   -1    0    0    0    0  0.00000000000E+00  0.00000000000E+00  0.45593999997E+02  0.45594000000E+02  0.51100000000E-03 0.  1.
         11   -1    0    0    0    0 -0.00000000000E+00 -0.00000000000E+00 -0.45593999997E+02  0.45594000000E+02  0.51100000000E-03 0. -1.
         23    2    1    2    0    0  0.35527136788E-14 -0.44408920985E-15  0.00000000000E+00  0.91188000000E+02  0.91188000000E+02 0.  0.
    9900012    2    3    3    0    0  0.31639023662E+02  0.35033866887E+01 -0.18506164904E+02  0.54367086431E+02  0.40000005137E+02 0.  0.
        -12    1    3    3    0    0 -0.31639023662E+02 -0.35033866887E+01  0.18506164904E+02  0.36820913569E+02  0.00000000000E+00 0.  1.
         11    1    4    4    0    0  0.19736583902E+02 -0.17233404285E+01 -0.52763148724E+01  0.20502247322E+02  0.51100000000E-03 0. -1.
        -11    1    4    4    0    0  0.16078700970E+02  0.78170516126E+01  0.18791441953E+01  0.17976710043E+02  0.51100000000E-03 0.  1.
         12    1    4    4    0    0 -0.41762612098E+01 -0.25903244954E+01 -0.15108994227E+02  0.15888129067E+02  0.00000000000E+00 0. -1.
</event>
<event>
 8    1  0.1254059E-006  0.9118800E+02  0.7816164E-02  0.1184000E+00
        -11   -1    0    0    0    0  0.00000000000E+00  0.00000000000E+00  0.45593999997E+02  0.45594000000E+02  0.51100000000E-03 0.  1.
         11   -1    0    0    0    0 -0.00000000000E+00 -0.00000000000E+00 -0.45593999997E+02  0.45594000000E+02  0.51100000000E-03 0. -1.
         23    2    1    2    0    0  0.00000000000E+00  0.00000000000E+00  0.00000000000E+00  0.91188000000E+02  0.91188000000E+02 0.  0.
    9900012    2    3    3    0    0 -0.12056534124E+02  0.23334524777E+02 -0.25805427319E+02  0.54367080120E+02  0.39999990750E+02 0.  0.
        -12    1    3    3    0    0  0.12056534124E+02 -0.23334524777E+02  0.25805427319E+02  0.36820919880E+02  0.00000000000E+00 0.  1.
         11    1    4    4    0    0 -0.11934773653E+02  0.10335434670E+02 -0.24569353923E+02  0.29204677441E+02  0.51100000000E-03 0. -1.
        -11    1    4    4    0    0 -0.10553442731E+02  0.91802730331E+01 -0.22499698354E-01  0.13987604260E+02  0.51100000000E-03 0.  1.
         12    1    4    4    0    0  0.10431682259E+02  0.38188170735E+01 -0.12135736980E+01  0.11174798420E+02  0.00000000000E+00 0. -1.
</event>
<event>
 8    1  0.1254059E-006  0.9118800E+02  0.7816164E-02  0.1184000E+00
        -11   -1    0    0    0    0  0.00000000000E+00  0.00000000000E+00  0.45593999997E+02  0.45594000000E+02  0.51100000000E-03 0.  1.
         11   -1    0    0    0    0 -0.00000000000E+00 -0.00000000000E+00 -0.45593999997E+02  0.45594000000E+02  0.51100000000E-03 0. -1.
         23    2    1    2    0    0  0.00000000000E+00  0.00000000000E+00  0.00000000000E+00  0.91188000000E+02  0.91188000000E+02 0.  0.
    9900012    2    3    3    0    0 -0.12650963780E+02 -0.25898829105E+02  0.22912307443E+02  0.54367216929E+02  0.40000302633E+02 0.  0.
         12    1    3    3    0    0  0.12650963780E+02  0.25898829105E+02 -0.22912307443E+02  0.36820783071E+02  0.00000000000E+00 0. -1.
         11    1    4    4    0    0 -0.92729415151E+01 -0.12350738702E+02  0.13654220257E+01  0.15504598299E+02  0.51100000000E-03 0. -1.
        -11    1    4    4    0    0 -0.10363455710E+02 -0.21858629140E+01 -0.29285740726E+01  0.10988892451E+02  0.51100000000E-03 0.  1.
        -12    1    4    4    0    0  0.69854334452E+01 -0.11362227489E+02  0.24475459490E+02  0.27873726180E+02  0.00000000000E+00 0.  1.
</event>
<event>
 8    1  0.1254059E-006  0.9118800E+02  0.7816164E-02  0.1184000E+00
        -11   -1    0    0    0    0  0.00000000000E+00  0.00000000000E+00  0.45593999997E+02  0.45594000000E+02  0.51100000000E-03 0. -1.
         11   -1    0    0    0    0 -0.00000000000E+00 -0.00000000000E+00 -0.45593999997E+02  0.45594000000E+02  0.51100000000E-03 0.  1.
         23    2    1    2    0    0 -0.71054273576E-14  0.11102230246E-15 -0.53290705182E-14  0.91188000000E+02  0.91188000000E+02 0.  0.
    9900012    2    3    3    0    0  0.33955322331E+02 -0.52922883845E+00  0.14231533818E+02  0.54367074528E+02  0.39999978002E+02 0.  0.
         12    1    3    3    0    0 -0.33955322331E+02  0.52922883845E+00 -0.14231533818E+02  0.36820925472E+02  0.00000000000E+00 0. -1.
         11    1    4    4    0    0  0.26773406583E+02  0.11837703994E+01 -0.72485392296E+00  0.26809364519E+02  0.51100000000E-03 0. -1.
        -11    1    4    4    0    0  0.10481522826E+02 -0.43468443701E+00  0.19292953073E+02  0.21960630907E+02  0.51100000000E-03 0.  1.
         12    1    4    4    0    0 -0.32996070782E+01 -0.12783148008E+01 -0.43365653314E+01  0.55970791020E+01  0.00000000000E+00 0. -1.
</event>
<event>
 8    1  0.1254059E-006  0.9118800E+02  0.7816164E-02  0.1184000E+00
        -11   -1    0    0    0    0  0.00000000000E+00  0.00000000000E+00  0.45593999997E+02  0.45594000000E+02  0.51100000000E-03 0. -1.
         11   -1    0    0    0    0 -0.00000000000E+00 -0.00000000000E+00 -0.45593999997E+02  0.45594000000E+02  0.51100000000E-03 0.  1.
         23    2    1    2    0    0  0.00000000000E+00 -0.44408920985E-15  0.17763568394E-14  0.91188000000E+02  0.91188000000E+02 0.  0.
    9900012    2    3    3    0    0  0.34205893995E+02  0.37422370545E+01  0.13104619072E+02  0.54367101543E+02  0.40000039587E+02 0.  0.
        -12    1    3    3    0    0 -0.34205893995E+02 -0.37422370545E+01 -0.13104619072E+02  0.36820898457E+02  0.00000000000E+00 0.  1.
         11    1    4    4    0    0  0.80956425895E+01  0.38792651498E+01  0.12338773521E+01  0.90614888744E+01  0.51100000000E-03 0. -1.
        -11    1    4    4    0    0  0.29945654958E+02 -0.91303340904E+01  0.15427847166E+02  0.34901629187E+02  0.51100000000E-03 0.  1.
        -12    1    4    4    0    0 -0.38354035523E+01  0.89933059951E+01 -0.35571054462E+01  0.10403983482E+02  0.00000000000E+00 0.  1.
</event>
<event>
 8    1  0.1254059E-006  0.9118800E+02  0.7816164E-02  0.1184000E+00
        -11   -1    0    0    0    0  0.00000000000E+00  0.00000000000E+00  0.45593999997E+02  0.45594000000E+02  0.51100000000E-03 0.  1.
         11   -1    0    0    0    0 -0.00000000000E+00 -0.00000000000E+00 -0.45593999997E+02  0.45594000000E+02  0.51100000000E-03 0. -1.
         23    2    1    2    0    0  0.00000000000E+00  0.00000000000E+00  0.35527136788E-14  0.91188000000E+02  0.91188000000E+02 0.  0.
    9900012    2    3    3    0    0  0.32567713553E+02  0.81436601263E+01  0.15126171451E+02  0.54367133238E+02  0.40000111842E+02 0.  0.
         12    1    3    3    0    0 -0.32567713553E+02 -0.81436601263E+01 -0.15126171451E+02  0.36820866762E+02  0.00000000000E+00 0. -1.
         11    1    4    4    0    0 -0.56361609417E+01  0.46810911794E+01 -0.55106931343E+00  0.73472853790E+01  0.51100000000E-03 0. -1.
        -11    1    4    4    0    0  0.30212435524E+02  0.37264882725E+01  0.21379577463E+02  0.37198982619E+02  0.51100000000E-03 0.  1.
         12    1    4    4    0    0  0.79914389710E+01 -0.26391932564E+00 -0.57023366980E+01  0.98208652396E+01  0.00000000000E+00 0. -1.
</event>
<event>
 8    1  0.1254059E-006  0.9118800E+02  0.7816164E-02  0.1184000E+00
        -11   -1    0    0    0    0  0.00000000000E+00  0.00000000000E+00  0.45593999997E+02  0.45594000000E+02  0.51100000000E-03 0. -1.
         11   -1    0    0    0    0 -0.00000000000E+00 -0.00000000000E+00 -0.45593999997E+02  0.45594000000E+02  0.51100000000E-03 0.  1.
         23    2    1    2    0    0  0.35527136788E-14  0.00000000000E+00  0.35527136788E-14  0.91188000000E+02  0.91188000000E+02 0.  0.
    9900012    2    3    3    0    0 -0.28103034745E+02 -0.16676011458E+02  0.16967909464E+02  0.54367083776E+02  0.39999999084E+02 0.  0.
         12    1    3    3    0    0  0.28103034745E+02  0.16676011458E+02 -0.16967909464E+02  0.36820916224E+02  0.00000000000E+00 0. -1.
         11    1    4    4    0    0 -0.16739975700E+02  0.74041194133E+01  0.24256178346E+01  0.18464327577E+02  0.51100000000E-03 0. -1.
        -11    1    4    4    0    0 -0.12584864362E+02 -0.13648075654E+02  0.16936984483E+02  0.25129867164E+02  0.51100000000E-03 0.  1.
         12    1    4    4    0    0  0.12218053170E+01 -0.10432055217E+02 -0.23946928537E+01  0.10772889034E+02  0.00000000000E+00 0. -1.
</event>
<event>
 8    1  0.1254059E-006  0.9118800E+02  0.7816164E-02  0.1184000E+00
        -11   -1    0    0    0    0  0.00000000000E+00  0.00000000000E+00  0.45593999997E+02  0.45594000000E+02  0.51100000000E-03 0.  1.
         11   -1    0    0    0    0 -0.00000000000E+00 -0.00000000000E+00 -0.45593999997E+02  0.45594000000E+02  0.51100000000E-03 0. -1.
         23    2    1    2    0    0  0.00000000000E+00  0.35527136788E-14  0.35527136788E-14  0.91188000000E+02  0.91188000000E+02 0.  0.
    9900012    2    3    3    0    0  0.42537902477E+01  0.22054094180E+02  0.29177157792E+02  0.54367023120E+02  0.39999860806E+02 0.  0.
         12    1    3    3    0    0 -0.42537902477E+01 -0.22054094180E+02 -0.29177157792E+02  0.36820976880E+02  0.00000000000E+00 0. -1.
         11    1    4    4    0    0 -0.29668953384E+01  0.10868846763E+02 -0.60486562628E+01  0.12787515035E+02  0.51100000000E-03 0. -1.
        -11    1    4    4    0    0  0.93615357490E+01  0.14163276742E+02  0.21627112935E+02  0.27494886321E+02  0.51100000000E-03 0.  1.
        -12    1    4    4    0    0 -0.21408501629E+01 -0.29780293249E+01  0.13598701120E+02  0.14084621764E+02  0.00000000000E+00 0.  1.
</event>
<event>
 8    1  0.1254059E-006  0.9118800E+02  0.7816164E-02  0.1184000E+00
        -11   -1    0    0    0    0  0.00000000000E+00  0.00000000000E+00  0.45593999997E+02  0.45594000000E+02  0.51100000000E-03 0. -1.
         11   -1    0    0    0    0 -0.00000000000E+00 -0.00000000000E+00 -0.45593999997E+02  0.45594000000E+02  0.51100000000E-03 0.  1.
         23    2    1    2    0    0  0.00000000000E+00  0.00000000000E+00  0.17763568394E-14  0.91188000000E+02  0.91188000000E+02 0.  0.
    9900012    2    3    3    0    0 -0.89773586489E+01  0.35457152280E+02  0.42399466433E+01  0.54367085241E+02  0.40000002424E+02 0.  0.
         12    1    3    3    0    0  0.89773586489E+01 -0.35457152280E+02 -0.42399466433E+01  0.36820914759E+02  0.00000000000E+00 0. -1.
         11    1    4    4    0    0 -0.24714034176E+01  0.92566106910E+01 -0.69548713192E+01  0.11839041839E+02  0.51100000000E-03 0. -1.
        -11    1    4    4    0    0 -0.20789010872E+00  0.13848896751E+02 -0.10082858275E+02  0.17131818081E+02  0.51100000000E-03 0.  1.
         12    1    4    4    0    0 -0.62980651226E+01  0.12351644838E+02  0.21277676237E+02  0.25396225321E+02  0.00000000000E+00 0. -1.
</event>
<event>
 8    1  0.1254059E-006  0.9118800E+02  0.7816164E-02  0.1184000E+00
        -11   -1    0    0    0    0  0.00000000000E+00  0.00000000000E+00  0.45593999997E+02  0.45594000000E+02  0.51100000000E-03 0. -1.
         11   -1    0    0    0    0 -0.00000000000E+00 -0.00000000000E+00 -0.45593999997E+02  0.45594000000E+02  0.51100000000E-03 0.  1.
         23    2    1    2    0    0  0.35527136788E-14  0.00000000000E+00  0.44408920985E-15  0.91188000000E+02  0.91188000000E+02 0.  0.
    9900012    2    3    3    0    0  0.23931042987E+02 -0.27700060385E+02 -0.39738694156E+01  0.54367084722E+02  0.40000001241E+02 0.  0.
        -12    1    3    3    0    0 -0.23931042987E+02  0.27700060385E+02  0.39738694156E+01  0.36820915278E+02  0.00000000000E+00 0.  1.
         11    1    4    4    0    0  0.14972242028E+02 -0.95080473329E+01  0.11201546419E+02  0.20977264785E+02  0.51100000000E-03 0. -1.
        -11    1    4    4    0    0  0.28025761892E+01 -0.22208726569E+02 -0.11721726090E+02  0.25268178247E+02  0.51100000000E-03 0.  1.
        -12    1    4    4    0    0  0.61562247700E+01  0.40167135172E+01 -0.34536897444E+01  0.81216416905E+01  0.00000000000E+00 0.  1.
</event>
<event>
 8    1  0.1254059E-006  0.9118800E+02  0.7816164E-02  0.1184000E+00
        -11   -1    0    0    0    0  0.00000000000E+00  0.00000000000E+00  0.45593999997E+02  0.45594000000E+02  0.51100000000E-03 0. -1.
         11   -1    0    0    0    0 -0.00000000000E+00 -0.00000000000E+00 -0.45593999997E+02  0.45594000000E+02  0.51100000000E-03 0.  1.
         23    2    1    2    0    0 -0.17763568394E-14  0.00000000000E+00 -0.35527136788E-14  0.91188000000E+02  0.91188000000E+02 0.  0.
    9900012    2    3    3    0    0 -0.79416150041E+01 -0.29927006242E+02 -0.19927001681E+02  0.54367077314E+02  0.39999984352E+02 0.  0.
         12    1    3    3    0    0  0.79416150041E+01  0.29927006242E+02  0.19927001681E+02  0.36820922686E+02  0.00000000000E+00 0. -1.
         11    1    4    4    0    0  0.25440835840E+01  0.62115829439E+01  0.39913997529E+01  0.78094427586E+01  0.51100000000E-03 0. -1.
        -11    1    4    4    0    0 -0.18093959821E+01 -0.25164064160E+02 -0.19499903235E+02  0.31886521687E+02  0.51100000000E-03 0.  1.
         12    1    4    4    0    0 -0.86763026060E+01 -0.10974525025E+02 -0.44184981990E+01  0.14671112868E+02  0.00000000000E+00 0. -1.
</event>
<event>
 8    1  0.1254059E-006  0.9118800E+02  0.7816164E-02  0.1184000E+00
        -11   -1    0    0    0    0  0.00000000000E+00  0.00000000000E+00  0.45593999997E+02  0.45594000000E+02  0.51100000000E-03 0.  1.
         11   -1    0    0    0    0 -0.00000000000E+00 -0.00000000000E+00 -0.45593999997E+02  0.45594000000E+02  0.51100000000E-03 0. -1.
         23    2    1    2    0    0  0.00000000000E+00  0.00000000000E+00 -0.88817841970E-15  0.91188000000E+02  0.91188000000E+02 0.  0.
    9900012    2    3    3    0    0  0.33190358709E+02 -0.14205098559E+02 -0.72384344838E+01  0.54367086512E+02  0.40000005322E+02 0.  0.
         12    1    3    3    0    0 -0.33190358709E+02  0.14205098559E+02  0.72384344838E+01  0.36820913488E+02  0.00000000000E+00 0. -1.
         11    1    4    4    0    0  0.87343253096E+01 -0.13314313662E+01  0.64997270925E+01  0.10968482148E+02  0.51100000000E-03 0. -1.
        -11    1    4    4    0    0  0.23135373370E+02 -0.13169402797E+02  0.28338448541E+01  0.26771427827E+02  0.51100000000E-03 0.  1.
         12    1    4    4    0    0  0.13206600292E+01  0.29573560417E+00 -0.16572006430E+02  0.16627176537E+02  0.00000000000E+00 0. -1.
</event>
<event>
 8    1  0.1254059E-006  0.9118800E+02  0.7816164E-02  0.1184000E+00
        -11   -1    0    0    0    0  0.00000000000E+00  0.00000000000E+00  0.45593999997E+02  0.45594000000E+02  0.51100000000E-03 0.  1.
         11   -1    0    0    0    0 -0.00000000000E+00 -0.00000000000E+00 -0.45593999997E+02  0.45594000000E+02  0.51100000000E-03 0. -1.
         23    2    1    2    0    0 -0.22204460493E-15  0.00000000000E+00  0.35527136788E-14  0.91188000000E+02  0.91188000000E+02 0.  0.
    9900012    2    3    3    0    0 -0.17817567203E+01  0.27309300801E+02  0.24633482847E+02  0.54367067850E+02  0.39999962777E+02 0.  0.
         12    1    3    3    0    0  0.17817567203E+01 -0.27309300801E+02 -0.24633482847E+02  0.36820932150E+02  0.00000000000E+00 0. -1.
         11    1    4    4    0    0 -0.59784117253E+01  0.43089608870E+01  0.68917655302E+01  0.10089845542E+02  0.51100000000E-03 0. -1.
        -11    1    4    4    0    0  0.31070902240E+00 -0.81608535108E+01 -0.85568332470E-01  0.81672144775E+01  0.51100000000E-03 0.  1.
        -12    1    4    4    0    0  0.38859459826E+01  0.31161193425E+02  0.17827285649E+02  0.36110007830E+02  0.00000000000E+00 0.  1.
</event>
<event>
 8    1  0.1254059E-006  0.9118800E+02  0.7816164E-02  0.1184000E+00
        -11   -1    0    0    0    0  0.00000000000E+00  0.00000000000E+00  0.45593999997E+02  0.45594000000E+02  0.51100000000E-03 0.  1.
         11   -1    0    0    0    0 -0.00000000000E+00 -0.00000000000E+00 -0.45593999997E+02  0.45594000000E+02  0.51100000000E-03 0. -1.
         23    2    1    2    0    0  0.35527136788E-14  0.35527136788E-14  0.33306690739E-15  0.91188000000E+02  0.91188000000E+02 0.  0.
    9900012    2    3    3    0    0 -0.21695079173E+02 -0.29740021661E+02 -0.79603487483E+00  0.54367095336E+02  0.40000025438E+02 0.  0.
         12    1    3    3    0    0  0.21695079173E+02  0.29740021661E+02  0.79603487483E+00  0.36820904664E+02  0.00000000000E+00 0. -1.
         11    1    4    4    0    0  0.77818308735E-01  0.29354055831E+01  0.11770502675E+01  0.31635595806E+01  0.51100000000E-03 0. -1.
        -11    1    4    4    0    0 -0.12488664567E+02  0.24705332161E+01  0.58647436372E+01  0.14016614970E+02  0.51100000000E-03 0.  1.
        -12    1    4    4    0    0 -0.92842329150E+01 -0.35145960461E+02 -0.78378287796E+01  0.37186920786E+02  0.00000000000E+00 0.  1.
</event>
<event>
 8    1  0.1254059E-006  0.9118800E+02  0.7816164E-02  0.1184000E+00
        -11   -1    0    0    0    0  0.00000000000E+00  0.00000000000E+00  0.45593999997E+02  0.45594000000E+02  0.51100000000E-03 0. -1.
         11   -1    0    0    0    0 -0.00000000000E+00 -0.00000000000E+00 -0.45593999997E+02  0.45594000000E+02  0.51100000000E-03 0.  1.
         23    2    1    2    0    0  0.35527136788E-14  0.00000000000E+00 -0.35527136788E-14  0.91188000000E+02  0.91188000000E+02 0.  0.
    9900012    2    3    3    0    0 -0.29617317739E+02  0.86536923643E+01  0.20092469991E+02  0.54367092191E+02  0.40000018267E+02 0.  0.
        -12    1    3    3    0    0  0.29617317739E+02 -0.86536923643E+01 -0.20092469991E+02  0.36820907809E+02  0.00000000000E+00 0.  1.
         11    1    4    4    0    0 -0.34892994587E+02  0.55771011743E+01  0.17589053477E+02  0.39471507841E+02  0.51100000000E-03 0. -1.
        -11    1    4    4    0    0  0.59188992025E+01 -0.37205505298E+01  0.37832749659E+01  0.79491530205E+01  0.51100000000E-03 0.  1.
         12    1    4    4    0    0 -0.64322235406E+00  0.67971417199E+01 -0.12798584519E+01  0.69464313293E+01  0.00000000000E+00 0. -1.
</event>
<event>
 8    1  0.1254059E-006  0.9118800E+02  0.7816164E-02  0.1184000E+00
        -11   -1    0    0    0    0  0.00000000000E+00  0.00000000000E+00  0.45593999997E+02  0.45594000000E+02  0.51100000000E-03 0.  1.
         11   -1    0    0    0    0 -0.00000000000E+00 -0.00000000000E+00 -0.45593999997E+02  0.45594000000E+02  0.51100000000E-03 0. -1.
         23    2    1    2    0    0 -0.35527136788E-14  0.17763568394E-14 -0.35527136788E-14  0.91188000000E+02  0.91188000000E+02 0.  0.
    9900012    2    3    3    0    0 -0.16666298872E+02  0.12262812038E+02 -0.30457138461E+02  0.54367090718E+02  0.40000014909E+02 0.  0.
        -12    1    3    3    0    0  0.16666298872E+02 -0.12262812038E+02  0.30457138461E+02  0.36820909282E+02  0.00000000000E+00 0.  1.
         11    1    4    4    0    0 -0.59350981875E+01 -0.41557266266E+01 -0.41747530225E+01  0.83620582006E+01  0.51100000000E-03 0. -1.
        -11    1    4    4    0    0 -0.98370767549E+00 -0.97613797209E+01 -0.63277099075E+01  0.11674421946E+02  0.51100000000E-03 0.  1.
        -12    1    4    4    0    0 -0.97474930093E+01  0.26179918385E+02 -0.19954675531E+02  0.34330610571E+02  0.00000000000E+00 0.  1.
</event>
<event>
 8    1  0.1254059E-006  0.9118800E+02  0.7816164E-02  0.1184000E+00
        -11   -1    0    0    0    0  0.00000000000E+00  0.00000000000E+00  0.45593999997E+02  0.45594000000E+02  0.51100000000E-03 0. -1.
         11   -1    0    0    0    0 -0.00000000000E+00 -0.00000000000E+00 -0.45593999997E+02  0.45594000000E+02  0.51100000000E-03 0.  1.
         23    2    1    2    0    0  0.00000000000E+00  0.00000000000E+00  0.00000000000E+00  0.91188000000E+02  0.91188000000E+02 0.  0.
    9900012    2    3    3    0    0  0.87710728139E+01  0.30662717871E+02  0.18402334863E+02  0.54367083200E+02  0.39999997771E+02 0.  0.
        -12    1    3    3    0    0 -0.87710728139E+01 -0.30662717871E+02 -0.18402334863E+02  0.36820916800E+02  0.00000000000E+00 0.  1.
         11    1    4    4    0    0 -0.79265233773E+01  0.24109252357E+02  0.13844757590E+02  0.28909568226E+02  0.51100000000E-03 0. -1.
        -11    1    4    4    0    0  0.11400120491E+02  0.12112005301E+02  0.59272379138E+01  0.17657733976E+02  0.51100000000E-03 0.  1.
        -12    1    4    4    0    0  0.52974756998E+01 -0.55585397861E+01 -0.13696606400E+01  0.77997809977E+01  0.00000000000E+00 0.  1.
</event>
<event>
 8    1  0.1254059E-006  0.9118800E+02  0.7816164E-02  0.1184000E+00
        -11   -1    0    0    0    0  0.00000000000E+00  0.00000000000E+00  0.45593999997E+02  0.45594000000E+02  0.51100000000E-03 0.  1.
         11   -1    0    0    0    0 -0.00000000000E+00 -0.00000000000E+00 -0.45593999997E+02  0.45594000000E+02  0.51100000000E-03 0. -1.
         23    2    1    2    0    0  0.00000000000E+00  0.00000000000E+00  0.00000000000E+00  0.91188000000E+02  0.91188000000E+02 0.  0.
    9900012    2    3    3    0    0  0.24379633560E+02 -0.25136431923E+02 -0.11383074557E+02  0.54367066704E+02  0.39999960166E+02 0.  0.
        -12    1    3    3    0    0 -0.24379633560E+02  0.25136431923E+02  0.11383074557E+02  0.36820933296E+02  0.00000000000E+00 0.  1.
         11    1    4    4    0    0  0.21070500036E+02 -0.60389428293E+01 -0.11841168782E+02  0.24912809570E+02  0.51100000000E-03 0. -1.
        -11    1    4    4    0    0  0.14070374701E+01 -0.23476491609E+02  0.35227865235E+01  0.23780989001E+02  0.51100000000E-03 0.  1.
        -12    1    4    4    0    0  0.19020960540E+01  0.43790025152E+01 -0.30646922994E+01  0.56732681337E+01  0.00000000000E+00 0.  1.
</event>
<event>
 8    1  0.1254059E-006  0.9118800E+02  0.7816164E-02  0.1184000E+00
        -11   -1    0    0    0    0  0.00000000000E+00  0.00000000000E+00  0.45593999997E+02  0.45594000000E+02  0.51100000000E-03 0. -1.
         11   -1    0    0    0    0 -0.00000000000E+00 -0.00000000000E+00 -0.45593999997E+02  0.45594000000E+02  0.51100000000E-03 0.  1.
         23    2    1    2    0    0  0.00000000000E+00  0.17763568394E-14 -0.71054273576E-14  0.91188000000E+02  0.91188000000E+02 0.  0.
    9900012    2    3    3    0    0 -0.10480779119E+02 -0.94534470971E+01  0.34008241897E+02  0.54367151152E+02  0.40000152681E+02 0.  0.
        -12    1    3    3    0    0  0.10480779119E+02  0.94534470971E+01 -0.34008241897E+02  0.36820848848E+02  0.00000000000E+00 0.  1.
         11    1    4    4    0    0 -0.36679082204E+01 -0.80214490689E+01  0.10473720578E+02  0.13692918567E+02  0.51100000000E-03 0. -1.
        -11    1    4    4    0    0  0.34873967769E+01  0.50584586212E+01 -0.60867423860E+01  0.86486052654E+01  0.51100000000E-03 0.  1.
        -12    1    4    4    0    0 -0.10300267675E+02 -0.64904566494E+01  0.29621263705E+02  0.32025627320E+02  0.00000000000E+00 0.  1.
</event>
<event>
 8    1  0.1254059E-006  0.9118800E+02  0.7816164E-02  0.1184000E+00
        -11   -1    0    0    0    0  0.00000000000E+00  0.00000000000E+00  0.45593999997E+02  0.45594000000E+02  0.51100000000E-03 0. -1.
         11   -1    0    0    0    0 -0.00000000000E+00 -0.00000000000E+00 -0.45593999997E+02  0.45594000000E+02  0.51100000000E-03 0.  1.
         23    2    1    2    0    0  0.00000000000E+00  0.00000000000E+00  0.00000000000E+00  0.91188000000E+02  0.91188000000E+02 0.  0.
    9900012    2    3    3    0    0 -0.32959377599E+02  0.70770272402E+00  0.16400024748E+02  0.54367051796E+02  0.39999926180E+02 0.  0.
        -12    1    3    3    0    0  0.32959377599E+02 -0.70770272402E+00 -0.16400024748E+02  0.36820948204E+02  0.00000000000E+00 0.  1.
         11    1    4    4    0    0  0.18790730071E+00  0.94193735769E+00  0.30554385109E+01  0.32028518377E+01  0.51100000000E-03 0. -1.
        -11    1    4    4    0    0 -0.13023103078E+01 -0.57475888384E+00  0.18799748349E+02  0.18853564601E+02  0.51100000000E-03 0.  1.
         12    1    4    4    0    0 -0.31844974592E+02  0.34052425017E+00 -0.54551621122E+01  0.32310635358E+02  0.00000000000E+00 0. -1.
</event>
<event>
 8    1  0.1254059E-006  0.9118800E+02  0.7816164E-02  0.1184000E+00
        -11   -1    0    0    0    0  0.00000000000E+00  0.00000000000E+00  0.45593999997E+02  0.45594000000E+02  0.51100000000E-03 0. -1.
         11   -1    0    0    0    0 -0.00000000000E+00 -0.00000000000E+00 -0.45593999997E+02  0.45594000000E+02  0.51100000000E-03 0.  1.
         23    2    1    2    0    0  0.35527136788E-14  0.00000000000E+00  0.00000000000E+00  0.91188000000E+02  0.91188000000E+02 0.  0.
    9900012    2    3    3    0    0  0.14700465207E+02 -0.86704700571E+01 -0.32626595613E+02  0.54367143551E+02  0.40000135354E+02 0.  0.
         12    1    3    3    0    0 -0.14700465207E+02  0.86704700571E+01  0.32626595613E+02  0.36820856449E+02  0.00000000000E+00 0. -1.
         11    1    4    4    0    0  0.34884457724E+01 -0.16519924923E+02 -0.11075052127E+02  0.20192423164E+02  0.51100000000E-03 0. -1.
        -11    1    4    4    0    0  0.44380798550E+00 -0.49284671321E+01 -0.15713242611E+02  0.16474002168E+02  0.51100000000E-03 0.  1.
        -12    1    4    4    0    0  0.10768211449E+02  0.12777921998E+02 -0.58383008754E+01  0.17700718220E+02  0.00000000000E+00 0.  1.
</event>
<event>
 8    1  0.1254059E-006  0.9118800E+02  0.7816164E-02  0.1184000E+00
        -11   -1    0    0    0    0  0.00000000000E+00  0.00000000000E+00  0.45593999997E+02  0.45594000000E+02  0.51100000000E-03 0.  1.
         11   -1    0    0    0    0 -0.00000000000E+00 -0.00000000000E+00 -0.45593999997E+02  0.45594000000E+02  0.51100000000E-03 0. -1.
         23    2    1    2    0    0  0.00000000000E+00 -0.71054273576E-14 -0.35527136788E-14  0.91188000000E+02  0.91188000000E+02 0.  0.
    9900012    2    3    3    0    0 -0.81796466763E+01  0.21518238379E+02  0.28737418079E+02  0.54367076593E+02  0.39999982710E+02 0.  0.
         12    1    3    3    0    0  0.81796466763E+01 -0.21518238379E+02 -0.28737418079E+02  0.36820923407E+02  0.00000000000E+00 0. -1.
         11    1    4    4    0    0 -0.77536304860E+00 -0.74335690254E+01  0.22425675709E+01  0.78030920720E+01  0.51100000000E-03 0. -1.
        -11    1    4    4    0    0 -0.98423379367E+01  0.21490338401E+01  0.13029744840E+02  0.16470100588E+02  0.51100000000E-03 0.  1.
         12    1    4    4    0    0  0.24380543090E+01  0.26802773565E+02  0.13465105668E+02  0.30093883934E+02  0.00000000000E+00 0. -1.
</event>
<event>
 8    1  0.1254059E-006  0.9118800E+02  0.7816164E-02  0.1184000E+00
        -11   -1    0    0    0    0  0.00000000000E+00  0.00000000000E+00  0.45593999997E+02  0.45594000000E+02  0.51100000000E-03 0.  1.
         11   -1    0    0    0    0 -0.00000000000E+00 -0.00000000000E+00 -0.45593999997E+02  0.45594000000E+02  0.51100000000E-03 0. -1.
         23    2    1    2    0    0 -0.17763568394E-14 -0.17763568394E-14  0.00000000000E+00  0.91188000000E+02  0.91188000000E+02 0.  0.
    9900012    2    3    3    0    0 -0.92665623592E+01 -0.13660273634E+02 -0.32913634335E+02  0.54367087751E+02  0.40000008145E+02 0.  0.
        -12    1    3    3    0    0  0.92665623592E+01  0.13660273634E+02  0.32913634335E+02  0.36820912249E+02  0.00000000000E+00 0.  1.
         11    1    4    4    0    0 -0.33619691174E+01  0.37882179579E+01 -0.36198057187E+01  0.62254658737E+01  0.51100000000E-03 0. -1.
        -11    1    4    4    0    0  0.13315557526E+02 -0.43807460254E+01 -0.60377799224E+01  0.15262692902E+02  0.51100000000E-03 0.  1.
         12    1    4    4    0    0 -0.19220150767E+02 -0.13067745567E+02 -0.23256048694E+02  0.32878928976E+02  0.00000000000E+00 0. -1.
</event>
<event>
 8    1  0.1254059E-006  0.9118800E+02  0.7816164E-02  0.1184000E+00
        -11   -1    0    0    0    0  0.00000000000E+00  0.00000000000E+00  0.45593999997E+02  0.45594000000E+02  0.51100000000E-03 0.  1.
         11   -1    0    0    0    0 -0.00000000000E+00 -0.00000000000E+00 -0.45593999997E+02  0.45594000000E+02  0.51100000000E-03 0. -1.
         23    2    1    2    0    0  0.00000000000E+00  0.00000000000E+00  0.17763568394E-14  0.91188000000E+02  0.91188000000E+02 0.  0.
    9900012    2    3    3    0    0  0.32370245688E+02  0.12279709865E+02  0.12536152049E+02  0.54367093053E+02  0.40000020232E+02 0.  0.
         12    1    3    3    0    0 -0.32370245688E+02 -0.12279709865E+02 -0.12536152049E+02  0.36820906947E+02  0.00000000000E+00 0. -1.
         11    1    4    4    0    0 -0.68579886673E+00  0.14041471847E+02  0.16068639411E+01  0.14149744298E+02  0.51100000000E-03 0. -1.
        -11    1    4    4    0    0  0.72414330305E+00 -0.25054817151E+01  0.72058023918E+01  0.76632506496E+01  0.51100000000E-03 0.  1.
         12    1    4    4    0    0  0.32331901251E+02  0.74371973301E+00  0.37234857157E+01  0.32554098105E+02  0.00000000000E+00 0. -1.
</event>
<event>
 8    1  0.1254059E-006  0.9118800E+02  0.7816164E-02  0.1184000E+00
        -11   -1    0    0    0    0  0.00000000000E+00  0.00000000000E+00  0.45593999997E+02  0.45594000000E+02  0.51100000000E-03 0. -1.
         11   -1    0    0    0    0 -0.00000000000E+00 -0.00000000000E+00 -0.45593999997E+02  0.45594000000E+02  0.51100000000E-03 0.  1.
         23    2    1    2    0    0 -0.35527136788E-14  0.00000000000E+00  0.00000000000E+00  0.91188000000E+02  0.91188000000E+02 0.  0.
    9900012    2    3    3    0    0  0.21181412847E+02  0.27609348368E+02 -0.12035410690E+02  0.54367089121E+02  0.40000011268E+02 0.  0.
         12    1    3    3    0    0 -0.21181412847E+02 -0.27609348368E+02  0.12035410690E+02  0.36820910879E+02  0.00000000000E+00 0. -1.
         11    1    4    4    0    0 -0.94272965992E+01  0.38887552363E+01 -0.12161276965E+01  0.10270117102E+02  0.51100000000E-03 0. -1.
        -11    1    4    4    0    0  0.21198377587E+02  0.23711846317E+02 -0.13125967341E+02  0.34408049741E+02  0.51100000000E-03 0.  1.
         12    1    4    4    0    0  0.94103318598E+01  0.87468140957E-02  0.23066843472E+01  0.96889222773E+01  0.00000000000E+00 0. -1.
</event>
<event>
 8    1  0.1254059E-006  0.9118800E+02  0.7816164E-02  0.1184000E+00
        -11   -1    0    0    0    0  0.00000000000E+00  0.00000000000E+00  0.45593999997E+02  0.45594000000E+02  0.51100000000E-03 0.  1.
         11   -1    0    0    0    0 -0.00000000000E+00 -0.00000000000E+00 -0.45593999997E+02  0.45594000000E+02  0.51100000000E-03 0. -1.
         23    2    1    2    0    0 -0.71054273576E-14  0.00000000000E+00  0.00000000000E+00  0.91188000000E+02  0.91188000000E+02 0.  0.
    9900012    2    3    3    0    0 -0.35217047180E+02  0.99336909019E+01 -0.41070711289E+01  0.54366991591E+02  0.39999788929E+02 0.  0.
         12    1    3    3    0    0  0.35217047180E+02 -0.99336909019E+01  0.41070711289E+01  0.36821008409E+02  0.00000000000E+00 0. -1.
         11    1    4    4    0    0 -0.16079806224E+02 -0.60711837500E+01 -0.15571045771E+02  0.23192173399E+02  0.51100000000E-03 0. -1.
        -11    1    4    4    0    0 -0.14713743025E+01  0.10313467260E+02  0.36831281448E+01  0.11049795584E+02  0.51100000000E-03 0.  1.
        -12    1    4    4    0    0 -0.17665866654E+02  0.56914073916E+01  0.77808464971E+01  0.20125022607E+02  0.00000000000E+00 0.  1.
</event>
<event>
 8    1  0.1254059E-006  0.9118800E+02  0.7816164E-02  0.1184000E+00
        -11   -1    0    0    0    0  0.00000000000E+00  0.00000000000E+00  0.45593999997E+02  0.45594000000E+02  0.51100000000E-03 0.  1.
         11   -1    0    0    0    0 -0.00000000000E+00 -0.00000000000E+00 -0.45593999997E+02  0.45594000000E+02  0.51100000000E-03 0. -1.
         23    2    1    2    0    0 -0.88817841970E-15  0.00000000000E+00  0.00000000000E+00  0.91188000000E+02  0.91188000000E+02 0.  0.
    9900012    2    3    3    0    0 -0.77716084105E+01  0.35876602421E+02  0.28727914164E+01  0.54367062626E+02  0.39999950868E+02 0.  0.
        -12    1    3    3    0    0  0.77716084105E+01 -0.35876602421E+02 -0.28727914164E+01  0.36820937374E+02  0.00000000000E+00 0.  1.
         11    1    4    4    0    0  0.10324804378E+02  0.33876290534E+02  0.36181899204E+01  0.35599100331E+02  0.51100000000E-03 0. -1.
        -11    1    4    4    0    0 -0.11996446718E+02 -0.76572832565E+00 -0.10237747460E+01  0.12064376848E+02  0.51100000000E-03 0.  1.
         12    1    4    4    0    0 -0.60999660704E+01  0.27660402127E+01  0.27837624193E+00  0.67035854474E+01  0.00000000000E+00 0. -1.
</event>
<event>
 8    1  0.1254059E-006  0.9118800E+02  0.7816164E-02  0.1184000E+00
        -11   -1    0    0    0    0  0.00000000000E+00  0.00000000000E+00  0.45593999997E+02  0.45594000000E+02  0.51100000000E-03 0. -1.
         11   -1    0    0    0    0 -0.00000000000E+00 -0.00000000000E+00 -0.45593999997E+02  0.45594000000E+02  0.51100000000E-03 0.  1.
         23    2    1    2    0    0 -0.35527136788E-14  0.00000000000E+00  0.35527136788E-14  0.91188000000E+02  0.91188000000E+02 0.  0.
    9900012    2    3    3    0    0  0.26245438552E+02 -0.13215594501E+02 -0.22187955226E+02  0.54367077416E+02  0.39999984586E+02 0.  0.
         12    1    3    3    0    0 -0.26245438552E+02  0.13215594501E+02  0.22187955226E+02  0.36820922584E+02  0.00000000000E+00 0. -1.
         11    1    4    4    0    0  0.44866733065E+01  0.16923966462E+01  0.60354794765E+01  0.77085314126E+01  0.51100000000E-03 0. -1.
        -11    1    4    4    0    0 -0.11016126412E+01  0.57926904532E+01 -0.73301817410E+01  0.94074639365E+01  0.51100000000E-03 0.  1.
         12    1    4    4    0    0  0.22860377887E+02 -0.20700681600E+02 -0.20893252962E+02  0.37251082067E+02  0.00000000000E+00 0. -1.
</event>
<event>
 8    1  0.1254059E-006  0.9118800E+02  0.7816164E-02  0.1184000E+00
        -11   -1    0    0    0    0  0.00000000000E+00  0.00000000000E+00  0.45593999997E+02  0.45594000000E+02  0.51100000000E-03 0. -1.
         11   -1    0    0    0    0 -0.00000000000E+00 -0.00000000000E+00 -0.45593999997E+02  0.45594000000E+02  0.51100000000E-03 0.  1.
         23    2    1    2    0    0  0.71054273576E-14  0.00000000000E+00  0.00000000000E+00  0.91188000000E+02  0.91188000000E+02 0.  0.
    9900012    2    3    3    0    0 -0.32720288287E+02  0.43510105096E+01 -0.16316589453E+02  0.54367086792E+02  0.40000005960E+02 0.  0.
        -12    1    3    3    0    0  0.32720288287E+02 -0.43510105096E+01  0.16316589453E+02  0.36820913208E+02  0.00000000000E+00 0.  1.
         11    1    4    4    0    0  0.19816331236E+00 -0.17421104282E+01  0.36873944951E+01  0.40830253325E+01  0.51100000000E-03 0. -1.
        -11    1    4    4    0    0 -0.34058810920E-01  0.51128731787E+01 -0.16411461658E+02  0.17189494063E+02  0.51100000000E-03 0.  1.
         12    1    4    4    0    0 -0.32884392789E+02  0.98024775913E+00 -0.35925222906E+01  0.33094567396E+02  0.00000000000E+00 0. -1.
</event>
<event>
 8    1  0.1254059E-006  0.9118800E+02  0.7816164E-02  0.1184000E+00
        -11   -1    0    0    0    0  0.00000000000E+00  0.00000000000E+00  0.45593999997E+02  0.45594000000E+02  0.51100000000E-03 0.  1.
         11   -1    0    0    0    0 -0.00000000000E+00 -0.00000000000E+00 -0.45593999997E+02  0.45594000000E+02  0.51100000000E-03 0. -1.
         23    2    1    2    0    0  0.35527136788E-14 -0.35527136788E-14  0.35527136788E-14  0.91188000000E+02  0.91188000000E+02 0.  0.
    9900012    2    3    3    0    0  0.19160104730E+02 -0.18766322938E+02  0.25228916914E+02  0.54367044845E+02  0.39999910332E+02 0.  0.
         12    1    3    3    0    0 -0.19160104730E+02  0.18766322938E+02 -0.25228916914E+02  0.36820955155E+02  0.00000000000E+00 0. -1.
         11    1    4    4    0    0 -0.19520470874E+01  0.16844594108E+01  0.23418137731E+01  0.34830996752E+01  0.51100000000E-03 0. -1.
        -11    1    4    4    0    0  0.22436499781E+01  0.95803622308E+01  0.66575534797E+01  0.11880249336E+02  0.51100000000E-03 0.  1.
         12    1    4    4    0    0  0.18868501839E+02 -0.30031144580E+02  0.16229549661E+02  0.39003695833E+02  0.00000000000E+00 0. -1.
</event>
<event>
 8    1  0.1254059E-006  0.9118800E+02  0.7816164E-02  0.1184000E+00
        -11   -1    0    0    0    0  0.00000000000E+00  0.00000000000E+00  0.45593999997E+02  0.45594000000E+02  0.51100000000E-03 0.  1.
         11   -1    0    0    0    0 -0.00000000000E+00 -0.00000000000E+00 -0.45593999997E+02  0.45594000000E+02  0.51100000000E-03 0. -1.
         23    2    1    2    0    0 -0.44408920985E-15 -0.71054273576E-14  0.17763568394E-14  0.91188000000E+02  0.91188000000E+02 0.  0.
    9900012    2    3    3    0    0  0.21380020670E+01 -0.34626263353E+02 -0.12338157553E+02  0.54367091559E+02  0.40000016827E+02 0.  0.
        -12    1    3    3    0    0 -0.21380020670E+01  0.34626263353E+02  0.12338157553E+02  0.36820908441E+02  0.00000000000E+00 0.  1.
         11    1    4    4    0    0 -0.32833476059E+00  0.83419930529E+00 -0.13535493916E+01  0.16235111372E+01  0.51100000000E-03 0. -1.
        -11    1    4    4    0    0 -0.78775365989E+01  0.84363152218E-01 -0.13509006559E+02  0.15638285023E+02  0.51100000000E-03 0.  1.
         12    1    4    4    0    0  0.10343873427E+02 -0.35544825810E+02  0.25243983975E+01  0.37105295399E+02  0.00000000000E+00 0. -1.
</event>
<event>
 8    1  0.1254059E-006  0.9118800E+02  0.7816164E-02  0.1184000E+00
        -11   -1    0    0    0    0  0.00000000000E+00  0.00000000000E+00  0.45593999997E+02  0.45594000000E+02  0.51100000000E-03 0. -1.
         11   -1    0    0    0    0 -0.00000000000E+00 -0.00000000000E+00 -0.45593999997E+02  0.45594000000E+02  0.51100000000E-03 0.  1.
         23    2    1    2    0    0  0.88817841970E-15  0.17763568394E-14  0.71054273576E-14  0.91188000000E+02  0.91188000000E+02 0.  0.
    9900012    2    3    3    0    0 -0.75951799589E+01  0.12585291059E+02 -0.33759502790E+02  0.54367077439E+02  0.39999984637E+02 0.  0.
         12    1    3    3    0    0  0.75951799589E+01 -0.12585291059E+02  0.33759502790E+02  0.36820922561E+02  0.00000000000E+00 0. -1.
         11    1    4    4    0    0  0.86975747820E-01 -0.22591748362E+01  0.49142060657E+01  0.54093305721E+01  0.51100000000E-03 0. -1.
        -11    1    4    4    0    0  0.18374506096E+01 -0.34870503316E+01  0.11413528714E+01  0.41034657786E+01  0.51100000000E-03 0.  1.
        -12    1    4    4    0    0 -0.95196063163E+01  0.18331516227E+02 -0.39815061727E+02  0.44854281088E+02  0.00000000000E+00 0.  1.
</event>
<event>
 8    1  0.1254059E-006  0.9118800E+02  0.7816164E-02  0.1184000E+00
        -11   -1    0    0    0    0  0.00000000000E+00  0.00000000000E+00  0.45593999997E+02  0.45594000000E+02  0.51100000000E-03 0. -1.
         11   -1    0    0    0    0 -0.00000000000E+00 -0.00000000000E+00 -0.45593999997E+02  0.45594000000E+02  0.51100000000E-03 0.  1.
         23    2    1    2    0    0  0.00000000000E+00  0.00000000000E+00  0.00000000000E+00  0.91188000000E+02  0.91188000000E+02 0.  0.
    9900012    2    3    3    0    0  0.21462813962E+02 -0.83980644577E+01 -0.28715849706E+02  0.54367083470E+02  0.39999998386E+02 0.  0.
        -12    1    3    3    0    0 -0.21462813962E+02  0.83980644577E+01  0.28715849706E+02  0.36820916530E+02  0.00000000000E+00 0.  1.
         11    1    4    4    0    0  0.62154705136E+01 -0.53581118567E+01  0.28337187063E+01  0.86816702507E+01  0.51100000000E-03 0.  1.
        -11    1    4    4    0    0  0.21234298479E+02 -0.89902002599E+01 -0.16242541753E+02  0.28205306158E+02  0.51100000000E-03 0. -1.
        -12    1    4    4    0    0 -0.59869550305E+01  0.59502476589E+01 -0.15307026659E+02  0.17480107061E+02  0.00000000000E+00 0.  1.
</event>
<event>
 8    1  0.1254059E-006  0.9118800E+02  0.7816164E-02  0.1184000E+00
        -11   -1    0    0    0    0  0.00000000000E+00  0.00000000000E+00  0.45593999997E+02  0.45594000000E+02  0.51100000000E-03 0.  1.
         11   -1    0    0    0    0 -0.00000000000E+00 -0.00000000000E+00 -0.45593999997E+02  0.45594000000E+02  0.51100000000E-03 0. -1.
         23    2    1    2    0    0  0.00000000000E+00  0.71054273576E-14  0.88817841970E-15  0.91188000000E+02  0.91188000000E+02 0.  0.
    9900012    2    3    3    0    0  0.10374808572E+02 -0.34560902026E+02  0.73271661403E+01  0.54367082502E+02  0.39999996179E+02 0.  0.
         12    1    3    3    0    0 -0.10374808572E+02  0.34560902026E+02 -0.73271661403E+01  0.36820917498E+02  0.00000000000E+00 0. -1.
         11    1    4    4    0    0 -0.84653010589E+01 -0.10805421067E+02 -0.10939667713E+02  0.17552628760E+02  0.51100000000E-03 0. -1.
        -11    1    4    4    0    0  0.85641832497E+01 -0.18284637092E+02  0.99655325137E+01  0.22516328006E+02  0.51100000000E-03 0.  1.
         12    1    4    4    0    0  0.10275926381E+02 -0.54708438669E+01  0.83013013399E+01  0.14298125735E+02  0.00000000000E+00 0. -1.
</event>
<event>
 8    1  0.1254059E-006  0.9118800E+02  0.7816164E-02  0.1184000E+00
        -11   -1    0    0    0    0  0.00000000000E+00  0.00000000000E+00  0.45593999997E+02  0.45594000000E+02  0.51100000000E-03 0. -1.
         11   -1    0    0    0    0 -0.00000000000E+00 -0.00000000000E+00 -0.45593999997E+02  0.45594000000E+02  0.51100000000E-03 0.  1.
         23    2    1    2    0    0  0.17763568394E-14 -0.44408920985E-15  0.00000000000E+00  0.91188000000E+02  0.91188000000E+02 0.  0.
    9900012    2    3    3    0    0  0.11140237182E+02 -0.35221796640E+01  0.34918031709E+02  0.54367087837E+02  0.40000008342E+02 0.  0.
        -12    1    3    3    0    0 -0.11140237182E+02  0.35221796640E+01 -0.34918031709E+02  0.36820912163E+02  0.00000000000E+00 0.  1.
         11    1    4    4    0    0  0.12739764457E+02  0.28201753272E+01  0.16185699667E+02  0.20790186658E+02  0.51100000000E-03 0. -1.
        -11    1    4    4    0    0  0.96592009141E+01  0.16897223746E+01 -0.58018028542E+00  0.98230307658E+01  0.51100000000E-03 0.  1.
         12    1    4    4    0    0 -0.11258728188E+02 -0.80320773658E+01  0.19312512327E+02  0.23753870413E+02  0.00000000000E+00 0. -1.
</event>
<event>
 8    1  0.1254059E-006  0.9118800E+02  0.7816164E-02  0.1184000E+00
        -11   -1    0    0    0    0  0.00000000000E+00  0.00000000000E+00  0.45593999997E+02  0.45594000000E+02  0.51100000000E-03 0.  1.
         11   -1    0    0    0    0 -0.00000000000E+00 -0.00000000000E+00 -0.45593999997E+02  0.45594000000E+02  0.51100000000E-03 0. -1.
         23    2    1    2    0    0  0.35527136788E-14 -0.35527136788E-14  0.00000000000E+00  0.91188000000E+02  0.91188000000E+02 0.  0.
    9900012    2    3    3    0    0 -0.18095616739E+02  0.22232593620E+02 -0.23109291861E+02  0.54367096500E+02  0.40000028092E+02 0.  0.
        -12    1    3    3    0    0  0.18095616739E+02 -0.22232593620E+02  0.23109291861E+02  0.36820903500E+02  0.00000000000E+00 0.  1.
         11    1    4    4    0    0 -0.31662808871E+01 -0.75589372705E+01 -0.37001239536E+01  0.89918732669E+01  0.51100000000E-03 0. -1.
        -11    1    4    4    0    0 -0.59137405147E+00  0.97460358831E+01  0.47547143014E+01  0.10860121871E+02  0.51100000000E-03 0.  1.
         12    1    4    4    0    0 -0.14337961800E+02  0.20045495008E+02 -0.24163882209E+02  0.34515101362E+02  0.00000000000E+00 0. -1.
</event>
<event>
 8    1  0.1254059E-006  0.9118800E+02  0.7816164E-02  0.1184000E+00
        -11   -1    0    0    0    0  0.00000000000E+00  0.00000000000E+00  0.45593999997E+02  0.45594000000E+02  0.51100000000E-03 0.  1.
         11   -1    0    0    0    0 -0.00000000000E+00 -0.00000000000E+00 -0.45593999997E+02  0.45594000000E+02  0.51100000000E-03 0. -1.
         23    2    1    2    0    0  0.00000000000E+00 -0.17763568394E-14 -0.35527136788E-14  0.91188000000E+02  0.91188000000E+02 0.  0.
    9900012    2    3    3    0    0 -0.17966845908E+02 -0.70488719513E+01 -0.31357412261E+02  0.54367062323E+02  0.39999950179E+02 0.  0.
        -12    1    3    3    0    0  0.17966845908E+02  0.70488719513E+01  0.31357412261E+02  0.36820937677E+02  0.00000000000E+00 0.  1.
         11    1    4    4    0    0 -0.17007057119E+02  0.48341719541E+01 -0.16816609929E+02  0.24400974983E+02  0.51100000000E-03 0. -1.
        -11    1    4    4    0    0 -0.23428564526E+01 -0.16115141054E+02 -0.18040284957E+02  0.24303058020E+02  0.51100000000E-03 0.  1.
        -12    1    4    4    0    0  0.13830676630E+01  0.42320971486E+01  0.34994826256E+01  0.56630293203E+01  0.00000000000E+00 0.  1.
</event>
<event>
 8    1  0.1254059E-006  0.9118800E+02  0.7816164E-02  0.1184000E+00
        -11   -1    0    0    0    0  0.00000000000E+00  0.00000000000E+00  0.45593999997E+02  0.45594000000E+02  0.51100000000E-03 0. -1.
         11   -1    0    0    0    0 -0.00000000000E+00 -0.00000000000E+00 -0.45593999997E+02  0.45594000000E+02  0.51100000000E-03 0.  1.
         23    2    1    2    0    0  0.17763568394E-14  0.00000000000E+00 -0.17763568394E-14  0.91188000000E+02  0.91188000000E+02 0.  0.
    9900012    2    3    3    0    0 -0.13388344217E+02 -0.31459797396E+02  0.13667959359E+02  0.54367085751E+02  0.40000003587E+02 0.  0.
        -12    1    3    3    0    0  0.13388344217E+02  0.31459797396E+02 -0.13667959359E+02  0.36820914249E+02  0.00000000000E+00 0.  1.
         11    1    4    4    0    0 -0.17992233112E+01  0.30519318961E+01  0.17303314252E+01  0.39427832712E+01  0.51100000000E-03 0. -1.
        -11    1    4    4    0    0 -0.47713518437E+01 -0.86376024533E+00 -0.89918703471E+01  0.10215948942E+02  0.51100000000E-03 0.  1.
         12    1    4    4    0    0 -0.68177690616E+01 -0.33647969047E+02  0.20929498281E+02  0.40208353538E+02  0.00000000000E+00 0. -1.
</event>
<event>
 8    1  0.1254059E-006  0.9118800E+02  0.7816164E-02  0.1184000E+00
        -11   -1    0    0    0    0  0.00000000000E+00  0.00000000000E+00  0.45593999997E+02  0.45594000000E+02  0.51100000000E-03 0.  1.
         11   -1    0    0    0    0 -0.00000000000E+00 -0.00000000000E+00 -0.45593999997E+02  0.45594000000E+02  0.51100000000E-03 0. -1.
         23    2    1    2    0    0  0.88817841970E-15  0.00000000000E+00  0.00000000000E+00  0.91188000000E+02  0.91188000000E+02 0.  0.
    9900012    2    3    3    0    0 -0.31082368668E+01  0.35555073361E+02 -0.90522193805E+01  0.54367257832E+02  0.40000395877E+02 0.  0.
        -12    1    3    3    0    0  0.31082368668E+01 -0.35555073361E+02  0.90522193805E+01  0.36820742168E+02  0.00000000000E+00 0.  1.
         11    1    4    4    0    0 -0.11213177834E+02  0.44234571894E+01  0.29348441694E+01  0.12406274268E+02  0.51100000000E-03 0. -1.
        -11    1    4    4    0    0  0.18616641222E+01 -0.20189795391E+00 -0.97556033855E+01  0.99336978897E+01  0.51100000000E-03 0.  1.
         12    1    4    4    0    0  0.62432768454E+01  0.31333514125E+02 -0.22314601645E+01  0.32027285674E+02  0.00000000000E+00 0. -1.
</event>
<event>
 8    1  0.1254059E-006  0.9118800E+02  0.7816164E-02  0.1184000E+00
        -11   -1    0    0    0    0  0.00000000000E+00  0.00000000000E+00  0.45593999997E+02  0.45594000000E+02  0.51100000000E-03 0. -1.
         11   -1    0    0    0    0 -0.00000000000E+00 -0.00000000000E+00 -0.45593999997E+02  0.45594000000E+02  0.51100000000E-03 0.  1.
         23    2    1    2    0    0  0.00000000000E+00  0.00000000000E+00  0.00000000000E+00  0.91188000000E+02  0.91188000000E+02 0.  0.
    9900012    2    3    3    0    0 -0.24257901377E+02 -0.26689358062E+02 -0.74170637133E+01  0.54367075961E+02  0.39999981269E+02 0.  0.
         12    1    3    3    0    0  0.24257901377E+02  0.26689358062E+02  0.74170637133E+01  0.36820924039E+02  0.00000000000E+00 0. -1.
         11    1    4    4    0    0 -0.85863325077E+01 -0.25952008287E+02 -0.82449644222E+01  0.28551904991E+02  0.51100000000E-03 0. -1.
        -11    1    4    4    0    0  0.31464351384E+01 -0.16510850893E+01 -0.49640948301E+01  0.61047828622E+01  0.51100000000E-03 0.  1.
         12    1    4    4    0    0 -0.18818004007E+02  0.91373531407E+00  0.57919955390E+01  0.19710388108E+02  0.00000000000E+00 0. -1.
</event>
<event>
 8    1  0.1254059E-006  0.9118800E+02  0.7816164E-02  0.1184000E+00
        -11   -1    0    0    0    0  0.00000000000E+00  0.00000000000E+00  0.45593999997E+02  0.45594000000E+02  0.51100000000E-03 0.  1.
         11   -1    0    0    0    0 -0.00000000000E+00 -0.00000000000E+00 -0.45593999997E+02  0.45594000000E+02  0.51100000000E-03 0. -1.
         23    2    1    2    0    0  0.00000000000E+00  0.00000000000E+00  0.22204460493E-15  0.91188000000E+02  0.91188000000E+02 0.  0.
    9900012    2    3    3    0    0 -0.36535023661E+02  0.44867331179E+01 -0.91716676196E+00  0.54367083080E+02  0.39999997497E+02 0.  0.
         12    1    3    3    0    0  0.36535023661E+02 -0.44867331179E+01  0.91716676196E+00  0.36820916920E+02  0.00000000000E+00 0. -1.
         11    1    4    4    0    0  0.38519030616E+01  0.49623535720E+01 -0.37220019276E+01  0.73017401200E+01  0.51100000000E-03 0. -1.
        -11    1    4    4    0    0 -0.26785214279E+02 -0.56068404566E+01 -0.84937101061E+01  0.28653577010E+02  0.51100000000E-03 0.  1.
         12    1    4    4    0    0 -0.13601712444E+02  0.51312200025E+01  0.11298545272E+02  0.18411765949E+02  0.00000000000E+00 0. -1.
</event>
<event>
 8    1  0.1254059E-006  0.9118800E+02  0.7816164E-02  0.1184000E+00
        -11   -1    0    0    0    0  0.00000000000E+00  0.00000000000E+00  0.45593999997E+02  0.45594000000E+02  0.51100000000E-03 0.  1.
         11   -1    0    0    0    0 -0.00000000000E+00 -0.00000000000E+00 -0.45593999997E+02  0.45594000000E+02  0.51100000000E-03 0. -1.
         23    2    1    2    0    0 -0.11102230246E-15  0.71054273576E-14  0.35527136788E-14  0.91188000000E+02  0.91188000000E+02 0.  0.
    9900012    2    3    3    0    0 -0.46397419598E+00  0.29089880884E+02  0.22568715687E+02  0.54367036275E+02  0.39999890795E+02 0.  0.
         12    1    3    3    0    0  0.46397419598E+00 -0.29089880884E+02 -0.22568715687E+02  0.36820963725E+02  0.00000000000E+00 0. -1.
         11    1    4    4    0    0 -0.53691916400E+01 -0.57521366914E+01 -0.14594965396E+01  0.80028386085E+01  0.51100000000E-03 0. -1.
        -11    1    4    4    0    0 -0.61767389892E+01  0.21119386390E+02  0.13836197939E+02  0.25992709741E+02  0.51100000000E-03 0.  1.
         12    1    4    4    0    0  0.11081956433E+02  0.13722631186E+02  0.10192014288E+02  0.20371487925E+02  0.00000000000E+00 0. -1.
</event>
<event>
 8    1  0.1254059E-006  0.9118800E+02  0.7816164E-02  0.1184000E+00
        -11   -1    0    0    0    0  0.00000000000E+00  0.00000000000E+00  0.45593999997E+02  0.45594000000E+02  0.51100000000E-03 0. -1.
         11   -1    0    0    0    0 -0.00000000000E+00 -0.00000000000E+00 -0.45593999997E+02  0.45594000000E+02  0.51100000000E-03 0.  1.
         23    2    1    2    0    0  0.00000000000E+00  0.00000000000E+00  0.00000000000E+00  0.91188000000E+02  0.91188000000E+02 0.  0.
    9900012    2    3    3    0    0  0.18302449010E+02 -0.16132047425E+02  0.27578209934E+02  0.54367078542E+02  0.39999987152E+02 0.  0.
        -12    1    3    3    0    0 -0.18302449010E+02  0.16132047425E+02 -0.27578209934E+02  0.36820921458E+02  0.00000000000E+00 0.  1.
         11    1    4    4    0    0 -0.98919366773E+00 -0.95962196165E+01 -0.17645110558E+01  0.98071114283E+01  0.51100000000E-03 0. -1.
        -11    1    4    4    0    0  0.15833865770E+02 -0.66609546372E+01  0.23400688324E+01  0.17336537841E+02  0.51100000000E-03 0.  1.
         12    1    4    4    0    0  0.34577769074E+01  0.12512682878E+00  0.27002652157E+02  0.27223429273E+02  0.00000000000E+00 0. -1.
</event>
<event>
 8    1  0.1254059E-006  0.9118800E+02  0.7816164E-02  0.1184000E+00
        -11   -1    0    0    0    0  0.00000000000E+00  0.00000000000E+00  0.45593999997E+02  0.45594000000E+02  0.51100000000E-03 0.  1.
         11   -1    0    0    0    0 -0.00000000000E+00 -0.00000000000E+00 -0.45593999997E+02  0.45594000000E+02  0.51100000000E-03 0. -1.
         23    2    1    2    0    0  0.00000000000E+00 -0.71054273576E-14 -0.22204460493E-15  0.91188000000E+02  0.91188000000E+02 0.  0.
    9900012    2    3    3    0    0 -0.26086068550E+02  0.25961819809E+02  0.11316828644E+01  0.54367085206E+02  0.40000002345E+02 0.  0.
         12    1    3    3    0    0  0.26086068550E+02 -0.25961819809E+02 -0.11316828644E+01  0.36820914794E+02  0.00000000000E+00 0. -1.
         11    1    4    4    0    0 -0.73190911352E+01 -0.38195918014E+01 -0.10072848880E+02  0.13023849715E+02  0.51100000000E-03 0. -1.
        -11    1    4    4    0    0  0.79349461616E+00  0.27561609685E+01  0.71903959433E+01  0.77413080983E+01  0.51100000000E-03 0.  1.
        -12    1    4    4    0    0 -0.19560472031E+02  0.27025250641E+02  0.40141358012E+01  0.33601927393E+02  0.00000000000E+00 0.  1.
</event>
<event>
 8    1  0.1254059E-006  0.9118800E+02  0.7816164E-02  0.1184000E+00
        -11   -1    0    0    0    0  0.00000000000E+00  0.00000000000E+00  0.45593999997E+02  0.45594000000E+02  0.51100000000E-03 0. -1.
         11   -1    0    0    0    0 -0.00000000000E+00 -0.00000000000E+00 -0.45593999997E+02  0.45594000000E+02  0.51100000000E-03 0.  1.
         23    2    1    2    0    0  0.00000000000E+00  0.00000000000E+00  0.88817841970E-15  0.91188000000E+02  0.91188000000E+02 0.  0.
    9900012    2    3    3    0    0 -0.24820439936E+01 -0.36286774083E+02 -0.57348580316E+01  0.54367094085E+02  0.40000022586E+02 0.  0.
         12    1    3    3    0    0  0.24820439936E+01  0.36286774083E+02  0.57348580316E+01  0.36820905915E+02  0.00000000000E+00 0. -1.
         11    1    4    4    0    0 -0.82310755240E+01 -0.26002765009E+02 -0.15322343319E+02  0.31283679411E+02  0.51100000000E-03 0. -1.
        -11    1    4    4    0    0 -0.53217551690E+01 -0.14722644907E+01 -0.73279712463E+00  0.55700657713E+01  0.51100000000E-03 0.  1.
         12    1    4    4    0    0  0.11070786699E+02 -0.88117445830E+01  0.10320282412E+02  0.17513348903E+02  0.00000000000E+00 0. -1.
</event>
<event>
 8    1  0.1254059E-006  0.9118800E+02  0.7816164E-02  0.1184000E+00
        -11   -1    0    0    0    0  0.00000000000E+00  0.00000000000E+00  0.45593999997E+02  0.45594000000E+02  0.51100000000E-03 0.  1.
         11   -1    0    0    0    0 -0.00000000000E+00 -0.00000000000E+00 -0.45593999997E+02  0.45594000000E+02  0.51100000000E-03 0. -1.
         23    2    1    2    0    0  0.00000000000E+00 -0.88817841970E-15  0.00000000000E+00  0.91188000000E+02  0.91188000000E+02 0.  0.
    9900012    2    3    3    0    0 -0.97072783883E+01  0.39780023925E+01  0.35294818855E+02  0.54367082103E+02  0.39999995270E+02 0.  0.
         12    1    3    3    0    0  0.97072783883E+01 -0.39780023925E+01 -0.35294818855E+02  0.36820917897E+02  0.00000000000E+00 0. -1.
         11    1    4    4    0    0 -0.46678493092E+01 -0.16166346126E+02  0.64841627945E+01  0.18032857001E+02  0.51100000000E-03 0. -1.
        -11    1    4    4    0    0 -0.14158467776E+01  0.16226282975E+02  0.24747942704E+02  0.29626973345E+02  0.51100000000E-03 0.  1.
         12    1    4    4    0    0 -0.36235823015E+01  0.39180655432E+01  0.40627133571E+01  0.67072517560E+01  0.00000000000E+00 0. -1.
</event>
<event>
 8    1  0.1254059E-006  0.9118800E+02  0.7816164E-02  0.1184000E+00
        -11   -1    0    0    0    0  0.00000000000E+00  0.00000000000E+00  0.45593999997E+02  0.45594000000E+02  0.51100000000E-03 0. -1.
         11   -1    0    0    0    0 -0.00000000000E+00 -0.00000000000E+00 -0.45593999997E+02  0.45594000000E+02  0.51100000000E-03 0.  1.
         23    2    1    2    0    0  0.00000000000E+00  0.00000000000E+00  0.00000000000E+00  0.91188000000E+02  0.91188000000E+02 0.  0.
    9900012    2    3    3    0    0  0.19477526593E+02  0.11695219598E+02 -0.28976351925E+02  0.54367066083E+02  0.39999958750E+02 0.  0.
         12    1    3    3    0    0 -0.19477526593E+02 -0.11695219598E+02  0.28976351925E+02  0.36820933917E+02  0.00000000000E+00 0. -1.
         11    1    4    4    0    0 -0.56258908599E+01 -0.10174886436E+01  0.11865397525E+01  0.58389903196E+01  0.51100000000E-03 0. -1.
        -11    1    4    4    0    0  0.16914444482E+02 -0.56573183606E+01 -0.12738320508E+02  0.21917310346E+02  0.51100000000E-03 0.  1.
        -12    1    4    4    0    0  0.81889729708E+01  0.18370026602E+02 -0.17424571170E+02  0.26610765418E+02  0.00000000000E+00 0.  1.
</event>
<event>
 8    1  0.1254059E-006  0.9118800E+02  0.7816164E-02  0.1184000E+00
        -11   -1    0    0    0    0  0.00000000000E+00  0.00000000000E+00  0.45593999997E+02  0.45594000000E+02  0.51100000000E-03 0.  1.
         11   -1    0    0    0    0 -0.00000000000E+00 -0.00000000000E+00 -0.45593999997E+02  0.45594000000E+02  0.51100000000E-03 0. -1.
         23    2    1    2    0    0  0.00000000000E+00 -0.44408920985E-15  0.00000000000E+00  0.91188000000E+02  0.91188000000E+02 0.  0.
    9900012    2    3    3    0    0 -0.32080058421E+02  0.10423285162E+01  0.18043371712E+02  0.54367083936E+02  0.39999999450E+02 0.  0.
         12    1    3    3    0    0  0.32080058421E+02 -0.10423285162E+01 -0.18043371712E+02  0.36820916064E+02  0.00000000000E+00 0. -1.
         11    1    4    4    0    0  0.22516032185E+00  0.12029169750E+02  0.91016295296E+01  0.15086128807E+02  0.51100000000E-03 0. -1.
        -11    1    4    4    0    0 -0.72556385641E+01 -0.26790912534E+01  0.10269483896E+02  0.12856287204E+02  0.51100000000E-03 0.  1.
         12    1    4    4    0    0 -0.25049580179E+02 -0.83077499803E+01 -0.13277417139E+01  0.26424667925E+02  0.00000000000E+00 0. -1.
</event>
<event>
 8    1  0.1254059E-006  0.9118800E+02  0.7816164E-02  0.1184000E+00
        -11   -1    0    0    0    0  0.00000000000E+00  0.00000000000E+00  0.45593999997E+02  0.45594000000E+02  0.51100000000E-03 0. -1.
         11   -1    0    0    0    0 -0.00000000000E+00 -0.00000000000E+00 -0.45593999997E+02  0.45594000000E+02  0.51100000000E-03 0.  1.
         23    2    1    2    0    0 -0.17763568394E-14  0.35527136788E-14  0.00000000000E+00  0.91188000000E+02  0.91188000000E+02 0.  0.
    9900012    2    3    3    0    0 -0.65803235580E+01  0.20355732219E+02  0.29968681822E+02  0.54367103997E+02  0.40000045183E+02 0.  0.
        -12    1    3    3    0    0  0.65803235580E+01 -0.20355732219E+02 -0.29968681822E+02  0.36820896003E+02  0.00000000000E+00 0.  1.
         11    1    4    4    0    0 -0.10784184585E+02  0.29683170772E+02  0.25631390708E+02  0.40673793211E+02  0.51100000000E-03 0. -1.
        -11    1    4    4    0    0 -0.24000218579E+01 -0.27438103713E+01  0.15448542027E+01  0.39591886846E+01  0.51100000000E-03 0.  1.
         12    1    4    4    0    0  0.66038828853E+01 -0.65836281816E+01  0.27924369109E+01  0.97341221020E+01  0.00000000000E+00 0. -1.
</event>
<event>
 8    1  0.1254059E-006  0.9118800E+02  0.7816164E-02  0.1184000E+00
        -11   -1    0    0    0    0  0.00000000000E+00  0.00000000000E+00  0.45593999997E+02  0.45594000000E+02  0.51100000000E-03 0.  1.
         11   -1    0    0    0    0 -0.00000000000E+00 -0.00000000000E+00 -0.45593999997E+02  0.45594000000E+02  0.51100000000E-03 0. -1.
         23    2    1    2    0    0  0.17763568394E-14  0.00000000000E+00 -0.88817841970E-15  0.91188000000E+02  0.91188000000E+02 0.  0.
    9900012    2    3    3    0    0  0.91233531110E+01  0.35242464837E+02  0.55237577426E+01  0.54367098335E+02  0.40000032275E+02 0.  0.
        -12    1    3    3    0    0 -0.91233531110E+01 -0.35242464837E+02 -0.55237577426E+01  0.36820901665E+02  0.00000000000E+00 0.  1.
         11    1    4    4    0    0 -0.35745158071E+01  0.10574844383E+02 -0.70979269684E+01  0.13228192034E+02  0.51100000000E-03 0. -1.
        -11    1    4    4    0    0 -0.84104811038E+01  0.92278740614E+01  0.72588028133E+01  0.14442301431E+02  0.51100000000E-03 0.  1.
        -12    1    4    4    0    0  0.21108350022E+02  0.15439746393E+02  0.53628818977E+01  0.26696604870E+02  0.00000000000E+00 0.  1.
</event>
<event>
 8    1  0.1254059E-006  0.9118800E+02  0.7816164E-02  0.1184000E+00
        -11   -1    0    0    0    0  0.00000000000E+00  0.00000000000E+00  0.45593999997E+02  0.45594000000E+02  0.51100000000E-03 0.  1.
         11   -1    0    0    0    0 -0.00000000000E+00 -0.00000000000E+00 -0.45593999997E+02  0.45594000000E+02  0.51100000000E-03 0. -1.
         23    2    1    2    0    0  0.00000000000E+00  0.00000000000E+00 -0.88817841970E-15  0.91188000000E+02  0.91188000000E+02 0.  0.
    9900012    2    3    3    0    0  0.15332125953E+02 -0.32611669413E+02  0.75622542413E+01  0.54367044590E+02  0.39999909751E+02 0.  0.
         12    1    3    3    0    0 -0.15332125953E+02  0.32611669413E+02 -0.75622542413E+01  0.36820955410E+02  0.00000000000E+00 0. -1.
         11    1    4    4    0    0  0.91560817020E+01  0.31863736145E+01  0.10440407711E+02  0.14247418095E+02  0.51100000000E-03 0. -1.
        -11    1    4    4    0    0  0.49652712144E+01 -0.13301732734E+01 -0.22851348846E+01  0.56253996189E+01  0.51100000000E-03 0.  1.
        -12    1    4    4    0    0  0.12107730370E+01 -0.34467869754E+02 -0.59301858489E+00  0.34494226876E+02  0.00000000000E+00 0.  1.
</event>
<event>
 8    1  0.1254059E-006  0.9118800E+02  0.7816164E-02  0.1184000E+00
        -11   -1    0    0    0    0  0.00000000000E+00  0.00000000000E+00  0.45593999997E+02  0.45594000000E+02  0.51100000000E-03 0.  1.
         11   -1    0    0    0    0 -0.00000000000E+00 -0.00000000000E+00 -0.45593999997E+02  0.45594000000E+02  0.51100000000E-03 0. -1.
         23    2    1    2    0    0  0.35527136788E-14  0.71054273576E-14 -0.35527136788E-14  0.91188000000E+02  0.91188000000E+02 0.  0.
    9900012    2    3    3    0    0  0.16553471350E+02  0.19306393807E+02  0.26627538076E+02  0.54367081495E+02  0.39999993885E+02 0.  0.
         12    1    3    3    0    0 -0.16553471350E+02 -0.19306393807E+02 -0.26627538076E+02  0.36820918505E+02  0.00000000000E+00 0. -1.
         11    1    4    4    0    0 -0.75027485203E+01 -0.63088601470E+01  0.88982505799E+01  0.13239026224E+02  0.51100000000E-03 0. -1.
        -11    1    4    4    0    0 -0.12631416369E+01  0.26109901766E+01  0.14614445193E+01  0.32478634271E+01  0.51100000000E-03 0.  1.
         12    1    4    4    0    0  0.25319361507E+02  0.23004263778E+02  0.16267842976E+02  0.37880191844E+02  0.00000000000E+00 0. -1.
</event>
<event>
 8    1  0.1254059E-006  0.9118800E+02  0.7816164E-02  0.1184000E+00
        -11   -1    0    0    0    0  0.00000000000E+00  0.00000000000E+00  0.45593999997E+02  0.45594000000E+02  0.51100000000E-03 0.  1.
         11   -1    0    0    0    0 -0.00000000000E+00 -0.00000000000E+00 -0.45593999997E+02  0.45594000000E+02  0.51100000000E-03 0. -1.
         23    2    1    2    0    0  0.00000000000E+00  0.00000000000E+00  0.00000000000E+00  0.91188000000E+02  0.91188000000E+02 0.  0.
    9900012    2    3    3    0    0  0.19646197824E+02 -0.24639440214E+02  0.19044803744E+02  0.54367086749E+02  0.40000005861E+02 0.  0.
        -12    1    3    3    0    0 -0.19646197824E+02  0.24639440214E+02 -0.19044803744E+02  0.36820913251E+02  0.00000000000E+00 0.  1.
         11    1    4    4    0    0 -0.66503848699E+01 -0.72454061811E+01  0.26727357017E+01  0.10191518338E+02  0.51100000000E-03 0.  1.
        -11    1    4    4    0    0  0.15325775230E+02 -0.21246663798E+02  0.28657375350E+01  0.26353606221E+02  0.51100000000E-03 0. -1.
         12    1    4    4    0    0  0.10970807463E+02  0.38526297652E+01  0.13506330507E+02  0.17821962189E+02  0.00000000000E+00 0. -1.
</event>
<event>
 8    1  0.1254059E-006  0.9118800E+02  0.7816164E-02  0.1184000E+00
        -11   -1    0    0    0    0  0.00000000000E+00  0.00000000000E+00  0.45593999997E+02  0.45594000000E+02  0.51100000000E-03 0. -1.
         11   -1    0    0    0    0 -0.00000000000E+00 -0.00000000000E+00 -0.45593999997E+02  0.45594000000E+02  0.51100000000E-03 0.  1.
         23    2    1    2    0    0  0.00000000000E+00  0.00000000000E+00  0.00000000000E+00  0.91188000000E+02  0.91188000000E+02 0.  0.
    9900012    2    3    3    0    0 -0.28641111324E+02 -0.12673032607E+02 -0.19361319772E+02  0.54367085880E+02  0.40000003881E+02 0.  0.
         12    1    3    3    0    0  0.28641111324E+02  0.12673032607E+02  0.19361319772E+02  0.36820914120E+02  0.00000000000E+00 0. -1.
         11    1    4    4    0    0 -0.22697529858E+01  0.87983966070E+01  0.37230632368E+01  0.98196110715E+01  0.51100000000E-03 0. -1.
        -11    1    4    4    0    0 -0.23230664484E+02 -0.95805407067E+01 -0.19283178818E+02  0.31674777319E+02  0.51100000000E-03 0.  1.
        -12    1    4    4    0    0 -0.31406938540E+01 -0.11890888507E+02 -0.38012041902E+01  0.12872697490E+02  0.00000000000E+00 0.  1.
</event>
<event>
 8    1  0.1254059E-006  0.9118800E+02  0.7816164E-02  0.1184000E+00
        -11   -1    0    0    0    0  0.00000000000E+00  0.00000000000E+00  0.45593999997E+02  0.45594000000E+02  0.51100000000E-03 0.  1.
         11   -1    0    0    0    0 -0.00000000000E+00 -0.00000000000E+00 -0.45593999997E+02  0.45594000000E+02  0.51100000000E-03 0. -1.
         23    2    1    2    0    0 -0.17763568394E-14 -0.35527136788E-14 -0.35527136788E-14  0.91188000000E+02  0.91188000000E+02 0.  0.
    9900012    2    3    3    0    0 -0.13510123792E+02  0.17475911206E+02 -0.29459265018E+02  0.54367092722E+02  0.40000019479E+02 0.  0.
        -12    1    3    3    0    0  0.13510123792E+02 -0.17475911206E+02  0.29459265018E+02  0.36820907278E+02  0.00000000000E+00 0.  1.
         11    1    4    4    0    0  0.14875586182E+01 -0.89984895758E+01 -0.42615046203E+01  0.10067078383E+02  0.51100000000E-03 0. -1.
        -11    1    4    4    0    0 -0.90294742784E+01  0.17138344007E+02 -0.31520535617E+01  0.19626249844E+02  0.51100000000E-03 0.  1.
        -12    1    4    4    0    0 -0.59682081315E+01  0.93360567754E+01 -0.22045706836E+02  0.24673764494E+02  0.00000000000E+00 0.  1.
</event>
<event>
 8    1  0.1254059E-006  0.9118800E+02  0.7816164E-02  0.1184000E+00
        -11   -1    0    0    0    0  0.00000000000E+00  0.00000000000E+00  0.45593999997E+02  0.45594000000E+02  0.51100000000E-03 0. -1.
         11   -1    0    0    0    0 -0.00000000000E+00 -0.00000000000E+00 -0.45593999997E+02  0.45594000000E+02  0.51100000000E-03 0.  1.
         23    2    1    2    0    0  0.17763568394E-14  0.35527136788E-14 -0.35527136788E-14  0.91188000000E+02  0.91188000000E+02 0.  0.
    9900012    2    3    3    0    0  0.80878154646E+01  0.31267886459E+02 -0.17682918111E+02  0.54367094586E+02  0.40000023727E+02 0.  0.
         12    1    3    3    0    0 -0.80878154646E+01 -0.31267886459E+02  0.17682918111E+02  0.36820905414E+02  0.00000000000E+00 0. -1.
         11    1    4    4    0    0  0.15575490085E+01  0.24771549075E+02  0.46928222169E+01  0.25260209483E+02  0.51100000000E-03 0. -1.
        -11    1    4    4    0    0  0.86386079732E+01  0.84679633829E+01 -0.81378311599E+01  0.14579308894E+02  0.51100000000E-03 0.  1.
        -12    1    4    4    0    0 -0.21083415172E+01 -0.19716259990E+01 -0.14237909168E+02  0.14527576209E+02  0.00000000000E+00 0.  1.
</event>
<event>
 8    1  0.1254059E-006  0.9118800E+02  0.7816164E-02  0.1184000E+00
        -11   -1    0    0    0    0  0.00000000000E+00  0.00000000000E+00  0.45593999997E+02  0.45594000000E+02  0.51100000000E-03 0.  1.
         11   -1    0    0    0    0 -0.00000000000E+00 -0.00000000000E+00 -0.45593999997E+02  0.45594000000E+02  0.51100000000E-03 0. -1.
         23    2    1    2    0    0  0.88817841970E-15 -0.35527136788E-14  0.00000000000E+00  0.91188000000E+02  0.91188000000E+02 0.  0.
    9900012    2    3    3    0    0 -0.63238012431E+01 -0.30636072612E+02 -0.19422182967E+02  0.54367073906E+02  0.39999976582E+02 0.  0.
        -12    1    3    3    0    0  0.63238012431E+01  0.30636072612E+02  0.19422182967E+02  0.36820926094E+02  0.00000000000E+00 0.  1.
         11    1    4    4    0    0 -0.18977766395E+01  0.37403496520E+01 -0.15551307617E+01  0.44732766111E+01  0.51100000000E-03 0. -1.
        -11    1    4    4    0    0  0.80073408340E+01 -0.13356932395E+00 -0.96647536712E+01  0.12551605944E+02  0.51100000000E-03 0.  1.
        -12    1    4    4    0    0 -0.12433365438E+02 -0.34242852940E+02 -0.82022985341E+01  0.37342191350E+02  0.00000000000E+00 0.  1.
</event>
<event>
 8    1  0.1254059E-006  0.9118800E+02  0.7816164E-02  0.1184000E+00
        -11   -1    0    0    0    0  0.00000000000E+00  0.00000000000E+00  0.45593999997E+02  0.45594000000E+02  0.51100000000E-03 0.  1.
         11   -1    0    0    0    0 -0.00000000000E+00 -0.00000000000E+00 -0.45593999997E+02  0.45594000000E+02  0.51100000000E-03 0. -1.
         23    2    1    2    0    0  0.35527136788E-14 -0.35527136788E-14  0.00000000000E+00  0.91188000000E+02  0.91188000000E+02 0.  0.
    9900012    2    3    3    0    0 -0.14015187546E+02  0.23367311357E+02 -0.24765353571E+02  0.54367089372E+02  0.40000011841E+02 0.  0.
        -12    1    3    3    0    0  0.14015187546E+02 -0.23367311357E+02  0.24765353571E+02  0.36820910628E+02  0.00000000000E+00 0.  1.
         11    1    4    4    0    0  0.12006976248E+02  0.80286129067E+01 -0.23182668514E+01  0.14628754741E+02  0.51100000000E-03 0. -1.
        -11    1    4    4    0    0 -0.31819702023E+01  0.14829930182E+01  0.15415754310E+01  0.38341436763E+01  0.51100000000E-03 0.  1.
         12    1    4    4    0    0 -0.22840193592E+02  0.13855705432E+02 -0.23988662150E+02  0.35904190954E+02  0.00000000000E+00 0. -1.
</event>
<event>
 8    1  0.1254059E-006  0.9118800E+02  0.7816164E-02  0.1184000E+00
        -11   -1    0    0    0    0  0.00000000000E+00  0.00000000000E+00  0.45593999997E+02  0.45594000000E+02  0.51100000000E-03 0.  1.
         11   -1    0    0    0    0 -0.00000000000E+00 -0.00000000000E+00 -0.45593999997E+02  0.45594000000E+02  0.51100000000E-03 0. -1.
         23    2    1    2    0    0  0.00000000000E+00  0.00000000000E+00  0.00000000000E+00  0.91188000000E+02  0.91188000000E+02 0.  0.
    9900012    2    3    3    0    0  0.16184055461E+02  0.29710923209E+02 -0.14529992034E+02  0.54367037524E+02  0.39999893644E+02 0.  0.
        -12    1    3    3    0    0 -0.16184055461E+02 -0.29710923209E+02  0.14529992034E+02  0.36820962476E+02  0.00000000000E+00 0.  1.
         11    1    4    4    0    0  0.11755090355E+01  0.59877181621E+01 -0.35268313292E+01  0.70479166969E+01  0.51100000000E-03 0. -1.
        -11    1    4    4    0    0  0.26960186970E+02  0.14557787869E+02 -0.99760992665E+01  0.32222715992E+02  0.51100000000E-03 0.  1.
         12    1    4    4    0    0 -0.11951640544E+02  0.91654171780E+01 -0.10270614387E+01  0.15096404835E+02  0.00000000000E+00 0. -1.
</event>
<event>
 8    1  0.1254059E-006  0.9118800E+02  0.7816164E-02  0.1184000E+00
        -11   -1    0    0    0    0  0.00000000000E+00  0.00000000000E+00  0.45593999997E+02  0.45594000000E+02  0.51100000000E-03 0.  1.
         11   -1    0    0    0    0 -0.00000000000E+00 -0.00000000000E+00 -0.45593999997E+02  0.45594000000E+02  0.51100000000E-03 0. -1.
         23    2    1    2    0    0  0.88817841970E-15  0.17763568394E-14  0.00000000000E+00  0.91188000000E+02  0.91188000000E+02 0.  0.
    9900012    2    3    3    0    0 -0.70554207079E+01  0.13390718409E+02  0.33566187555E+02  0.54367092246E+02  0.40000018392E+02 0.  0.
         12    1    3    3    0    0  0.70554207079E+01 -0.13390718409E+02 -0.33566187555E+02  0.36820907754E+02  0.00000000000E+00 0. -1.
         11    1    4    4    0    0 -0.19398865518E+02  0.88378533688E+01  0.60512089308E+01  0.22159439644E+02  0.51100000000E-03 0. -1.
        -11    1    4    4    0    0  0.61362348257E+01  0.24178122952E+01  0.23732059109E+02  0.24631480344E+02  0.51100000000E-03 0.  1.
         12    1    4    4    0    0  0.62072099845E+01  0.21350527450E+01  0.37829195155E+01  0.75761722576E+01  0.00000000000E+00 0. -1.
</event>
<event>
 8    1  0.1254059E-006  0.9118800E+02  0.7816164E-02  0.1184000E+00
        -11   -1    0    0    0    0  0.00000000000E+00  0.00000000000E+00  0.45593999997E+02  0.45594000000E+02  0.51100000000E-03 0. -1.
         11   -1    0    0    0    0 -0.00000000000E+00 -0.00000000000E+00 -0.45593999997E+02  0.45594000000E+02  0.51100000000E-03 0.  1.
         23    2    1    2    0    0  0.88817841970E-15  0.00000000000E+00  0.00000000000E+00  0.91188000000E+02  0.91188000000E+02 0.  0.
    9900012    2    3    3    0    0 -0.42041203795E+01  0.24626784408E+02  0.27048597923E+02  0.54367084910E+02  0.40000001670E+02 0.  0.
        -12    1    3    3    0    0  0.42041203795E+01 -0.24626784408E+02 -0.27048597923E+02  0.36820915090E+02  0.00000000000E+00 0.  1.
         11    1    4    4    0    0 -0.62450064449E+01  0.68670770760E+01  0.12515024536E+02  0.15581485566E+02  0.51100000000E-03 0. -1.
        -11    1    4    4    0    0 -0.86443210198E+01  0.51563860567E+01  0.19146073465E+02  0.21630643367E+02  0.51100000000E-03 0.  1.
        -12    1    4    4    0    0  0.10685207085E+02  0.12603321275E+02 -0.46125000777E+01  0.17154955977E+02  0.00000000000E+00 0.  1.
</event>
<event>
 8    1  0.1254059E-006  0.9118800E+02  0.7816164E-02  0.1184000E+00
        -11   -1    0    0    0    0  0.00000000000E+00  0.00000000000E+00  0.45593999997E+02  0.45594000000E+02  0.51100000000E-03 0. -1.
         11   -1    0    0    0    0 -0.00000000000E+00 -0.00000000000E+00 -0.45593999997E+02  0.45594000000E+02  0.51100000000E-03 0.  1.
         23    2    1    2    0    0 -0.88817841970E-15  0.00000000000E+00  0.00000000000E+00  0.91188000000E+02  0.91188000000E+02 0.  0.
    9900012    2    3    3    0    0 -0.51040963138E+01 -0.29767728476E+02  0.21062020420E+02  0.54367106991E+02  0.40000052008E+02 0.  0.
        -12    1    3    3    0    0  0.51040963138E+01  0.29767728476E+02 -0.21062020420E+02  0.36820893009E+02  0.00000000000E+00 0.  1.
         11    1    4    4    0    0 -0.88001991863E+01 -0.18176949355E+02  0.14439363882E+02  0.24826200337E+02  0.51100000000E-03 0. -1.
        -11    1    4    4    0    0 -0.90360441151E-02  0.72059372847E+01 -0.33451888890E+01  0.79445517662E+01  0.51100000000E-03 0.  1.
        -12    1    4    4    0    0  0.37051389166E+01 -0.18796716405E+02  0.99678454271E+01  0.21596354888E+02  0.00000000000E+00 0.  1.
</event>
<event>
 8    1  0.1254059E-006  0.9118800E+02  0.7816164E-02  0.1184000E+00
        -11   -1    0    0    0    0  0.00000000000E+00  0.00000000000E+00  0.45593999997E+02  0.45594000000E+02  0.51100000000E-03 0.  1.
         11   -1    0    0    0    0 -0.00000000000E+00 -0.00000000000E+00 -0.45593999997E+02  0.45594000000E+02  0.51100000000E-03 0. -1.
         23    2    1    2    0    0  0.28865798640E-14 -0.35527136788E-14  0.00000000000E+00  0.91188000000E+02  0.91188000000E+02 0.  0.
    9900012    2    3    3    0    0 -0.16461240856E+01 -0.16186205305E+02 -0.33031501031E+02  0.54367040927E+02  0.39999901402E+02 0.  0.
        -12    1    3    3    0    0  0.16461240856E+01  0.16186205305E+02  0.33031501031E+02  0.36820959073E+02  0.00000000000E+00 0.  1.
         11    1    4    4    0    0 -0.11150804260E+02 -0.97192903670E+01 -0.67996486378E+01  0.16280057210E+02  0.51100000000E-03 0. -1.
        -11    1    4    4    0    0 -0.81617012072E+01  0.13863459022E+01 -0.76723737958E+01  0.11287189264E+02  0.51100000000E-03 0.  1.
         12    1    4    4    0    0  0.17666381382E+02 -0.78532608399E+01 -0.18559478597E+02  0.26799794454E+02  0.00000000000E+00 0. -1.
</event>
<event>
 8    1  0.1254059E-006  0.9118800E+02  0.7816164E-02  0.1184000E+00
        -11   -1    0    0    0    0  0.00000000000E+00  0.00000000000E+00  0.45593999997E+02  0.45594000000E+02  0.51100000000E-03 0. -1.
         11   -1    0    0    0    0 -0.00000000000E+00 -0.00000000000E+00 -0.45593999997E+02  0.45594000000E+02  0.51100000000E-03 0.  1.
         23    2    1    2    0    0 -0.44408920985E-15  0.00000000000E+00  0.00000000000E+00  0.91188000000E+02  0.91188000000E+02 0.  0.
    9900012    2    3    3    0    0  0.17274382914E+01 -0.31031154757E+02 -0.19744811953E+02  0.54367160688E+02  0.40000174419E+02 0.  0.
         12    1    3    3    0    0 -0.17274382914E+01  0.31031154757E+02  0.19744811953E+02  0.36820839312E+02  0.00000000000E+00 0. -1.
         11    1    4    4    0    0 -0.23451319943E+01  0.38174950927E+01 -0.73943383090E+01  0.86457591999E+01  0.51100000000E-03 0. -1.
        -11    1    4    4    0    0 -0.41953918990E+01 -0.31232717685E+01 -0.11827313775E+02  0.12932188180E+02  0.51100000000E-03 0.  1.
        -12    1    4    4    0    0  0.82679621847E+01 -0.31725378081E+02 -0.52315986871E+00  0.32789213308E+02  0.00000000000E+00 0.  1.
</event>
<event>
 8    1  0.1254059E-006  0.9118800E+02  0.7816164E-02  0.1184000E+00
        -11   -1    0    0    0    0  0.00000000000E+00  0.00000000000E+00  0.45593999997E+02  0.45594000000E+02  0.51100000000E-03 0. -1.
         11   -1    0    0    0    0 -0.00000000000E+00 -0.00000000000E+00 -0.45593999997E+02  0.45594000000E+02  0.51100000000E-03 0.  1.
         23    2    1    2    0    0 -0.35527136788E-14  0.88817841970E-15  0.00000000000E+00  0.91188000000E+02  0.91188000000E+02 0.  0.
    9900012    2    3    3    0    0  0.28642651597E+02 -0.66868454273E+01  0.22150947794E+02  0.54367083656E+02  0.39999998810E+02 0.  0.
        -12    1    3    3    0    0 -0.28642651597E+02  0.66868454273E+01 -0.22150947794E+02  0.36820916344E+02  0.00000000000E+00 0.  1.
         11    1    4    4    0    0  0.70596195931E+01 -0.12478184860E+02  0.18991932365E+01  0.14462028261E+02  0.51100000000E-03 0. -1.
        -11    1    4    4    0    0  0.42482553345E+00 -0.86623828379E+01  0.63856733830E+01  0.10770059330E+02  0.51100000000E-03 0.  1.
         12    1    4    4    0    0  0.21158206470E+02  0.14453722271E+02  0.13866081174E+02  0.29134996064E+02  0.00000000000E+00 0. -1.
</event>
<event>
 8    1  0.1254059E-006  0.9118800E+02  0.7816164E-02  0.1184000E+00
        -11   -1    0    0    0    0  0.00000000000E+00  0.00000000000E+00  0.45593999997E+02  0.45594000000E+02  0.51100000000E-03 0.  1.
         11   -1    0    0    0    0 -0.00000000000E+00 -0.00000000000E+00 -0.45593999997E+02  0.45594000000E+02  0.51100000000E-03 0. -1.
         23    2    1    2    0    0  0.00000000000E+00  0.00000000000E+00  0.00000000000E+00  0.91188000000E+02  0.91188000000E+02 0.  0.
    9900012    2    3    3    0    0  0.36383361698E+02  0.43011429750E+01 -0.36783488369E+01  0.54367094396E+02  0.40000023294E+02 0.  0.
         12    1    3    3    0    0 -0.36383361698E+02 -0.43011429750E+01  0.36783488369E+01  0.36820905604E+02  0.00000000000E+00 0. -1.
         11    1    4    4    0    0  0.74882839871E+01  0.15723776642E+02  0.50571189316E+01  0.18135214394E+02  0.51100000000E-03 0.  1.
        -11    1    4    4    0    0  0.15188042074E+02  0.25749748755E+01 -0.20989025132E+01  0.15547106151E+02  0.51100000000E-03 0. -1.
        -12    1    4    4    0    0  0.13707035637E+02 -0.13997608543E+02 -0.66365652553E+01  0.20684773851E+02  0.00000000000E+00 0.  1.
</event>
<event>
 8    1  0.1254059E-006  0.9118800E+02  0.7816164E-02  0.1184000E+00
        -11   -1    0    0    0    0  0.00000000000E+00  0.00000000000E+00  0.45593999997E+02  0.45594000000E+02  0.51100000000E-03 0. -1.
         11   -1    0    0    0    0 -0.00000000000E+00 -0.00000000000E+00 -0.45593999997E+02  0.45594000000E+02  0.51100000000E-03 0.  1.
         23    2    1    2    0    0 -0.35527136788E-14  0.00000000000E+00  0.35527136788E-14  0.91188000000E+02  0.91188000000E+02 0.  0.
    9900012    2    3    3    0    0  0.15387052193E+02 -0.20908551492E+02 -0.26112263715E+02  0.54367092665E+02  0.40000019347E+02 0.  0.
         12    1    3    3    0    0 -0.15387052193E+02  0.20908551492E+02  0.26112263715E+02  0.36820907335E+02  0.00000000000E+00 0. -1.
         11    1    4    4    0    0 -0.76962235608E+01 -0.11827705053E+02 -0.38675473055E+01  0.14631622820E+02  0.51100000000E-03 0. -1.
        -11    1    4    4    0    0  0.11289399596E+01 -0.82888382196E+01 -0.13924412947E+02  0.16244033386E+02  0.51100000000E-03 0.  1.
         12    1    4    4    0    0  0.21954335794E+02 -0.79200821930E+00 -0.83203034620E+01  0.23491436458E+02  0.00000000000E+00 0. -1.
</event>
<event>
 8    1  0.1254059E-006  0.9118800E+02  0.7816164E-02  0.1184000E+00
        -11   -1    0    0    0    0  0.00000000000E+00  0.00000000000E+00  0.45593999997E+02  0.45594000000E+02  0.51100000000E-03 0. -1.
         11   -1    0    0    0    0 -0.00000000000E+00 -0.00000000000E+00 -0.45593999997E+02  0.45594000000E+02  0.51100000000E-03 0.  1.
         23    2    1    2    0    0 -0.17763568394E-14 -0.35527136788E-14  0.35527136788E-14  0.91188000000E+02  0.91188000000E+02 0.  0.
    9900012    2    3    3    0    0 -0.10274582437E+02 -0.16541275550E+02  0.31250588643E+02  0.54367080245E+02  0.39999991035E+02 0.  0.
        -12    1    3    3    0    0  0.10274582437E+02  0.16541275550E+02 -0.31250588643E+02  0.36820919755E+02  0.00000000000E+00 0.  1.
         11    1    4    4    0    0  0.35620539477E+01 -0.23132892659E+01  0.43539266481E+01  0.60824512388E+01  0.51100000000E-03 0. -1.
        -11    1    4    4    0    0 -0.15278029048E+02 -0.23985462698E+02  0.25733797110E+02  0.38352951730E+02  0.51100000000E-03 0.  1.
        -12    1    4    4    0    0  0.14413926638E+01  0.97574764139E+01  0.11628648847E+01  0.99316772763E+01  0.00000000000E+00 0.  1.
</event>
<event>
 8    1  0.1254059E-006  0.9118800E+02  0.7816164E-02  0.1184000E+00
        -11   -1    0    0    0    0  0.00000000000E+00  0.00000000000E+00  0.45593999997E+02  0.45594000000E+02  0.51100000000E-03 0. -1.
         11   -1    0    0    0    0 -0.00000000000E+00 -0.00000000000E+00 -0.45593999997E+02  0.45594000000E+02  0.51100000000E-03 0.  1.
         23    2    1    2    0    0 -0.17763568394E-14  0.00000000000E+00  0.00000000000E+00  0.91188000000E+02  0.91188000000E+02 0.  0.
    9900012    2    3    3    0    0 -0.10122420374E+02 -0.60829328141E+01 -0.34875728787E+02  0.54367055902E+02  0.39999935539E+02 0.  0.
         12    1    3    3    0    0  0.10122420374E+02  0.60829328141E+01  0.34875728787E+02  0.36820944098E+02  0.00000000000E+00 0. -1.
         11    1    4    4    0    0  0.50938202497E+01  0.70642827946E+01  0.35158345295E+00  0.87163471319E+01  0.51100000000E-03 0. -1.
        -11    1    4    4    0    0 -0.15835270924E+02 -0.93238009649E-02 -0.20532936687E+02  0.25929855022E+02  0.51100000000E-03 0.  1.
        -12    1    4    4    0    0  0.61903030036E+00 -0.13137891808E+02 -0.14694375553E+02  0.19720853748E+02  0.00000000000E+00 0.  1.
</event>
<event>
 8    1  0.1254059E-006  0.9118800E+02  0.7816164E-02  0.1184000E+00
        -11   -1    0    0    0    0  0.00000000000E+00  0.00000000000E+00  0.45593999997E+02  0.45594000000E+02  0.51100000000E-03 0. -1.
         11   -1    0    0    0    0 -0.00000000000E+00 -0.00000000000E+00 -0.45593999997E+02  0.45594000000E+02  0.51100000000E-03 0.  1.
         23    2    1    2    0    0  0.11102230246E-14  0.00000000000E+00  0.00000000000E+00  0.91188000000E+02  0.91188000000E+02 0.  0.
    9900012    2    3    3    0    0 -0.60646851264E+00 -0.32629712058E+02  0.17050339368E+02  0.54367082228E+02  0.39999995555E+02 0.  0.
        -12    1    3    3    0    0  0.60646851264E+00  0.32629712058E+02 -0.17050339368E+02  0.36820917772E+02  0.00000000000E+00 0.  1.
         11    1    4    4    0    0 -0.83436371797E+01 -0.12066249681E+02  0.12723991088E+02  0.19419336040E+02  0.51100000000E-03 0. -1.
        -11    1    4    4    0    0 -0.88930262037E+01 -0.26690346688E+01  0.49274504792E+01  0.10511395227E+02  0.51100000000E-03 0.  1.
        -12    1    4    4    0    0  0.16630194871E+02 -0.17894427709E+02 -0.60110220014E+00  0.24436350961E+02  0.00000000000E+00 0.  1.
</event>
<event>
 8    1  0.1254059E-006  0.9118800E+02  0.7816164E-02  0.1184000E+00
        -11   -1    0    0    0    0  0.00000000000E+00  0.00000000000E+00  0.45593999997E+02  0.45594000000E+02  0.51100000000E-03 0.  1.
         11   -1    0    0    0    0 -0.00000000000E+00 -0.00000000000E+00 -0.45593999997E+02  0.45594000000E+02  0.51100000000E-03 0. -1.
         23    2    1    2    0    0  0.00000000000E+00  0.00000000000E+00  0.00000000000E+00  0.91188000000E+02  0.91188000000E+02 0.  0.
    9900012    2    3    3    0    0 -0.93382489689E+01 -0.33101709790E+02 -0.13147149280E+02  0.54367168681E+02  0.40000192642E+02 0.  0.
        -12    1    3    3    0    0  0.93382489689E+01  0.33101709790E+02  0.13147149280E+02  0.36820831319E+02  0.00000000000E+00 0.  1.
         11    1    4    4    0    0 -0.38838929389E+01 -0.36736267938E+02 -0.12832365825E+02  0.39106362901E+02  0.51100000000E-03 0. -1.
        -11    1    4    4    0    0 -0.55651561700E+01  0.99409249165E+00  0.61037106973E+01  0.83195232806E+01  0.51100000000E-03 0.  1.
         12    1    4    4    0    0  0.11080014009E+00  0.26404656572E+01 -0.64184941523E+01  0.69412824997E+01  0.00000000000E+00 0. -1.
</event>
<event>
 8    1  0.1254059E-006  0.9118800E+02  0.7816164E-02  0.1184000E+00
        -11   -1    0    0    0    0  0.00000000000E+00  0.00000000000E+00  0.45593999997E+02  0.45594000000E+02  0.51100000000E-03 0. -1.
         11   -1    0    0    0    0 -0.00000000000E+00 -0.00000000000E+00 -0.45593999997E+02  0.45594000000E+02  0.51100000000E-03 0.  1.
         23    2    1    2    0    0 -0.88817841970E-15  0.00000000000E+00 -0.17763568394E-14  0.91188000000E+02  0.91188000000E+02 0.  0.
    9900012    2    3    3    0    0  0.27815972186E+01  0.35070205070E+02  0.10868440967E+02  0.54367087792E+02  0.40000008240E+02 0.  0.
        -12    1    3    3    0    0 -0.27815972186E+01 -0.35070205070E+02 -0.10868440967E+02  0.36820912208E+02  0.00000000000E+00 0.  1.
         11    1    4    4    0    0  0.65402667182E+01  0.19474537496E+02 -0.31142184909E+01  0.20778138908E+02  0.51100000000E-03 0. -1.
        -11    1    4    4    0    0  0.10988689927E+02  0.49387422886E+01  0.33061683450E+01  0.12492927243E+02  0.51100000000E-03 0.  1.
        -12    1    4    4    0    0 -0.14747359427E+02  0.10656925286E+02  0.10676491113E+02  0.21096021641E+02  0.00000000000E+00 0.  1.
</event>
<event>
 8    1  0.1254059E-006  0.9118800E+02  0.7816164E-02  0.1184000E+00
        -11   -1    0    0    0    0  0.00000000000E+00  0.00000000000E+00  0.45593999997E+02  0.45594000000E+02  0.51100000000E-03 0. -1.
         11   -1    0    0    0    0 -0.00000000000E+00 -0.00000000000E+00 -0.45593999997E+02  0.45594000000E+02  0.51100000000E-03 0.  1.
         23    2    1    2    0    0 -0.88817841970E-15  0.88817841970E-15  0.00000000000E+00  0.91188000000E+02  0.91188000000E+02 0.  0.
    9900012    2    3    3    0    0 -0.61396373013E+01 -0.69705616049E+01  0.35629983091E+02  0.54367087867E+02  0.40000008410E+02 0.  0.
        -12    1    3    3    0    0  0.61396373013E+01  0.69705616049E+01 -0.35629983091E+02  0.36820912133E+02  0.00000000000E+00 0.  1.
         11    1    4    4    0    0 -0.98723876085E+01  0.12115845446E+02  0.14408129959E+02  0.21256809665E+02  0.51100000000E-03 0. -1.
        -11    1    4    4    0    0  0.72125292121E+01 -0.14919143968E+02  0.71880458337E+01  0.18062929927E+02  0.51100000000E-03 0.  1.
        -12    1    4    4    0    0 -0.34797789049E+01 -0.41672630830E+01  0.14033807298E+02  0.15047348275E+02  0.00000000000E+00 0.  1.
</event>
<event>
 8    1  0.1254059E-006  0.9118800E+02  0.7816164E-02  0.1184000E+00
        -11   -1    0    0    0    0  0.00000000000E+00  0.00000000000E+00  0.45593999997E+02  0.45594000000E+02  0.51100000000E-03 0.  1.
         11   -1    0    0    0    0 -0.00000000000E+00 -0.00000000000E+00 -0.45593999997E+02  0.45594000000E+02  0.51100000000E-03 0. -1.
         23    2    1    2    0    0  0.00000000000E+00 -0.17763568394E-14  0.00000000000E+00  0.91188000000E+02  0.91188000000E+02 0.  0.
    9900012    2    3    3    0    0  0.26578242968E+02 -0.90524048172E+01 -0.23820788486E+02  0.54367095662E+02  0.40000026180E+02 0.  0.
        -12    1    3    3    0    0 -0.26578242968E+02  0.90524048172E+01  0.23820788486E+02  0.36820904338E+02  0.00000000000E+00 0.  1.
         11    1    4    4    0    0  0.30454316122E+02 -0.16128976696E+02 -0.19330504376E+02  0.39513006206E+02  0.51100000000E-03 0. -1.
        -11    1    4    4    0    0 -0.71051975289E+01  0.47274573464E+01  0.39634566276E+00  0.85434053533E+01  0.51100000000E-03 0.  1.
        -12    1    4    4    0    0  0.32291243739E+01  0.23491145320E+01 -0.48866297727E+01  0.63106841026E+01  0.00000000000E+00 0.  1.
</event>
<event>
 8    1  0.1254059E-006  0.9118800E+02  0.7816164E-02  0.1184000E+00
        -11   -1    0    0    0    0  0.00000000000E+00  0.00000000000E+00  0.45593999997E+02  0.45594000000E+02  0.51100000000E-03 0. -1.
         11   -1    0    0    0    0 -0.00000000000E+00 -0.00000000000E+00 -0.45593999997E+02  0.45594000000E+02  0.51100000000E-03 0.  1.
         23    2    1    2    0    0  0.00000000000E+00  0.00000000000E+00  0.35527136788E-14  0.91188000000E+02  0.91188000000E+02 0.  0.
    9900012    2    3    3    0    0 -0.22722642887E+02 -0.21083627211E+02  0.19873170561E+02  0.54367071925E+02  0.39999972068E+02 0.  0.
        -12    1    3    3    0    0  0.22722642887E+02  0.21083627211E+02 -0.19873170561E+02  0.36820928075E+02  0.00000000000E+00 0.  1.
         11    1    4    4    0    0  0.17661794245E+01 -0.46484748722E+00  0.22282961855E+01  0.28811069222E+01  0.51100000000E-03 0. -1.
        -11    1    4    4    0    0  0.96283707875E+01 -0.49107380559E+01  0.39437488759E+01  0.11505391246E+02  0.51100000000E-03 0.  1.
         12    1    4    4    0    0 -0.34117193099E+02 -0.15708041668E+02  0.13701125500E+02  0.39980573757E+02  0.00000000000E+00 0. -1.
</event>
<event>
 8    1  0.1254059E-006  0.9118800E+02  0.7816164E-02  0.1184000E+00
        -11   -1    0    0    0    0  0.00000000000E+00  0.00000000000E+00  0.45593999997E+02  0.45594000000E+02  0.51100000000E-03 0. -1.
         11   -1    0    0    0    0 -0.00000000000E+00 -0.00000000000E+00 -0.45593999997E+02  0.45594000000E+02  0.51100000000E-03 0.  1.
         23    2    1    2    0    0 -0.35527136788E-14  0.00000000000E+00  0.00000000000E+00  0.91188000000E+02  0.91188000000E+02 0.  0.
    9900012    2    3    3    0    0  0.16451154761E+02 -0.20475827166E+02  0.25804645319E+02  0.54367085955E+02  0.40000004051E+02 0.  0.
        -12    1    3    3    0    0 -0.16451154761E+02  0.20475827166E+02 -0.25804645319E+02  0.36820914045E+02  0.00000000000E+00 0.  1.
         11    1    4    4    0    0  0.33408882798E+00 -0.16061482520E+02  0.25287502928E+02  0.29958982638E+02  0.51100000000E-03 0. -1.
        -11    1    4    4    0    0  0.17807278197E+02 -0.27222749005E+01  0.55384359035E+01  0.18846331472E+02  0.51100000000E-03 0.  1.
        -12    1    4    4    0    0 -0.16902122644E+01 -0.16920697448E+01 -0.50212935122E+01  0.55617718450E+01  0.00000000000E+00 0.  1.
</event>
<event>
 8    1  0.1254059E-006  0.9118800E+02  0.7816164E-02  0.1184000E+00
        -11   -1    0    0    0    0  0.00000000000E+00  0.00000000000E+00  0.45593999997E+02  0.45594000000E+02  0.51100000000E-03 0. -1.
         11   -1    0    0    0    0 -0.00000000000E+00 -0.00000000000E+00 -0.45593999997E+02  0.45594000000E+02  0.51100000000E-03 0.  1.
         23    2    1    2    0    0 -0.35527136788E-14 -0.17763568394E-14  0.00000000000E+00  0.91188000000E+02  0.91188000000E+02 0.  0.
    9900012    2    3    3    0    0  0.24660758071E+02 -0.62336773377E+01  0.26622708170E+02  0.54367077794E+02  0.39999985447E+02 0.  0.
        -12    1    3    3    0    0 -0.24660758071E+02  0.62336773377E+01 -0.26622708170E+02  0.36820922206E+02  0.00000000000E+00 0.  1.
         11    1    4    4    0    0 -0.29097056758E+00 -0.24500195746E+01  0.89889324837E+01  0.93213822605E+01  0.51100000000E-03 0. -1.
        -11    1    4    4    0    0  0.73934167429E+01 -0.17452240359E+02  0.10560225972E+02  0.21697043059E+02  0.51100000000E-03 0.  1.
         12    1    4    4    0    0  0.17558311896E+02  0.13668582596E+02  0.70735497148E+01  0.23348652474E+02  0.00000000000E+00 0. -1.
</event>
<event>
 8    1  0.1254059E-006  0.9118800E+02  0.7816164E-02  0.1184000E+00
        -11   -1    0    0    0    0  0.00000000000E+00  0.00000000000E+00  0.45593999997E+02  0.45594000000E+02  0.51100000000E-03 0.  1.
         11   -1    0    0    0    0 -0.00000000000E+00 -0.00000000000E+00 -0.45593999997E+02  0.45594000000E+02  0.51100000000E-03 0. -1.
         23    2    1    2    0    0  0.35527136788E-14  0.00000000000E+00  0.35527136788E-14  0.91188000000E+02  0.91188000000E+02 0.  0.
    9900012    2    3    3    0    0 -0.25185996912E+02 -0.20187810928E+01 -0.26783747999E+02  0.54367094600E+02  0.40000023761E+02 0.  0.
        -12    1    3    3    0    0  0.25185996912E+02  0.20187810928E+01  0.26783747999E+02  0.36820905400E+02  0.00000000000E+00 0.  1.
         11    1    4    4    0    0  0.17083816167E+00  0.10285779942E+00 -0.44525437947E+01  0.44570070573E+01  0.51100000000E-03 0. -1.
        -11    1    4    4    0    0 -0.59105601431E+01 -0.10203364683E+02  0.70672833443E+01  0.13747358517E+02  0.51100000000E-03 0.  1.
        -12    1    4    4    0    0 -0.19446274930E+02  0.80817257913E+01 -0.29398487549E+02  0.36162729026E+02  0.00000000000E+00 0.  1.
</event>
<event>
 8    1  0.1254059E-006  0.9118800E+02  0.7816164E-02  0.1184000E+00
        -11   -1    0    0    0    0  0.00000000000E+00  0.00000000000E+00  0.45593999997E+02  0.45594000000E+02  0.51100000000E-03 0. -1.
         11   -1    0    0    0    0 -0.00000000000E+00 -0.00000000000E+00 -0.45593999997E+02  0.45594000000E+02  0.51100000000E-03 0.  1.
         23    2    1    2    0    0  0.35527136788E-14  0.00000000000E+00  0.00000000000E+00  0.91188000000E+02  0.91188000000E+02 0.  0.
    9900012    2    3    3    0    0  0.16291891153E+02  0.32827172871E+02  0.35680489508E+01  0.54367082448E+02  0.39999996058E+02 0.  0.
        -12    1    3    3    0    0 -0.16291891153E+02 -0.32827172871E+02 -0.35680489508E+01  0.36820917552E+02  0.00000000000E+00 0.  1.
         11    1    4    4    0    0  0.14606773292E+02  0.12418067355E+02  0.10842195989E+02  0.22025427055E+02  0.51100000000E-03 0. -1.
        -11    1    4    4    0    0  0.14100122501E+01  0.54192212810E+01 -0.14613189649E+02  0.15649326050E+02  0.51100000000E-03 0.  1.
        -12    1    4    4    0    0  0.27510561106E+00  0.14989884234E+02  0.73390426109E+01  0.16692329343E+02  0.00000000000E+00 0.  1.
</event>
<event>
 8    1  0.1254059E-006  0.9118800E+02  0.7816164E-02  0.1184000E+00
        -11   -1    0    0    0    0  0.00000000000E+00  0.00000000000E+00  0.45593999997E+02  0.45594000000E+02  0.51100000000E-03 0. -1.
         11   -1    0    0    0    0 -0.00000000000E+00 -0.00000000000E+00 -0.45593999997E+02  0.45594000000E+02  0.51100000000E-03 0.  1.
         23    2    1    2    0    0  0.00000000000E+00  0.71054273576E-14  0.00000000000E+00  0.91188000000E+02  0.91188000000E+02 0.  0.
    9900012    2    3    3    0    0  0.17658125566E+02 -0.31408235225E+02 -0.75824192066E+01  0.54367085842E+02  0.40000003794E+02 0.  0.
         12    1    3    3    0    0 -0.17658125566E+02  0.31408235225E+02  0.75824192066E+01  0.36820914158E+02  0.00000000000E+00 0. -1.
         11    1    4    4    0    0  0.74065133117E+01  0.59646355369E+01 -0.10998454053E+02  0.14539577309E+02  0.51100000000E-03 0. -1.
        -11    1    4    4    0    0  0.11773237483E+02 -0.32030619440E+02  0.29839242596E+01  0.34255999573E+02  0.51100000000E-03 0.  1.
         12    1    4    4    0    0 -0.15216252288E+01 -0.53422513216E+01  0.43211058661E+00  0.55715089589E+01  0.00000000000E+00 0. -1.
</event>
<event>
 8    1  0.1254059E-006  0.9118800E+02  0.7816164E-02  0.1184000E+00
        -11   -1    0    0    0    0  0.00000000000E+00  0.00000000000E+00  0.45593999997E+02  0.45594000000E+02  0.51100000000E-03 0.  1.
         11   -1    0    0    0    0 -0.00000000000E+00 -0.00000000000E+00 -0.45593999997E+02  0.45594000000E+02  0.51100000000E-03 0. -1.
         23    2    1    2    0    0  0.00000000000E+00  0.35527136788E-14  0.00000000000E+00  0.91188000000E+02  0.91188000000E+02 0.  0.
    9900012    2    3    3    0    0  0.20433431462E+02 -0.29995533371E+02  0.62065959090E+01  0.54367095933E+02  0.40000026798E+02 0.  0.
         12    1    3    3    0    0 -0.20433431462E+02  0.29995533371E+02 -0.62065959090E+01  0.36820904067E+02  0.00000000000E+00 0. -1.
         11    1    4    4    0    0  0.76312454339E+01  0.69239057310E+01  0.63506946851E+01  0.12104036545E+02  0.51100000000E-03 0. -1.
        -11    1    4    4    0    0  0.15215504250E+02 -0.26093265229E+02  0.39015359497E+01  0.30456395764E+02  0.51100000000E-03 0.  1.
         12    1    4    4    0    0 -0.24133182221E+01 -0.10826173874E+02 -0.40456347257E+01  0.11806663623E+02  0.00000000000E+00 0. -1.
</event>
<event>
 8    1  0.1254059E-006  0.9118800E+02  0.7816164E-02  0.1184000E+00
        -11   -1    0    0    0    0  0.00000000000E+00  0.00000000000E+00  0.45593999997E+02  0.45594000000E+02  0.51100000000E-03 0. -1.
         11   -1    0    0    0    0 -0.00000000000E+00 -0.00000000000E+00 -0.45593999997E+02  0.45594000000E+02  0.51100000000E-03 0.  1.
         23    2    1    2    0    0  0.71054273576E-14  0.44408920985E-15 -0.44408920985E-15  0.91188000000E+02  0.91188000000E+02 0.  0.
    9900012    2    3    3    0    0 -0.36664107532E+02 -0.31523778455E+01 -0.12595648703E+01  0.54367071564E+02  0.39999971245E+02 0.  0.
        -12    1    3    3    0    0  0.36664107532E+02  0.31523778455E+01  0.12595648703E+01  0.36820928436E+02  0.00000000000E+00 0.  1.
         11    1    4    4    0    0 -0.41945262045E+01  0.78719362074E+01  0.44644264287E+01  0.99745943944E+01  0.51100000000E-03 0. -1.
        -11    1    4    4    0    0  0.43341592226E+01 -0.43938860319E+01 -0.30939201700E+01  0.69038766579E+01  0.51100000000E-03 0.  1.
         12    1    4    4    0    0 -0.36803740550E+02 -0.66304280210E+01 -0.26300711291E+01  0.37488600512E+02  0.00000000000E+00 0. -1.
</event>
<event>
 8    1  0.1254059E-006  0.9118800E+02  0.7816164E-02  0.1184000E+00
        -11   -1    0    0    0    0  0.00000000000E+00  0.00000000000E+00  0.45593999997E+02  0.45594000000E+02  0.51100000000E-03 0.  1.
         11   -1    0    0    0    0 -0.00000000000E+00 -0.00000000000E+00 -0.45593999997E+02  0.45594000000E+02  0.51100000000E-03 0. -1.
         23    2    1    2    0    0  0.00000000000E+00  0.00000000000E+00  0.00000000000E+00  0.91188000000E+02  0.91188000000E+02 0.  0.
    9900012    2    3    3    0    0  0.30858372883E+02  0.18300840161E+02  0.82837412432E+01  0.54367078005E+02  0.39999985928E+02 0.  0.
         12    1    3    3    0    0 -0.30858372883E+02 -0.18300840161E+02 -0.82837412432E+01  0.36820921995E+02  0.00000000000E+00 0. -1.
         11    1    4    4    0    0 -0.58067790126E+01 -0.33884544526E+01 -0.15166162353E+01  0.68920556545E+01  0.51100000000E-03 0. -1.
        -11    1    4    4    0    0  0.31133039692E+02  0.16242798921E+02  0.14943279236E+02  0.38162760275E+02  0.51100000000E-03 0.  1.
        -12    1    4    4    0    0  0.55321122040E+01  0.54464956920E+01 -0.51429217571E+01  0.93122620754E+01  0.00000000000E+00 0.  1.
</event>
<event>
 8    1  0.1254059E-006  0.9118800E+02  0.7816164E-02  0.1184000E+00
        -11   -1    0    0    0    0  0.00000000000E+00  0.00000000000E+00  0.45593999997E+02  0.45594000000E+02  0.51100000000E-03 0.  1.
         11   -1    0    0    0    0 -0.00000000000E+00 -0.00000000000E+00 -0.45593999997E+02  0.45594000000E+02  0.51100000000E-03 0. -1.
         23    2    1    2    0    0 -0.17763568394E-14  0.88817841970E-15  0.00000000000E+00  0.91188000000E+02  0.91188000000E+02 0.  0.
    9900012    2    3    3    0    0 -0.15832420993E+02  0.60409387057E+01  0.32689777190E+02  0.54367081656E+02  0.39999994251E+02 0.  0.
         12    1    3    3    0    0  0.15832420993E+02 -0.60409387057E+01 -0.32689777190E+02  0.36820918344E+02  0.00000000000E+00 0. -1.
         11    1    4    4    0    0 -0.77261992925E+01  0.21876474845E+02  0.16934412078E+02  0.28723659582E+02  0.51100000000E-03 0.  1.
        -11    1    4    4    0    0 -0.20144116597E+01 -0.13518455409E+02  0.98365246707E+01  0.16839350012E+02  0.51100000000E-03 0. -1.
        -12    1    4    4    0    0 -0.60918100405E+01 -0.23170807297E+01  0.59188404420E+01  0.88040720610E+01  0.00000000000E+00 0.  1.
</event>
<event>
 8    1  0.1254059E-006  0.9118800E+02  0.7816164E-02  0.1184000E+00
        -11   -1    0    0    0    0  0.00000000000E+00  0.00000000000E+00  0.45593999997E+02  0.45594000000E+02  0.51100000000E-03 0.  1.
         11   -1    0    0    0    0 -0.00000000000E+00 -0.00000000000E+00 -0.45593999997E+02  0.45594000000E+02  0.51100000000E-03 0. -1.
         23    2    1    2    0    0  0.00000000000E+00 -0.35527136788E-14 -0.35527136788E-14  0.91188000000E+02  0.91188000000E+02 0.  0.
    9900012    2    3    3    0    0 -0.34934097721E+01 -0.31432790480E+02 -0.18856181262E+02  0.54367084735E+02  0.40000001270E+02 0.  0.
        -12    1    3    3    0    0  0.34934097721E+01  0.31432790480E+02  0.18856181262E+02  0.36820915265E+02  0.00000000000E+00 0.  1.
         11    1    4    4    0    0  0.11730425421E+01 -0.31136262551E+01 -0.94443010764E+01  0.10013267216E+02  0.51100000000E-03 0. -1.
        -11    1    4    4    0    0  0.39620625302E+00  0.33272513919E+01  0.74289668126E+01  0.81496705077E+01  0.51100000000E-03 0.  1.
        -12    1    4    4    0    0 -0.50626585672E+01 -0.31646415617E+02 -0.16840846999E+02  0.36204147011E+02  0.00000000000E+00 0.  1.
</event>
<event>
 8    1  0.1254059E-006  0.9118800E+02  0.7816164E-02  0.1184000E+00
        -11   -1    0    0    0    0  0.00000000000E+00  0.00000000000E+00  0.45593999997E+02  0.45594000000E+02  0.51100000000E-03 0. -1.
         11   -1    0    0    0    0 -0.00000000000E+00 -0.00000000000E+00 -0.45593999997E+02  0.45594000000E+02  0.51100000000E-03 0.  1.
         23    2    1    2    0    0 -0.35527136788E-14  0.00000000000E+00 -0.35527136788E-14  0.91188000000E+02  0.91188000000E+02 0.  0.
    9900012    2    3    3    0    0  0.27511674189E+02 -0.61434340569E+01  0.23688560558E+02  0.54367056232E+02  0.39999936291E+02 0.  0.
        -12    1    3    3    0    0 -0.27511674189E+02  0.61434340569E+01 -0.23688560558E+02  0.36820943768E+02  0.00000000000E+00 0.  1.
         11    1    4    4    0    0  0.71453851443E+01 -0.17156054564E+00 -0.75329543960E+01  0.10384188176E+02  0.51100000000E-03 0. -1.
        -11    1    4    4    0    0  0.48450402470E+01  0.53232646865E+01 -0.15541848562E+00  0.71997025692E+01  0.51100000000E-03 0.  1.
         12    1    4    4    0    0  0.15521248798E+02 -0.11295138198E+02  0.31376933439E+02  0.36783165486E+02  0.00000000000E+00 0. -1.
</event>
<event>
 8    1  0.1254059E-006  0.9118800E+02  0.7816164E-02  0.1184000E+00
        -11   -1    0    0    0    0  0.00000000000E+00  0.00000000000E+00  0.45593999997E+02  0.45594000000E+02  0.51100000000E-03 0.  1.
         11   -1    0    0    0    0 -0.00000000000E+00 -0.00000000000E+00 -0.45593999997E+02  0.45594000000E+02  0.51100000000E-03 0. -1.
         23    2    1    2    0    0  0.00000000000E+00  0.00000000000E+00  0.00000000000E+00  0.91188000000E+02  0.91188000000E+02 0.  0.
    9900012    2    3    3    0    0  0.16928714156E+02  0.86630008456E+01 -0.31530153442E+02  0.54367088513E+02  0.40000009883E+02 0.  0.
        -12    1    3    3    0    0 -0.16928714156E+02 -0.86630008456E+01  0.31530153442E+02  0.36820911487E+02  0.00000000000E+00 0.  1.
         11    1    4    4    0    0  0.83544517922E+01  0.20137228456E+02 -0.26069220918E+02  0.33983953775E+02  0.51100000000E-03 0. -1.
        -11    1    4    4    0    0  0.54018909309E+01 -0.98218562538E+01  0.26501661304E+01  0.11518362153E+02  0.51100000000E-03 0.  1.
        -12    1    4    4    0    0  0.31723714332E+01 -0.16523713567E+01 -0.81110986546E+01  0.88647725857E+01  0.00000000000E+00 0.  1.
</event>
<event>
 8    1  0.1254059E-006  0.9118800E+02  0.7816164E-02  0.1184000E+00
        -11   -1    0    0    0    0  0.00000000000E+00  0.00000000000E+00  0.45593999997E+02  0.45594000000E+02  0.51100000000E-03 0.  1.
         11   -1    0    0    0    0 -0.00000000000E+00 -0.00000000000E+00 -0.45593999997E+02  0.45594000000E+02  0.51100000000E-03 0. -1.
         23    2    1    2    0    0 -0.44408920985E-15  0.00000000000E+00  0.66613381478E-15  0.91188000000E+02  0.91188000000E+02 0.  0.
    9900012    2    3    3    0    0  0.11450685555E+01  0.36799319262E+02  0.52775550005E+00  0.54367087382E+02  0.40000007304E+02 0.  0.
         12    1    3    3    0    0 -0.11450685555E+01 -0.36799319262E+02 -0.52775550005E+00  0.36820912618E+02  0.00000000000E+00 0. -1.
         11    1    4    4    0    0  0.11395839631E+02  0.12942118661E+02  0.18822252483E+00  0.17245260923E+02  0.51100000000E-03 0.  1.
        -11    1    4    4    0    0 -0.35503210949E+01 -0.23733093928E+01 -0.77650979349E+01  0.88619480675E+01  0.51100000000E-03 0. -1.
        -12    1    4    4    0    0 -0.67004499805E+01  0.26230509994E+02  0.81046309101E+01  0.28259878391E+02  0.00000000000E+00 0.  1.
</event>
<event>
 8    1  0.1254059E-006  0.9118800E+02  0.7816164E-02  0.1184000E+00
        -11   -1    0    0    0    0  0.00000000000E+00  0.00000000000E+00  0.45593999997E+02  0.45594000000E+02  0.51100000000E-03 0. -1.
         11   -1    0    0    0    0 -0.00000000000E+00 -0.00000000000E+00 -0.45593999997E+02  0.45594000000E+02  0.51100000000E-03 0.  1.
         23    2    1    2    0    0  0.44408920985E-15  0.00000000000E+00  0.71054273576E-14  0.91188000000E+02  0.91188000000E+02 0.  0.
    9900012    2    3    3    0    0 -0.39209242538E+01  0.58377463073E+01 -0.36143146309E+02  0.54367082656E+02  0.39999996531E+02 0.  0.
         12    1    3    3    0    0  0.39209242538E+01 -0.58377463073E+01  0.36143146309E+02  0.36820917344E+02  0.00000000000E+00 0. -1.
         11    1    4    4    0    0 -0.41689088744E+01  0.72274020094E+01  0.24970275778E+01  0.87092070818E+01  0.51100000000E-03 0. -1.
        -11    1    4    4    0    0  0.28681100861E+01  0.52211710456E+01 -0.38059724405E+02  0.38523100921E+02  0.51100000000E-03 0.  1.
         12    1    4    4    0    0 -0.26201254654E+01 -0.66108267477E+01 -0.58044948166E+00  0.71347746526E+01  0.00000000000E+00 0. -1.
</event>
<event>
 8    1  0.1254059E-006  0.9118800E+02  0.7816164E-02  0.1184000E+00
        -11   -1    0    0    0    0  0.00000000000E+00  0.00000000000E+00  0.45593999997E+02  0.45594000000E+02  0.51100000000E-03 0. -1.
         11   -1    0    0    0    0 -0.00000000000E+00 -0.00000000000E+00 -0.45593999997E+02  0.45594000000E+02  0.51100000000E-03 0.  1.
         23    2    1    2    0    0  0.17763568394E-14  0.00000000000E+00  0.00000000000E+00  0.91188000000E+02  0.91188000000E+02 0.  0.
    9900012    2    3    3    0    0  0.11842156859E+02 -0.29511680854E+02  0.18563491890E+02  0.54367092663E+02  0.40000019345E+02 0.  0.
        -12    1    3    3    0    0 -0.11842156859E+02  0.29511680854E+02 -0.18563491890E+02  0.36820907337E+02  0.00000000000E+00 0.  1.
         11    1    4    4    0    0  0.17357367279E+01 -0.11109382347E+01  0.11610928885E+02  0.11792397364E+02  0.51100000000E-03 0. -1.
        -11    1    4    4    0    0  0.75786562567E+01 -0.24696311555E+02 -0.79366855450E+01  0.27024707451E+02  0.51100000000E-03 0.  1.
        -12    1    4    4    0    0  0.25277638748E+01 -0.37044310643E+01  0.14889248550E+02  0.15549987849E+02  0.00000000000E+00 0.  1.
</event>
<event>
 8    1  0.1254059E-006  0.9118800E+02  0.7816164E-02  0.1184000E+00
        -11   -1    0    0    0    0  0.00000000000E+00  0.00000000000E+00  0.45593999997E+02  0.45594000000E+02  0.51100000000E-03 0.  1.
         11   -1    0    0    0    0 -0.00000000000E+00 -0.00000000000E+00 -0.45593999997E+02  0.45594000000E+02  0.51100000000E-03 0. -1.
         23    2    1    2    0    0 -0.71054273576E-14  0.00000000000E+00  0.72164496601E-15  0.91188000000E+02  0.91188000000E+02 0.  0.
    9900012    2    3    3    0    0 -0.36568265533E+02 -0.42868450400E+01  0.40379769577E+00  0.54367107330E+02  0.40000052779E+02 0.  0.
         12    1    3    3    0    0  0.36568265533E+02  0.42868450400E+01 -0.40379769577E+00  0.36820892670E+02  0.00000000000E+00 0. -1.
         11    1    4    4    0    0 -0.32640479829E+01  0.65044612423E+01 -0.56859832640E+01  0.92353901502E+01  0.51100000000E-03 0. -1.
        -11    1    4    4    0    0 -0.68723550614E+01 -0.95921902311E+01 -0.88465586410E+01  0.14747914346E+02  0.51100000000E-03 0.  1.
        -12    1    4    4    0    0 -0.26431862489E+02 -0.11991160512E+01  0.14936339601E+02  0.30383802833E+02  0.00000000000E+00 0.  1.
</event>
<event>
 8    1  0.1254059E-006  0.9118800E+02  0.7816164E-02  0.1184000E+00
        -11   -1    0    0    0    0  0.00000000000E+00  0.00000000000E+00  0.45593999997E+02  0.45594000000E+02  0.51100000000E-03 0.  1.
         11   -1    0    0    0    0 -0.00000000000E+00 -0.00000000000E+00 -0.45593999997E+02  0.45594000000E+02  0.51100000000E-03 0. -1.
         23    2    1    2    0    0  0.35527136788E-14  0.88817841970E-15  0.00000000000E+00  0.91188000000E+02  0.91188000000E+02 0.  0.
    9900012    2    3    3    0    0 -0.11570440321E+02  0.38265027430E+01 -0.34745696104E+02  0.54367073746E+02  0.39999976219E+02 0.  0.
        -12    1    3    3    0    0  0.11570440321E+02 -0.38265027430E+01  0.34745696104E+02  0.36820926254E+02  0.00000000000E+00 0.  1.
         11    1    4    4    0    0 -0.15045339853E+02 -0.11573019174E+02 -0.24482260006E+02  0.30978671362E+02  0.51100000000E-03 0.  1.
        -11    1    4    4    0    0  0.70478392358E+01  0.11248568526E+02 -0.11734659575E+02  0.17717352155E+02  0.51100000000E-03 0. -1.
        -12    1    4    4    0    0 -0.35729397039E+01  0.41509533915E+01  0.14712234767E+01  0.56710502294E+01  0.00000000000E+00 0.  1.
</event>
<event>
 8    1  0.1254059E-006  0.9118800E+02  0.7816164E-02  0.1184000E+00
        -11   -1    0    0    0    0  0.00000000000E+00  0.00000000000E+00  0.45593999997E+02  0.45594000000E+02  0.51100000000E-03 0.  1.
         11   -1    0    0    0    0 -0.00000000000E+00 -0.00000000000E+00 -0.45593999997E+02  0.45594000000E+02  0.51100000000E-03 0. -1.
         23    2    1    2    0    0  0.35527136788E-14 -0.17763568394E-14 -0.35527136788E-14  0.91188000000E+02  0.91188000000E+02 0.  0.
    9900012    2    3    3    0    0  0.24734891558E+02  0.15264445430E+02  0.22604505205E+02  0.54367057451E+02  0.39999939070E+02 0.  0.
         12    1    3    3    0    0 -0.24734891558E+02 -0.15264445430E+02 -0.22604505205E+02  0.36820942549E+02  0.00000000000E+00 0. -1.
         11    1    4    4    0    0 -0.30513934785E+01  0.24860759070E+01 -0.50219266337E+01  0.63805425280E+01  0.51100000000E-03 0. -1.
        -11    1    4    4    0    0  0.14597146535E+02 -0.33591832433E+01  0.21610488293E+02  0.26293991776E+02  0.51100000000E-03 0.  1.
        -12    1    4    4    0    0  0.13189138502E+02  0.16137552766E+02  0.60159435459E+01  0.21692523146E+02  0.00000000000E+00 0.  1.
</event>
<event>
 8    1  0.1254059E-006  0.9118800E+02  0.7816164E-02  0.1184000E+00
        -11   -1    0    0    0    0  0.00000000000E+00  0.00000000000E+00  0.45593999997E+02  0.45594000000E+02  0.51100000000E-03 0. -1.
         11   -1    0    0    0    0 -0.00000000000E+00 -0.00000000000E+00 -0.45593999997E+02  0.45594000000E+02  0.51100000000E-03 0.  1.
         23    2    1    2    0    0  0.00000000000E+00  0.00000000000E+00 -0.35527136788E-14  0.91188000000E+02  0.91188000000E+02 0.  0.
    9900012    2    3    3    0    0  0.17983636531E+01 -0.20500434009E+02  0.30533098260E+02  0.54367190724E+02  0.40000242893E+02 0.  0.
        -12    1    3    3    0    0 -0.17983636531E+01  0.20500434009E+02 -0.30533098260E+02  0.36820809276E+02  0.00000000000E+00 0.  1.
         11    1    4    4    0    0 -0.14015629109E+01  0.10893363820E+02  0.79013845196E+01  0.13530027032E+02  0.51100000000E-03 0. -1.
        -11    1    4    4    0    0  0.15923416007E+00  0.34545565569E+00 -0.10521248908E+01  0.11187770890E+01  0.51100000000E-03 0.  1.
        -12    1    4    4    0    0  0.30406924039E+01 -0.31739253484E+02  0.23683838631E+02  0.39718386603E+02  0.00000000000E+00 0.  1.
</event>
<event>
 8    1  0.1254059E-006  0.9118800E+02  0.7816164E-02  0.1184000E+00
        -11   -1    0    0    0    0  0.00000000000E+00  0.00000000000E+00  0.45593999997E+02  0.45594000000E+02  0.51100000000E-03 0.  1.
         11   -1    0    0    0    0 -0.00000000000E+00 -0.00000000000E+00 -0.45593999997E+02  0.45594000000E+02  0.51100000000E-03 0. -1.
         23    2    1    2    0    0 -0.17763568394E-14 -0.35527136788E-14  0.00000000000E+00  0.91188000000E+02  0.91188000000E+02 0.  0.
    9900012    2    3    3    0    0 -0.10178520110E+02 -0.24165127542E+02 -0.25850042303E+02  0.54367077309E+02  0.39999984340E+02 0.  0.
        -12    1    3    3    0    0  0.10178520110E+02  0.24165127542E+02  0.25850042303E+02  0.36820922691E+02  0.00000000000E+00 0.  1.
         11    1    4    4    0    0  0.19551499655E+01  0.93101151432E+01 -0.53878178018E+01  0.10932951856E+02  0.51100000000E-03 0.  1.
        -11    1    4    4    0    0 -0.37251829886E+01 -0.11483705141E+02 -0.15017450740E+02  0.19268531316E+02  0.51100000000E-03 0. -1.
         12    1    4    4    0    0 -0.84084870870E+01 -0.21991537545E+02 -0.54447737611E+01  0.24165594137E+02  0.00000000000E+00 0. -1.
</event>
<event>
 8    1  0.1254059E-006  0.9118800E+02  0.7816164E-02  0.1184000E+00
        -11   -1    0    0    0    0  0.00000000000E+00  0.00000000000E+00  0.45593999997E+02  0.45594000000E+02  0.51100000000E-03 0.  1.
         11   -1    0    0    0    0 -0.00000000000E+00 -0.00000000000E+00 -0.45593999997E+02  0.45594000000E+02  0.51100000000E-03 0. -1.
         23    2    1    2    0    0  0.44408920985E-15 -0.35527136788E-14  0.71054273576E-14  0.91188000000E+02  0.91188000000E+02 0.  0.
    9900012    2    3    3    0    0  0.37438863925E+01 -0.11120449981E+02  0.34901124019E+02  0.54367223924E+02  0.40000318578E+02 0.  0.
         12    1    3    3    0    0 -0.37438863925E+01  0.11120449981E+02 -0.34901124019E+02  0.36820776076E+02  0.00000000000E+00 0. -1.
         11    1    4    4    0    0  0.31490408233E+00 -0.60128186001E+01 -0.62960280231E+01  0.87116658124E+01  0.51100000000E-03 0. -1.
        -11    1    4    4    0    0 -0.79142563847E+00  0.63912773255E+01  0.79961329185E+01  0.10267079541E+02  0.51100000000E-03 0.  1.
        -12    1    4    4    0    0  0.42204079487E+01 -0.11498908706E+02  0.33201019123E+02  0.35388478570E+02  0.00000000000E+00 0.  1.
</event>
<event>
 8    1  0.1254059E-006  0.9118800E+02  0.7816164E-02  0.1184000E+00
        -11   -1    0    0    0    0  0.00000000000E+00  0.00000000000E+00  0.45593999997E+02  0.45594000000E+02  0.51100000000E-03 0.  1.
         11   -1    0    0    0    0 -0.00000000000E+00 -0.00000000000E+00 -0.45593999997E+02  0.45594000000E+02  0.51100000000E-03 0. -1.
         23    2    1    2    0    0 -0.88817841970E-15  0.88817841970E-15  0.00000000000E+00  0.91188000000E+02  0.91188000000E+02 0.  0.
    9900012    2    3    3    0    0 -0.49746133594E+01 -0.52850388399E+01  0.36098492747E+02  0.54367087569E+02  0.40000007731E+02 0.  0.
         12    1    3    3    0    0  0.49746133594E+01  0.52850388399E+01 -0.36098492747E+02  0.36820912431E+02  0.00000000000E+00 0. -1.
         11    1    4    4    0    0  0.85571487100E+01  0.19810889691E+01  0.99190221144E+01  0.13249019115E+02  0.51100000000E-03 0. -1.
        -11    1    4    4    0    0 -0.20413031331E+02 -0.75155353665E+01  0.10839870875E+02  0.24303866376E+02  0.51100000000E-03 0.  1.
        -12    1    4    4    0    0  0.68812692617E+01  0.24940755756E+00  0.15339599758E+02  0.16814202078E+02  0.00000000000E+00 0.  1.
</event>
<event>
 8    1  0.1254059E-006  0.9118800E+02  0.7816164E-02  0.1184000E+00
        -11   -1    0    0    0    0  0.00000000000E+00  0.00000000000E+00  0.45593999997E+02  0.45594000000E+02  0.51100000000E-03 0. -1.
         11   -1    0    0    0    0 -0.00000000000E+00 -0.00000000000E+00 -0.45593999997E+02  0.45594000000E+02  0.51100000000E-03 0.  1.
         23    2    1    2    0    0 -0.35527136788E-14  0.88817841970E-15  0.00000000000E+00  0.91188000000E+02  0.91188000000E+02 0.  0.
    9900012    2    3    3    0    0 -0.22102489307E+02 -0.60196160582E+01  0.28827489623E+02  0.54367082453E+02  0.39999996068E+02 0.  0.
        -12    1    3    3    0    0  0.22102489307E+02  0.60196160582E+01 -0.28827489623E+02  0.36820917547E+02  0.00000000000E+00 0.  1.
         11    1    4    4    0    0  0.31665307435E+01 -0.16355103689E+02  0.16195064697E+02  0.23233520061E+02  0.51100000000E-03 0. -1.
        -11    1    4    4    0    0 -0.22104463487E+02  0.81964159056E+01  0.13568328412E+02  0.27200883734E+02  0.51100000000E-03 0.  1.
         12    1    4    4    0    0 -0.31645565635E+01  0.21390717250E+01 -0.93590348636E+00  0.39326786576E+01  0.00000000000E+00 0. -1.
</event>
<event>
 8    1  0.1254059E-006  0.9118800E+02  0.7816164E-02  0.1184000E+00
        -11   -1    0    0    0    0  0.00000000000E+00  0.00000000000E+00  0.45593999997E+02  0.45594000000E+02  0.51100000000E-03 0.  1.
         11   -1    0    0    0    0 -0.00000000000E+00 -0.00000000000E+00 -0.45593999997E+02  0.45594000000E+02  0.51100000000E-03 0. -1.
         23    2    1    2    0    0  0.13322676296E-14 -0.53290705182E-14 -0.71054273576E-14  0.91188000000E+02  0.91188000000E+02 0.  0.
    9900012    2    3    3    0    0  0.24636691825E+01  0.13045455371E+02 -0.34344235340E+02  0.54367081044E+02  0.39999992855E+02 0.  0.
        -12    1    3    3    0    0 -0.24636691825E+01 -0.13045455371E+02  0.34344235340E+02  0.36820918956E+02  0.00000000000E+00 0.  1.
         11    1    4    4    0    0 -0.11897404087E+02 -0.50389496883E+01 -0.10058362357E+02  0.16374061547E+02  0.51100000000E-03 0.  1.
        -11    1    4    4    0    0  0.14317905833E+02  0.21483266789E+02 -0.21352903183E+02  0.33503427496E+02  0.51100000000E-03 0. -1.
         12    1    4    4    0    0  0.43167437251E-01 -0.33988617297E+01 -0.29329698001E+01  0.44895920008E+01  0.00000000000E+00 0. -1.
</event>
<event>
 8    1  0.1254059E-006  0.9118800E+02  0.7816164E-02  0.1184000E+00
        -11   -1    0    0    0    0  0.00000000000E+00  0.00000000000E+00  0.45593999997E+02  0.45594000000E+02  0.51100000000E-03 0.  1.
         11   -1    0    0    0    0 -0.00000000000E+00 -0.00000000000E+00 -0.45593999997E+02  0.45594000000E+02  0.51100000000E-03 0. -1.
         23    2    1    2    0    0 -0.17763568394E-14  0.00000000000E+00  0.00000000000E+00  0.91188000000E+02  0.91188000000E+02 0.  0.
    9900012    2    3    3    0    0 -0.10775437141E+02  0.29637421611E+02  0.19007716031E+02  0.54367081026E+02  0.39999992815E+02 0.  0.
         12    1    3    3    0    0  0.10775437141E+02 -0.29637421611E+02 -0.19007716031E+02  0.36820918974E+02  0.00000000000E+00 0. -1.
         11    1    4    4    0    0  0.93218038907E+01  0.46357520087E+01  0.66191110067E+01  0.12336890015E+02  0.51100000000E-03 0. -1.
        -11    1    4    4    0    0 -0.62425046449E+01  0.11734000943E+02  0.17691381452E+02  0.22127824573E+02  0.51100000000E-03 0.  1.
         12    1    4    4    0    0 -0.13854736387E+02  0.13267668659E+02 -0.53027764274E+01  0.19902366439E+02  0.00000000000E+00 0. -1.
</event>
<event>
 8    1  0.1254059E-006  0.9118800E+02  0.7816164E-02  0.1184000E+00
        -11   -1    0    0    0    0  0.00000000000E+00  0.00000000000E+00  0.45593999997E+02  0.45594000000E+02  0.51100000000E-03 0.  1.
         11   -1    0    0    0    0 -0.00000000000E+00 -0.00000000000E+00 -0.45593999997E+02  0.45594000000E+02  0.51100000000E-03 0. -1.
         23    2    1    2    0    0  0.00000000000E+00 -0.35527136788E-14  0.35527136788E-14  0.91188000000E+02  0.91188000000E+02 0.  0.
    9900012    2    3    3    0    0  0.23162819081E+02  0.22547340944E+02 -0.17631806243E+02  0.54367090685E+02  0.40000014834E+02 0.  0.
         12    1    3    3    0    0 -0.23162819081E+02 -0.22547340944E+02  0.17631806243E+02  0.36820909315E+02  0.00000000000E+00 0. -1.
         11    1    4    4    0    0  0.12254014393E+00 -0.10173322149E+02 -0.64611886449E+00  0.10194555875E+02  0.51100000000E-03 0. -1.
        -11    1    4    4    0    0  0.19484192223E+02  0.21576801959E+02 -0.11753590059E+02  0.31358236699E+02  0.51100000000E-03 0.  1.
         12    1    4    4    0    0  0.35560867143E+01  0.11143861134E+02 -0.52320973198E+01  0.12814298111E+02  0.00000000000E+00 0. -1.
</event>
<event>
 8    1  0.1254059E-006  0.9118800E+02  0.7816164E-02  0.1184000E+00
        -11   -1    0    0    0    0  0.00000000000E+00  0.00000000000E+00  0.45593999997E+02  0.45594000000E+02  0.51100000000E-03 0.  1.
         11   -1    0    0    0    0 -0.00000000000E+00 -0.00000000000E+00 -0.45593999997E+02  0.45594000000E+02  0.51100000000E-03 0. -1.
         23    2    1    2    0    0 -0.17763568394E-14  0.00000000000E+00 -0.35527136788E-14  0.91188000000E+02  0.91188000000E+02 0.  0.
    9900012    2    3    3    0    0 -0.10285792323E+02  0.24917415804E+02 -0.25082051792E+02  0.54367021521E+02  0.39999857160E+02 0.  0.
        -12    1    3    3    0    0  0.10285792323E+02 -0.24917415804E+02  0.25082051792E+02  0.36820978479E+02  0.00000000000E+00 0.  1.
         11    1    4    4    0    0 -0.14613516283E+02  0.31256915382E+02 -0.17471566346E+02  0.38675641536E+02  0.51100000000E-03 0. -1.
        -11    1    4    4    0    0  0.64009800014E+01 -0.73893043750E+01 -0.87346517136E+01  0.13109862888E+02  0.51100000000E-03 0.  1.
        -12    1    4    4    0    0 -0.20732560415E+01  0.10498047971E+01  0.11241662672E+01  0.25815170970E+01  0.00000000000E+00 0.  1.
</event>
<event>
 8    1  0.1254059E-006  0.9118800E+02  0.7816164E-02  0.1184000E+00
        -11   -1    0    0    0    0  0.00000000000E+00  0.00000000000E+00  0.45593999997E+02  0.45594000000E+02  0.51100000000E-03 0.  1.
         11   -1    0    0    0    0 -0.00000000000E+00 -0.00000000000E+00 -0.45593999997E+02  0.45594000000E+02  0.51100000000E-03 0. -1.
         23    2    1    2    0    0  0.19984014443E-14 -0.88817841970E-15  0.71054273576E-14  0.91188000000E+02  0.91188000000E+02 0.  0.
    9900012    2    3    3    0    0  0.69150032162E+00 -0.32843518305E+01 -0.36667626811E+02  0.54367082092E+02  0.39999995246E+02 0.  0.
        -12    1    3    3    0    0 -0.69150032162E+00  0.32843518305E+01  0.36667626811E+02  0.36820917908E+02  0.00000000000E+00 0.  1.
         11    1    4    4    0    0 -0.57213908843E+01 -0.87627680475E+00 -0.12937262212E+01  0.59309276244E+01  0.51100000000E-03 0. -1.
        -11    1    4    4    0    0 -0.80682607203E+01  0.52349852811E+01 -0.17994455070E+00  0.96194741148E+01  0.51100000000E-03 0.  1.
         12    1    4    4    0    0  0.14481151926E+02 -0.76430603068E+01 -0.35193956039E+02  0.38816680353E+02  0.00000000000E+00 0. -1.
</event>
<event>
 8    1  0.1254059E-006  0.9118800E+02  0.7816164E-02  0.1184000E+00
        -11   -1    0    0    0    0  0.00000000000E+00  0.00000000000E+00  0.45593999997E+02  0.45594000000E+02  0.51100000000E-03 0. -1.
         11   -1    0    0    0    0 -0.00000000000E+00 -0.00000000000E+00 -0.45593999997E+02  0.45594000000E+02  0.51100000000E-03 0.  1.
         23    2    1    2    0    0  0.00000000000E+00  0.00000000000E+00  0.38857805862E-15  0.91188000000E+02  0.91188000000E+02 0.  0.
    9900012    2    3    3    0    0  0.19011683030E+02 -0.31530896102E+02 -0.37020623035E+00  0.54367101678E+02  0.40000039894E+02 0.  0.
         12    1    3    3    0    0 -0.19011683030E+02  0.31530896102E+02  0.37020623035E+00  0.36820898322E+02  0.00000000000E+00 0. -1.
         11    1    4    4    0    0 -0.65087560137E+01 -0.26444838970E+02 -0.26138873043E+01  0.27359199917E+02  0.51100000000E-03 0. -1.
        -11    1    4    4    0    0  0.19351581771E+02 -0.64342259030E+01  0.27991167150E+00  0.20395130076E+02  0.51100000000E-03 0.  1.
         12    1    4    4    0    0  0.61688572733E+01  0.13481687710E+01  0.19637694025E+01  0.66127716851E+01  0.00000000000E+00 0. -1.
</event>
<event>
 8    1  0.1254059E-006  0.9118800E+02  0.7816164E-02  0.1184000E+00
        -11   -1    0    0    0    0  0.00000000000E+00  0.00000000000E+00  0.45593999997E+02  0.45594000000E+02  0.51100000000E-03 0. -1.
         11   -1    0    0    0    0 -0.00000000000E+00 -0.00000000000E+00 -0.45593999997E+02  0.45594000000E+02  0.51100000000E-03 0.  1.
         23    2    1    2    0    0  0.71054273576E-14  0.00000000000E+00  0.00000000000E+00  0.91188000000E+02  0.91188000000E+02 0.  0.
    9900012    2    3    3    0    0 -0.32025114971E+02 -0.15570993800E+02  0.93658320326E+01  0.54367046094E+02  0.39999913181E+02 0.  0.
        -12    1    3    3    0    0  0.32025114971E+02  0.15570993800E+02 -0.93658320326E+01  0.36820953906E+02  0.00000000000E+00 0.  1.
         11    1    4    4    0    0 -0.33047233464E+02 -0.21591410044E+02  0.10125566799E+02  0.40753352385E+02  0.51100000000E-03 0. -1.
        -11    1    4    4    0    0  0.34529073527E+01  0.28883728754E+01  0.49317960649E+01  0.66774156483E+01  0.51100000000E-03 0.  1.
         12    1    4    4    0    0 -0.24307888600E+01  0.31320433682E+01 -0.56915308314E+01  0.69362780616E+01  0.00000000000E+00 0. -1.
</event>
<event>
 8    1  0.1254059E-006  0.9118800E+02  0.7816164E-02  0.1184000E+00
        -11   -1    0    0    0    0  0.00000000000E+00  0.00000000000E+00  0.45593999997E+02  0.45594000000E+02  0.51100000000E-03 0. -1.
         11   -1    0    0    0    0 -0.00000000000E+00 -0.00000000000E+00 -0.45593999997E+02  0.45594000000E+02  0.51100000000E-03 0.  1.
         23    2    1    2    0    0 -0.13322676296E-14  0.71054273576E-14  0.00000000000E+00  0.91188000000E+02  0.91188000000E+02 0.  0.
    9900012    2    3    3    0    0  0.22062710522E+01 -0.36295982930E+02  0.57890386062E+01  0.54367095926E+02  0.40000026783E+02 0.  0.
        -12    1    3    3    0    0 -0.22062710522E+01  0.36295982930E+02 -0.57890386062E+01  0.36820904074E+02  0.00000000000E+00 0.  1.
         11    1    4    4    0    0  0.10307221625E+02 -0.79582758379E+01  0.57979900077E+01  0.14254461068E+02  0.51100000000E-03 0. -1.
        -11    1    4    4    0    0 -0.13884083082E+01 -0.56026310787E+01 -0.12170363630E+02  0.13469777422E+02  0.51100000000E-03 0.  1.
        -12    1    4    4    0    0 -0.67125422647E+01 -0.22735076014E+02  0.12161412229E+02  0.26642857437E+02  0.00000000000E+00 0.  1.
</event>
<event>
 8    1  0.1254059E-006  0.9118800E+02  0.7816164E-02  0.1184000E+00
        -11   -1    0    0    0    0  0.00000000000E+00  0.00000000000E+00  0.45593999997E+02  0.45594000000E+02  0.51100000000E-03 0. -1.
         11   -1    0    0    0    0 -0.00000000000E+00 -0.00000000000E+00 -0.45593999997E+02  0.45594000000E+02  0.51100000000E-03 0.  1.
         23    2    1    2    0    0  0.00000000000E+00  0.88817841970E-15  0.14210854715E-13  0.91188000000E+02  0.91188000000E+02 0.  0.
    9900012    2    3    3    0    0 -0.11319765573E+02  0.61381983704E+01  0.34495839531E+02  0.54367115752E+02  0.40000071979E+02 0.  0.
        -12    1    3    3    0    0  0.11319765573E+02 -0.61381983704E+01 -0.34495839531E+02  0.36820884248E+02  0.00000000000E+00 0.  1.
         11    1    4    4    0    0 -0.41709837673E+01 -0.25245863395E+01  0.64720676540E+01  0.81029810411E+01  0.51100000000E-03 0. -1.
        -11    1    4    4    0    0 -0.26127121932E+01 -0.54803983017E+01 -0.63702690599E+01  0.88000771989E+01  0.51100000000E-03 0.  1.
        -12    1    4    4    0    0 -0.45360696125E+01  0.14143183012E+02  0.34394040937E+02  0.37464057512E+02  0.00000000000E+00 0.  1.
</event>
<event>
 8    1  0.1254059E-006  0.9118800E+02  0.7816164E-02  0.1184000E+00
        -11   -1    0    0    0    0  0.00000000000E+00  0.00000000000E+00  0.45593999997E+02  0.45594000000E+02  0.51100000000E-03 0.  1.
         11   -1    0    0    0    0 -0.00000000000E+00 -0.00000000000E+00 -0.45593999997E+02  0.45594000000E+02  0.51100000000E-03 0. -1.
         23    2    1    2    0    0  0.00000000000E+00  0.00000000000E+00 -0.26645352591E-14  0.91188000000E+02  0.91188000000E+02 0.  0.
    9900012    2    3    3    0    0  0.32344958384E+02  0.17255181952E+02  0.34410062069E+01  0.54367107007E+02  0.40000052045E+02 0.  0.
         12    1    3    3    0    0 -0.32344958384E+02 -0.17255181952E+02 -0.34410062069E+01  0.36820892993E+02  0.00000000000E+00 0. -1.
         11    1    4    4    0    0  0.28384274481E+01  0.47510558919E+01 -0.22222730025E+01  0.59638661978E+01  0.51100000000E-03 0. -1.
        -11    1    4    4    0    0  0.27068033907E+02  0.14548869430E+02 -0.10080251899E+02  0.32341297746E+02  0.51100000000E-03 0.  1.
        -12    1    4    4    0    0  0.24384970295E+01 -0.20447433709E+01  0.15743531109E+02  0.16061943064E+02  0.00000000000E+00 0.  1.
</event>
<event>
 8    1  0.1254059E-006  0.9118800E+02  0.7816164E-02  0.1184000E+00
        -11   -1    0    0    0    0  0.00000000000E+00  0.00000000000E+00  0.45593999997E+02  0.45594000000E+02  0.51100000000E-03 0.  1.
         11   -1    0    0    0    0 -0.00000000000E+00 -0.00000000000E+00 -0.45593999997E+02  0.45594000000E+02  0.51100000000E-03 0. -1.
         23    2    1    2    0    0  0.17763568394E-14  0.17763568394E-14  0.71054273576E-14  0.91188000000E+02  0.91188000000E+02 0.  0.
    9900012    2    3    3    0    0 -0.10289757072E+02  0.14138821460E+02 -0.32403613599E+02  0.54367088181E+02  0.40000009127E+02 0.  0.
        -12    1    3    3    0    0  0.10289757072E+02 -0.14138821460E+02  0.32403613599E+02  0.36820911819E+02  0.00000000000E+00 0.  1.
         11    1    4    4    0    0 -0.83006317130E+01  0.22335308936E+02 -0.23560093210E+02  0.33508872026E+02  0.51100000000E-03 0. -1.
        -11    1    4    4    0    0 -0.77155396152E+01 -0.93253578502E+01 -0.88965815251E+01  0.15021351926E+02  0.51100000000E-03 0.  1.
        -12    1    4    4    0    0  0.57264142558E+01  0.11288703735E+01  0.53061136107E-01  0.58368642295E+01  0.00000000000E+00 0.  1.
</event>
<event>
 8    1  0.1254059E-006  0.9118800E+02  0.7816164E-02  0.1184000E+00
        -11   -1    0    0    0    0  0.00000000000E+00  0.00000000000E+00  0.45593999997E+02  0.45594000000E+02  0.51100000000E-03 0. -1.
         11   -1    0    0    0    0 -0.00000000000E+00 -0.00000000000E+00 -0.45593999997E+02  0.45594000000E+02  0.51100000000E-03 0.  1.
         23    2    1    2    0    0  0.00000000000E+00  0.71054273576E-14  0.00000000000E+00  0.91188000000E+02  0.91188000000E+02 0.  0.
    9900012    2    3    3    0    0 -0.25022682276E+01 -0.31570282639E+02  0.18783904103E+02  0.54367093635E+02  0.40000021559E+02 0.  0.
        -12    1    3    3    0    0  0.25022682276E+01  0.31570282639E+02 -0.18783904103E+02  0.36820906365E+02  0.00000000000E+00 0.  1.
         11    1    4    4    0    0 -0.67256443397E+00 -0.26858771906E+01 -0.45329275363E+01  0.53116580755E+01  0.51100000000E-03 0. -1.
        -11    1    4    4    0    0 -0.59784886799E+01 -0.14491517521E+02 -0.54712184936E+01  0.16603633308E+02  0.51100000000E-03 0.  1.
         12    1    4    4    0    0  0.41487848863E+01 -0.14392887928E+02  0.28788050133E+02  0.32451802252E+02  0.00000000000E+00 0. -1.
</event>
<event>
 8    1  0.1254059E-006  0.9118800E+02  0.7816164E-02  0.1184000E+00
        -11   -1    0    0    0    0  0.00000000000E+00  0.00000000000E+00  0.45593999997E+02  0.45594000000E+02  0.51100000000E-03 0. -1.
         11   -1    0    0    0    0 -0.00000000000E+00 -0.00000000000E+00 -0.45593999997E+02  0.45594000000E+02  0.51100000000E-03 0.  1.
         23    2    1    2    0    0  0.00000000000E+00  0.00000000000E+00  0.17763568394E-14  0.91188000000E+02  0.91188000000E+02 0.  0.
    9900012    2    3    3    0    0  0.34480268511E+02 -0.49728300394E+01  0.11923165607E+02  0.54367084296E+02  0.40000000269E+02 0.  0.
        -12    1    3    3    0    0 -0.34480268511E+02  0.49728300394E+01 -0.11923165607E+02  0.36820915704E+02  0.00000000000E+00 0.  1.
         11    1    4    4    0    0 -0.39518810221E+01 -0.12113470948E+01  0.92684533023E+01  0.10148347268E+02  0.51100000000E-03 0. -1.
        -11    1    4    4    0    0  0.74922466667E+01  0.61875622909E+00 -0.82132351125E+01  0.11134354524E+02  0.51100000000E-03 0.  1.
         12    1    4    4    0    0  0.30939902867E+02 -0.43802391737E+01  0.10867947417E+02  0.33084382504E+02  0.00000000000E+00 0. -1.
</event>
<event>
 8    1  0.1254059E-006  0.9118800E+02  0.7816164E-02  0.1184000E+00
        -11   -1    0    0    0    0  0.00000000000E+00  0.00000000000E+00  0.45593999997E+02  0.45594000000E+02  0.51100000000E-03 0.  1.
         11   -1    0    0    0    0 -0.00000000000E+00 -0.00000000000E+00 -0.45593999997E+02  0.45594000000E+02  0.51100000000E-03 0. -1.
         23    2    1    2    0    0  0.00000000000E+00 -0.88817841970E-15  0.00000000000E+00  0.91188000000E+02  0.91188000000E+02 0.  0.
    9900012    2    3    3    0    0 -0.19289856735E+02  0.77818645787E+01  0.30382936305E+02  0.54367098223E+02  0.40000032019E+02 0.  0.
         12    1    3    3    0    0  0.19289856735E+02 -0.77818645787E+01 -0.30382936305E+02  0.36820901777E+02  0.00000000000E+00 0. -1.
         11    1    4    4    0    0  0.35297953804E+01 -0.60627131000E+01  0.35083561324E+01  0.78437560245E+01  0.51100000000E-03 0. -1.
        -11    1    4    4    0    0 -0.13188607321E+02  0.53075441753E+01  0.30071086801E+02  0.33262285699E+02  0.51100000000E-03 0.  1.
        -12    1    4    4    0    0 -0.96310447943E+01  0.85370335034E+01 -0.31965066288E+01  0.13261056500E+02  0.00000000000E+00 0.  1.
</event>
<event>
 8    1  0.1254059E-006  0.9118800E+02  0.7816164E-02  0.1184000E+00
        -11   -1    0    0    0    0  0.00000000000E+00  0.00000000000E+00  0.45593999997E+02  0.45594000000E+02  0.51100000000E-03 0.  1.
         11   -1    0    0    0    0 -0.00000000000E+00 -0.00000000000E+00 -0.45593999997E+02  0.45594000000E+02  0.51100000000E-03 0. -1.
         23    2    1    2    0    0  0.00000000000E+00 -0.17763568394E-14  0.00000000000E+00  0.91188000000E+02  0.91188000000E+02 0.  0.
    9900012    2    3    3    0    0 -0.35638052317E+02 -0.84580003391E+01 -0.37644843801E+01  0.54367083589E+02  0.39999998658E+02 0.  0.
         12    1    3    3    0    0  0.35638052317E+02  0.84580003391E+01  0.37644843801E+01  0.36820916411E+02  0.00000000000E+00 0. -1.
         11    1    4    4    0    0 -0.80681263481E+01 -0.10122796353E+02  0.31351000921E+01  0.13318953473E+02  0.51100000000E-03 0. -1.
        -11    1    4    4    0    0 -0.57161392705E+01  0.18542197726E+01 -0.16213703159E+02  0.17291516693E+02  0.51100000000E-03 0.  1.
        -12    1    4    4    0    0 -0.21853786699E+02 -0.18942375855E+00  0.93141186872E+01  0.23756613423E+02  0.00000000000E+00 0.  1.
</event>
<event>
 8    1  0.1254059E-006  0.9118800E+02  0.7816164E-02  0.1184000E+00
        -11   -1    0    0    0    0  0.00000000000E+00  0.00000000000E+00  0.45593999997E+02  0.45594000000E+02  0.51100000000E-03 0.  1.
         11   -1    0    0    0    0 -0.00000000000E+00 -0.00000000000E+00 -0.45593999997E+02  0.45594000000E+02  0.51100000000E-03 0. -1.
         23    2    1    2    0    0  0.00000000000E+00 -0.66613381478E-15  0.17763568394E-14  0.91188000000E+02  0.91188000000E+02 0.  0.
    9900012    2    3    3    0    0 -0.33224711322E+02 -0.13469719228E+01 -0.15814206476E+02  0.54367015463E+02  0.39999843350E+02 0.  0.
        -12    1    3    3    0    0  0.33224711322E+02  0.13469719228E+01  0.15814206476E+02  0.36820984537E+02  0.00000000000E+00 0.  1.
         11    1    4    4    0    0 -0.51845184591E+01  0.62012588735E+01 -0.36948719912E+01  0.88874587235E+01  0.51100000000E-03 0. -1.
        -11    1    4    4    0    0 -0.26696220318E+02  0.58382705594E+01  0.66802015165E-01  0.27327239985E+02  0.51100000000E-03 0.  1.
        -12    1    4    4    0    0 -0.13439725448E+01 -0.13386501356E+02 -0.12186136500E+02  0.18152316754E+02  0.00000000000E+00 0.  1.
</event>
<event>
 8    1  0.1254059E-006  0.9118800E+02  0.7816164E-02  0.1184000E+00
        -11   -1    0    0    0    0  0.00000000000E+00  0.00000000000E+00  0.45593999997E+02  0.45594000000E+02  0.51100000000E-03 0.  1.
         11   -1    0    0    0    0 -0.00000000000E+00 -0.00000000000E+00 -0.45593999997E+02  0.45594000000E+02  0.51100000000E-03 0. -1.
         23    2    1    2    0    0  0.00000000000E+00  0.17763568394E-14 -0.11102230246E-14  0.91188000000E+02  0.91188000000E+02 0.  0.
    9900012    2    3    3    0    0 -0.35534365174E+02 -0.95693353157E+01  0.12331135850E+01  0.54367029673E+02  0.39999875746E+02 0.  0.
         12    1    3    3    0    0  0.35534365174E+02  0.95693353157E+01 -0.12331135850E+01  0.36820970327E+02  0.00000000000E+00 0. -1.
         11    1    4    4    0    0 -0.24743504547E+01 -0.69546266627E+01 -0.92347120563E+01  0.11822400315E+02  0.51100000000E-03 0. -1.
        -11    1    4    4    0    0 -0.11084630114E+02  0.10311927227E+02  0.74437296454E+01  0.16870506193E+02  0.51100000000E-03 0.  1.
         12    1    4    4    0    0 -0.21975384605E+02 -0.12926635880E+02  0.30240959959E+01  0.25674123165E+02  0.00000000000E+00 0. -1.
</event>
<event>
 8    1  0.1254059E-006  0.9118800E+02  0.7816164E-02  0.1184000E+00
        -11   -1    0    0    0    0  0.00000000000E+00  0.00000000000E+00  0.45593999997E+02  0.45594000000E+02  0.51100000000E-03 0. -1.
         11   -1    0    0    0    0 -0.00000000000E+00 -0.00000000000E+00 -0.45593999997E+02  0.45594000000E+02  0.51100000000E-03 0.  1.
         23    2    1    2    0    0  0.00000000000E+00  0.35527136788E-14 -0.35527136788E-14  0.91188000000E+02  0.91188000000E+02 0.  0.
    9900012    2    3    3    0    0  0.13531093413E+02  0.29589932355E+02  0.17237308923E+02  0.54367090117E+02  0.40000013539E+02 0.  0.
         12    1    3    3    0    0 -0.13531093413E+02 -0.29589932355E+02 -0.17237308923E+02  0.36820909883E+02  0.00000000000E+00 0. -1.
         11    1    4    4    0    0  0.29608403759E+01  0.79700079602E+00  0.69994120037E+01  0.76415675525E+01  0.51100000000E-03 0. -1.
        -11    1    4    4    0    0  0.63815610399E+01  0.12623627723E+01  0.16885869414E+02  0.18095592480E+02  0.51100000000E-03 0.  1.
        -12    1    4    4    0    0  0.41886919971E+01  0.27530568786E+02 -0.66479724946E+01  0.28629930084E+02  0.00000000000E+00 0.  1.
</event>
<event>
 8    1  0.1254059E-006  0.9118800E+02  0.7816164E-02  0.1184000E+00
        -11   -1    0    0    0    0  0.00000000000E+00  0.00000000000E+00  0.45593999997E+02  0.45594000000E+02  0.51100000000E-03 0.  1.
         11   -1    0    0    0    0 -0.00000000000E+00 -0.00000000000E+00 -0.45593999997E+02  0.45594000000E+02  0.51100000000E-03 0. -1.
         23    2    1    2    0    0  0.00000000000E+00  0.44408920985E-15  0.00000000000E+00  0.91188000000E+02  0.91188000000E+02 0.  0.
    9900012    2    3    3    0    0 -0.16058416174E+02 -0.38553380467E+01 -0.32909614323E+02  0.54367094574E+02  0.40000023701E+02 0.  0.
        -12    1    3    3    0    0  0.16058416174E+02  0.38553380467E+01  0.32909614323E+02  0.36820905426E+02  0.00000000000E+00 0.  1.
         11    1    4    4    0    0 -0.45229275384E+01 -0.17896836232E+02 -0.87303690045E+01  0.20419915862E+02  0.51100000000E-03 0. -1.
        -11    1    4    4    0    0 -0.46627102979E+01  0.63382458809E+01 -0.23479840315E+00  0.78720619103E+01  0.51100000000E-03 0.  1.
         12    1    4    4    0    0 -0.68727783374E+01  0.77032523040E+01 -0.23944446915E+02  0.26075116802E+02  0.00000000000E+00 0. -1.
</event>
<event>
 8    1  0.1254059E-006  0.9118800E+02  0.7816164E-02  0.1184000E+00
        -11   -1    0    0    0    0  0.00000000000E+00  0.00000000000E+00  0.45593999997E+02  0.45594000000E+02  0.51100000000E-03 0.  1.
         11   -1    0    0    0    0 -0.00000000000E+00 -0.00000000000E+00 -0.45593999997E+02  0.45594000000E+02  0.51100000000E-03 0. -1.
         23    2    1    2    0    0  0.00000000000E+00  0.17763568394E-14  0.35527136788E-14  0.91188000000E+02  0.91188000000E+02 0.  0.
    9900012    2    3    3    0    0  0.23357302842E+02  0.97655130191E+01  0.26736636125E+02  0.54367128855E+02  0.40000101851E+02 0.  0.
         12    1    3    3    0    0 -0.23357302842E+02 -0.97655130191E+01 -0.26736636125E+02  0.36820871145E+02  0.00000000000E+00 0. -1.
         11    1    4    4    0    0  0.51739304732E+00 -0.65718768446E+01 -0.38378858924E+01  0.76280160730E+01  0.51100000000E-03 0. -1.
        -11    1    4    4    0    0  0.26848834294E+01 -0.51794217476E+01  0.58505057260E+01  0.82621683703E+01  0.51100000000E-03 0.  1.
        -12    1    4    4    0    0  0.20155026365E+02  0.21516811611E+02  0.24724016292E+02  0.38476944412E+02  0.00000000000E+00 0.  1.
</event>
<event>
 8    1  0.1254059E-006  0.9118800E+02  0.7816164E-02  0.1184000E+00
        -11   -1    0    0    0    0  0.00000000000E+00  0.00000000000E+00  0.45593999997E+02  0.45594000000E+02  0.51100000000E-03 0.  1.
         11   -1    0    0    0    0 -0.00000000000E+00 -0.00000000000E+00 -0.45593999997E+02  0.45594000000E+02  0.51100000000E-03 0. -1.
         23    2    1    2    0    0 -0.35527136788E-14 -0.35527136788E-14  0.35527136788E-14  0.91188000000E+02  0.91188000000E+02 0.  0.
    9900012    2    3    3    0    0 -0.20545230142E+02 -0.21461717049E+02  0.21750115689E+02  0.54367091365E+02  0.40000016384E+02 0.  0.
         12    1    3    3    0    0  0.20545230142E+02  0.21461717049E+02 -0.21750115689E+02  0.36820908635E+02  0.00000000000E+00 0. -1.
         11    1    4    4    0    0  0.63489314665E+01 -0.19244021232E+02  0.81825374418E+01  0.21853951661E+02  0.51100000000E-03 0. -1.
        -11    1    4    4    0    0 -0.23494030002E+02 -0.61598156242E+01  0.11900126172E+02  0.27046733212E+02  0.51100000000E-03 0.  1.
         12    1    4    4    0    0 -0.34001316058E+01  0.39421198072E+01  0.16674520748E+01  0.54664064917E+01  0.00000000000E+00 0. -1.
</event>
<event>
 8    1  0.1254059E-006  0.9118800E+02  0.7816164E-02  0.1184000E+00
        -11   -1    0    0    0    0  0.00000000000E+00  0.00000000000E+00  0.45593999997E+02  0.45594000000E+02  0.51100000000E-03 0. -1.
         11   -1    0    0    0    0 -0.00000000000E+00 -0.00000000000E+00 -0.45593999997E+02  0.45594000000E+02  0.51100000000E-03 0.  1.
         23    2    1    2    0    0  0.35527136788E-14  0.00000000000E+00 -0.35527136788E-14  0.91188000000E+02  0.91188000000E+02 0.  0.
    9900012    2    3    3    0    0  0.28301342579E+02 -0.10059187667E+02  0.21298498136E+02  0.54367091929E+02  0.40000017672E+02 0.  0.
        -12    1    3    3    0    0 -0.28301342579E+02  0.10059187667E+02 -0.21298498136E+02  0.36820908071E+02  0.00000000000E+00 0.  1.
         11    1    4    4    0    0  0.10707139819E+02  0.59166061518E+01  0.19603712230E+01  0.12389193963E+02  0.51100000000E-03 0. -1.
        -11    1    4    4    0    0  0.41285080751E+01 -0.15911894970E+02 -0.21912207367E+01  0.16584161994E+02  0.51100000000E-03 0.  1.
         12    1    4    4    0    0  0.13465694685E+02 -0.63898848514E-01  0.21529347650E+02  0.25393735972E+02  0.00000000000E+00 0. -1.
</event>
<event>
 8    1  0.1254059E-006  0.9118800E+02  0.7816164E-02  0.1184000E+00
        -11   -1    0    0    0    0  0.00000000000E+00  0.00000000000E+00  0.45593999997E+02  0.45594000000E+02  0.51100000000E-03 0. -1.
         11   -1    0    0    0    0 -0.00000000000E+00 -0.00000000000E+00 -0.45593999997E+02  0.45594000000E+02  0.51100000000E-03 0.  1.
         23    2    1    2    0    0  0.00000000000E+00  0.00000000000E+00  0.35527136788E-14  0.91188000000E+02  0.91188000000E+02 0.  0.
    9900012    2    3    3    0    0  0.12434376660E+02  0.15627860085E+02  0.30934392995E+02  0.54367076550E+02  0.39999982611E+02 0.  0.
        -12    1    3    3    0    0 -0.12434376660E+02 -0.15627860085E+02 -0.30934392995E+02  0.36820923450E+02  0.00000000000E+00 0.  1.
         11    1    4    4    0    0  0.20098480178E+02  0.18766501759E+02  0.13935244530E+02  0.30827285545E+02  0.51100000000E-03 0. -1.
        -11    1    4    4    0    0 -0.48569263636E+01 -0.83537680645E+01  0.13685594785E+02  0.16753228926E+02  0.51100000000E-03 0.  1.
        -12    1    4    4    0    0 -0.28071771547E+01  0.52151263906E+01  0.33135536810E+01  0.67865620785E+01  0.00000000000E+00 0.  1.
</event>
<event>
 8    1  0.1254059E-006  0.9118800E+02  0.7816164E-02  0.1184000E+00
        -11   -1    0    0    0    0  0.00000000000E+00  0.00000000000E+00  0.45593999997E+02  0.45594000000E+02  0.51100000000E-03 0.  1.
         11   -1    0    0    0    0 -0.00000000000E+00 -0.00000000000E+00 -0.45593999997E+02  0.45594000000E+02  0.51100000000E-03 0. -1.
         23    2    1    2    0    0 -0.17763568394E-14  0.35527136788E-14  0.00000000000E+00  0.91188000000E+02  0.91188000000E+02 0.  0.
    9900012    2    3    3    0    0  0.10249060076E+02 -0.29898760982E+02  0.18889136808E+02  0.54367100635E+02  0.40000037517E+02 0.  0.
         12    1    3    3    0    0 -0.10249060076E+02  0.29898760982E+02 -0.18889136808E+02  0.36820899365E+02  0.00000000000E+00 0. -1.
         11    1    4    4    0    0  0.14022861918E+02 -0.13600507936E+02  0.12399031957E+02  0.23137641761E+02  0.51100000000E-03 0. -1.
        -11    1    4    4    0    0 -0.44930766217E+01 -0.22794654331E+02  0.79063449170E+01  0.24541684820E+02  0.51100000000E-03 0.  1.
         12    1    4    4    0    0  0.71927477937E+00  0.64964012857E+01 -0.14162400661E+01  0.66877740540E+01  0.00000000000E+00 0. -1.
</event>
<event>
 8    1  0.1254059E-006  0.9118800E+02  0.7816164E-02  0.1184000E+00
        -11   -1    0    0    0    0  0.00000000000E+00  0.00000000000E+00  0.45593999997E+02  0.45594000000E+02  0.51100000000E-03 0. -1.
         11   -1    0    0    0    0 -0.00000000000E+00 -0.00000000000E+00 -0.45593999997E+02  0.45594000000E+02  0.51100000000E-03 0.  1.
         23    2    1    2    0    0  0.00000000000E+00  0.00000000000E+00  0.00000000000E+00  0.91188000000E+02  0.91188000000E+02 0.  0.
    9900012    2    3    3    0    0  0.18168210420E+02 -0.16912053169E+02 -0.27197106116E+02  0.54367027806E+02  0.39999871488E+02 0.  0.
         12    1    3    3    0    0 -0.18168210420E+02  0.16912053169E+02  0.27197106116E+02  0.36820972194E+02  0.00000000000E+00 0. -1.
         11    1    4    4    0    0 -0.61761709678E+01  0.48082869061E+01 -0.44935235540E+01  0.90253235391E+01  0.51100000000E-03 0. -1.
        -11    1    4    4    0    0  0.30082094833E+01 -0.14774494354E+02 -0.15859488976E+02  0.21882833422E+02  0.51100000000E-03 0.  1.
         12    1    4    4    0    0  0.21336171904E+02 -0.69458457210E+01 -0.68440935860E+01  0.23458870845E+02  0.00000000000E+00 0. -1.
</event>
<event>
 8    1  0.1254059E-006  0.9118800E+02  0.7816164E-02  0.1184000E+00
        -11   -1    0    0    0    0  0.00000000000E+00  0.00000000000E+00  0.45593999997E+02  0.45594000000E+02  0.51100000000E-03 0.  1.
         11   -1    0    0    0    0 -0.00000000000E+00 -0.00000000000E+00 -0.45593999997E+02  0.45594000000E+02  0.51100000000E-03 0. -1.
         23    2    1    2    0    0  0.35527136788E-14  0.00000000000E+00 -0.17763568394E-14  0.91188000000E+02  0.91188000000E+02 0.  0.
    9900012    2    3    3    0    0  0.19781466026E+02 -0.30393981264E+02 -0.63777958231E+01  0.54367125828E+02  0.40000094951E+02 0.  0.
        -12    1    3    3    0    0 -0.19781466026E+02  0.30393981264E+02  0.63777958231E+01  0.36820874172E+02  0.00000000000E+00 0.  1.
         11    1    4    4    0    0  0.64158697029E+01 -0.49606322709E+01 -0.11480017585E+02  0.14055677166E+02  0.51100000000E-03 0. -1.
        -11    1    4    4    0    0  0.74143850328E+01 -0.17107774886E+02 -0.10690567576E+02  0.21492726731E+02  0.51100000000E-03 0.  1.
        -12    1    4    4    0    0  0.59512112907E+01 -0.83255741067E+01  0.15792789339E+02  0.18818721931E+02  0.00000000000E+00 0.  1.
</event>
<event>
 8    1  0.1254059E-006  0.9118800E+02  0.7816164E-02  0.1184000E+00
        -11   -1    0    0    0    0  0.00000000000E+00  0.00000000000E+00  0.45593999997E+02  0.45594000000E+02  0.51100000000E-03 0. -1.
         11   -1    0    0    0    0 -0.00000000000E+00 -0.00000000000E+00 -0.45593999997E+02  0.45594000000E+02  0.51100000000E-03 0.  1.
         23    2    1    2    0    0 -0.88817841970E-15  0.00000000000E+00  0.11102230246E-15  0.91188000000E+02  0.91188000000E+02 0.  0.
    9900012    2    3    3    0    0 -0.48044811183E+01 -0.36501813403E+02 -0.54703958125E+00  0.54367290164E+02  0.40000469583E+02 0.  0.
         12    1    3    3    0    0  0.48044811183E+01  0.36501813403E+02  0.54703958125E+00  0.36820709836E+02  0.00000000000E+00 0. -1.
         11    1    4    4    0    0  0.29940865957E+01  0.70149131808E+01  0.24803313119E+01  0.80203245043E+01  0.51100000000E-03 0. -1.
        -11    1    4    4    0    0 -0.41529923483E+01 -0.34773773510E+02 -0.75882925552E+01  0.35833571601E+02  0.51100000000E-03 0.  1.
         12    1    4    4    0    0 -0.36455753657E+01 -0.87429530747E+01  0.45609216620E+01  0.10513394058E+02  0.00000000000E+00 0. -1.
</event>
<event>
 8    1  0.1254059E-006  0.9118800E+02  0.7816164E-02  0.1184000E+00
        -11   -1    0    0    0    0  0.00000000000E+00  0.00000000000E+00  0.45593999997E+02  0.45594000000E+02  0.51100000000E-03 0.  1.
         11   -1    0    0    0    0 -0.00000000000E+00 -0.00000000000E+00 -0.45593999997E+02  0.45594000000E+02  0.51100000000E-03 0. -1.
         23    2    1    2    0    0  0.00000000000E+00 -0.35527136788E-14  0.35527136788E-14  0.91188000000E+02  0.91188000000E+02 0.  0.
    9900012    2    3    3    0    0 -0.95931899435E+01 -0.31985540360E+02  0.15513744960E+02  0.54367077033E+02  0.39999983712E+02 0.  0.
         12    1    3    3    0    0  0.95931899435E+01  0.31985540360E+02 -0.15513744960E+02  0.36820922967E+02  0.00000000000E+00 0. -1.
         11    1    4    4    0    0  0.91720744800E+01 -0.17168955316E+02  0.12674107780E+02  0.23227849345E+02  0.51100000000E-03 0. -1.
        -11    1    4    4    0    0 -0.57498337888E+01 -0.18183148024E+01  0.97710264909E+01  0.11482152075E+02  0.51100000000E-03 0.  1.
        -12    1    4    4    0    0 -0.13015430635E+02 -0.12998270242E+02 -0.69313893109E+01  0.19657075613E+02  0.00000000000E+00 0.  1.
</event>
<event>
 8    1  0.1254059E-006  0.9118800E+02  0.7816164E-02  0.1184000E+00
        -11   -1    0    0    0    0  0.00000000000E+00  0.00000000000E+00  0.45593999997E+02  0.45594000000E+02  0.51100000000E-03 0.  1.
         11   -1    0    0    0    0 -0.00000000000E+00 -0.00000000000E+00 -0.45593999997E+02  0.45594000000E+02  0.51100000000E-03 0. -1.
         23    2    1    2    0    0  0.00000000000E+00  0.00000000000E+00  0.88817841970E-15  0.91188000000E+02  0.91188000000E+02 0.  0.
    9900012    2    3    3    0    0 -0.25886104989E+02  0.25257967118E+02 -0.69082908326E+01  0.54367084522E+02  0.40000000784E+02 0.  0.
        -12    1    3    3    0    0  0.25886104989E+02 -0.25257967118E+02  0.69082908326E+01  0.36820915478E+02  0.00000000000E+00 0.  1.
         11    1    4    4    0    0 -0.87900339708E+01  0.13632703378E+01  0.74647208109E+01  0.11612289192E+02  0.51100000000E-03 0. -1.
        -11    1    4    4    0    0 -0.11235469709E+02 -0.11507635491E+01 -0.12674832218E+02  0.16976790284E+02  0.51100000000E-03 0.  1.
        -12    1    4    4    0    0 -0.58606013094E+01  0.25045460329E+02 -0.16981794259E+01  0.25778005046E+02  0.00000000000E+00 0.  1.
</event>
<event>
 8    1  0.1254059E-006  0.9118800E+02  0.7816164E-02  0.1184000E+00
        -11   -1    0    0    0    0  0.00000000000E+00  0.00000000000E+00  0.45593999997E+02  0.45594000000E+02  0.51100000000E-03 0. -1.
         11   -1    0    0    0    0 -0.00000000000E+00 -0.00000000000E+00 -0.45593999997E+02  0.45594000000E+02  0.51100000000E-03 0.  1.
         23    2    1    2    0    0  0.88817841970E-15  0.71054273576E-14  0.00000000000E+00  0.91188000000E+02  0.91188000000E+02 0.  0.
    9900012    2    3    3    0    0 -0.65802266979E+01  0.35001542941E+02  0.93473052337E+01  0.54367088729E+02  0.40000010376E+02 0.  0.
         12    1    3    3    0    0  0.65802266979E+01 -0.35001542941E+02 -0.93473052337E+01  0.36820911271E+02  0.00000000000E+00 0. -1.
         11    1    4    4    0    0 -0.26549155947E+01  0.92844276623E+01  0.37364281930E+01  0.10354229558E+02  0.51100000000E-03 0. -1.
        -11    1    4    4    0    0  0.87262683874E+01  0.27797859997E+02 -0.18226175210E+01  0.29192305755E+02  0.51100000000E-03 0.  1.
         12    1    4    4    0    0 -0.12651579491E+02 -0.20807447181E+01  0.74334945617E+01  0.14820553417E+02  0.00000000000E+00 0. -1.
</event>
<event>
 8    1  0.1254059E-006  0.9118800E+02  0.7816164E-02  0.1184000E+00
        -11   -1    0    0    0    0  0.00000000000E+00  0.00000000000E+00  0.45593999997E+02  0.45594000000E+02  0.51100000000E-03 0. -1.
         11   -1    0    0    0    0 -0.00000000000E+00 -0.00000000000E+00 -0.45593999997E+02  0.45594000000E+02  0.51100000000E-03 0.  1.
         23    2    1    2    0    0  0.00000000000E+00  0.00000000000E+00  0.35527136788E-14  0.91188000000E+02  0.91188000000E+02 0.  0.
    9900012    2    3    3    0    0 -0.78020163256E+00 -0.28422645840E+02 -0.23394967149E+02  0.54367082045E+02  0.39999995137E+02 0.  0.
        -12    1    3    3    0    0  0.78020163256E+00  0.28422645840E+02  0.23394967149E+02  0.36820917955E+02  0.00000000000E+00 0.  1.
         11    1    4    4    0    0 -0.18656376963E+01 -0.14036912190E+02  0.31329676214E+01  0.14502792635E+02  0.51100000000E-03 0. -1.
        -11    1    4    4    0    0 -0.94457254117E+01 -0.12775836522E+02 -0.64752265729E+01  0.17157280869E+02  0.51100000000E-03 0.  1.
        -12    1    4    4    0    0  0.10531161475E+02 -0.16098971281E+01 -0.20052708198E+02  0.22707008540E+02  0.00000000000E+00 0.  1.
</event>
<event>
 8    1  0.1254059E-006  0.9118800E+02  0.7816164E-02  0.1184000E+00
        -11   -1    0    0    0    0  0.00000000000E+00  0.00000000000E+00  0.45593999997E+02  0.45594000000E+02  0.51100000000E-03 0. -1.
         11   -1    0    0    0    0 -0.00000000000E+00 -0.00000000000E+00 -0.45593999997E+02  0.45594000000E+02  0.51100000000E-03 0.  1.
         23    2    1    2    0    0 -0.17763568394E-14  0.00000000000E+00  0.00000000000E+00  0.91188000000E+02  0.91188000000E+02 0.  0.
    9900012    2    3    3    0    0 -0.13050731997E+02 -0.29092767599E+02 -0.18413818593E+02  0.54367089537E+02  0.40000012217E+02 0.  0.
         12    1    3    3    0    0  0.13050731997E+02  0.29092767599E+02  0.18413818593E+02  0.36820910463E+02  0.00000000000E+00 0. -1.
         11    1    4    4    0    0 -0.17586554411E+02 -0.10097537697E+02  0.56580148671E+01  0.21053747792E+02  0.51100000000E-03 0. -1.
        -11    1    4    4    0    0  0.16449724497E+01 -0.19662541357E+02 -0.22600305972E+02  0.30001588246E+02  0.51100000000E-03 0.  1.
        -12    1    4    4    0    0  0.28908499644E+01  0.66731145461E+00 -0.14715274874E+01  0.33117534993E+01  0.00000000000E+00 0.  1.
</event>
<event>
 8    1  0.1254059E-006  0.9118800E+02  0.7816164E-02  0.1184000E+00
        -11   -1    0    0    0    0  0.00000000000E+00  0.00000000000E+00  0.45593999997E+02  0.45594000000E+02  0.51100000000E-03 0.  1.
         11   -1    0    0    0    0 -0.00000000000E+00 -0.00000000000E+00 -0.45593999997E+02  0.45594000000E+02  0.51100000000E-03 0. -1.
         23    2    1    2    0    0  0.00000000000E+00  0.00000000000E+00 -0.71054273576E-14  0.91188000000E+02  0.91188000000E+02 0.  0.
    9900012    2    3    3    0    0  0.66033010925E+01 -0.85268686932E+01 -0.35206078477E+02  0.54367095112E+02  0.40000024927E+02 0.  0.
        -12    1    3    3    0    0 -0.66033010925E+01  0.85268686932E+01  0.35206078477E+02  0.36820904888E+02  0.00000000000E+00 0.  1.
         11    1    4    4    0    0  0.55084990851E+01  0.66788633757E+01 -0.12470475031E+01  0.87467654535E+01  0.51100000000E-03 0. -1.
        -11    1    4    4    0    0  0.62206918229E+01  0.57792876047E+01 -0.65608796286E+01  0.10730438655E+02  0.51100000000E-03 0.  1.
         12    1    4    4    0    0 -0.51258898155E+01 -0.20985019674E+02 -0.27398151345E+02  0.34889891003E+02  0.00000000000E+00 0. -1.
</event>
<event>
 8    1  0.1254059E-006  0.9118800E+02  0.7816164E-02  0.1184000E+00
        -11   -1    0    0    0    0  0.00000000000E+00  0.00000000000E+00  0.45593999997E+02  0.45594000000E+02  0.51100000000E-03 0.  1.
         11   -1    0    0    0    0 -0.00000000000E+00 -0.00000000000E+00 -0.45593999997E+02  0.45594000000E+02  0.51100000000E-03 0. -1.
         23    2    1    2    0    0 -0.35527136788E-14 -0.35527136788E-14  0.00000000000E+00  0.91188000000E+02  0.91188000000E+02 0.  0.
    9900012    2    3    3    0    0 -0.30545458425E+02  0.17270059270E+02 -0.11157944420E+02  0.54367086089E+02  0.40000004356E+02 0.  0.
        -12    1    3    3    0    0  0.30545458425E+02 -0.17270059270E+02  0.11157944420E+02  0.36820913911E+02  0.00000000000E+00 0.  1.
         11    1    4    4    0    0 -0.19366281494E+02  0.64203696369E+01  0.84937089546E+00  0.20420466115E+02  0.51100000000E-03 0. -1.
        -11    1    4    4    0    0 -0.87842098760E+01  0.43982104247E+01  0.80758401072E+01  0.12717145583E+02  0.51100000000E-03 0.  1.
         12    1    4    4    0    0 -0.23949670553E+01  0.64514792086E+01 -0.20083155423E+02  0.21229474391E+02  0.00000000000E+00 0. -1.
</event>
<event>
 8    1  0.1254059E-006  0.9118800E+02  0.7816164E-02  0.1184000E+00
        -11   -1    0    0    0    0  0.00000000000E+00  0.00000000000E+00  0.45593999997E+02  0.45594000000E+02  0.51100000000E-03 0. -1.
         11   -1    0    0    0    0 -0.00000000000E+00 -0.00000000000E+00 -0.45593999997E+02  0.45594000000E+02  0.51100000000E-03 0.  1.
         23    2    1    2    0    0  0.00000000000E+00  0.00000000000E+00  0.00000000000E+00  0.91188000000E+02  0.91188000000E+02 0.  0.
    9900012    2    3    3    0    0 -0.25967726630E+01  0.35595409025E+02 -0.90555945808E+01  0.54367079790E+02  0.39999989997E+02 0.  0.
        -12    1    3    3    0    0  0.25967726630E+01 -0.35595409025E+02  0.90555945808E+01  0.36820920210E+02  0.00000000000E+00 0.  1.
         11    1    4    4    0    0  0.23584163643E+01  0.28220431389E+02 -0.11908850521E+02  0.30720930919E+02  0.51100000000E-03 0. -1.
        -11    1    4    4    0    0  0.46492604318E+01  0.11296583468E+02 -0.16684777498E+01  0.12329324348E+02  0.51100000000E-03 0.  1.
        -12    1    4    4    0    0 -0.96044494591E+01 -0.39216058325E+01  0.45217336900E+01  0.11316824523E+02  0.00000000000E+00 0.  1.
</event>
<event>
 8    1  0.1254059E-006  0.9118800E+02  0.7816164E-02  0.1184000E+00
        -11   -1    0    0    0    0  0.00000000000E+00  0.00000000000E+00  0.45593999997E+02  0.45594000000E+02  0.51100000000E-03 0.  1.
         11   -1    0    0    0    0 -0.00000000000E+00 -0.00000000000E+00 -0.45593999997E+02  0.45594000000E+02  0.51100000000E-03 0. -1.
         23    2    1    2    0    0  0.00000000000E+00  0.35527136788E-14  0.00000000000E+00  0.91188000000E+02  0.91188000000E+02 0.  0.
    9900012    2    3    3    0    0  0.22758054647E+02 -0.28838888179E+02  0.24856356036E+01  0.54366961081E+02  0.39999719375E+02 0.  0.
        -12    1    3    3    0    0 -0.22758054647E+02  0.28838888179E+02 -0.24856356036E+01  0.36821038919E+02  0.00000000000E+00 0.  1.
         11    1    4    4    0    0  0.10473698684E+02 -0.61335678638E+01  0.11735922473E+02  0.16883450341E+02  0.51100000000E-03 0. -1.
        -11    1    4    4    0    0  0.38737416665E+01  0.55909007782E+01 -0.15551626715E+01  0.69772901048E+01  0.51100000000E-03 0.  1.
         12    1    4    4    0    0  0.84106142964E+01 -0.28296221094E+02 -0.76951241981E+01  0.30506220635E+02  0.00000000000E+00 0. -1.
</event>
<event>
 8    1  0.1254059E-006  0.9118800E+02  0.7816164E-02  0.1184000E+00
        -11   -1    0    0    0    0  0.00000000000E+00  0.00000000000E+00  0.45593999997E+02  0.45594000000E+02  0.51100000000E-03 0.  1.
         11   -1    0    0    0    0 -0.00000000000E+00 -0.00000000000E+00 -0.45593999997E+02  0.45594000000E+02  0.51100000000E-03 0. -1.
         23    2    1    2    0    0  0.00000000000E+00  0.00000000000E+00  0.35527136788E-14  0.91188000000E+02  0.91188000000E+02 0.  0.
    9900012    2    3    3    0    0  0.55900191884E+01  0.19346687991E+02 -0.30825938531E+02  0.54367066592E+02  0.39999959909E+02 0.  0.
        -12    1    3    3    0    0 -0.55900191884E+01 -0.19346687991E+02  0.30825938531E+02  0.36820933408E+02  0.00000000000E+00 0.  1.
         11    1    4    4    0    0  0.55400459843E+01  0.23202080392E+02 -0.20577314614E+02  0.31503246197E+02  0.51100000000E-03 0. -1.
        -11    1    4    4    0    0  0.38177608450E+01 -0.11034756365E+02 -0.88144701719E+01  0.14629970286E+02  0.51100000000E-03 0.  1.
        -12    1    4    4    0    0 -0.37677876409E+01  0.71793639643E+01 -0.14341537454E+01  0.82338501082E+01  0.00000000000E+00 0.  1.
</event>
<event>
 8    1  0.1254059E-006  0.9118800E+02  0.7816164E-02  0.1184000E+00
        -11   -1    0    0    0    0  0.00000000000E+00  0.00000000000E+00  0.45593999997E+02  0.45594000000E+02  0.51100000000E-03 0.  1.
         11   -1    0    0    0    0 -0.00000000000E+00 -0.00000000000E+00 -0.45593999997E+02  0.45594000000E+02  0.51100000000E-03 0. -1.
         23    2    1    2    0    0  0.00000000000E+00  0.00000000000E+00  0.71054273576E-14  0.91188000000E+02  0.91188000000E+02 0.  0.
    9900012    2    3    3    0    0  0.62766601471E+00 -0.10742079335E+01  0.36799880549E+02  0.54367094311E+02  0.40000023101E+02 0.  0.
         12    1    3    3    0    0 -0.62766601471E+00  0.10742079335E+01 -0.36799880549E+02  0.36820905689E+02  0.00000000000E+00 0. -1.
         11    1    4    4    0    0 -0.12216466911E+00 -0.67472226921E+01  0.33516400663E+02  0.34189019464E+02  0.51100000000E-03 0. -1.
        -11    1    4    4    0    0  0.13561606087E+00  0.12694086286E+02  0.85515122240E+00  0.12723580559E+02  0.51100000000E-03 0.  1.
         12    1    4    4    0    0  0.61421462295E+00 -0.70210715275E+01  0.24283286643E+01  0.74544942887E+01  0.00000000000E+00 0. -1.
</event>
<event>
 8    1  0.1254059E-006  0.9118800E+02  0.7816164E-02  0.1184000E+00
        -11   -1    0    0    0    0  0.00000000000E+00  0.00000000000E+00  0.45593999997E+02  0.45594000000E+02  0.51100000000E-03 0.  1.
         11   -1    0    0    0    0 -0.00000000000E+00 -0.00000000000E+00 -0.45593999997E+02  0.45594000000E+02  0.51100000000E-03 0. -1.
         23    2    1    2    0    0 -0.17763568394E-14  0.11102230246E-14 -0.71054273576E-14  0.91188000000E+02  0.91188000000E+02 0.  0.
    9900012    2    3    3    0    0  0.10858174375E+02  0.91803565399E+00 -0.35171787434E+02  0.54366846141E+02  0.39999457344E+02 0.  0.
        -12    1    3    3    0    0 -0.10858174375E+02 -0.91803565399E+00  0.35171787434E+02  0.36821153859E+02  0.00000000000E+00 0.  1.
         11    1    4    4    0    0 -0.13870087846E+01  0.96561829024E+01 -0.11033909117E+02  0.14727960221E+02  0.51100000000E-03 0. -1.
        -11    1    4    4    0    0 -0.62772680517E+01  0.48919662877E+01 -0.33350438496E+01  0.86289017895E+01  0.51100000000E-03 0.  1.
         12    1    4    4    0    0  0.18522451211E+02 -0.13630113536E+02 -0.20802834467E+02  0.31009984130E+02  0.00000000000E+00 0. -1.
</event>
<event>
 8    1  0.1254059E-006  0.9118800E+02  0.7816164E-02  0.1184000E+00
        -11   -1    0    0    0    0  0.00000000000E+00  0.00000000000E+00  0.45593999997E+02  0.45594000000E+02  0.51100000000E-03 0.  1.
         11   -1    0    0    0    0 -0.00000000000E+00 -0.00000000000E+00 -0.45593999997E+02  0.45594000000E+02  0.51100000000E-03 0. -1.
         23    2    1    2    0    0  0.00000000000E+00  0.00000000000E+00 -0.35527136788E-14  0.91188000000E+02  0.91188000000E+02 0.  0.
    9900012    2    3    3    0    0 -0.19516930115E+02  0.18622869227E+02 -0.25061091683E+02  0.54367080189E+02  0.39999990907E+02 0.  0.
        -12    1    3    3    0    0  0.19516930115E+02 -0.18622869227E+02  0.25061091683E+02  0.36820919811E+02  0.00000000000E+00 0.  1.
         11    1    4    4    0    0  0.45820180435E+01 -0.11443607867E+01  0.41321213173E+01  0.62752591821E+01  0.51100000000E-03 0.  1.
        -11    1    4    4    0    0 -0.11991007503E+02  0.15761121268E+02 -0.45137525212E+01  0.20311847937E+02  0.51100000000E-03 0. -1.
         12    1    4    4    0    0 -0.12107940656E+02  0.40061087461E+01 -0.24679460479E+02  0.27779973070E+02  0.00000000000E+00 0. -1.
</event>
<event>
 8    1  0.1254059E-006  0.9118800E+02  0.7816164E-02  0.1184000E+00
        -11   -1    0    0    0    0  0.00000000000E+00  0.00000000000E+00  0.45593999997E+02  0.45594000000E+02  0.51100000000E-03 0.  1.
         11   -1    0    0    0    0 -0.00000000000E+00 -0.00000000000E+00 -0.45593999997E+02  0.45594000000E+02  0.51100000000E-03 0. -1.
         23    2    1    2    0    0  0.17763568394E-14  0.00000000000E+00  0.00000000000E+00  0.91188000000E+02  0.91188000000E+02 0.  0.
    9900012    2    3    3    0    0  0.65435187544E+01 -0.25219721424E+02  0.26017937992E+02  0.54367012999E+02  0.39999837733E+02 0.  0.
         12    1    3    3    0    0 -0.65435187544E+01  0.25219721424E+02 -0.26017937992E+02  0.36820987001E+02  0.00000000000E+00 0. -1.
         11    1    4    4    0    0 -0.53889193967E+01 -0.41066517526E+01  0.19692327919E+02  0.20825292796E+02  0.51100000000E-03 0. -1.
        -11    1    4    4    0    0  0.10429081530E+02 -0.73893044612E+01  0.12979251484E+02  0.18216161267E+02  0.51100000000E-03 0.  1.
         12    1    4    4    0    0  0.15033566215E+01 -0.13723765210E+02 -0.66536414112E+01  0.15325558936E+02  0.00000000000E+00 0. -1.
</event>
<event>
 8    1  0.1254059E-006  0.9118800E+02  0.7816164E-02  0.1184000E+00
        -11   -1    0    0    0    0  0.00000000000E+00  0.00000000000E+00  0.45593999997E+02  0.45594000000E+02  0.51100000000E-03 0.  1.
         11   -1    0    0    0    0 -0.00000000000E+00 -0.00000000000E+00 -0.45593999997E+02  0.45594000000E+02  0.51100000000E-03 0. -1.
         23    2    1    2    0    0  0.00000000000E+00  0.35527136788E-14  0.00000000000E+00  0.91188000000E+02  0.91188000000E+02 0.  0.
    9900012    2    3    3    0    0 -0.12479724738E+02  0.24957695392E+02 -0.24023973336E+02  0.54367063243E+02  0.39999952275E+02 0.  0.
        -12    1    3    3    0    0  0.12479724738E+02 -0.24957695392E+02  0.24023973336E+02  0.36820936757E+02  0.00000000000E+00 0.  1.
         11    1    4    4    0    0 -0.11271276180E+02  0.17784675427E+01 -0.12595513627E+02  0.16995634067E+02  0.51100000000E-03 0. -1.
        -11    1    4    4    0    0 -0.57233718272E+00  0.24091480568E+02  0.17353915153E+01  0.24160682726E+02  0.51100000000E-03 0.  1.
        -12    1    4    4    0    0 -0.63611137512E+00 -0.91225271956E+00 -0.13163851225E+02  0.13210746450E+02  0.00000000000E+00 0.  1.
</event>
<event>
 8    1  0.1254059E-006  0.9118800E+02  0.7816164E-02  0.1184000E+00
        -11   -1    0    0    0    0  0.00000000000E+00  0.00000000000E+00  0.45593999997E+02  0.45594000000E+02  0.51100000000E-03 0.  1.
         11   -1    0    0    0    0 -0.00000000000E+00 -0.00000000000E+00 -0.45593999997E+02  0.45594000000E+02  0.51100000000E-03 0. -1.
         23    2    1    2    0    0  0.00000000000E+00  0.00000000000E+00  0.00000000000E+00  0.91188000000E+02  0.91188000000E+02 0.  0.
    9900012    2    3    3    0    0 -0.16709739391E+02  0.16962118384E+02  0.28086494943E+02  0.54367081370E+02  0.39999993598E+02 0.  0.
         12    1    3    3    0    0  0.16709739391E+02 -0.16962118384E+02 -0.28086494943E+02  0.36820918630E+02  0.00000000000E+00 0. -1.
         11    1    4    4    0    0  0.70038030748E+01  0.11482901539E+02  0.25631599690E+01  0.13692336344E+02  0.51100000000E-03 0. -1.
        -11    1    4    4    0    0 -0.15433004552E+02  0.12528826850E+02  0.20942140880E+02  0.28874251447E+02  0.51100000000E-03 0.  1.
         12    1    4    4    0    0 -0.82805379140E+01 -0.70496100053E+01  0.45811940942E+01  0.11800493579E+02  0.00000000000E+00 0. -1.
</event>
<event>
 8    1  0.1254059E-006  0.9118800E+02  0.7816164E-02  0.1184000E+00
        -11   -1    0    0    0    0  0.00000000000E+00  0.00000000000E+00  0.45593999997E+02  0.45594000000E+02  0.51100000000E-03 0.  1.
         11   -1    0    0    0    0 -0.00000000000E+00 -0.00000000000E+00 -0.45593999997E+02  0.45594000000E+02  0.51100000000E-03 0. -1.
         23    2    1    2    0    0  0.17763568394E-14 -0.35527136788E-14  0.00000000000E+00  0.91188000000E+02  0.91188000000E+02 0.  0.
    9900012    2    3    3    0    0 -0.59049437284E+01 -0.22656349495E+02 -0.28418343292E+02  0.54367071599E+02  0.39999971325E+02 0.  0.
        -12    1    3    3    0    0  0.59049437284E+01  0.22656349495E+02  0.28418343292E+02  0.36820928401E+02  0.00000000000E+00 0.  1.
         11    1    4    4    0    0 -0.12289832080E+02 -0.18827104762E+02 -0.26275887343E+02  0.34582106677E+02  0.51100000000E-03 0. -1.
        -11    1    4    4    0    0  0.10187059810E+02  0.39961742137E+01 -0.16942598652E+01  0.11073216004E+02  0.51100000000E-03 0.  1.
        -12    1    4    4    0    0 -0.38021714586E+01 -0.78254189466E+01 -0.44819608303E+00  0.87117489185E+01  0.00000000000E+00 0.  1.
</event>
<event>
 8    1  0.1254059E-006  0.9118800E+02  0.7816164E-02  0.1184000E+00
        -11   -1    0    0    0    0  0.00000000000E+00  0.00000000000E+00  0.45593999997E+02  0.45594000000E+02  0.51100000000E-03 0.  1.
         11   -1    0    0    0    0 -0.00000000000E+00 -0.00000000000E+00 -0.45593999997E+02  0.45594000000E+02  0.51100000000E-03 0. -1.
         23    2    1    2    0    0  0.35527136788E-14  0.00000000000E+00  0.35527136788E-14  0.91188000000E+02  0.91188000000E+02 0.  0.
    9900012    2    3    3    0    0  0.27090862545E+02 -0.11665672323E+02  0.22040372726E+02  0.54367071521E+02  0.39999971146E+02 0.  0.
         12    1    3    3    0    0 -0.27090862545E+02  0.11665672323E+02 -0.22040372726E+02  0.36820928479E+02  0.00000000000E+00 0. -1.
         11    1    4    4    0    0 -0.16097418358E+01 -0.44560944530E+01  0.79550159765E+01  0.92590672316E+01  0.51100000000E-03 0. -1.
        -11    1    4    4    0    0  0.32625066309E+02 -0.73605737669E+01  0.19273468383E+02  0.38601030837E+02  0.51100000000E-03 0.  1.
        -12    1    4    4    0    0 -0.39244619281E+01  0.15099589715E+00 -0.51881116338E+01  0.65069734525E+01  0.00000000000E+00 0.  1.
</event>
<event>
 8    1  0.1254059E-006  0.9118800E+02  0.7816164E-02  0.1184000E+00
        -11   -1    0    0    0    0  0.00000000000E+00  0.00000000000E+00  0.45593999997E+02  0.45594000000E+02  0.51100000000E-03 0.  1.
         11   -1    0    0    0    0 -0.00000000000E+00 -0.00000000000E+00 -0.45593999997E+02  0.45594000000E+02  0.51100000000E-03 0. -1.
         23    2    1    2    0    0 -0.35527136788E-14  0.00000000000E+00  0.00000000000E+00  0.91188000000E+02  0.91188000000E+02 0.  0.
    9900012    2    3    3    0    0  0.19221821689E+02 -0.17528462164E+02  0.26058702161E+02  0.54367063385E+02  0.39999952599E+02 0.  0.
         12    1    3    3    0    0 -0.19221821689E+02  0.17528462164E+02 -0.26058702161E+02  0.36820936615E+02  0.00000000000E+00 0. -1.
         11    1    4    4    0    0  0.72185005374E+01  0.24584075566E+00  0.58987206478E+01  0.93253468154E+01  0.51100000000E-03 0. -1.
        -11    1    4    4    0    0  0.10506623450E+02 -0.85213018132E+01  0.29098725894E+02  0.32089524300E+02  0.51100000000E-03 0.  1.
        -12    1    4    4    0    0  0.14966977012E+01 -0.92530011065E+01 -0.89387443803E+01  0.12952192269E+02  0.00000000000E+00 0.  1.
</event>
<event>
 8    1  0.1254059E-006  0.9118800E+02  0.7816164E-02  0.1184000E+00
        -11   -1    0    0    0    0  0.00000000000E+00  0.00000000000E+00  0.45593999997E+02  0.45594000000E+02  0.51100000000E-03 0. -1.
         11   -1    0    0    0    0 -0.00000000000E+00 -0.00000000000E+00 -0.45593999997E+02  0.45594000000E+02  0.51100000000E-03 0.  1.
         23    2    1    2    0    0  0.17763568394E-14  0.00000000000E+00  0.00000000000E+00  0.91188000000E+02  0.91188000000E+02 0.  0.
    9900012    2    3    3    0    0  0.13582448999E+02  0.27850127970E+02  0.19891388081E+02  0.54367083817E+02  0.39999999178E+02 0.  0.
        -12    1    3    3    0    0 -0.13582448999E+02 -0.27850127970E+02 -0.19891388081E+02  0.36820916183E+02  0.00000000000E+00 0.  1.
         11    1    4    4    0    0  0.11650264375E+01  0.90995856963E+01  0.14502635304E+02  0.17160599566E+02  0.51100000000E-03 0. -1.
        -11    1    4    4    0    0  0.58652759806E+01 -0.62512223641E+01  0.73423602886E+01  0.11286695630E+02  0.51100000000E-03 0.  1.
        -12    1    4    4    0    0  0.65521465809E+01  0.25001764638E+02 -0.19536075119E+01  0.25919788621E+02  0.00000000000E+00 0.  1.
</event>
<event>
 8    1  0.1254059E-006  0.9118800E+02  0.7816164E-02  0.1184000E+00
        -11   -1    0    0    0    0  0.00000000000E+00  0.00000000000E+00  0.45593999997E+02  0.45594000000E+02  0.51100000000E-03 0.  1.
         11   -1    0    0    0    0 -0.00000000000E+00 -0.00000000000E+00 -0.45593999997E+02  0.45594000000E+02  0.51100000000E-03 0. -1.
         23    2    1    2    0    0  0.17763568394E-14  0.00000000000E+00  0.00000000000E+00  0.91188000000E+02  0.91188000000E+02 0.  0.
    9900012    2    3    3    0    0 -0.13744374753E+02  0.30466528709E+02  0.15448696518E+02  0.54367089731E+02  0.40000012659E+02 0.  0.
         12    1    3    3    0    0  0.13744374753E+02 -0.30466528709E+02 -0.15448696518E+02  0.36820910269E+02  0.00000000000E+00 0. -1.
         11    1    4    4    0    0 -0.14081703459E+02  0.19069533714E+02  0.48646434292E+01  0.24199302559E+02  0.51100000000E-03 0. -1.
        -11    1    4    4    0    0  0.23601647518E+01  0.19630363189E+02  0.73513831493E+01  0.21094178606E+02  0.51100000000E-03 0.  1.
        -12    1    4    4    0    0 -0.20228360458E+01 -0.82333681935E+01  0.32326699399E+01  0.90736085665E+01  0.00000000000E+00 0.  1.
</event>
<event>
 8    1  0.1254059E-006  0.9118800E+02  0.7816164E-02  0.1184000E+00
        -11   -1    0    0    0    0  0.00000000000E+00  0.00000000000E+00  0.45593999997E+02  0.45594000000E+02  0.51100000000E-03 0.  1.
         11   -1    0    0    0    0 -0.00000000000E+00 -0.00000000000E+00 -0.45593999997E+02  0.45594000000E+02  0.51100000000E-03 0. -1.
         23    2    1    2    0    0  0.00000000000E+00 -0.35527136788E-14  0.00000000000E+00  0.91188000000E+02  0.91188000000E+02 0.  0.
    9900012    2    3    3    0    0  0.15317611419E+02 -0.28559933713E+02 -0.17478028099E+02  0.54367075249E+02  0.39999979646E+02 0.  0.
        -12    1    3    3    0    0 -0.15317611419E+02  0.28559933713E+02  0.17478028099E+02  0.36820924751E+02  0.00000000000E+00 0.  1.
         11    1    4    4    0    0 -0.23594950746E+01  0.57196226726E+01 -0.26180395602E+01  0.67182908484E+01  0.51100000000E-03 0. -1.
        -11    1    4    4    0    0 -0.50083786492E+01 -0.20598175799E+01  0.31106544941E+00  0.54243402485E+01  0.51100000000E-03 0.  1.
         12    1    4    4    0    0  0.22685485143E+02 -0.32219738805E+02 -0.15171053988E+02  0.42224444152E+02  0.00000000000E+00 0. -1.
</event>
<event>
 8    1  0.1254059E-006  0.9118800E+02  0.7816164E-02  0.1184000E+00
        -11   -1    0    0    0    0  0.00000000000E+00  0.00000000000E+00  0.45593999997E+02  0.45594000000E+02  0.51100000000E-03 0. -1.
         11   -1    0    0    0    0 -0.00000000000E+00 -0.00000000000E+00 -0.45593999997E+02  0.45594000000E+02  0.51100000000E-03 0.  1.
         23    2    1    2    0    0  0.00000000000E+00  0.35527136788E-14  0.00000000000E+00  0.91188000000E+02  0.91188000000E+02 0.  0.
    9900012    2    3    3    0    0 -0.17189749265E+02  0.28267375119E+02  0.16163131450E+02  0.54367098406E+02  0.40000032437E+02 0.  0.
        -12    1    3    3    0    0  0.17189749265E+02 -0.28267375119E+02 -0.16163131450E+02  0.36820901594E+02  0.00000000000E+00 0.  1.
         11    1    4    4    0    0 -0.92259009806E+01  0.30242045818E+02  0.36191575409E+01  0.31824469920E+02  0.51100000000E-03 0. -1.
        -11    1    4    4    0    0 -0.21739126030E+01 -0.82343545090E+01  0.15941725090E+01  0.86644028320E+01  0.51100000000E-03 0.  1.
        -12    1    4    4    0    0 -0.57899356816E+01  0.62596838101E+01  0.10949801400E+02  0.13878225654E+02  0.00000000000E+00 0.  1.
</event>
<event>
 8    1  0.1254059E-006  0.9118800E+02  0.7816164E-02  0.1184000E+00
        -11   -1    0    0    0    0  0.00000000000E+00  0.00000000000E+00  0.45593999997E+02  0.45594000000E+02  0.51100000000E-03 0.  1.
         11   -1    0    0    0    0 -0.00000000000E+00 -0.00000000000E+00 -0.45593999997E+02  0.45594000000E+02  0.51100000000E-03 0. -1.
         23    2    1    2    0    0  0.00000000000E+00  0.35527136788E-14  0.11102230246E-14  0.91188000000E+02  0.91188000000E+02 0.  0.
    9900012    2    3    3    0    0  0.20156017699E+02  0.30755646146E+02 -0.18991345899E+01  0.54367061235E+02  0.39999947698E+02 0.  0.
        -12    1    3    3    0    0 -0.20156017699E+02 -0.30755646146E+02  0.18991345899E+01  0.36820938765E+02  0.00000000000E+00 0.  1.
         11    1    4    4    0    0  0.19118720430E+01  0.13838532322E+02 -0.78874318055E+01  0.16042811857E+02  0.51100000000E-03 0. -1.
        -11    1    4    4    0    0  0.65365543844E+00  0.10510880967E+02 -0.93804228901E+01  0.14103127951E+02  0.51100000000E-03 0.  1.
        -12    1    4    4    0    0  0.17590490218E+02  0.64062328565E+01  0.15368720106E+02  0.24221121427E+02  0.00000000000E+00 0.  1.
</event>
<event>
 8    1  0.1254059E-006  0.9118800E+02  0.7816164E-02  0.1184000E+00
        -11   -1    0    0    0    0  0.00000000000E+00  0.00000000000E+00  0.45593999997E+02  0.45594000000E+02  0.51100000000E-03 0.  1.
         11   -1    0    0    0    0 -0.00000000000E+00 -0.00000000000E+00 -0.45593999997E+02  0.45594000000E+02  0.51100000000E-03 0. -1.
         23    2    1    2    0    0 -0.88817841970E-15 -0.71054273576E-14 -0.17763568394E-14  0.91188000000E+02  0.91188000000E+02 0.  0.
    9900012    2    3    3    0    0  0.54325096630E+01  0.34552571011E+02  0.11505996698E+02  0.54367078166E+02  0.39999986295E+02 0.  0.
         12    1    3    3    0    0 -0.54325096630E+01 -0.34552571011E+02 -0.11505996698E+02  0.36820921834E+02  0.00000000000E+00 0. -1.
         11    1    4    4    0    0  0.82026422957E+01 -0.23356698684E+01  0.20506029509E+01  0.87717539345E+01  0.51100000000E-03 0. -1.
        -11    1    4    4    0    0 -0.22662287039E+00  0.80143886166E+01  0.14119253308E+02  0.16236843815E+02  0.51100000000E-03 0.  1.
        -12    1    4    4    0    0 -0.25435097623E+01  0.28873852262E+02 -0.46638595608E+01  0.29358480417E+02  0.00000000000E+00 0.  1.
</event>
<event>
 8    1  0.1254059E-006  0.9118800E+02  0.7816164E-02  0.1184000E+00
        -11   -1    0    0    0    0  0.00000000000E+00  0.00000000000E+00  0.45593999997E+02  0.45594000000E+02  0.51100000000E-03 0.  1.
         11   -1    0    0    0    0 -0.00000000000E+00 -0.00000000000E+00 -0.45593999997E+02  0.45594000000E+02  0.51100000000E-03 0. -1.
         23    2    1    2    0    0  0.00000000000E+00 -0.26645352591E-14  0.00000000000E+00  0.91188000000E+02  0.91188000000E+02 0.  0.
    9900012    2    3    3    0    0  0.31185972246E+02 -0.43360883587E+01  0.19089565559E+02  0.54367108641E+02  0.40000055770E+02 0.  0.
         12    1    3    3    0    0 -0.31185972246E+02  0.43360883587E+01 -0.19089565559E+02  0.36820891359E+02  0.00000000000E+00 0. -1.
         11    1    4    4    0    0  0.22180304074E+02 -0.17182012746E+02  0.15980218813E+02  0.32288617877E+02  0.51100000000E-03 0. -1.
        -11    1    4    4    0    0  0.60973174382E+01  0.75709671408E+01  0.92913127473E+01  0.13447130408E+02  0.51100000000E-03 0.  1.
         12    1    4    4    0    0  0.29083507345E+01  0.52749572468E+01 -0.61819660015E+01  0.86313603560E+01  0.00000000000E+00 0. -1.
</event>
<event>
 8    1  0.1254059E-006  0.9118800E+02  0.7816164E-02  0.1184000E+00
        -11   -1    0    0    0    0  0.00000000000E+00  0.00000000000E+00  0.45593999997E+02  0.45594000000E+02  0.51100000000E-03 0.  1.
         11   -1    0    0    0    0 -0.00000000000E+00 -0.00000000000E+00 -0.45593999997E+02  0.45594000000E+02  0.51100000000E-03 0. -1.
         23    2    1    2    0    0  0.00000000000E+00 -0.17763568394E-14  0.00000000000E+00  0.91188000000E+02  0.91188000000E+02 0.  0.
    9900012    2    3    3    0    0 -0.11407853454E+02 -0.65939513760E+01  0.34382381193E+02  0.54367252429E+02  0.40000383562E+02 0.  0.
         12    1    3    3    0    0  0.11407853454E+02  0.65939513760E+01 -0.34382381193E+02  0.36820747571E+02  0.00000000000E+00 0. -1.
         11    1    4    4    0    0  0.32314893668E+01 -0.94186188136E+01  0.50021718421E+01  0.11143366963E+02  0.51100000000E-03 0.  1.
        -11    1    4    4    0    0 -0.19328900335E+02 -0.66613581005E+01  0.23384371617E+02  0.31061373377E+02  0.51100000000E-03 0. -1.
         12    1    4    4    0    0  0.46895575142E+01  0.94860255380E+01  0.59958377340E+01  0.12162512089E+02  0.00000000000E+00 0. -1.
</event>
<event>
 8    1  0.1254059E-006  0.9118800E+02  0.7816164E-02  0.1184000E+00
        -11   -1    0    0    0    0  0.00000000000E+00  0.00000000000E+00  0.45593999997E+02  0.45594000000E+02  0.51100000000E-03 0.  1.
         11   -1    0    0    0    0 -0.00000000000E+00 -0.00000000000E+00 -0.45593999997E+02  0.45594000000E+02  0.51100000000E-03 0. -1.
         23    2    1    2    0    0  0.71054273576E-14  0.35527136788E-14  0.00000000000E+00  0.91188000000E+02  0.91188000000E+02 0.  0.
    9900012    2    3    3    0    0 -0.26320270910E+02 -0.14155589397E+02  0.21509132983E+02  0.54367079674E+02  0.39999989733E+02 0.  0.
         12    1    3    3    0    0  0.26320270910E+02  0.14155589397E+02 -0.21509132983E+02  0.36820920326E+02  0.00000000000E+00 0. -1.
         11    1    4    4    0    0 -0.16192280272E+02  0.21467788426E+01  0.48364522699E+01  0.17034960247E+02  0.51100000000E-03 0. -1.
        -11    1    4    4    0    0 -0.16125933284E+02 -0.16186189057E+02  0.38429206756E+01  0.23169084576E+02  0.51100000000E-03 0.  1.
         12    1    4    4    0    0  0.59979426457E+01 -0.11617918219E+00  0.12829760038E+02  0.14163034852E+02  0.00000000000E+00 0. -1.
</event>
<event>
 8    1  0.1254059E-006  0.9118800E+02  0.7816164E-02  0.1184000E+00
        -11   -1    0    0    0    0  0.00000000000E+00  0.00000000000E+00  0.45593999997E+02  0.45594000000E+02  0.51100000000E-03 0. -1.
         11   -1    0    0    0    0 -0.00000000000E+00 -0.00000000000E+00 -0.45593999997E+02  0.45594000000E+02  0.51100000000E-03 0.  1.
         23    2    1    2    0    0  0.00000000000E+00  0.17763568394E-14  0.00000000000E+00  0.91188000000E+02  0.91188000000E+02 0.  0.
    9900012    2    3    3    0    0 -0.22384035326E+02  0.12173431307E+02  0.26580846700E+02  0.54367097260E+02  0.40000029824E+02 0.  0.
        -12    1    3    3    0    0  0.22384035326E+02 -0.12173431307E+02 -0.26580846700E+02  0.36820902740E+02  0.00000000000E+00 0.  1.
         11    1    4    4    0    0 -0.15633301023E+02  0.16779191334E+02  0.20097605796E+02  0.30493525898E+02  0.51100000000E-03 0. -1.
        -11    1    4    4    0    0 -0.22873173331E+01  0.47633453445E+01 -0.57647320742E+01  0.78200649359E+01  0.51100000000E-03 0.  1.
         12    1    4    4    0    0 -0.44634169699E+01 -0.93691053711E+01  0.12247972979E+02  0.16053506427E+02  0.00000000000E+00 0. -1.
</event>
<event>
 8    1  0.1254059E-006  0.9118800E+02  0.7816164E-02  0.1184000E+00
        -11   -1    0    0    0    0  0.00000000000E+00  0.00000000000E+00  0.45593999997E+02  0.45594000000E+02  0.51100000000E-03 0. -1.
         11   -1    0    0    0    0 -0.00000000000E+00 -0.00000000000E+00 -0.45593999997E+02  0.45594000000E+02  0.51100000000E-03 0.  1.
         23    2    1    2    0    0  0.00000000000E+00  0.71054273576E-14  0.00000000000E+00  0.91188000000E+02  0.91188000000E+02 0.  0.
    9900012    2    3    3    0    0 -0.11291974659E+02  0.34842551615E+02 -0.37769169194E+01  0.54367120106E+02  0.40000081906E+02 0.  0.
        -12    1    3    3    0    0  0.11291974659E+02 -0.34842551615E+02  0.37769169194E+01  0.36820879894E+02  0.00000000000E+00 0.  1.
         11    1    4    4    0    0 -0.67953456683E+01  0.12676748325E+02  0.35301767081E+01  0.14810091785E+02  0.51100000000E-03 0. -1.
        -11    1    4    4    0    0 -0.17753060437E+02  0.82147716571E+01 -0.24978410277E+01  0.19720366080E+02  0.51100000000E-03 0.  1.
         12    1    4    4    0    0  0.13256431446E+02  0.13951031633E+02 -0.48092525998E+01  0.19836662241E+02  0.00000000000E+00 0. -1.
</event>
<event>
 8    1  0.1254059E-006  0.9118800E+02  0.7816164E-02  0.1184000E+00
        -11   -1    0    0    0    0  0.00000000000E+00  0.00000000000E+00  0.45593999997E+02  0.45594000000E+02  0.51100000000E-03 0. -1.
         11   -1    0    0    0    0 -0.00000000000E+00 -0.00000000000E+00 -0.45593999997E+02  0.45594000000E+02  0.51100000000E-03 0.  1.
         23    2    1    2    0    0  0.00000000000E+00  0.00000000000E+00  0.35527136788E-14  0.91188000000E+02  0.91188000000E+02 0.  0.
    9900012    2    3    3    0    0 -0.20213660189E+02 -0.11666816481E+02  0.28479331111E+02  0.54367096079E+02  0.40000027131E+02 0.  0.
        -12    1    3    3    0    0  0.20213660189E+02  0.11666816481E+02 -0.28479331111E+02  0.36820903921E+02  0.00000000000E+00 0.  1.
         11    1    4    4    0    0 -0.43352381603E+01 -0.22037517118E+02  0.22130199696E+02  0.31530813334E+02  0.51100000000E-03 0. -1.
        -11    1    4    4    0    0 -0.35766261649E+01 -0.93431204610E+00  0.47981828301E+01  0.60570415596E+01  0.51100000000E-03 0.  1.
        -12    1    4    4    0    0 -0.12301795864E+02  0.11305012683E+02  0.15509485842E+01  0.16779241185E+02  0.00000000000E+00 0.  1.
</event>
<event>
 8    1  0.1254059E-006  0.9118800E+02  0.7816164E-02  0.1184000E+00
        -11   -1    0    0    0    0  0.00000000000E+00  0.00000000000E+00  0.45593999997E+02  0.45594000000E+02  0.51100000000E-03 0. -1.
         11   -1    0    0    0    0 -0.00000000000E+00 -0.00000000000E+00 -0.45593999997E+02  0.45594000000E+02  0.51100000000E-03 0.  1.
         23    2    1    2    0    0 -0.88817841970E-15  0.00000000000E+00  0.00000000000E+00  0.91188000000E+02  0.91188000000E+02 0.  0.
    9900012    2    3    3    0    0 -0.62994813363E+01 -0.33129738815E+02  0.14782312065E+02  0.54367084625E+02  0.40000001021E+02 0.  0.
        -12    1    3    3    0    0  0.62994813363E+01  0.33129738815E+02 -0.14782312065E+02  0.36820915375E+02  0.00000000000E+00 0.  1.
         11    1    4    4    0    0 -0.38963034146E+01 -0.12530552984E+02  0.73761777023E+01  0.15053369594E+02  0.51100000000E-03 0. -1.
        -11    1    4    4    0    0  0.31663991614E+01 -0.27731630119E+02  0.10393241764E+02  0.29784037123E+02  0.51100000000E-03 0.  1.
        -12    1    4    4    0    0 -0.55695770831E+01  0.71324442883E+01 -0.29871074014E+01  0.95296779084E+01  0.00000000000E+00 0.  1.
</event>
<event>
 8    1  0.1254059E-006  0.9118800E+02  0.7816164E-02  0.1184000E+00
        -11   -1    0    0    0    0  0.00000000000E+00  0.00000000000E+00  0.45593999997E+02  0.45594000000E+02  0.51100000000E-03 0.  1.
         11   -1    0    0    0    0 -0.00000000000E+00 -0.00000000000E+00 -0.45593999997E+02  0.45594000000E+02  0.51100000000E-03 0. -1.
         23    2    1    2    0    0  0.20816681712E-16 -0.22204460493E-15 -0.71054273576E-14  0.91188000000E+02  0.91188000000E+02 0.  0.
    9900012    2    3    3    0    0 -0.88460855370E-02 -0.11265836536E+01  0.36803674539E+02  0.54367085718E+02  0.40000003512E+02 0.  0.
         12    1    3    3    0    0  0.88460855370E-02  0.11265836536E+01 -0.36803674539E+02  0.36820914282E+02  0.00000000000E+00 0. -1.
         11    1    4    4    0    0 -0.78822216738E+01  0.74057344357E+01  0.29407233517E+02  0.31333044927E+02  0.51100000000E-03 0. -1.
        -11    1    4    4    0    0  0.99734025335E+01  0.24348690430E+01  0.56908245340E+01  0.11738093094E+02  0.51100000000E-03 0.  1.
         12    1    4    4    0    0 -0.21000269452E+01 -0.10967187132E+02  0.17056164884E+01  0.11295947697E+02  0.00000000000E+00 0. -1.
</event>
<event>
 8    1  0.1254059E-006  0.9118800E+02  0.7816164E-02  0.1184000E+00
        -11   -1    0    0    0    0  0.00000000000E+00  0.00000000000E+00  0.45593999997E+02  0.45594000000E+02  0.51100000000E-03 0.  1.
         11   -1    0    0    0    0 -0.00000000000E+00 -0.00000000000E+00 -0.45593999997E+02  0.45594000000E+02  0.51100000000E-03 0. -1.
         23    2    1    2    0    0 -0.88817841970E-15  0.00000000000E+00  0.00000000000E+00  0.91188000000E+02  0.91188000000E+02 0.  0.
    9900012    2    3    3    0    0 -0.42408161783E+01  0.36067678905E+02 -0.60761402038E+01  0.54367062163E+02  0.39999949812E+02 0.  0.
        -12    1    3    3    0    0  0.42408161783E+01 -0.36067678905E+02  0.60761402038E+01  0.36820937837E+02  0.00000000000E+00 0.  1.
         11    1    4    4    0    0 -0.17320455672E+01  0.52711239595E+01 -0.10986226329E+02  0.12307798295E+02  0.51100000000E-03 0. -1.
        -11    1    4    4    0    0  0.56620557008E+01  0.11628901240E+01  0.93583959457E+01  0.10999580135E+02  0.51100000000E-03 0.  1.
        -12    1    4    4    0    0 -0.81708263119E+01  0.29633664821E+02 -0.44483098201E+01  0.31059683733E+02  0.00000000000E+00 0.  1.
</event>
<event>
 8    1  0.1254059E-006  0.9118800E+02  0.7816164E-02  0.1184000E+00
        -11   -1    0    0    0    0  0.00000000000E+00  0.00000000000E+00  0.45593999997E+02  0.45594000000E+02  0.51100000000E-03 0.  1.
         11   -1    0    0    0    0 -0.00000000000E+00 -0.00000000000E+00 -0.45593999997E+02  0.45594000000E+02  0.51100000000E-03 0. -1.
         23    2    1    2    0    0  0.35527136788E-14  0.00000000000E+00  0.00000000000E+00  0.91188000000E+02  0.91188000000E+02 0.  0.
    9900012    2    3    3    0    0  0.18995898431E+02 -0.75419569714E+01  0.30627697445E+02  0.54367066784E+02  0.39999960347E+02 0.  0.
         12    1    3    3    0    0 -0.18995898431E+02  0.75419569714E+01 -0.30627697445E+02  0.36820933216E+02  0.00000000000E+00 0. -1.
         11    1    4    4    0    0  0.32647250470E+01 -0.65142561226E+01 -0.39794277616E+01  0.83023977280E+01  0.51100000000E-03 0. -1.
        -11    1    4    4    0    0  0.67278225420E+01 -0.13424558845E+02  0.15625718259E+02  0.21671304707E+02  0.51100000000E-03 0.  1.
        -12    1    4    4    0    0  0.90033508416E+01  0.12396857996E+02  0.18981406948E+02  0.24393364349E+02  0.00000000000E+00 0.  1.
</event>
<event>
 8    1  0.1254059E-006  0.9118800E+02  0.7816164E-02  0.1184000E+00
        -11   -1    0    0    0    0  0.00000000000E+00  0.00000000000E+00  0.45593999997E+02  0.45594000000E+02  0.51100000000E-03 0.  1.
         11   -1    0    0    0    0 -0.00000000000E+00 -0.00000000000E+00 -0.45593999997E+02  0.45594000000E+02  0.51100000000E-03 0. -1.
         23    2    1    2    0    0  0.35527136788E-14  0.00000000000E+00 -0.26645352591E-14  0.91188000000E+02  0.91188000000E+02 0.  0.
    9900012    2    3    3    0    0  0.30302770611E+02 -0.19826921389E+02 -0.66646578825E+01  0.54367049671E+02  0.39999921334E+02 0.  0.
         12    1    3    3    0    0 -0.30302770611E+02  0.19826921389E+02  0.66646578825E+01  0.36820950329E+02  0.00000000000E+00 0. -1.
         11    1    4    4    0    0  0.12208109718E+02 -0.17779054877E+01  0.60557754086E+01  0.13743045764E+02  0.51100000000E-03 0. -1.
        -11    1    4    4    0    0 -0.29874958065E+01 -0.57626344893E+00  0.64952785585E+01  0.71725765643E+01  0.51100000000E-03 0.  1.
         12    1    4    4    0    0  0.21082156699E+02 -0.17472752453E+02 -0.19215711850E+02  0.33451427343E+02  0.00000000000E+00 0. -1.
</event>
<event>
 8    1  0.1254059E-006  0.9118800E+02  0.7816164E-02  0.1184000E+00
        -11   -1    0    0    0    0  0.00000000000E+00  0.00000000000E+00  0.45593999997E+02  0.45594000000E+02  0.51100000000E-03 0. -1.
         11   -1    0    0    0    0 -0.00000000000E+00 -0.00000000000E+00 -0.45593999997E+02  0.45594000000E+02  0.51100000000E-03 0.  1.
         23    2    1    2    0    0  0.00000000000E+00 -0.17763568394E-14  0.00000000000E+00  0.91188000000E+02  0.91188000000E+02 0.  0.
    9900012    2    3    3    0    0  0.20384439951E+02  0.12631142712E+02  0.27941181860E+02  0.54367071140E+02  0.39999970279E+02 0.  0.
        -12    1    3    3    0    0 -0.20384439951E+02 -0.12631142712E+02 -0.27941181860E+02  0.36820928860E+02  0.00000000000E+00 0.  1.
         11    1    4    4    0    0 -0.91401557789E+00 -0.30233053588E+01 -0.37134413079E+01  0.48749816796E+01  0.51100000000E-03 0. -1.
        -11    1    4    4    0    0  0.65421628151E+01 -0.67502952321E+01  0.22061304353E+01  0.96557439785E+01  0.51100000000E-03 0.  1.
         12    1    4    4    0    0  0.14756292714E+02  0.22404743303E+02  0.29448492733E+02  0.39836345482E+02  0.00000000000E+00 0. -1.
</event>
<event>
 8    1  0.1254059E-006  0.9118800E+02  0.7816164E-02  0.1184000E+00
        -11   -1    0    0    0    0  0.00000000000E+00  0.00000000000E+00  0.45593999997E+02  0.45594000000E+02  0.51100000000E-03 0.  1.
         11   -1    0    0    0    0 -0.00000000000E+00 -0.00000000000E+00 -0.45593999997E+02  0.45594000000E+02  0.51100000000E-03 0. -1.
         23    2    1    2    0    0  0.00000000000E+00  0.00000000000E+00 -0.88817841970E-15  0.91188000000E+02  0.91188000000E+02 0.  0.
    9900012    2    3    3    0    0 -0.23431287985E+02  0.28067148086E+02  0.43578623663E+01  0.54367068144E+02  0.39999963447E+02 0.  0.
         12    1    3    3    0    0  0.23431287985E+02 -0.28067148086E+02 -0.43578623663E+01  0.36820931856E+02  0.00000000000E+00 0. -1.
         11    1    4    4    0    0 -0.14213834640E+02  0.23233896421E+02  0.10504523825E+02  0.29192328771E+02  0.51100000000E-03 0. -1.
        -11    1    4    4    0    0 -0.13960376467E+02  0.10020453297E+02 -0.58028283307E+01  0.18137651785E+02  0.51100000000E-03 0.  1.
         12    1    4    4    0    0  0.47429231214E+01 -0.51872016309E+01 -0.34383312795E+00  0.70370875876E+01  0.00000000000E+00 0. -1.
</event>
<event>
 8    1  0.1254059E-006  0.9118800E+02  0.7816164E-02  0.1184000E+00
        -11   -1    0    0    0    0  0.00000000000E+00  0.00000000000E+00  0.45593999997E+02  0.45594000000E+02  0.51100000000E-03 0.  1.
         11   -1    0    0    0    0 -0.00000000000E+00 -0.00000000000E+00 -0.45593999997E+02  0.45594000000E+02  0.51100000000E-03 0. -1.
         23    2    1    2    0    0 -0.35527136788E-14 -0.35527136788E-14  0.35527136788E-14  0.91188000000E+02  0.91188000000E+02 0.  0.
    9900012    2    3    3    0    0 -0.30759358888E+02 -0.18588424584E+02  0.80070121715E+01  0.54367082961E+02  0.39999997226E+02 0.  0.
         12    1    3    3    0    0  0.30759358888E+02  0.18588424584E+02 -0.80070121715E+01  0.36820917039E+02  0.00000000000E+00 0. -1.
         11    1    4    4    0    0 -0.30213107306E+01 -0.40686712395E+01 -0.55014468022E+01  0.74798610526E+01  0.51100000000E-03 0. -1.
        -11    1    4    4    0    0 -0.20050537193E+02  0.48773019057E+01 -0.22254554718E+01  0.20754873354E+02  0.51100000000E-03 0.  1.
        -12    1    4    4    0    0 -0.76875109638E+01 -0.19397055250E+02  0.15733914446E+02  0.26132348554E+02  0.00000000000E+00 0.  1.
</event>
<event>
 8    1  0.1254059E-006  0.9118800E+02  0.7816164E-02  0.1184000E+00
        -11   -1    0    0    0    0  0.00000000000E+00  0.00000000000E+00  0.45593999997E+02  0.45594000000E+02  0.51100000000E-03 0.  1.
         11   -1    0    0    0    0 -0.00000000000E+00 -0.00000000000E+00 -0.45593999997E+02  0.45594000000E+02  0.51100000000E-03 0. -1.
         23    2    1    2    0    0  0.00000000000E+00 -0.35527136788E-14 -0.17763568394E-14  0.91188000000E+02  0.91188000000E+02 0.  0.
    9900012    2    3    3    0    0  0.24767885210E+02  0.27083969531E+02 -0.29647729629E+01  0.54367089880E+02  0.40000012999E+02 0.  0.
        -12    1    3    3    0    0 -0.24767885210E+02 -0.27083969531E+02  0.29647729629E+01  0.36820910120E+02  0.00000000000E+00 0.  1.
         11    1    4    4    0    0  0.27000158706E+02  0.20763967351E+02 -0.14753056315E+02  0.37118776666E+02  0.51100000000E-03 0. -1.
        -11    1    4    4    0    0 -0.44553007173E+01  0.81534715973E+01  0.10692579383E+02  0.14165452964E+02  0.51100000000E-03 0.  1.
         12    1    4    4    0    0  0.22230272218E+01 -0.18334694167E+01  0.10957039694E+01  0.30828602497E+01  0.00000000000E+00 0. -1.
</event>
<event>
 8    1  0.1254059E-006  0.9118800E+02  0.7816164E-02  0.1184000E+00
        -11   -1    0    0    0    0  0.00000000000E+00  0.00000000000E+00  0.45593999997E+02  0.45594000000E+02  0.51100000000E-03 0. -1.
         11   -1    0    0    0    0 -0.00000000000E+00 -0.00000000000E+00 -0.45593999997E+02  0.45594000000E+02  0.51100000000E-03 0.  1.
         23    2    1    2    0    0  0.00000000000E+00  0.00000000000E+00  0.00000000000E+00  0.91188000000E+02  0.91188000000E+02 0.  0.
    9900012    2    3    3    0    0  0.13604978727E+02  0.47700088205E+01  0.33881140479E+02  0.54367080532E+02  0.39999991688E+02 0.  0.
        -12    1    3    3    0    0 -0.13604978727E+02 -0.47700088205E+01 -0.33881140479E+02  0.36820919468E+02  0.00000000000E+00 0.  1.
         11    1    4    4    0    0  0.76756388206E+01  0.20555254495E+02  0.28974281275E+02  0.36344778089E+02  0.51100000000E-03 0.  1.
        -11    1    4    4    0    0  0.37844275231E+01 -0.65546419670E+01  0.53975440448E+00  0.75879218547E+01  0.51100000000E-03 0. -1.
        -12    1    4    4    0    0  0.21449123832E+01 -0.92306037070E+01  0.43671047996E+01  0.10434380588E+02  0.00000000000E+00 0.  1.
</event>
<event>
 8    1  0.1254059E-006  0.9118800E+02  0.7816164E-02  0.1184000E+00
        -11   -1    0    0    0    0  0.00000000000E+00  0.00000000000E+00  0.45593999997E+02  0.45594000000E+02  0.51100000000E-03 0.  1.
         11   -1    0    0    0    0 -0.00000000000E+00 -0.00000000000E+00 -0.45593999997E+02  0.45594000000E+02  0.51100000000E-03 0. -1.
         23    2    1    2    0    0  0.00000000000E+00 -0.35527136788E-14  0.44408920985E-15  0.91188000000E+02  0.91188000000E+02 0.  0.
    9900012    2    3    3    0    0  0.29274613471E+02  0.22311936156E+02 -0.97700302964E+00  0.54367081709E+02  0.39999994372E+02 0.  0.
         12    1    3    3    0    0 -0.29274613471E+02 -0.22311936156E+02  0.97700302964E+00  0.36820918291E+02  0.00000000000E+00 0. -1.
         11    1    4    4    0    0  0.15537681697E+02  0.24811652451E+01 -0.15621395156E+02  0.22172138380E+02  0.51100000000E-03 0. -1.
        -11    1    4    4    0    0 -0.31506662807E+01  0.49403150044E+01  0.49946569782E+01  0.76993512029E+01  0.51100000000E-03 0.  1.
        -12    1    4    4    0    0  0.16887598055E+02  0.14890455906E+02  0.96497351480E+01  0.24495592126E+02  0.00000000000E+00 0.  1.
</event>
<event>
 8    1  0.1254059E-006  0.9118800E+02  0.7816164E-02  0.1184000E+00
        -11   -1    0    0    0    0  0.00000000000E+00  0.00000000000E+00  0.45593999997E+02  0.45594000000E+02  0.51100000000E-03 0.  1.
         11   -1    0    0    0    0 -0.00000000000E+00 -0.00000000000E+00 -0.45593999997E+02  0.45594000000E+02  0.51100000000E-03 0. -1.
         23    2    1    2    0    0  0.35527136788E-14 -0.17763568394E-14  0.00000000000E+00  0.91188000000E+02  0.91188000000E+02 0.  0.
    9900012    2    3    3    0    0  0.21557811444E+02 -0.14641321457E+02  0.26012970812E+02  0.54367052447E+02  0.39999927662E+02 0.  0.
         12    1    3    3    0    0 -0.21557811444E+02  0.14641321457E+02 -0.26012970812E+02  0.36820947553E+02  0.00000000000E+00 0. -1.
         11    1    4    4    0    0 -0.49681165805E+01  0.22014611975E+01  0.10152456472E+02  0.11515250168E+02  0.51100000000E-03 0. -1.
        -11    1    4    4    0    0 -0.23496942422E+00  0.50440979278E+01  0.34706920894E+01  0.61273026999E+01  0.51100000000E-03 0.  1.
        -12    1    4    4    0    0  0.26760897449E+02 -0.21886880582E+02  0.12389822251E+02  0.36724499579E+02  0.00000000000E+00 0.  1.
</event>
<event>
 8    1  0.1254059E-006  0.9118800E+02  0.7816164E-02  0.1184000E+00
        -11   -1    0    0    0    0  0.00000000000E+00  0.00000000000E+00  0.45593999997E+02  0.45594000000E+02  0.51100000000E-03 0.  1.
         11   -1    0    0    0    0 -0.00000000000E+00 -0.00000000000E+00 -0.45593999997E+02  0.45594000000E+02  0.51100000000E-03 0. -1.
         23    2    1    2    0    0  0.00000000000E+00 -0.17763568394E-14 -0.88817841970E-15  0.91188000000E+02  0.91188000000E+02 0.  0.
    9900012    2    3    3    0    0  0.32957565440E+02  0.15951967899E+02  0.38877465582E+01  0.54367068821E+02  0.39999964990E+02 0.  0.
         12    1    3    3    0    0 -0.32957565440E+02 -0.15951967899E+02 -0.38877465582E+01  0.36820931179E+02  0.00000000000E+00 0. -1.
         11    1    4    4    0    0  0.83385769594E+01 -0.68331623459E+01  0.75649005392E+01  0.13170106066E+02  0.51100000000E-03 0. -1.
        -11    1    4    4    0    0  0.26847971892E+02  0.22362562705E+02 -0.84181552945E+01  0.35941106609E+02  0.51100000000E-03 0.  1.
        -12    1    4    4    0    0 -0.22289834109E+01  0.42256753999E+00  0.47410013135E+01  0.52558561459E+01  0.00000000000E+00 0.  1.
</event>
<event>
 8    1  0.1254059E-006  0.9118800E+02  0.7816164E-02  0.1184000E+00
        -11   -1    0    0    0    0  0.00000000000E+00  0.00000000000E+00  0.45593999997E+02  0.45594000000E+02  0.51100000000E-03 0.  1.
         11   -1    0    0    0    0 -0.00000000000E+00 -0.00000000000E+00 -0.45593999997E+02  0.45594000000E+02  0.51100000000E-03 0. -1.
         23    2    1    2    0    0  0.00000000000E+00  0.00000000000E+00  0.00000000000E+00  0.91188000000E+02  0.91188000000E+02 0.  0.
    9900012    2    3    3    0    0  0.73371561023E+01 -0.22243629601E+02 -0.28410660147E+02  0.54367102027E+02  0.40000040692E+02 0.  0.
        -12    1    3    3    0    0 -0.73371561023E+01  0.22243629601E+02  0.28410660147E+02  0.36820897973E+02  0.00000000000E+00 0.  1.
         11    1    4    4    0    0  0.23045804693E+01 -0.11619069913E+02 -0.14336533321E+02  0.18597044516E+02  0.51100000000E-03 0. -1.
        -11    1    4    4    0    0  0.40600267892E+01 -0.20079235196E+02 -0.22639077250E+01  0.20610307665E+02  0.51100000000E-03 0.  1.
        -12    1    4    4    0    0  0.97254884379E+00  0.94546755078E+01 -0.11810219101E+02  0.15159749847E+02  0.00000000000E+00 0.  1.
</event>
<event>
 8    1  0.1254059E-006  0.9118800E+02  0.7816164E-02  0.1184000E+00
        -11   -1    0    0    0    0  0.00000000000E+00  0.00000000000E+00  0.45593999997E+02  0.45594000000E+02  0.51100000000E-03 0.  1.
         11   -1    0    0    0    0 -0.00000000000E+00 -0.00000000000E+00 -0.45593999997E+02  0.45594000000E+02  0.51100000000E-03 0. -1.
         23    2    1    2    0    0  0.00000000000E+00  0.00000000000E+00 -0.38857805862E-15  0.91188000000E+02  0.91188000000E+02 0.  0.
    9900012    2    3    3    0    0 -0.25331094797E+01  0.36731669776E+02 -0.38098138860E+00  0.54367117949E+02  0.40000076989E+02 0.  0.
         12    1    3    3    0    0  0.25331094797E+01 -0.36731669776E+02  0.38098138860E+00  0.36820882051E+02  0.00000000000E+00 0. -1.
         11    1    4    4    0    0  0.71191633601E+01  0.18347278376E+02 -0.66624592019E+01  0.20777234504E+02  0.51100000000E-03 0. -1.
        -11    1    4    4    0    0 -0.62941530630E+01  0.24868662857E+02  0.41788594978E+01  0.25990952696E+02  0.51100000000E-03 0.  1.
        -12    1    4    4    0    0 -0.33581197768E+01 -0.64842714567E+01  0.21026183155E+01  0.75989307498E+01  0.00000000000E+00 0.  1.
</event>
<event>
 8    1  0.1254059E-006  0.9118800E+02  0.7816164E-02  0.1184000E+00
        -11   -1    0    0    0    0  0.00000000000E+00  0.00000000000E+00  0.45593999997E+02  0.45594000000E+02  0.51100000000E-03 0. -1.
         11   -1    0    0    0    0 -0.00000000000E+00 -0.00000000000E+00 -0.45593999997E+02  0.45594000000E+02  0.51100000000E-03 0.  1.
         23    2    1    2    0    0  0.71054273576E-14  0.00000000000E+00  0.17763568394E-14  0.91188000000E+02  0.91188000000E+02 0.  0.
    9900012    2    3    3    0    0 -0.25806744694E+02  0.25129564459E+02  0.76355524094E+01  0.54367017636E+02  0.39999848305E+02 0.  0.
         12    1    3    3    0    0  0.25806744694E+02 -0.25129564459E+02 -0.76355524094E+01  0.36820982364E+02  0.00000000000E+00 0. -1.
         11    1    4    4    0    0  0.62522002688E+01  0.91958978776E+01  0.29117713119E+01  0.11494910109E+02  0.51100000000E-03 0. -1.
        -11    1    4    4    0    0 -0.38398539964E+01 -0.53188769518E+00  0.91165913469E+01  0.99065443663E+01  0.51100000000E-03 0.  1.
        -12    1    4    4    0    0 -0.28219090967E+02  0.16465554277E+02 -0.43928102494E+01  0.32965563161E+02  0.00000000000E+00 0.  1.
</event>
<event>
 8    1  0.1254059E-006  0.9118800E+02  0.7816164E-02  0.1184000E+00
        -11   -1    0    0    0    0  0.00000000000E+00  0.00000000000E+00  0.45593999997E+02  0.45594000000E+02  0.51100000000E-03 0. -1.
         11   -1    0    0    0    0 -0.00000000000E+00 -0.00000000000E+00 -0.45593999997E+02  0.45594000000E+02  0.51100000000E-03 0.  1.
         23    2    1    2    0    0  0.00000000000E+00 -0.35527136788E-14  0.00000000000E+00  0.91188000000E+02  0.91188000000E+02 0.  0.
    9900012    2    3    3    0    0  0.68424665303E+01  0.26900069806E+02  0.24193939126E+02  0.54367084826E+02  0.40000001478E+02 0.  0.
        -12    1    3    3    0    0 -0.68424665303E+01 -0.26900069806E+02 -0.24193939126E+02  0.36820915174E+02  0.00000000000E+00 0.  1.
         11    1    4    4    0    0  0.10691422618E+02 -0.24053393133E+01  0.68966056636E+01  0.12948179206E+02  0.51100000000E-03 0.  1.
        -11    1    4    4    0    0  0.29541734237E+01  0.28361654071E+02  0.19096486041E+02  0.34318891906E+02  0.51100000000E-03 0. -1.
        -12    1    4    4    0    0 -0.68031295116E+01  0.94375504871E+00 -0.17991525788E+01  0.71000137145E+01  0.00000000000E+00 0.  1.
</event>
<event>
 8    1  0.1254059E-006  0.9118800E+02  0.7816164E-02  0.1184000E+00
        -11   -1    0    0    0    0  0.00000000000E+00  0.00000000000E+00  0.45593999997E+02  0.45594000000E+02  0.51100000000E-03 0. -1.
         11   -1    0    0    0    0 -0.00000000000E+00 -0.00000000000E+00 -0.45593999997E+02  0.45594000000E+02  0.51100000000E-03 0.  1.
         23    2    1    2    0    0  0.00000000000E+00  0.00000000000E+00  0.17763568394E-14  0.91188000000E+02  0.91188000000E+02 0.  0.
    9900012    2    3    3    0    0 -0.29373833689E+02  0.21408192048E+02 -0.58860541729E+01  0.54367103405E+02  0.40000043831E+02 0.  0.
         12    1    3    3    0    0  0.29373833689E+02 -0.21408192048E+02  0.58860541729E+01  0.36820896595E+02  0.00000000000E+00 0. -1.
         11    1    4    4    0    0 -0.29282956105E+01 -0.64601490382E+01 -0.74228209245E+01  0.10266777075E+02  0.51100000000E-03 0. -1.
        -11    1    4    4    0    0 -0.11763267770E+02  0.55382888059E+01 -0.85216585889E+01  0.15545603137E+02  0.51100000000E-03 0.  1.
        -12    1    4    4    0    0 -0.14682270309E+02  0.22330052280E+02  0.10058425340E+02  0.28554723193E+02  0.00000000000E+00 0.  1.
</event>
<event>
 8    1  0.1254059E-006  0.9118800E+02  0.7816164E-02  0.1184000E+00
        -11   -1    0    0    0    0  0.00000000000E+00  0.00000000000E+00  0.45593999997E+02  0.45594000000E+02  0.51100000000E-03 0. -1.
         11   -1    0    0    0    0 -0.00000000000E+00 -0.00000000000E+00 -0.45593999997E+02  0.45594000000E+02  0.51100000000E-03 0.  1.
         23    2    1    2    0    0 -0.13322676296E-14 -0.88817841970E-15  0.00000000000E+00  0.91188000000E+02  0.91188000000E+02 0.  0.
    9900012    2    3    3    0    0 -0.24929022248E+01 -0.41140035376E+01 -0.36505349709E+02  0.54367080077E+02  0.39999990652E+02 0.  0.
         12    1    3    3    0    0  0.24929022248E+01  0.41140035376E+01  0.36505349709E+02  0.36820919923E+02  0.00000000000E+00 0. -1.
         11    1    4    4    0    0  0.10038237039E+02  0.35908191684E+01 -0.14993413423E+02  0.18397353926E+02  0.51100000000E-03 0. -1.
        -11    1    4    4    0    0 -0.72603630380E+01 -0.16582858127E+02 -0.10740148476E+02  0.21048868013E+02  0.51100000000E-03 0.  1.
        -12    1    4    4    0    0 -0.52707762260E+01  0.88780354206E+01 -0.10771787810E+02  0.14920858138E+02  0.00000000000E+00 0.  1.
</event>
<event>
 8    1  0.1254059E-006  0.9118800E+02  0.7816164E-02  0.1184000E+00
        -11   -1    0    0    0    0  0.00000000000E+00  0.00000000000E+00  0.45593999997E+02  0.45594000000E+02  0.51100000000E-03 0.  1.
         11   -1    0    0    0    0 -0.00000000000E+00 -0.00000000000E+00 -0.45593999997E+02  0.45594000000E+02  0.51100000000E-03 0. -1.
         23    2    1    2    0    0  0.17763568394E-14 -0.13322676296E-14  0.00000000000E+00  0.91188000000E+02  0.91188000000E+02 0.  0.
    9900012    2    3    3    0    0 -0.76404692225E+01  0.90484538082E+00 -0.36008101372E+02  0.54367097248E+02  0.40000029796E+02 0.  0.
        -12    1    3    3    0    0  0.76404692225E+01 -0.90484538082E+00  0.36008101372E+02  0.36820902752E+02  0.00000000000E+00 0.  1.
         11    1    4    4    0    0 -0.20126953140E+02 -0.60865607861E+01 -0.29626825559E+02  0.36330280179E+02  0.51100000000E-03 0. -1.
        -11    1    4    4    0    0  0.99626739890E+01  0.65661703167E+01 -0.87394220630E+00  0.11963830527E+02  0.51100000000E-03 0.  1.
        -12    1    4    4    0    0  0.25238099288E+01  0.42523585028E+00 -0.55073336064E+01  0.60729865418E+01  0.00000000000E+00 0.  1.
</event>
<event>
 8    1  0.1254059E-006  0.9118800E+02  0.7816164E-02  0.1184000E+00
        -11   -1    0    0    0    0  0.00000000000E+00  0.00000000000E+00  0.45593999997E+02  0.45594000000E+02  0.51100000000E-03 0.  1.
         11   -1    0    0    0    0 -0.00000000000E+00 -0.00000000000E+00 -0.45593999997E+02  0.45594000000E+02  0.51100000000E-03 0. -1.
         23    2    1    2    0    0  0.00000000000E+00 -0.44408920985E-15  0.00000000000E+00  0.91188000000E+02  0.91188000000E+02 0.  0.
    9900012    2    3    3    0    0 -0.23023199000E+02 -0.18754398601E+01 -0.28673941158E+02  0.54367083819E+02  0.39999999181E+02 0.  0.
        -12    1    3    3    0    0  0.23023199000E+02  0.18754398601E+01  0.28673941158E+02  0.36820916181E+02  0.00000000000E+00 0.  1.
         11    1    4    4    0    0 -0.22013821716E+02  0.90448774652E+01 -0.18753570542E+02  0.30300405331E+02  0.51100000000E-03 0. -1.
        -11    1    4    4    0    0 -0.41233477682E+01 -0.10758405834E+02 -0.14503818379E+02  0.18523121787E+02  0.51100000000E-03 0.  1.
         12    1    4    4    0    0  0.31139704834E+01 -0.16191149157E+00  0.45834477625E+01  0.55435567007E+01  0.00000000000E+00 0. -1.
</event>
<event>
 8    1  0.1254059E-006  0.9118800E+02  0.7816164E-02  0.1184000E+00
        -11   -1    0    0    0    0  0.00000000000E+00  0.00000000000E+00  0.45593999997E+02  0.45594000000E+02  0.51100000000E-03 0.  1.
         11   -1    0    0    0    0 -0.00000000000E+00 -0.00000000000E+00 -0.45593999997E+02  0.45594000000E+02  0.51100000000E-03 0. -1.
         23    2    1    2    0    0  0.00000000000E+00  0.00000000000E+00  0.88817841970E-15  0.91188000000E+02  0.91188000000E+02 0.  0.
    9900012    2    3    3    0    0  0.71298179793E+01 -0.35675983796E+02 -0.56717405053E+01  0.54367098808E+02  0.40000033353E+02 0.  0.
        -12    1    3    3    0    0 -0.71298179793E+01  0.35675983796E+02  0.56717405053E+01  0.36820901192E+02  0.00000000000E+00 0.  1.
         11    1    4    4    0    0  0.57923941771E+00 -0.12556266466E+02 -0.29013777384E+01  0.12900129415E+02  0.51100000000E-03 0. -1.
        -11    1    4    4    0    0  0.15223015344E+02 -0.39448916056E+01  0.81990010958E+01  0.17734880467E+02  0.51100000000E-03 0.  1.
        -12    1    4    4    0    0 -0.86724367822E+01 -0.19174825724E+02 -0.10969363863E+02  0.23732088927E+02  0.00000000000E+00 0.  1.
</event>
<event>
 8    1  0.1254059E-006  0.9118800E+02  0.7816164E-02  0.1184000E+00
        -11   -1    0    0    0    0  0.00000000000E+00  0.00000000000E+00  0.45593999997E+02  0.45594000000E+02  0.51100000000E-03 0. -1.
         11   -1    0    0    0    0 -0.00000000000E+00 -0.00000000000E+00 -0.45593999997E+02  0.45594000000E+02  0.51100000000E-03 0.  1.
         23    2    1    2    0    0  0.00000000000E+00  0.00000000000E+00  0.00000000000E+00  0.91188000000E+02  0.91188000000E+02 0.  0.
    9900012    2    3    3    0    0 -0.25523440083E+02 -0.73669256305E+01 -0.25496376300E+02  0.54367044128E+02  0.39999908698E+02 0.  0.
         12    1    3    3    0    0  0.25523440083E+02  0.73669256305E+01  0.25496376300E+02  0.36820955872E+02  0.00000000000E+00 0. -1.
         11    1    4    4    0    0 -0.34701223512E+01 -0.51089018116E+00  0.36113706160E+01  0.50343575456E+01  0.51100000000E-03 0. -1.
        -11    1    4    4    0    0 -0.30015041601E+02 -0.37685213149E+01 -0.26975104237E+02  0.40530984741E+02  0.51100000000E-03 0.  1.
        -12    1    4    4    0    0  0.79617238697E+01 -0.30875141344E+01 -0.21326426793E+01  0.88017018414E+01  0.00000000000E+00 0.  1.
</event>
<event>
 8    1  0.1254059E-006  0.9118800E+02  0.7816164E-02  0.1184000E+00
        -11   -1    0    0    0    0  0.00000000000E+00  0.00000000000E+00  0.45593999997E+02  0.45594000000E+02  0.51100000000E-03 0.  1.
         11   -1    0    0    0    0 -0.00000000000E+00 -0.00000000000E+00 -0.45593999997E+02  0.45594000000E+02  0.51100000000E-03 0. -1.
         23    2    1    2    0    0  0.00000000000E+00  0.00000000000E+00  0.00000000000E+00  0.91188000000E+02  0.91188000000E+02 0.  0.
    9900012    2    3    3    0    0  0.22191119269E+02  0.17937818213E+02  0.23271643028E+02  0.54367075706E+02  0.39999980686E+02 0.  0.
         12    1    3    3    0    0 -0.22191119269E+02 -0.17937818213E+02 -0.23271643028E+02  0.36820924294E+02  0.00000000000E+00 0. -1.
         11    1    4    4    0    0  0.12745599475E+02  0.98974645079E+00  0.37188768571E+01  0.13313900606E+02  0.51100000000E-03 0. -1.
        -11    1    4    4    0    0  0.83988488716E+00 -0.84231242533E+01  0.11316032691E+01  0.85401964281E+01  0.51100000000E-03 0.  1.
         12    1    4    4    0    0  0.86056349071E+01  0.25371196015E+02  0.18421162902E+02  0.32512978671E+02  0.00000000000E+00 0. -1.
</event>
<event>
 8    1  0.1254059E-006  0.9118800E+02  0.7816164E-02  0.1184000E+00
        -11   -1    0    0    0    0  0.00000000000E+00  0.00000000000E+00  0.45593999997E+02  0.45594000000E+02  0.51100000000E-03 0.  1.
         11   -1    0    0    0    0 -0.00000000000E+00 -0.00000000000E+00 -0.45593999997E+02  0.45594000000E+02  0.51100000000E-03 0. -1.
         23    2    1    2    0    0  0.00000000000E+00  0.00000000000E+00  0.00000000000E+00  0.91188000000E+02  0.91188000000E+02 0.  0.
    9900012    2    3    3    0    0  0.11954875238E+02 -0.27704964187E+02  0.21102045419E+02  0.54367076554E+02  0.39999982621E+02 0.  0.
         12    1    3    3    0    0 -0.11954875238E+02  0.27704964187E+02 -0.21102045419E+02  0.36820923446E+02  0.00000000000E+00 0. -1.
         11    1    4    4    0    0  0.20436021226E+01  0.54390170800E+01  0.13686795097E+02  0.14869013979E+02  0.51100000000E-03 0. -1.
        -11    1    4    4    0    0  0.18255293822E+01 -0.18512913162E+01 -0.43791657137E+01  0.50928312040E+01  0.51100000000E-03 0.  1.
        -12    1    4    4    0    0  0.80857437330E+01 -0.31292689951E+02  0.11794416035E+02  0.34405231371E+02  0.00000000000E+00 0.  1.
</event>
<event>
 8    1  0.1254059E-006  0.9118800E+02  0.7816164E-02  0.1184000E+00
        -11   -1    0    0    0    0  0.00000000000E+00  0.00000000000E+00  0.45593999997E+02  0.45594000000E+02  0.51100000000E-03 0.  1.
         11   -1    0    0    0    0 -0.00000000000E+00 -0.00000000000E+00 -0.45593999997E+02  0.45594000000E+02  0.51100000000E-03 0. -1.
         23    2    1    2    0    0  0.00000000000E+00  0.00000000000E+00  0.35527136788E-14  0.91188000000E+02  0.91188000000E+02 0.  0.
    9900012    2    3    3    0    0 -0.20859133714E+02 -0.21098388763E+02 -0.21806741150E+02  0.54367089809E+02  0.40000012837E+02 0.  0.
        -12    1    3    3    0    0  0.20859133714E+02  0.21098388763E+02  0.21806741150E+02  0.36820910191E+02  0.00000000000E+00 0.  1.
         11    1    4    4    0    0 -0.13488478786E+01 -0.73445904472E+01 -0.10398571499E+01  0.75394762809E+01  0.51100000000E-03 0. -1.
        -11    1    4    4    0    0  0.96891912804E+01 -0.50335509391E-01 -0.55056790691E+01  0.11144301845E+02  0.51100000000E-03 0.  1.
        -12    1    4    4    0    0 -0.29199477116E+02 -0.13703462806E+02 -0.15261204931E+02  0.35683311683E+02  0.00000000000E+00 0.  1.
</event>
<event>
 8    1  0.1254059E-006  0.9118800E+02  0.7816164E-02  0.1184000E+00
        -11   -1    0    0    0    0  0.00000000000E+00  0.00000000000E+00  0.45593999997E+02  0.45594000000E+02  0.51100000000E-03 0. -1.
         11   -1    0    0    0    0 -0.00000000000E+00 -0.00000000000E+00 -0.45593999997E+02  0.45594000000E+02  0.51100000000E-03 0.  1.
         23    2    1    2    0    0 -0.35527136788E-14  0.88817841970E-15  0.35527136788E-14  0.91188000000E+02  0.91188000000E+02 0.  0.
    9900012    2    3    3    0    0 -0.19298028249E+02 -0.69441559686E+01  0.30580127614E+02  0.54367090162E+02  0.40000013642E+02 0.  0.
        -12    1    3    3    0    0  0.19298028249E+02  0.69441559686E+01 -0.30580127614E+02  0.36820909838E+02  0.00000000000E+00 0.  1.
         11    1    4    4    0    0 -0.46932185343E+01 -0.14171008366E+02  0.19640844220E+02  0.24669952174E+02  0.51100000000E-03 0. -1.
        -11    1    4    4    0    0 -0.11336546524E+02  0.59143231482E+01  0.17840312090E+02  0.21949333500E+02  0.51100000000E-03 0.  1.
        -12    1    4    4    0    0 -0.32682631910E+01  0.13125292488E+01 -0.69010286960E+01  0.77478044876E+01  0.00000000000E+00 0.  1.
</event>
<event>
 8    1  0.1254059E-006  0.9118800E+02  0.7816164E-02  0.1184000E+00
        -11   -1    0    0    0    0  0.00000000000E+00  0.00000000000E+00  0.45593999997E+02  0.45594000000E+02  0.51100000000E-03 0. -1.
         11   -1    0    0    0    0 -0.00000000000E+00 -0.00000000000E+00 -0.45593999997E+02  0.45594000000E+02  0.51100000000E-03 0.  1.
         23    2    1    2    0    0  0.00000000000E+00  0.88817841970E-15  0.00000000000E+00  0.91188000000E+02  0.91188000000E+02 0.  0.
    9900012    2    3    3    0    0 -0.34363979538E+02  0.74894329572E+01 -0.10899762081E+02  0.54367088697E+02  0.40000010303E+02 0.  0.
         12    1    3    3    0    0  0.34363979538E+02 -0.74894329572E+01  0.10899762081E+02  0.36820911303E+02  0.00000000000E+00 0. -1.
         11    1    4    4    0    0 -0.33839712593E+02 -0.61264178434E+01 -0.15922966375E+02  0.37897229482E+02  0.51100000000E-03 0.  1.
        -11    1    4    4    0    0  0.33894904345E+01  0.49264938482E+01  0.31449389458E+01  0.67564508639E+01  0.51100000000E-03 0. -1.
        -12    1    4    4    0    0 -0.39137573796E+01  0.86893569524E+01  0.18782653485E+01  0.97134083510E+01  0.00000000000E+00 0.  1.
</event>
<event>
 8    1  0.1254059E-006  0.9118800E+02  0.7816164E-02  0.1184000E+00
        -11   -1    0    0    0    0  0.00000000000E+00  0.00000000000E+00  0.45593999997E+02  0.45594000000E+02  0.51100000000E-03 0.  1.
         11   -1    0    0    0    0 -0.00000000000E+00 -0.00000000000E+00 -0.45593999997E+02  0.45594000000E+02  0.51100000000E-03 0. -1.
         23    2    1    2    0    0  0.00000000000E+00  0.35527136788E-14 -0.35527136788E-14  0.91188000000E+02  0.91188000000E+02 0.  0.
    9900012    2    3    3    0    0  0.63320247800E+01  0.25486501674E+02 -0.25809364002E+02  0.54367087795E+02  0.40000008247E+02 0.  0.
        -12    1    3    3    0    0 -0.63320247800E+01 -0.25486501674E+02  0.25809364002E+02  0.36820912205E+02  0.00000000000E+00 0.  1.
         11    1    4    4    0    0  0.30129615578E+01  0.11854635763E+02 -0.18158832932E+02  0.21894143968E+02  0.51100000000E-03 0. -1.
        -11    1    4    4    0    0 -0.70695461152E+01 -0.76500294494E+00 -0.12222089490E+02  0.14140126716E+02  0.51100000000E-03 0.  1.
        -12    1    4    4    0    0  0.10388609337E+02  0.14396868857E+02  0.45715584200E+01  0.18332817111E+02  0.00000000000E+00 0.  1.
</event>
<event>
 8    1  0.1254059E-006  0.9118800E+02  0.7816164E-02  0.1184000E+00
        -11   -1    0    0    0    0  0.00000000000E+00  0.00000000000E+00  0.45593999997E+02  0.45594000000E+02  0.51100000000E-03 0. -1.
         11   -1    0    0    0    0 -0.00000000000E+00 -0.00000000000E+00 -0.45593999997E+02  0.45594000000E+02  0.51100000000E-03 0.  1.
         23    2    1    2    0    0  0.00000000000E+00  0.00000000000E+00 -0.17763568394E-14  0.91188000000E+02  0.91188000000E+02 0.  0.
    9900012    2    3    3    0    0 -0.26109512649E+02 -0.22271900293E+02  0.13342974176E+02  0.54367093529E+02  0.40000021319E+02 0.  0.
        -12    1    3    3    0    0  0.26109512649E+02  0.22271900293E+02 -0.13342974176E+02  0.36820906471E+02  0.00000000000E+00 0.  1.
         11    1    4    4    0    0 -0.13756450282E+02 -0.75952241426E+01  0.12389231811E+01  0.15762686480E+02  0.51100000000E-03 0. -1.
        -11    1    4    4    0    0 -0.10963643924E+02  0.81164961304E+01  0.26859665159E+01  0.13903000177E+02  0.51100000000E-03 0.  1.
         12    1    4    4    0    0 -0.13894184426E+01 -0.22793172281E+02  0.94180844789E+01  0.24701406873E+02  0.00000000000E+00 0. -1.
</event>
<event>
 8    1  0.1254059E-006  0.9118800E+02  0.7816164E-02  0.1184000E+00
        -11   -1    0    0    0    0  0.00000000000E+00  0.00000000000E+00  0.45593999997E+02  0.45594000000E+02  0.51100000000E-03 0. -1.
         11   -1    0    0    0    0 -0.00000000000E+00 -0.00000000000E+00 -0.45593999997E+02  0.45594000000E+02  0.51100000000E-03 0.  1.
         23    2    1    2    0    0  0.00000000000E+00  0.00000000000E+00  0.00000000000E+00  0.91188000000E+02  0.91188000000E+02 0.  0.
    9900012    2    3    3    0    0 -0.17275913565E+02  0.12750657249E+01  0.32491433588E+02  0.54367133107E+02  0.40000111545E+02 0.  0.
        -12    1    3    3    0    0  0.17275913565E+02 -0.12750657249E+01 -0.32491433588E+02  0.36820866893E+02  0.00000000000E+00 0.  1.
         11    1    4    4    0    0 -0.17221779608E+02 -0.90642353277E+01  0.22569770315E+02  0.29801754768E+02  0.51100000000E-03 0. -1.
        -11    1    4    4    0    0  0.83076487298E+01  0.10350669329E+02  0.27607416335E+01  0.13556366682E+02  0.51100000000E-03 0.  1.
        -12    1    4    4    0    0 -0.83617826867E+01 -0.11368276895E-01  0.71609216403E+01  0.11009011658E+02  0.00000000000E+00 0.  1.
</event>
<event>
 8    1  0.1254059E-006  0.9118800E+02  0.7816164E-02  0.1184000E+00
        -11   -1    0    0    0    0  0.00000000000E+00  0.00000000000E+00  0.45593999997E+02  0.45594000000E+02  0.51100000000E-03 0. -1.
         11   -1    0    0    0    0 -0.00000000000E+00 -0.00000000000E+00 -0.45593999997E+02  0.45594000000E+02  0.51100000000E-03 0.  1.
         23    2    1    2    0    0  0.00000000000E+00  0.00000000000E+00 -0.44408920985E-15  0.91188000000E+02  0.91188000000E+02 0.  0.
    9900012    2    3    3    0    0  0.42814522898E+01  0.36437491061E+02  0.31237586372E+01  0.54367089411E+02  0.40000011931E+02 0.  0.
        -12    1    3    3    0    0 -0.42814522898E+01 -0.36437491061E+02 -0.31237586372E+01  0.36820910589E+02  0.00000000000E+00 0.  1.
         11    1    4    4    0    0 -0.11056779728E+02  0.26635339736E+02 -0.47524620538E+00  0.28843015792E+02  0.51100000000E-03 0. -1.
        -11    1    4    4    0    0  0.88105063481E+01 -0.42317238372E+01  0.93448625420E+00  0.98186441816E+01  0.51100000000E-03 0.  1.
        -12    1    4    4    0    0  0.65277256695E+01  0.14033875163E+02  0.26645185883E+01  0.15705429437E+02  0.00000000000E+00 0.  1.
</event>
<event>
 8    1  0.1254059E-006  0.9118800E+02  0.7816164E-02  0.1184000E+00
        -11   -1    0    0    0    0  0.00000000000E+00  0.00000000000E+00  0.45593999997E+02  0.45594000000E+02  0.51100000000E-03 0. -1.
         11   -1    0    0    0    0 -0.00000000000E+00 -0.00000000000E+00 -0.45593999997E+02  0.45594000000E+02  0.51100000000E-03 0.  1.
         23    2    1    2    0    0 -0.88817841970E-15  0.71054273576E-14 -0.17763568394E-14  0.91188000000E+02  0.91188000000E+02 0.  0.
    9900012    2    3    3    0    0  0.23270572524E+01 -0.35491395946E+02  0.95254246986E+01  0.54366972076E+02  0.39999744441E+02 0.  0.
        -12    1    3    3    0    0 -0.23270572524E+01  0.35491395946E+02 -0.95254246986E+01  0.36821027924E+02  0.00000000000E+00 0.  1.
         11    1    4    4    0    0  0.73531202473E+01 -0.10549460182E+02 -0.24936551455E+01  0.13098771078E+02  0.51100000000E-03 0. -1.
        -11    1    4    4    0    0 -0.12377736612E+02  0.34929676612E+00  0.16073139871E+00  0.12383707308E+02  0.51100000000E-03 0.  1.
        -12    1    4    4    0    0  0.73516736167E+01 -0.25291232530E+02  0.11858348445E+02  0.28884493690E+02  0.00000000000E+00 0.  1.
</event>
<event>
 8    1  0.1254059E-006  0.9118800E+02  0.7816164E-02  0.1184000E+00
        -11   -1    0    0    0    0  0.00000000000E+00  0.00000000000E+00  0.45593999997E+02  0.45594000000E+02  0.51100000000E-03 0.  1.
         11   -1    0    0    0    0 -0.00000000000E+00 -0.00000000000E+00 -0.45593999997E+02  0.45594000000E+02  0.51100000000E-03 0. -1.
         23    2    1    2    0    0  0.00000000000E+00  0.00000000000E+00  0.00000000000E+00  0.91188000000E+02  0.91188000000E+02 0.  0.
    9900012    2    3    3    0    0  0.16363617565E+02  0.16828274205E+02 -0.28369370982E+02  0.54367081999E+02  0.39999995033E+02 0.  0.
        -12    1    3    3    0    0 -0.16363617565E+02 -0.16828274205E+02  0.28369370982E+02  0.36820918001E+02  0.00000000000E+00 0.  1.
         11    1    4    4    0    0 -0.19492761948E+01  0.94112325624E+01 -0.54182664306E+01  0.11033067905E+02  0.51100000000E-03 0. -1.
        -11    1    4    4    0    0 -0.29381110966E+01  0.12782028438E+02 -0.24894051624E+01  0.13349527562E+02  0.51100000000E-03 0.  1.
         12    1    4    4    0    0  0.21251004856E+02 -0.53649867953E+01 -0.20461699389E+02  0.29984486532E+02  0.00000000000E+00 0. -1.
</event>
<event>
 8    1  0.1254059E-006  0.9118800E+02  0.7816164E-02  0.1184000E+00
        -11   -1    0    0    0    0  0.00000000000E+00  0.00000000000E+00  0.45593999997E+02  0.45594000000E+02  0.51100000000E-03 0.  1.
         11   -1    0    0    0    0 -0.00000000000E+00 -0.00000000000E+00 -0.45593999997E+02  0.45594000000E+02  0.51100000000E-03 0. -1.
         23    2    1    2    0    0 -0.88817841970E-15 -0.35527136788E-14  0.00000000000E+00  0.91188000000E+02  0.91188000000E+02 0.  0.
    9900012    2    3    3    0    0 -0.25769860833E+01 -0.17166309197E+02 -0.32472417513E+02  0.54367069433E+02  0.39999966386E+02 0.  0.
        -12    1    3    3    0    0  0.25769860833E+01  0.17166309197E+02  0.32472417513E+02  0.36820930567E+02  0.00000000000E+00 0.  1.
         11    1    4    4    0    0 -0.12330586228E+02 -0.91133767710E+01 -0.10879713873E+02  0.18800669326E+02  0.51100000000E-03 0. -1.
        -11    1    4    4    0    0  0.98030465413E+00  0.89895929174E+01 -0.79289307740E+01  0.12026708673E+02  0.51100000000E-03 0.  1.
         12    1    4    4    0    0  0.87732954903E+01 -0.17042525344E+02 -0.13663772866E+02  0.23539691433E+02  0.00000000000E+00 0. -1.
</event>
<event>
 8    1  0.1254059E-006  0.9118800E+02  0.7816164E-02  0.1184000E+00
        -11   -1    0    0    0    0  0.00000000000E+00  0.00000000000E+00  0.45593999997E+02  0.45594000000E+02  0.51100000000E-03 0.  1.
         11   -1    0    0    0    0 -0.00000000000E+00 -0.00000000000E+00 -0.45593999997E+02  0.45594000000E+02  0.51100000000E-03 0. -1.
         23    2    1    2    0    0  0.00000000000E+00 -0.30531133177E-15  0.71054273576E-14  0.91188000000E+02  0.91188000000E+02 0.  0.
    9900012    2    3    3    0    0  0.16384164538E+02 -0.13109345599E+00 -0.32974578006E+02  0.54367070792E+02  0.39999969483E+02 0.  0.
        -12    1    3    3    0    0 -0.16384164538E+02  0.13109345599E+00  0.32974578006E+02  0.36820929208E+02  0.00000000000E+00 0.  1.
         11    1    4    4    0    0  0.22423124677E+01  0.11162976648E+02 -0.16370324500E+02  0.19940600225E+02  0.51100000000E-03 0. -1.
        -11    1    4    4    0    0 -0.38964301852E+01 -0.76972371570E+01  0.13390689539E+01  0.87305632100E+01  0.51100000000E-03 0.  1.
        -12    1    4    4    0    0  0.18038282256E+02 -0.35968329466E+01 -0.17943322460E+02  0.25695907356E+02  0.00000000000E+00 0.  1.
</event>
<event>
 8    1  0.1254059E-006  0.9118800E+02  0.7816164E-02  0.1184000E+00
        -11   -1    0    0    0    0  0.00000000000E+00  0.00000000000E+00  0.45593999997E+02  0.45594000000E+02  0.51100000000E-03 0.  1.
         11   -1    0    0    0    0 -0.00000000000E+00 -0.00000000000E+00 -0.45593999997E+02  0.45594000000E+02  0.51100000000E-03 0. -1.
         23    2    1    2    0    0  0.71054273576E-14  0.00000000000E+00  0.00000000000E+00  0.91188000000E+02  0.91188000000E+02 0.  0.
    9900012    2    3    3    0    0  0.36055876181E+02 -0.66935940331E+01  0.33090273572E+01  0.54367081078E+02  0.39999992932E+02 0.  0.
         12    1    3    3    0    0 -0.36055876181E+02  0.66935940331E+01 -0.33090273572E+01  0.36820918922E+02  0.00000000000E+00 0. -1.
         11    1    4    4    0    0 -0.34485062883E+01  0.44115574574E+00  0.66626340466E+01  0.75151518090E+01  0.51100000000E-03 0. -1.
        -11    1    4    4    0    0  0.14338222451E+02  0.29712967468E+01  0.88538963219E+01  0.17111537270E+02  0.51100000000E-03 0.  1.
        -12    1    4    4    0    0  0.25166160018E+02 -0.10106046526E+02 -0.12207503011E+02  0.29740391998E+02  0.00000000000E+00 0.  1.
</event>
<event>
 8    1  0.1254059E-006  0.9118800E+02  0.7816164E-02  0.1184000E+00
        -11   -1    0    0    0    0  0.00000000000E+00  0.00000000000E+00  0.45593999997E+02  0.45594000000E+02  0.51100000000E-03 0.  1.
         11   -1    0    0    0    0 -0.00000000000E+00 -0.00000000000E+00 -0.45593999997E+02  0.45594000000E+02  0.51100000000E-03 0. -1.
         23    2    1    2    0    0  0.00000000000E+00  0.35527136788E-14  0.00000000000E+00  0.91188000000E+02  0.91188000000E+02 0.  0.
    9900012    2    3    3    0    0  0.81627335128E+01  0.26433286143E+02  0.24298792616E+02  0.54367079896E+02  0.39999990238E+02 0.  0.
         12    1    3    3    0    0 -0.81627335128E+01 -0.26433286143E+02 -0.24298792616E+02  0.36820920104E+02  0.00000000000E+00 0. -1.
         11    1    4    4    0    0  0.16532561983E+02  0.18774049486E+02  0.49189098519E+01  0.25494827205E+02  0.51100000000E-03 0. -1.
        -11    1    4    4    0    0  0.54679505659E+01  0.38102142818E+01  0.37583341666E+01  0.76512281520E+01  0.51100000000E-03 0.  1.
         12    1    4    4    0    0 -0.13837779036E+02  0.38490223754E+01  0.15621548597E+02  0.21221024539E+02  0.00000000000E+00 0. -1.
</event>
<event>
 8    1  0.1254059E-006  0.9118800E+02  0.7816164E-02  0.1184000E+00
        -11   -1    0    0    0    0  0.00000000000E+00  0.00000000000E+00  0.45593999997E+02  0.45594000000E+02  0.51100000000E-03 0.  1.
         11   -1    0    0    0    0 -0.00000000000E+00 -0.00000000000E+00 -0.45593999997E+02  0.45594000000E+02  0.51100000000E-03 0. -1.
         23    2    1    2    0    0  0.00000000000E+00  0.00000000000E+00  0.71054273576E-14  0.91188000000E+02  0.91188000000E+02 0.  0.
    9900012    2    3    3    0    0 -0.31145142505E+02  0.67674010386E+01 -0.18438059166E+02  0.54367086863E+02  0.40000006121E+02 0.  0.
        -12    1    3    3    0    0  0.31145142505E+02 -0.67674010386E+01  0.18438059166E+02  0.36820913137E+02  0.00000000000E+00 0.  1.
         11    1    4    4    0    0 -0.62558813517E+01  0.90051873745E+01  0.31744874554E+01  0.11415201356E+02  0.51100000000E-03 0.  1.
        -11    1    4    4    0    0 -0.13064350223E+02  0.27462214732E+01 -0.26133992307E+02  0.29346286533E+02  0.51100000000E-03 0. -1.
         12    1    4    4    0    0 -0.11824910930E+02 -0.49840078091E+01  0.45214456852E+01  0.13605598974E+02  0.00000000000E+00 0. -1.
</event>
<event>
 8    1  0.1254059E-006  0.9118800E+02  0.7816164E-02  0.1184000E+00
        -11   -1    0    0    0    0  0.00000000000E+00  0.00000000000E+00  0.45593999997E+02  0.45594000000E+02  0.51100000000E-03 0.  1.
         11   -1    0    0    0    0 -0.00000000000E+00 -0.00000000000E+00 -0.45593999997E+02  0.45594000000E+02  0.51100000000E-03 0. -1.
         23    2    1    2    0    0 -0.88817841970E-15  0.17763568394E-14  0.00000000000E+00  0.91188000000E+02  0.91188000000E+02 0.  0.
    9900012    2    3    3    0    0  0.43343393435E+01  0.12896750643E+02  0.34215060651E+02  0.54367040615E+02  0.39999900690E+02 0.  0.
         12    1    3    3    0    0 -0.43343393435E+01 -0.12896750643E+02 -0.34215060651E+02  0.36820959385E+02  0.00000000000E+00 0. -1.
         11    1    4    4    0    0 -0.29703393692E+01  0.29240035219E+01  0.48320910714E+01  0.63813648186E+01  0.51100000000E-03 0. -1.
        -11    1    4    4    0    0  0.82930531214E+01  0.23201048080E+02  0.20058428281E+02  0.31771117503E+02  0.51100000000E-03 0.  1.
        -12    1    4    4    0    0 -0.98837440871E+00 -0.13228300958E+02  0.93245412984E+01  0.16214558293E+02  0.00000000000E+00 0.  1.
</event>
<event>
 8    1  0.1254059E-006  0.9118800E+02  0.7816164E-02  0.1184000E+00
        -11   -1    0    0    0    0  0.00000000000E+00  0.00000000000E+00  0.45593999997E+02  0.45594000000E+02  0.51100000000E-03 0.  1.
         11   -1    0    0    0    0 -0.00000000000E+00 -0.00000000000E+00 -0.45593999997E+02  0.45594000000E+02  0.51100000000E-03 0. -1.
         23    2    1    2    0    0 -0.17763568394E-14 -0.17763568394E-14  0.71054273576E-14  0.91188000000E+02  0.91188000000E+02 0.  0.
    9900012    2    3    3    0    0 -0.82529418367E+01 -0.11701387456E+02  0.33922655013E+02  0.54367081482E+02  0.39999993854E+02 0.  0.
         12    1    3    3    0    0  0.82529418367E+01  0.11701387456E+02 -0.33922655013E+02  0.36820918518E+02  0.00000000000E+00 0. -1.
         11    1    4    4    0    0  0.11301054603E+02 -0.74515924294E+01  0.21767609519E+02  0.25633355015E+02  0.51100000000E-03 0. -1.
        -11    1    4    4    0    0 -0.16764199975E+02 -0.62435622846E+00  0.15676745071E+02  0.22960587053E+02  0.51100000000E-03 0.  1.
         12    1    4    4    0    0 -0.27897964647E+01 -0.36254387981E+01 -0.35216995766E+01  0.57731394146E+01  0.00000000000E+00 0. -1.
</event>
<event>
 8    1  0.1254059E-006  0.9118800E+02  0.7816164E-02  0.1184000E+00
        -11   -1    0    0    0    0  0.00000000000E+00  0.00000000000E+00  0.45593999997E+02  0.45594000000E+02  0.51100000000E-03 0. -1.
         11   -1    0    0    0    0 -0.00000000000E+00 -0.00000000000E+00 -0.45593999997E+02  0.45594000000E+02  0.51100000000E-03 0.  1.
         23    2    1    2    0    0 -0.88817841970E-15  0.00000000000E+00  0.00000000000E+00  0.91188000000E+02  0.91188000000E+02 0.  0.
    9900012    2    3    3    0    0 -0.22831767726E+01 -0.24305129924E+02 -0.27564944685E+02  0.54367103593E+02  0.40000044260E+02 0.  0.
         12    1    3    3    0    0  0.22831767726E+01  0.24305129924E+02  0.27564944685E+02  0.36820896407E+02  0.00000000000E+00 0. -1.
         11    1    4    4    0    0 -0.53053284437E+01 -0.82981171886E+00 -0.73294673086E+01  0.90860436205E+01  0.51100000000E-03 0. -1.
        -11    1    4    4    0    0 -0.10544302674E+02 -0.23264622870E+02 -0.18637231122E+02  0.31619161601E+02  0.51100000000E-03 0.  1.
        -12    1    4    4    0    0  0.13566454345E+02 -0.21069533486E+00 -0.15982462538E+01  0.13661898372E+02  0.00000000000E+00 0.  1.
</event>
<event>
 8    1  0.1254059E-006  0.9118800E+02  0.7816164E-02  0.1184000E+00
        -11   -1    0    0    0    0  0.00000000000E+00  0.00000000000E+00  0.45593999997E+02  0.45594000000E+02  0.51100000000E-03 0. -1.
         11   -1    0    0    0    0 -0.00000000000E+00 -0.00000000000E+00 -0.45593999997E+02  0.45594000000E+02  0.51100000000E-03 0.  1.
         23    2    1    2    0    0  0.00000000000E+00 -0.35527136788E-14 -0.17763568394E-14  0.91188000000E+02  0.91188000000E+02 0.  0.
    9900012    2    3    3    0    0  0.27917303362E+02 -0.21081354898E+02  0.11488270551E+02  0.54367085949E+02  0.40000004037E+02 0.  0.
         12    1    3    3    0    0 -0.27917303362E+02  0.21081354898E+02 -0.11488270551E+02  0.36820914051E+02  0.00000000000E+00 0. -1.
         11    1    4    4    0    0  0.81481013545E+01  0.30440221051E+01  0.13280117733E+02  0.15875111134E+02  0.51100000000E-03 0. -1.
        -11    1    4    4    0    0  0.11915043882E+02 -0.77577157378E+01 -0.11148921730E+02  0.18067896396E+02  0.51100000000E-03 0.  1.
        -12    1    4    4    0    0  0.78541581252E+01 -0.16367661266E+02  0.93570745474E+01  0.20424078419E+02  0.00000000000E+00 0.  1.
</event>
<event>
 8    1  0.1254059E-006  0.9118800E+02  0.7816164E-02  0.1184000E+00
        -11   -1    0    0    0    0  0.00000000000E+00  0.00000000000E+00  0.45593999997E+02  0.45594000000E+02  0.51100000000E-03 0.  1.
         11   -1    0    0    0    0 -0.00000000000E+00 -0.00000000000E+00 -0.45593999997E+02  0.45594000000E+02  0.51100000000E-03 0. -1.
         23    2    1    2    0    0 -0.26645352591E-14 -0.71054273576E-14  0.00000000000E+00  0.91188000000E+02  0.91188000000E+02 0.  0.
    9900012    2    3    3    0    0 -0.46479445258E+01 -0.33029617098E+02  0.15595573153E+02  0.54367069866E+02  0.39999967373E+02 0.  0.
         12    1    3    3    0    0  0.46479445258E+01  0.33029617098E+02 -0.15595573153E+02  0.36820930134E+02  0.00000000000E+00 0. -1.
         11    1    4    4    0    0  0.97354761105E+01 -0.10272825156E+02  0.78413511775E+01  0.16180148959E+02  0.51100000000E-03 0.  1.
        -11    1    4    4    0    0  0.35254583787E+01 -0.12532045629E+01  0.94372070437E+01  0.10151859707E+02  0.51100000000E-03 0. -1.
        -12    1    4    4    0    0 -0.17908879015E+02 -0.21503587380E+02 -0.16829850683E+01  0.28035061200E+02  0.00000000000E+00 0.  1.
</event>
<event>
 8    1  0.1254059E-006  0.9118800E+02  0.7816164E-02  0.1184000E+00
        -11   -1    0    0    0    0  0.00000000000E+00  0.00000000000E+00  0.45593999997E+02  0.45594000000E+02  0.51100000000E-03 0. -1.
         11   -1    0    0    0    0 -0.00000000000E+00 -0.00000000000E+00 -0.45593999997E+02  0.45594000000E+02  0.51100000000E-03 0.  1.
         23    2    1    2    0    0  0.00000000000E+00  0.17763568394E-14 -0.44408920985E-15  0.91188000000E+02  0.91188000000E+02 0.  0.
    9900012    2    3    3    0    0  0.35300572544E+02 -0.10032032019E+02  0.30012848553E+01  0.54367084759E+02  0.40000001326E+02 0.  0.
         12    1    3    3    0    0 -0.35300572544E+02  0.10032032019E+02 -0.30012848553E+01  0.36820915241E+02  0.00000000000E+00 0. -1.
         11    1    4    4    0    0  0.15083913112E+02  0.11729397724E+02  0.11172932168E+02  0.22134534538E+02  0.51100000000E-03 0. -1.
        -11    1    4    4    0    0  0.21204983637E+02 -0.20115175892E+02 -0.73114752475E+01  0.30128546310E+02  0.51100000000E-03 0.  1.
         12    1    4    4    0    0 -0.98832420453E+00 -0.16462538511E+01 -0.86017206503E+00  0.21040039109E+01  0.00000000000E+00 0. -1.
</event>
<event>
 8    1  0.1254059E-006  0.9118800E+02  0.7816164E-02  0.1184000E+00
        -11   -1    0    0    0    0  0.00000000000E+00  0.00000000000E+00  0.45593999997E+02  0.45594000000E+02  0.51100000000E-03 0.  1.
         11   -1    0    0    0    0 -0.00000000000E+00 -0.00000000000E+00 -0.45593999997E+02  0.45594000000E+02  0.51100000000E-03 0. -1.
         23    2    1    2    0    0  0.35527136788E-14  0.17763568394E-14  0.71054273576E-14  0.91188000000E+02  0.91188000000E+02 0.  0.
    9900012    2    3    3    0    0  0.21150638670E+02  0.14377696037E+02  0.26489953771E+02  0.54367009923E+02  0.39999830721E+02 0.  0.
        -12    1    3    3    0    0 -0.21150638670E+02 -0.14377696037E+02 -0.26489953771E+02  0.36820990077E+02  0.00000000000E+00 0.  1.
         11    1    4    4    0    0 -0.44289442416E+01  0.94334834032E+01  0.40621128216E+01  0.11185120341E+02  0.51100000000E-03 0. -1.
        -11    1    4    4    0    0 -0.53779034581E+01  0.15639154048E+01  0.49288650055E+01  0.74606559699E+01  0.51100000000E-03 0.  1.
         12    1    4    4    0    0  0.30957486370E+02  0.33802972285E+01  0.17498975944E+02  0.35721233612E+02  0.00000000000E+00 0. -1.
</event>
<event>
 8    1  0.1254059E-006  0.9118800E+02  0.7816164E-02  0.1184000E+00
        -11   -1    0    0    0    0  0.00000000000E+00  0.00000000000E+00  0.45593999997E+02  0.45594000000E+02  0.51100000000E-03 0.  1.
         11   -1    0    0    0    0 -0.00000000000E+00 -0.00000000000E+00 -0.45593999997E+02  0.45594000000E+02  0.51100000000E-03 0. -1.
         23    2    1    2    0    0  0.00000000000E+00  0.00000000000E+00  0.00000000000E+00  0.91188000000E+02  0.91188000000E+02 0.  0.
    9900012    2    3    3    0    0 -0.18192618455E+02 -0.28012978949E+02 -0.15494541780E+02  0.54367093156E+02  0.40000020468E+02 0.  0.
        -12    1    3    3    0    0  0.18192618455E+02  0.28012978949E+02  0.15494541780E+02  0.36820906844E+02  0.00000000000E+00 0.  1.
         11    1    4    4    0    0  0.88518257485E+00  0.67924598872E+01 -0.55633352979E+01  0.88244976859E+01  0.51100000000E-03 0. -1.
        -11    1    4    4    0    0  0.37071922785E+01 -0.33583180131E+01 -0.36770366345E+01  0.62082343013E+01  0.51100000000E-03 0.  1.
         12    1    4    4    0    0 -0.22784993308E+02 -0.31447120823E+02 -0.62541698479E+01  0.39334361169E+02  0.00000000000E+00 0. -1.
</event>
<event>
 8    1  0.1254059E-006  0.9118800E+02  0.7816164E-02  0.1184000E+00
        -11   -1    0    0    0    0  0.00000000000E+00  0.00000000000E+00  0.45593999997E+02  0.45594000000E+02  0.51100000000E-03 0. -1.
         11   -1    0    0    0    0 -0.00000000000E+00 -0.00000000000E+00 -0.45593999997E+02  0.45594000000E+02  0.51100000000E-03 0.  1.
         23    2    1    2    0    0  0.00000000000E+00 -0.17763568394E-14  0.17763568394E-14  0.91188000000E+02  0.91188000000E+02 0.  0.
    9900012    2    3    3    0    0  0.32610494754E+02 -0.10854211814E+02 -0.13210655993E+02  0.54367085916E+02  0.40000003963E+02 0.  0.
         12    1    3    3    0    0 -0.32610494754E+02  0.10854211814E+02  0.13210655993E+02  0.36820914084E+02  0.00000000000E+00 0. -1.
         11    1    4    4    0    0  0.58233862850E+01  0.94709314420E+01 -0.26848527635E+00  0.11121261386E+02  0.51100000000E-03 0.  1.
        -11    1    4    4    0    0  0.18708518571E+01 -0.15827728026E+02 -0.46125167560E+01  0.16591936964E+02  0.51100000000E-03 0. -1.
        -12    1    4    4    0    0  0.24916256612E+02 -0.44974152306E+01 -0.83296539602E+01  0.26653887567E+02  0.00000000000E+00 0.  1.
</event>
<event>
 8    1  0.1254059E-006  0.9118800E+02  0.7816164E-02  0.1184000E+00
        -11   -1    0    0    0    0  0.00000000000E+00  0.00000000000E+00  0.45593999997E+02  0.45594000000E+02  0.51100000000E-03 0.  1.
         11   -1    0    0    0    0 -0.00000000000E+00 -0.00000000000E+00 -0.45593999997E+02  0.45594000000E+02  0.51100000000E-03 0. -1.
         23    2    1    2    0    0  0.00000000000E+00  0.00000000000E+00  0.00000000000E+00  0.91188000000E+02  0.91188000000E+02 0.  0.
    9900012    2    3    3    0    0  0.21364335493E+02 -0.13413214063E+02 -0.26822209635E+02  0.54367081051E+02  0.39999992871E+02 0.  0.
        -12    1    3    3    0    0 -0.21364335493E+02  0.13413214063E+02  0.26822209635E+02  0.36820918949E+02  0.00000000000E+00 0.  1.
         11    1    4    4    0    0  0.84037409014E+01  0.10772122890E+02 -0.98314007492E+01  0.16832050786E+02  0.51100000000E-03 0. -1.
        -11    1    4    4    0    0  0.76461028674E+01 -0.18139343383E+02 -0.10928537414E+01  0.19715298552E+02  0.51100000000E-03 0.  1.
         12    1    4    4    0    0  0.53144917237E+01 -0.60459935702E+01 -0.15897955145E+02  0.17819731713E+02  0.00000000000E+00 0. -1.
</event>
<event>
 8    1  0.1254059E-006  0.9118800E+02  0.7816164E-02  0.1184000E+00
        -11   -1    0    0    0    0  0.00000000000E+00  0.00000000000E+00  0.45593999997E+02  0.45594000000E+02  0.51100000000E-03 0.  1.
         11   -1    0    0    0    0 -0.00000000000E+00 -0.00000000000E+00 -0.45593999997E+02  0.45594000000E+02  0.51100000000E-03 0. -1.
         23    2    1    2    0    0  0.00000000000E+00  0.00000000000E+00  0.00000000000E+00  0.91188000000E+02  0.91188000000E+02 0.  0.
    9900012    2    3    3    0    0  0.11367720854E+02  0.25325232196E+02 -0.24190649514E+02  0.54367082207E+02  0.39999995508E+02 0.  0.
        -12    1    3    3    0    0 -0.11367720854E+02 -0.25325232196E+02  0.24190649514E+02  0.36820917793E+02  0.00000000000E+00 0.  1.
         11    1    4    4    0    0 -0.79687296852E+01 -0.26746417118E+01 -0.15232913441E+02  0.17398161203E+02  0.51100000000E-03 0. -1.
        -11    1    4    4    0    0  0.14484130918E+02  0.11208808335E+02 -0.33930559289E+01  0.18626332477E+02  0.51100000000E-03 0.  1.
         12    1    4    4    0    0  0.48523196205E+01  0.16791065572E+02 -0.55646801443E+01  0.18342588527E+02  0.00000000000E+00 0. -1.
</event>
<event>
 8    1  0.1254059E-006  0.9118800E+02  0.7816164E-02  0.1184000E+00
        -11   -1    0    0    0    0  0.00000000000E+00  0.00000000000E+00  0.45593999997E+02  0.45594000000E+02  0.51100000000E-03 0. -1.
         11   -1    0    0    0    0 -0.00000000000E+00 -0.00000000000E+00 -0.45593999997E+02  0.45594000000E+02  0.51100000000E-03 0.  1.
         23    2    1    2    0    0 -0.35527136788E-14  0.00000000000E+00  0.00000000000E+00  0.91188000000E+02  0.91188000000E+02 0.  0.
    9900012    2    3    3    0    0 -0.18410118097E+02 -0.31535903341E+02 -0.47258748487E+01  0.54367088266E+02  0.40000009319E+02 0.  0.
         12    1    3    3    0    0  0.18410118097E+02  0.31535903341E+02  0.47258748487E+01  0.36820911734E+02  0.00000000000E+00 0. -1.
         11    1    4    4    0    0  0.48864047416E+01 -0.21155406893E+02  0.66514964064E+00  0.21722583097E+02  0.51100000000E-03 0. -1.
        -11    1    4    4    0    0 -0.67448726465E+01 -0.60131648559E+01 -0.11359995127E+02  0.14515541607E+02  0.51100000000E-03 0.  1.
         12    1    4    4    0    0 -0.16551650192E+02 -0.43673315919E+01  0.59689706381E+01  0.18128963561E+02  0.00000000000E+00 0. -1.
</event>
<event>
 8    1  0.1254059E-006  0.9118800E+02  0.7816164E-02  0.1184000E+00
        -11   -1    0    0    0    0  0.00000000000E+00  0.00000000000E+00  0.45593999997E+02  0.45594000000E+02  0.51100000000E-03 0. -1.
         11   -1    0    0    0    0 -0.00000000000E+00 -0.00000000000E+00 -0.45593999997E+02  0.45594000000E+02  0.51100000000E-03 0.  1.
         23    2    1    2    0    0  0.00000000000E+00  0.44408920985E-15  0.00000000000E+00  0.91188000000E+02  0.91188000000E+02 0.  0.
    9900012    2    3    3    0    0  0.16268155269E+02  0.32355975664E+01  0.32873362616E+02  0.54367082886E+02  0.39999997055E+02 0.  0.
        -12    1    3    3    0    0 -0.16268155269E+02 -0.32355975664E+01 -0.32873362616E+02  0.36820917114E+02  0.00000000000E+00 0.  1.
         11    1    4    4    0    0 -0.63827153631E+01 -0.96504558394E+01  0.17984721188E+02  0.21385054356E+02  0.51100000000E-03 0. -1.
        -11    1    4    4    0    0  0.11916136344E+02  0.17241853428E+01  0.12423995692E+02  0.17300947653E+02  0.51100000000E-03 0.  1.
        -12    1    4    4    0    0  0.10734734287E+02  0.11161868063E+02  0.24646457358E+01  0.15681080877E+02  0.00000000000E+00 0.  1.
</event>
<event>
 8    1  0.1254059E-006  0.9118800E+02  0.7816164E-02  0.1184000E+00
        -11   -1    0    0    0    0  0.00000000000E+00  0.00000000000E+00  0.45593999997E+02  0.45594000000E+02  0.51100000000E-03 0. -1.
         11   -1    0    0    0    0 -0.00000000000E+00 -0.00000000000E+00 -0.45593999997E+02  0.45594000000E+02  0.51100000000E-03 0.  1.
         23    2    1    2    0    0  0.00000000000E+00  0.00000000000E+00 -0.17763568394E-14  0.91188000000E+02  0.91188000000E+02 0.  0.
    9900012    2    3    3    0    0 -0.30693087795E+02 -0.16553413934E+02  0.11819548454E+02  0.54367042966E+02  0.39999906050E+02 0.  0.
        -12    1    3    3    0    0  0.30693087795E+02  0.16553413934E+02 -0.11819548454E+02  0.36820957034E+02  0.00000000000E+00 0.  1.
         11    1    4    4    0    0 -0.58603933588E+01 -0.89450373070E+01 -0.43755039696E+01  0.11554347147E+02  0.51100000000E-03 0. -1.
        -11    1    4    4    0    0 -0.38359185006E+01 -0.54882298288E+01  0.20245419254E+02  0.21323975672E+02  0.51100000000E-03 0.  1.
        -12    1    4    4    0    0 -0.20996775935E+02 -0.21201467979E+01 -0.40503668302E+01  0.21488720147E+02  0.00000000000E+00 0.  1.
</event>
<event>
 8    1  0.1254059E-006  0.9118800E+02  0.7816164E-02  0.1184000E+00
        -11   -1    0    0    0    0  0.00000000000E+00  0.00000000000E+00  0.45593999997E+02  0.45594000000E+02  0.51100000000E-03 0.  1.
         11   -1    0    0    0    0 -0.00000000000E+00 -0.00000000000E+00 -0.45593999997E+02  0.45594000000E+02  0.51100000000E-03 0. -1.
         23    2    1    2    0    0  0.00000000000E+00 -0.26645352591E-14  0.00000000000E+00  0.91188000000E+02  0.91188000000E+02 0.  0.
    9900012    2    3    3    0    0  0.36383404536E+02 -0.31596371021E+01  0.46949868992E+01  0.54367104651E+02  0.40000046674E+02 0.  0.
         12    1    3    3    0    0 -0.36383404536E+02  0.31596371021E+01 -0.46949868992E+01  0.36820895349E+02  0.00000000000E+00 0. -1.
         11    1    4    4    0    0  0.69790684631E+01  0.10871819545E+02  0.37922058703E+01  0.13464200030E+02  0.51100000000E-03 0. -1.
        -11    1    4    4    0    0  0.12326658409E+02  0.56412133243E+01 -0.45267292433E+01  0.14291993325E+02  0.51100000000E-03 0.  1.
        -12    1    4    4    0    0  0.17077677664E+02 -0.19672669971E+02  0.54295102722E+01  0.26610911296E+02  0.00000000000E+00 0.  1.
</event>
<event>
 8    1  0.1254059E-006  0.9118800E+02  0.7816164E-02  0.1184000E+00
        -11   -1    0    0    0    0  0.00000000000E+00  0.00000000000E+00  0.45593999997E+02  0.45594000000E+02  0.51100000000E-03 0.  1.
         11   -1    0    0    0    0 -0.00000000000E+00 -0.00000000000E+00 -0.45593999997E+02  0.45594000000E+02  0.51100000000E-03 0. -1.
         23    2    1    2    0    0  0.00000000000E+00  0.35527136788E-14  0.00000000000E+00  0.91188000000E+02  0.91188000000E+02 0.  0.
    9900012    2    3    3    0    0  0.13674024407E+02  0.16449301418E+02 -0.29970353355E+02  0.54367074688E+02  0.39999978366E+02 0.  0.
        -12    1    3    3    0    0 -0.13674024407E+02 -0.16449301418E+02  0.29970353355E+02  0.36820925312E+02  0.00000000000E+00 0.  1.
         11    1    4    4    0    0 -0.26204155781E+01  0.18938078329E+01 -0.77058417296E+01  0.83566191090E+01  0.51100000000E-03 0. -1.
        -11    1    4    4    0    0  0.12802299336E+02 -0.60861233381E+01  0.15993875347E+01  0.14265265729E+02  0.51100000000E-03 0.  1.
        -12    1    4    4    0    0  0.34921406496E+01  0.20641616923E+02 -0.23863899160E+02  0.31745189850E+02  0.00000000000E+00 0.  1.
</event>
<event>
 8    1  0.1254059E-006  0.9118800E+02  0.7816164E-02  0.1184000E+00
        -11   -1    0    0    0    0  0.00000000000E+00  0.00000000000E+00  0.45593999997E+02  0.45594000000E+02  0.51100000000E-03 0. -1.
         11   -1    0    0    0    0 -0.00000000000E+00 -0.00000000000E+00 -0.45593999997E+02  0.45594000000E+02  0.51100000000E-03 0.  1.
         23    2    1    2    0    0  0.00000000000E+00  0.00000000000E+00  0.17763568394E-14  0.91188000000E+02  0.91188000000E+02 0.  0.
    9900012    2    3    3    0    0 -0.23883120813E+02  0.23392819078E+02  0.15432152648E+02  0.54367098605E+02  0.40000032890E+02 0.  0.
        -12    1    3    3    0    0  0.23883120813E+02 -0.23392819078E+02 -0.15432152648E+02  0.36820901395E+02  0.00000000000E+00 0.  1.
         11    1    4    4    0    0 -0.10861358968E+02  0.18495236005E+01  0.15130687421E+02  0.18717039250E+02  0.51100000000E-03 0. -1.
        -11    1    4    4    0    0 -0.10382681803E+02  0.11536954020E+02  0.12301070679E+02  0.19804487612E+02  0.51100000000E-03 0.  1.
        -12    1    4    4    0    0 -0.26390800422E+01  0.10006341458E+02 -0.11999605452E+02  0.15845571743E+02  0.00000000000E+00 0.  1.
</event>
<event>
 8    1  0.1254059E-006  0.9118800E+02  0.7816164E-02  0.1184000E+00
        -11   -1    0    0    0    0  0.00000000000E+00  0.00000000000E+00  0.45593999997E+02  0.45594000000E+02  0.51100000000E-03 0.  1.
         11   -1    0    0    0    0 -0.00000000000E+00 -0.00000000000E+00 -0.45593999997E+02  0.45594000000E+02  0.51100000000E-03 0. -1.
         23    2    1    2    0    0  0.35527136788E-14 -0.17763568394E-14 -0.35527136788E-14  0.91188000000E+02  0.91188000000E+02 0.  0.
    9900012    2    3    3    0    0 -0.29326376149E+02  0.14121826865E+02  0.17213739926E+02  0.54367147562E+02  0.40000144497E+02 0.  0.
         12    1    3    3    0    0  0.29326376149E+02 -0.14121826865E+02 -0.17213739926E+02  0.36820852438E+02  0.00000000000E+00 0. -1.
         11    1    4    4    0    0 -0.25026946600E+01  0.16003192619E+01  0.17393396461E+02  0.17645247037E+02  0.51100000000E-03 0. -1.
        -11    1    4    4    0    0 -0.25526400488E+02  0.17907521038E+02 -0.17827878125E+00  0.31181857148E+02  0.51100000000E-03 0.  1.
        -12    1    4    4    0    0 -0.12972810005E+01 -0.53860134353E+01 -0.13777539807E-02  0.55400433768E+01  0.00000000000E+00 0.  1.
</event>
<event>
 8    1  0.1254059E-006  0.9118800E+02  0.7816164E-02  0.1184000E+00
        -11   -1    0    0    0    0  0.00000000000E+00  0.00000000000E+00  0.45593999997E+02  0.45594000000E+02  0.51100000000E-03 0.  1.
         11   -1    0    0    0    0 -0.00000000000E+00 -0.00000000000E+00 -0.45593999997E+02  0.45594000000E+02  0.51100000000E-03 0. -1.
         23    2    1    2    0    0  0.44408920985E-15 -0.17763568394E-14 -0.71054273576E-14  0.91188000000E+02  0.91188000000E+02 0.  0.
    9900012    2    3    3    0    0  0.38616311685E+01  0.10081024102E+02 -0.35202915608E+02  0.54367020796E+02  0.39999855508E+02 0.  0.
        -12    1    3    3    0    0 -0.38616311685E+01 -0.10081024102E+02  0.35202915608E+02  0.36820979204E+02  0.00000000000E+00 0.  1.
         11    1    4    4    0    0  0.49562274791E+01 -0.71612717331E+01 -0.63641243587E+01  0.10786569555E+02  0.51100000000E-03 0. -1.
        -11    1    4    4    0    0  0.11898974251E+02  0.60760802420E+01 -0.50907008208E+01  0.14297537355E+02  0.51100000000E-03 0.  1.
         12    1    4    4    0    0 -0.12993570561E+02  0.11166215593E+02 -0.23748090429E+02  0.29282913885E+02  0.00000000000E+00 0. -1.
</event>
<event>
 8    1  0.1254059E-006  0.9118800E+02  0.7816164E-02  0.1184000E+00
        -11   -1    0    0    0    0  0.00000000000E+00  0.00000000000E+00  0.45593999997E+02  0.45594000000E+02  0.51100000000E-03 0. -1.
         11   -1    0    0    0    0 -0.00000000000E+00 -0.00000000000E+00 -0.45593999997E+02  0.45594000000E+02  0.51100000000E-03 0.  1.
         23    2    1    2    0    0  0.00000000000E+00 -0.35527136788E-14  0.00000000000E+00  0.91188000000E+02  0.91188000000E+02 0.  0.
    9900012    2    3    3    0    0 -0.66439826254E+01 -0.22059039597E+02  0.28723428092E+02  0.54367094873E+02  0.40000024382E+02 0.  0.
        -12    1    3    3    0    0  0.66439826254E+01  0.22059039597E+02 -0.28723428092E+02  0.36820905127E+02  0.00000000000E+00 0.  1.
         11    1    4    4    0    0  0.51865667329E+01 -0.22078801484E+02  0.18061035697E+02  0.28992670801E+02  0.51100000000E-03 0. -1.
        -11    1    4    4    0    0 -0.12764140800E+02 -0.78638551191E+01  0.58633208743E+01  0.16097889291E+02  0.51100000000E-03 0.  1.
        -12    1    4    4    0    0  0.93359144131E+00  0.78836170067E+01  0.47990715201E+01  0.92765347810E+01  0.00000000000E+00 0.  1.
</event>
<event>
 8    1  0.1254059E-006  0.9118800E+02  0.7816164E-02  0.1184000E+00
        -11   -1    0    0    0    0  0.00000000000E+00  0.00000000000E+00  0.45593999997E+02  0.45594000000E+02  0.51100000000E-03 0.  1.
         11   -1    0    0    0    0 -0.00000000000E+00 -0.00000000000E+00 -0.45593999997E+02  0.45594000000E+02  0.51100000000E-03 0. -1.
         23    2    1    2    0    0  0.00000000000E+00  0.00000000000E+00  0.00000000000E+00  0.91188000000E+02  0.91188000000E+02 0.  0.
    9900012    2    3    3    0    0  0.25187063915E+02  0.11890410699E+02 -0.24083393871E+02  0.54367083178E+02  0.39999997721E+02 0.  0.
        -12    1    3    3    0    0 -0.25187063915E+02 -0.11890410699E+02  0.24083393871E+02  0.36820916822E+02  0.00000000000E+00 0.  1.
         11    1    4    4    0    0 -0.21261978495E+01  0.17446321106E+01 -0.10717702769E+02  0.11064972273E+02  0.51100000000E-03 0. -1.
        -11    1    4    4    0    0 -0.27285949672E+01 -0.26624299662E+01 -0.97201016112E+01  0.10440983642E+02  0.51100000000E-03 0.  1.
         12    1    4    4    0    0  0.30041856732E+02  0.12808208554E+02 -0.36455894914E+01  0.32861127263E+02  0.00000000000E+00 0. -1.
</event>
<event>
 8    1  0.1254059E-006  0.9118800E+02  0.7816164E-02  0.1184000E+00
        -11   -1    0    0    0    0  0.00000000000E+00  0.00000000000E+00  0.45593999997E+02  0.45594000000E+02  0.51100000000E-03 0.  1.
         11   -1    0    0    0    0 -0.00000000000E+00 -0.00000000000E+00 -0.45593999997E+02  0.45594000000E+02  0.51100000000E-03 0. -1.
         23    2    1    2    0    0  0.35527136788E-14  0.00000000000E+00  0.88817841970E-15  0.91188000000E+02  0.91188000000E+02 0.  0.
    9900012    2    3    3    0    0 -0.27457480031E+02  0.23976894570E+02  0.51937255581E+01  0.54367089255E+02  0.40000011575E+02 0.  0.
        -12    1    3    3    0    0  0.27457480031E+02 -0.23976894570E+02 -0.51937255581E+01  0.36820910745E+02  0.00000000000E+00 0.  1.
         11    1    4    4    0    0 -0.17359678478E+01 -0.14217237316E+01 -0.35817844471E+00  0.22722620441E+01  0.51100000000E-03 0. -1.
        -11    1    4    4    0    0 -0.16456618163E+02 -0.71599174603E+01  0.20119889663E+01  0.18059147246E+02  0.51100000000E-03 0.  1.
         12    1    4    4    0    0 -0.92648940206E+01  0.32558535762E+02  0.35399150365E+01  0.34035679965E+02  0.00000000000E+00 0. -1.
</event>
<event>
 8    1  0.1254059E-006  0.9118800E+02  0.7816164E-02  0.1184000E+00
        -11   -1    0    0    0    0  0.00000000000E+00  0.00000000000E+00  0.45593999997E+02  0.45594000000E+02  0.51100000000E-03 0.  1.
         11   -1    0    0    0    0 -0.00000000000E+00 -0.00000000000E+00 -0.45593999997E+02  0.45594000000E+02  0.51100000000E-03 0. -1.
         23    2    1    2    0    0 -0.88817841970E-15  0.00000000000E+00  0.00000000000E+00  0.91188000000E+02  0.91188000000E+02 0.  0.
    9900012    2    3    3    0    0  0.56320234563E+01 -0.25926739419E+02  0.25531876295E+02  0.54366916199E+02  0.39999617058E+02 0.  0.
         12    1    3    3    0    0 -0.56320234563E+01  0.25926739419E+02 -0.25531876295E+02  0.36821083801E+02  0.00000000000E+00 0. -1.
         11    1    4    4    0    0  0.93115446290E+01  0.61783892010E+01 -0.56292212230E+00  0.11189023106E+02  0.51100000000E-03 0. -1.
        -11    1    4    4    0    0 -0.28269522989E+01 -0.13412024269E+02  0.41142034850E+01  0.14310860382E+02  0.51100000000E-03 0.  1.
         12    1    4    4    0    0 -0.85256887376E+00 -0.18693104351E+02  0.21980594932E+02  0.28867032711E+02  0.00000000000E+00 0. -1.
</event>
<event>
 8    1  0.1254059E-006  0.9118800E+02  0.7816164E-02  0.1184000E+00
        -11   -1    0    0    0    0  0.00000000000E+00  0.00000000000E+00  0.45593999997E+02  0.45594000000E+02  0.51100000000E-03 0. -1.
         11   -1    0    0    0    0 -0.00000000000E+00 -0.00000000000E+00 -0.45593999997E+02  0.45594000000E+02  0.51100000000E-03 0.  1.
         23    2    1    2    0    0  0.00000000000E+00  0.00000000000E+00  0.00000000000E+00  0.91188000000E+02  0.91188000000E+02 0.  0.
    9900012    2    3    3    0    0  0.12694131647E+02  0.34202829776E+02 -0.49804762697E+01  0.54367086285E+02  0.40000004803E+02 0.  0.
        -12    1    3    3    0    0 -0.12694131647E+02 -0.34202829776E+02  0.49804762697E+01  0.36820913715E+02  0.00000000000E+00 0.  1.
         11    1    4    4    0    0 -0.78236466500E+01  0.25744977116E+02 -0.81185624678E+01  0.28105592867E+02  0.51100000000E-03 0. -1.
        -11    1    4    4    0    0  0.18624068774E+02  0.10711080861E+02 -0.61332283177E+00  0.21493239776E+02  0.51100000000E-03 0.  1.
        -12    1    4    4    0    0  0.18937095221E+01 -0.22532282006E+01  0.37514090299E+01  0.47682536413E+01  0.00000000000E+00 0.  1.
</event>
<event>
 8    1  0.1254059E-006  0.9118800E+02  0.7816164E-02  0.1184000E+00
        -11   -1    0    0    0    0  0.00000000000E+00  0.00000000000E+00  0.45593999997E+02  0.45594000000E+02  0.51100000000E-03 0.  1.
         11   -1    0    0    0    0 -0.00000000000E+00 -0.00000000000E+00 -0.45593999997E+02  0.45594000000E+02  0.51100000000E-03 0. -1.
         23    2    1    2    0    0 -0.44408920985E-15  0.35527136788E-14  0.00000000000E+00  0.91188000000E+02  0.91188000000E+02 0.  0.
    9900012    2    3    3    0    0  0.35134632217E+01 -0.30722967289E+02 -0.19988375753E+02  0.54367077849E+02  0.39999985572E+02 0.  0.
        -12    1    3    3    0    0 -0.35134632217E+01  0.30722967289E+02  0.19988375753E+02  0.36820922151E+02  0.00000000000E+00 0.  1.
         11    1    4    4    0    0 -0.18044963037E+01 -0.28317463325E+01 -0.13742622328E+02  0.14146895876E+02  0.51100000000E-03 0. -1.
        -11    1    4    4    0    0  0.69511795347E+01 -0.13701362682E+02 -0.16569512657E+02  0.22596348958E+02  0.51100000000E-03 0.  1.
        -12    1    4    4    0    0 -0.16332200093E+01 -0.14189858274E+02  0.10323759233E+02  0.17623833015E+02  0.00000000000E+00 0.  1.
</event>
<event>
 8    1  0.1254059E-006  0.9118800E+02  0.7816164E-02  0.1184000E+00
        -11   -1    0    0    0    0  0.00000000000E+00  0.00000000000E+00  0.45593999997E+02  0.45594000000E+02  0.51100000000E-03 0.  1.
         11   -1    0    0    0    0 -0.00000000000E+00 -0.00000000000E+00 -0.45593999997E+02  0.45594000000E+02  0.51100000000E-03 0. -1.
         23    2    1    2    0    0 -0.35527136788E-14  0.44408920985E-15 -0.35527136788E-14  0.91188000000E+02  0.91188000000E+02 0.  0.
    9900012    2    3    3    0    0 -0.21160120755E+02  0.25016419778E+01 -0.30029508431E+02  0.54367077964E+02  0.39999985836E+02 0.  0.
        -12    1    3    3    0    0  0.21160120755E+02 -0.25016419778E+01  0.30029508431E+02  0.36820922036E+02  0.00000000000E+00 0.  1.
         11    1    4    4    0    0 -0.12313355628E+02  0.51161898206E+01 -0.37205008338E+01  0.13843274606E+02  0.51100000000E-03 0. -1.
        -11    1    4    4    0    0  0.78940573463E+01 -0.11990236717E+01  0.14125948758E+01  0.81085895010E+01  0.51100000000E-03 0.  1.
        -12    1    4    4    0    0 -0.16740822473E+02 -0.14155241711E+01 -0.27721602473E+02  0.32415213858E+02  0.00000000000E+00 0.  1.
</event>
<event>
 8    1  0.1254059E-006  0.9118800E+02  0.7816164E-02  0.1184000E+00
        -11   -1    0    0    0    0  0.00000000000E+00  0.00000000000E+00  0.45593999997E+02  0.45594000000E+02  0.51100000000E-03 0.  1.
         11   -1    0    0    0    0 -0.00000000000E+00 -0.00000000000E+00 -0.45593999997E+02  0.45594000000E+02  0.51100000000E-03 0. -1.
         23    2    1    2    0    0  0.00000000000E+00  0.12073675393E-14  0.00000000000E+00  0.91188000000E+02  0.91188000000E+02 0.  0.
    9900012    2    3    3    0    0  0.88904276737E+01  0.63779824425E-01  0.35731431884E+02  0.54367095658E+02  0.40000026172E+02 0.  0.
         12    1    3    3    0    0 -0.88904276737E+01 -0.63779824425E-01 -0.35731431884E+02  0.36820904342E+02  0.00000000000E+00 0. -1.
         11    1    4    4    0    0  0.13957355577E+02 -0.11630771717E+02  0.81998666555E+01  0.19932898406E+02  0.51100000000E-03 0. -1.
        -11    1    4    4    0    0  0.24195714234E+01  0.13214200500E+01  0.18669319133E+02  0.18871776651E+02  0.51100000000E-03 0.  1.
        -12    1    4    4    0    0 -0.74864993269E+01  0.10373131492E+02  0.88622460955E+01  0.15562420601E+02  0.00000000000E+00 0.  1.
</event>
<event>
 8    1  0.1254059E-006  0.9118800E+02  0.7816164E-02  0.1184000E+00
        -11   -1    0    0    0    0  0.00000000000E+00  0.00000000000E+00  0.45593999997E+02  0.45594000000E+02  0.51100000000E-03 0.  1.
         11   -1    0    0    0    0 -0.00000000000E+00 -0.00000000000E+00 -0.45593999997E+02  0.45594000000E+02  0.51100000000E-03 0. -1.
         23    2    1    2    0    0  0.88817841970E-15  0.00000000000E+00  0.00000000000E+00  0.91188000000E+02  0.91188000000E+02 0.  0.
    9900012    2    3    3    0    0  0.40778493658E+01  0.87592926867E+01 -0.35530608752E+02  0.54367106175E+02  0.40000050147E+02 0.  0.
        -12    1    3    3    0    0 -0.40778493658E+01 -0.87592926867E+01  0.35530608752E+02  0.36820893825E+02  0.00000000000E+00 0.  1.
         11    1    4    4    0    0 -0.40723332098E+01  0.48058292887E+01 -0.23812030532E+02  0.24631132561E+02  0.51100000000E-03 0. -1.
        -11    1    4    4    0    0 -0.20658389490E+01  0.37485560976E+01  0.71183928042E+01  0.83060748706E+01  0.51100000000E-03 0.  1.
        -12    1    4    4    0    0  0.10216021525E+02  0.20490730045E+00 -0.18836971024E+02  0.21429898743E+02  0.00000000000E+00 0.  1.
</event>
<event>
 8    1  0.1254059E-006  0.9118800E+02  0.7816164E-02  0.1184000E+00
        -11   -1    0    0    0    0  0.00000000000E+00  0.00000000000E+00  0.45593999997E+02  0.45594000000E+02  0.51100000000E-03 0. -1.
         11   -1    0    0    0    0 -0.00000000000E+00 -0.00000000000E+00 -0.45593999997E+02  0.45594000000E+02  0.51100000000E-03 0.  1.
         23    2    1    2    0    0  0.35527136788E-14 -0.35527136788E-14  0.88817841970E-15  0.91188000000E+02  0.91188000000E+02 0.  0.
    9900012    2    3    3    0    0 -0.22613299188E+02  0.28914574905E+02  0.28925255126E+01  0.54367073261E+02  0.39999975112E+02 0.  0.
        -12    1    3    3    0    0  0.22613299188E+02 -0.28914574905E+02 -0.28925255126E+01  0.36820926739E+02  0.00000000000E+00 0.  1.
         11    1    4    4    0    0  0.19294549573E+01  0.11991550587E+02  0.10348257118E+02  0.15956393940E+02  0.51100000000E-03 0. -1.
        -11    1    4    4    0    0 -0.23978445386E+02  0.21794392563E+02 -0.82646108322E+01  0.33440472227E+02  0.51100000000E-03 0.  1.
        -12    1    4    4    0    0 -0.56430875873E+00 -0.48713682446E+01  0.80887922638E+00  0.49702070935E+01  0.00000000000E+00 0.  1.
</event>
<event>
 8    1  0.1254059E-006  0.9118800E+02  0.7816164E-02  0.1184000E+00
        -11   -1    0    0    0    0  0.00000000000E+00  0.00000000000E+00  0.45593999997E+02  0.45594000000E+02  0.51100000000E-03 0.  1.
         11   -1    0    0    0    0 -0.00000000000E+00 -0.00000000000E+00 -0.45593999997E+02  0.45594000000E+02  0.51100000000E-03 0. -1.
         23    2    1    2    0    0 -0.35527136788E-14  0.35527136788E-14 -0.26645352591E-14  0.91188000000E+02  0.91188000000E+02 0.  0.
    9900012    2    3    3    0    0 -0.31057014847E+02 -0.18216878258E+02  0.77063032107E+01  0.54367082931E+02  0.39999997157E+02 0.  0.
         12    1    3    3    0    0  0.31057014847E+02  0.18216878258E+02 -0.77063032107E+01  0.36820917069E+02  0.00000000000E+00 0. -1.
         11    1    4    4    0    0  0.68180401715E-01  0.23770376324E+01 -0.11964492635E+01  0.26620382368E+01  0.51100000000E-03 0. -1.
        -11    1    4    4    0    0 -0.73643508344E+00 -0.42982041519E+00 -0.10404643992E+02  0.10439525807E+02  0.51100000000E-03 0.  1.
        -12    1    4    4    0    0 -0.30388760165E+02 -0.20164095475E+02  0.19307396466E+02  0.41265518887E+02  0.00000000000E+00 0.  1.
</event>
<event>
 8    1  0.1254059E-006  0.9118800E+02  0.7816164E-02  0.1184000E+00
        -11   -1    0    0    0    0  0.00000000000E+00  0.00000000000E+00  0.45593999997E+02  0.45594000000E+02  0.51100000000E-03 0.  1.
         11   -1    0    0    0    0 -0.00000000000E+00 -0.00000000000E+00 -0.45593999997E+02  0.45594000000E+02  0.51100000000E-03 0. -1.
         23    2    1    2    0    0  0.00000000000E+00 -0.17763568394E-14  0.00000000000E+00  0.91188000000E+02  0.91188000000E+02 0.  0.
    9900012    2    3    3    0    0 -0.32599962300E+02 -0.13440245898E+02  0.10600985559E+02  0.54367100410E+02  0.40000037005E+02 0.  0.
        -12    1    3    3    0    0  0.32599962300E+02  0.13440245898E+02 -0.10600985559E+02  0.36820899590E+02  0.00000000000E+00 0.  1.
         11    1    4    4    0    0 -0.28685617323E+02 -0.21803250413E+02  0.33702559113E+01  0.36188464943E+02  0.51100000000E-03 0. -1.
        -11    1    4    4    0    0 -0.76061457857E+01  0.55913530428E+00  0.13818930567E+01  0.77508525133E+01  0.51100000000E-03 0.  1.
         12    1    4    4    0    0  0.36918008086E+01  0.78038692105E+01  0.58488365907E+01  0.10427782954E+02  0.00000000000E+00 0. -1.
</event>
<event>
 8    1  0.1254059E-006  0.9118800E+02  0.7816164E-02  0.1184000E+00
        -11   -1    0    0    0    0  0.00000000000E+00  0.00000000000E+00  0.45593999997E+02  0.45594000000E+02  0.51100000000E-03 0. -1.
         11   -1    0    0    0    0 -0.00000000000E+00 -0.00000000000E+00 -0.45593999997E+02  0.45594000000E+02  0.51100000000E-03 0.  1.
         23    2    1    2    0    0  0.88817841970E-15  0.00000000000E+00 -0.35527136788E-14  0.91188000000E+02  0.91188000000E+02 0.  0.
    9900012    2    3    3    0    0  0.29095901683E+01 -0.20277190270E+02 -0.30596563881E+02  0.54367083641E+02  0.39999998777E+02 0.  0.
         12    1    3    3    0    0 -0.29095901683E+01  0.20277190270E+02  0.30596563881E+02  0.36820916359E+02  0.00000000000E+00 0. -1.
         11    1    4    4    0    0  0.14327073659E+02 -0.13133466935E+02 -0.12720095520E+02  0.23228297907E+02  0.51100000000E-03 0. -1.
        -11    1    4    4    0    0  0.97958027040E-01 -0.12402416481E+02 -0.11710269773E+02  0.17057548146E+02  0.51100000000E-03 0.  1.
        -12    1    4    4    0    0 -0.11515441518E+02  0.52586931465E+01 -0.61661985882E+01  0.14081237587E+02  0.00000000000E+00 0.  1.
</event>
<event>
 8    1  0.1254059E-006  0.9118800E+02  0.7816164E-02  0.1184000E+00
        -11   -1    0    0    0    0  0.00000000000E+00  0.00000000000E+00  0.45593999997E+02  0.45594000000E+02  0.51100000000E-03 0. -1.
         11   -1    0    0    0    0 -0.00000000000E+00 -0.00000000000E+00 -0.45593999997E+02  0.45594000000E+02  0.51100000000E-03 0.  1.
         23    2    1    2    0    0  0.00000000000E+00  0.88817841970E-15  0.00000000000E+00  0.91188000000E+02  0.91188000000E+02 0.  0.
    9900012    2    3    3    0    0  0.18861148172E+02 -0.51858119056E+01 -0.31195253985E+02  0.54367089818E+02  0.40000012858E+02 0.  0.
         12    1    3    3    0    0 -0.18861148172E+02  0.51858119056E+01  0.31195253985E+02  0.36820910182E+02  0.00000000000E+00 0. -1.
         11    1    4    4    0    0  0.10727657239E+02  0.52898527933E+01 -0.24405625577E+01  0.12207437007E+02  0.51100000000E-03 0. -1.
        -11    1    4    4    0    0 -0.12985342945E+01  0.88227047336E+01 -0.53827798032E+01  0.10416363511E+02  0.51100000000E-03 0.  1.
         12    1    4    4    0    0  0.94320252269E+01 -0.19298369432E+02 -0.23371911624E+02  0.31743289300E+02  0.00000000000E+00 0. -1.
</event>
<event>
 8    1  0.1254059E-006  0.9118800E+02  0.7816164E-02  0.1184000E+00
        -11   -1    0    0    0    0  0.00000000000E+00  0.00000000000E+00  0.45593999997E+02  0.45594000000E+02  0.51100000000E-03 0. -1.
         11   -1    0    0    0    0 -0.00000000000E+00 -0.00000000000E+00 -0.45593999997E+02  0.45594000000E+02  0.51100000000E-03 0.  1.
         23    2    1    2    0    0  0.35527136788E-14  0.00000000000E+00  0.00000000000E+00  0.91188000000E+02  0.91188000000E+02 0.  0.
    9900012    2    3    3    0    0  0.28032038679E+02 -0.15596195744E+02 -0.18076046720E+02  0.54367082314E+02  0.39999995752E+02 0.  0.
         12    1    3    3    0    0 -0.28032038679E+02  0.15596195744E+02  0.18076046720E+02  0.36820917686E+02  0.00000000000E+00 0. -1.
         11    1    4    4    0    0  0.14993181288E+02  0.24499360316E+01  0.34037209911E+01  0.15568654038E+02  0.51100000000E-03 0. -1.
        -11    1    4    4    0    0  0.47219705627E+01 -0.10594020276E+02  0.29234592336E+01  0.11961475066E+02  0.51100000000E-03 0.  1.
        -12    1    4    4    0    0  0.83168868287E+01 -0.74521114988E+01 -0.24403226944E+02  0.26836953210E+02  0.00000000000E+00 0.  1.
</event>
<event>
 8    1  0.1254059E-006  0.9118800E+02  0.7816164E-02  0.1184000E+00
        -11   -1    0    0    0    0  0.00000000000E+00  0.00000000000E+00  0.45593999997E+02  0.45594000000E+02  0.51100000000E-03 0.  1.
         11   -1    0    0    0    0 -0.00000000000E+00 -0.00000000000E+00 -0.45593999997E+02  0.45594000000E+02  0.51100000000E-03 0. -1.
         23    2    1    2    0    0  0.00000000000E+00  0.00000000000E+00 -0.35527136788E-14  0.91188000000E+02  0.91188000000E+02 0.  0.
    9900012    2    3    3    0    0  0.20347615380E+02  0.17545779811E+02 -0.25177374223E+02  0.54367081848E+02  0.39999994688E+02 0.  0.
        -12    1    3    3    0    0 -0.20347615380E+02 -0.17545779811E+02  0.25177374223E+02  0.36820918152E+02  0.00000000000E+00 0.  1.
         11    1    4    4    0    0  0.23860475133E+02  0.17336364282E+02 -0.17709793363E+02  0.34402159544E+02  0.51100000000E-03 0. -1.
        -11    1    4    4    0    0  0.62202969854E+01  0.11646684666E+01  0.17077005472E+01  0.65547531337E+01  0.51100000000E-03 0.  1.
        -12    1    4    4    0    0 -0.97331567381E+01 -0.95525293807E+00 -0.91752814071E+01  0.13410169170E+02  0.00000000000E+00 0.  1.
</event>
<event>
 8    1  0.1254059E-006  0.9118800E+02  0.7816164E-02  0.1184000E+00
        -11   -1    0    0    0    0  0.00000000000E+00  0.00000000000E+00  0.45593999997E+02  0.45594000000E+02  0.51100000000E-03 0.  1.
         11   -1    0    0    0    0 -0.00000000000E+00 -0.00000000000E+00 -0.45593999997E+02  0.45594000000E+02  0.51100000000E-03 0. -1.
         23    2    1    2    0    0  0.00000000000E+00  0.71054273576E-14 -0.17763568394E-14  0.91188000000E+02  0.91188000000E+02 0.  0.
    9900012    2    3    3    0    0  0.17925428514E+02  0.27979792914E+02  0.15861564108E+02  0.54367095410E+02  0.40000025605E+02 0.  0.
         12    1    3    3    0    0 -0.17925428514E+02 -0.27979792914E+02 -0.15861564108E+02  0.36820904590E+02  0.00000000000E+00 0. -1.
         11    1    4    4    0    0  0.11883161278E+02 -0.39012396089E+01  0.13608369547E+02  0.18482881659E+02  0.51100000000E-03 0. -1.
        -11    1    4    4    0    0  0.37019114441E+01  0.70211322029E+01  0.68624334263E+01  0.10492542044E+02  0.51100000000E-03 0.  1.
        -12    1    4    4    0    0  0.23403557921E+01  0.24859900320E+02 -0.46092388650E+01  0.25391671707E+02  0.00000000000E+00 0.  1.
</event>
<event>
 8    1  0.1254059E-006  0.9118800E+02  0.7816164E-02  0.1184000E+00
        -11   -1    0    0    0    0  0.00000000000E+00  0.00000000000E+00  0.45593999997E+02  0.45594000000E+02  0.51100000000E-03 0.  1.
         11   -1    0    0    0    0 -0.00000000000E+00 -0.00000000000E+00 -0.45593999997E+02  0.45594000000E+02  0.51100000000E-03 0. -1.
         23    2    1    2    0    0  0.88817841970E-15  0.35527136788E-14  0.00000000000E+00  0.91188000000E+02  0.91188000000E+02 0.  0.
    9900012    2    3    3    0    0  0.62610291579E+01  0.26462780953E+02 -0.24825400085E+02  0.54367085410E+02  0.40000002809E+02 0.  0.
        -12    1    3    3    0    0 -0.62610291579E+01 -0.26462780953E+02  0.24825400085E+02  0.36820914590E+02  0.00000000000E+00 0.  1.
         11    1    4    4    0    0 -0.52448567364E+01 -0.81634022808E+00 -0.53976781172E+01  0.75703277916E+01  0.51100000000E-03 0. -1.
        -11    1    4    4    0    0 -0.28746302774E+00 -0.61675051817E+01 -0.67153208713E+01  0.91222963022E+01  0.51100000000E-03 0.  1.
         12    1    4    4    0    0  0.11793348922E+02  0.33446626363E+02 -0.12712401096E+02  0.37674461316E+02  0.00000000000E+00 0. -1.
</event>
<event>
 8    1  0.1254059E-006  0.9118800E+02  0.7816164E-02  0.1184000E+00
        -11   -1    0    0    0    0  0.00000000000E+00  0.00000000000E+00  0.45593999997E+02  0.45594000000E+02  0.51100000000E-03 0.  1.
         11   -1    0    0    0    0 -0.00000000000E+00 -0.00000000000E+00 -0.45593999997E+02  0.45594000000E+02  0.51100000000E-03 0. -1.
         23    2    1    2    0    0  0.44408920985E-15  0.00000000000E+00  0.00000000000E+00  0.91188000000E+02  0.91188000000E+02 0.  0.
    9900012    2    3    3    0    0 -0.35806913220E+01 -0.82920447441E+01  0.35695993204E+02  0.54367037395E+02  0.39999893348E+02 0.  0.
         12    1    3    3    0    0  0.35806913220E+01  0.82920447441E+01 -0.35695993204E+02  0.36820962605E+02  0.00000000000E+00 0. -1.
         11    1    4    4    0    0  0.92832875189E+01  0.62883619520E+01  0.23349423318E+02  0.25902094370E+02  0.51100000000E-03 0. -1.
        -11    1    4    4    0    0 -0.10984755478E+02 -0.38269083872E-01  0.53090693006E+01  0.12200513700E+02  0.51100000000E-03 0.  1.
         12    1    4    4    0    0 -0.18792233629E+01 -0.14542137612E+02  0.70375005849E+01  0.16264429325E+02  0.00000000000E+00 0. -1.
</event>
<event>
 8    1  0.1254059E-006  0.9118800E+02  0.7816164E-02  0.1184000E+00
        -11   -1    0    0    0    0  0.00000000000E+00  0.00000000000E+00  0.45593999997E+02  0.45594000000E+02  0.51100000000E-03 0.  1.
         11   -1    0    0    0    0 -0.00000000000E+00 -0.00000000000E+00 -0.45593999997E+02  0.45594000000E+02  0.51100000000E-03 0. -1.
         23    2    1    2    0    0  0.00000000000E+00  0.44408920985E-15 -0.35527136788E-14  0.91188000000E+02  0.91188000000E+02 0.  0.
    9900012    2    3    3    0    0 -0.25708028854E+02 -0.23561691492E+01  0.26255005422E+02  0.54367087595E+02  0.40000007791E+02 0.  0.
         12    1    3    3    0    0  0.25708028854E+02  0.23561691492E+01 -0.26255005422E+02  0.36820912405E+02  0.00000000000E+00 0. -1.
         11    1    4    4    0    0  0.53827830855E+01 -0.39972618752E+01  0.72672502557E+01  0.98876378769E+01  0.51100000000E-03 0. -1.
        -11    1    4    4    0    0  0.21803740616E+01  0.42797440033E+01  0.80192698003E+01  0.93476696653E+01  0.51100000000E-03 0.  1.
        -12    1    4    4    0    0 -0.33271186001E+02 -0.26386512773E+01  0.10968485366E+02  0.35131780053E+02  0.00000000000E+00 0.  1.
</event>
<event>
 8    1  0.1254059E-006  0.9118800E+02  0.7816164E-02  0.1184000E+00
        -11   -1    0    0    0    0  0.00000000000E+00  0.00000000000E+00  0.45593999997E+02  0.45594000000E+02  0.51100000000E-03 0.  1.
         11   -1    0    0    0    0 -0.00000000000E+00 -0.00000000000E+00 -0.45593999997E+02  0.45594000000E+02  0.51100000000E-03 0. -1.
         23    2    1    2    0    0  0.35527136788E-14  0.00000000000E+00 -0.71054273576E-14  0.91188000000E+02  0.91188000000E+02 0.  0.
    9900012    2    3    3    0    0  0.16277234471E+02 -0.27108281779E+02 -0.18867210030E+02  0.54367096734E+02  0.40000028624E+02 0.  0.
        -12    1    3    3    0    0 -0.16277234471E+02  0.27108281779E+02  0.18867210030E+02  0.36820903266E+02  0.00000000000E+00 0.  1.
         11    1    4    4    0    0  0.73851211015E+01 -0.65671720461E+01  0.74643440400E+01  0.12384837285E+02  0.51100000000E-03 0. -1.
        -11    1    4    4    0    0 -0.43178945685E+01  0.29561296623E+01 -0.73131424303E+01  0.89924951239E+01  0.51100000000E-03 0.  1.
         12    1    4    4    0    0  0.13210007938E+02 -0.23497239395E+02 -0.19018411639E+02  0.32989764325E+02  0.00000000000E+00 0. -1.
</event>
<event>
 8    1  0.1254059E-006  0.9118800E+02  0.7816164E-02  0.1184000E+00
        -11   -1    0    0    0    0  0.00000000000E+00  0.00000000000E+00  0.45593999997E+02  0.45594000000E+02  0.51100000000E-03 0.  1.
         11   -1    0    0    0    0 -0.00000000000E+00 -0.00000000000E+00 -0.45593999997E+02  0.45594000000E+02  0.51100000000E-03 0. -1.
         23    2    1    2    0    0 -0.35527136788E-14 -0.35527136788E-14 -0.88817841970E-15  0.91188000000E+02  0.91188000000E+02 0.  0.
    9900012    2    3    3    0    0  0.30765416187E+02  0.19790320052E+02  0.41965221890E+01  0.54367103767E+02  0.40000044657E+02 0.  0.
         12    1    3    3    0    0 -0.30765416187E+02 -0.19790320052E+02 -0.41965221890E+01  0.36820896233E+02  0.00000000000E+00 0. -1.
         11    1    4    4    0    0  0.79062306062E+01 -0.69802947723E+00 -0.18406808603E+01  0.81476274977E+01  0.51100000000E-03 0.  1.
        -11    1    4    4    0    0  0.15764814384E+02  0.10585178826E+02  0.20074920018E+02  0.27632911489E+02  0.51100000000E-03 0. -1.
         12    1    4    4    0    0  0.70943711968E+01  0.99031707028E+01 -0.14037716969E+02  0.18586564780E+02  0.00000000000E+00 0. -1.
</event>
<event>
 8    1  0.1254059E-006  0.9118800E+02  0.7816164E-02  0.1184000E+00
        -11   -1    0    0    0    0  0.00000000000E+00  0.00000000000E+00  0.45593999997E+02  0.45594000000E+02  0.51100000000E-03 0.  1.
         11   -1    0    0    0    0 -0.00000000000E+00 -0.00000000000E+00 -0.45593999997E+02  0.45594000000E+02  0.51100000000E-03 0. -1.
         23    2    1    2    0    0 -0.35527136788E-14  0.35527136788E-14 -0.17763568394E-14  0.91188000000E+02  0.91188000000E+02 0.  0.
    9900012    2    3    3    0    0 -0.27852472682E+02  0.18028593490E+02 -0.15968468818E+02  0.54367049251E+02  0.39999920376E+02 0.  0.
        -12    1    3    3    0    0  0.27852472682E+02 -0.18028593490E+02  0.15968468818E+02  0.36820950749E+02  0.00000000000E+00 0.  1.
         11    1    4    4    0    0 -0.20672400217E+02  0.10862455438E+02 -0.92905981460E+01  0.25132773087E+02  0.51100000000E-03 0. -1.
        -11    1    4    4    0    0 -0.59311403446E+01 -0.97759615024E+01 -0.19401325370E+01  0.11597929281E+02  0.51100000000E-03 0.  1.
         12    1    4    4    0    0 -0.12489321208E+01  0.16942099554E+02 -0.47377381348E+01  0.17636346883E+02  0.00000000000E+00 0. -1.
</event>
<event>
 8    1  0.1254059E-006  0.9118800E+02  0.7816164E-02  0.1184000E+00
        -11   -1    0    0    0    0  0.00000000000E+00  0.00000000000E+00  0.45593999997E+02  0.45594000000E+02  0.51100000000E-03 0.  1.
         11   -1    0    0    0    0 -0.00000000000E+00 -0.00000000000E+00 -0.45593999997E+02  0.45594000000E+02  0.51100000000E-03 0. -1.
         23    2    1    2    0    0  0.00000000000E+00  0.00000000000E+00 -0.44408920985E-15  0.91188000000E+02  0.91188000000E+02 0.  0.
    9900012    2    3    3    0    0  0.48356076173E+01  0.36466331309E+02 -0.16134888087E+01  0.54367085206E+02  0.40000002344E+02 0.  0.
        -12    1    3    3    0    0 -0.48356076173E+01 -0.36466331309E+02  0.16134888087E+01  0.36820914794E+02  0.00000000000E+00 0.  1.
         11    1    4    4    0    0  0.12183202115E+02 -0.10386579584E+01  0.44994699143E+01  0.13028985145E+02  0.51100000000E-03 0. -1.
        -11    1    4    4    0    0 -0.11334491116E+02  0.23333893369E+02 -0.59557158286E+01  0.26616006836E+02  0.51100000000E-03 0.  1.
         12    1    4    4    0    0  0.39868966176E+01  0.14171095898E+02 -0.15724289431E+00  0.14722093224E+02  0.00000000000E+00 0. -1.
</event>
<event>
 8    1  0.1254059E-006  0.9118800E+02  0.7816164E-02  0.1184000E+00
        -11   -1    0    0    0    0  0.00000000000E+00  0.00000000000E+00  0.45593999997E+02  0.45594000000E+02  0.51100000000E-03 0. -1.
         11   -1    0    0    0    0 -0.00000000000E+00 -0.00000000000E+00 -0.45593999997E+02  0.45594000000E+02  0.51100000000E-03 0.  1.
         23    2    1    2    0    0  0.00000000000E+00  0.00000000000E+00 -0.71054273576E-14  0.91188000000E+02  0.91188000000E+02 0.  0.
    9900012    2    3    3    0    0 -0.91941076030E+01  0.78422373871E+01 -0.34781438878E+02  0.54367071273E+02  0.39999970582E+02 0.  0.
         12    1    3    3    0    0  0.91941076030E+01 -0.78422373871E+01  0.34781438878E+02  0.36820928727E+02  0.00000000000E+00 0. -1.
         11    1    4    4    0    0 -0.11374329213E+02  0.15078985770E+01 -0.16304060824E+02  0.19936687859E+02  0.51100000000E-03 0. -1.
        -11    1    4    4    0    0 -0.58413113476E+01 -0.76301009649E+01  0.39912936951E+00  0.96176225497E+01  0.51100000000E-03 0.  1.
         12    1    4    4    0    0  0.80215329575E+01  0.13964439775E+02 -0.18876507423E+02  0.24812760865E+02  0.00000000000E+00 0. -1.
</event>
<event>
 8    1  0.1254059E-006  0.9118800E+02  0.7816164E-02  0.1184000E+00
        -11   -1    0    0    0    0  0.00000000000E+00  0.00000000000E+00  0.45593999997E+02  0.45594000000E+02  0.51100000000E-03 0.  1.
         11   -1    0    0    0    0 -0.00000000000E+00 -0.00000000000E+00 -0.45593999997E+02  0.45594000000E+02  0.51100000000E-03 0. -1.
         23    2    1    2    0    0  0.00000000000E+00  0.00000000000E+00  0.00000000000E+00  0.91188000000E+02  0.91188000000E+02 0.  0.
    9900012    2    3    3    0    0  0.16496495087E+02 -0.14677975651E+02 -0.29465309603E+02  0.54367057734E+02  0.39999939716E+02 0.  0.
        -12    1    3    3    0    0 -0.16496495087E+02  0.14677975651E+02  0.29465309603E+02  0.36820942266E+02  0.00000000000E+00 0.  1.
         11    1    4    4    0    0  0.21959842624E+02 -0.89714129324E+01 -0.23836356031E+02  0.33628749712E+02  0.51100000000E-03 0. -1.
        -11    1    4    4    0    0 -0.51077797476E+00 -0.10774366240E+02 -0.78182179356E+01  0.13321876518E+02  0.51100000000E-03 0.  1.
         12    1    4    4    0    0 -0.49525695627E+01  0.50678035214E+01  0.21892643639E+01  0.74164315044E+01  0.00000000000E+00 0. -1.
</event>
<event>
 8    1  0.1254059E-006  0.9118800E+02  0.7816164E-02  0.1184000E+00
        -11   -1    0    0    0    0  0.00000000000E+00  0.00000000000E+00  0.45593999997E+02  0.45594000000E+02  0.51100000000E-03 0.  1.
         11   -1    0    0    0    0 -0.00000000000E+00 -0.00000000000E+00 -0.45593999997E+02  0.45594000000E+02  0.51100000000E-03 0. -1.
         23    2    1    2    0    0  0.00000000000E+00  0.71054273576E-14  0.17763568394E-14  0.91188000000E+02  0.91188000000E+02 0.  0.
    9900012    2    3    3    0    0 -0.27575273193E+02  0.22162789709E+02  0.10207680434E+02  0.54367059229E+02  0.39999943125E+02 0.  0.
        -12    1    3    3    0    0  0.27575273193E+02 -0.22162789709E+02 -0.10207680434E+02  0.36820940771E+02  0.00000000000E+00 0.  1.
         11    1    4    4    0    0 -0.79156736372E+01  0.11350876868E+01  0.34502087659E+01  0.87092051289E+01  0.51100000000E-03 0. -1.
        -11    1    4    4    0    0 -0.80359765098E+01  0.77435798595E+01  0.20464304869E+02  0.23309391273E+02  0.51100000000E-03 0.  1.
         12    1    4    4    0    0 -0.11623623046E+02  0.13284122163E+02 -0.13706833200E+02  0.22348462827E+02  0.00000000000E+00 0. -1.
</event>
<event>
 8    1  0.1254059E-006  0.9118800E+02  0.7816164E-02  0.1184000E+00
        -11   -1    0    0    0    0  0.00000000000E+00  0.00000000000E+00  0.45593999997E+02  0.45594000000E+02  0.51100000000E-03 0.  1.
         11   -1    0    0    0    0 -0.00000000000E+00 -0.00000000000E+00 -0.45593999997E+02  0.45594000000E+02  0.51100000000E-03 0. -1.
         23    2    1    2    0    0  0.88817841970E-15  0.00000000000E+00 -0.44408920985E-15  0.91188000000E+02  0.91188000000E+02 0.  0.
    9900012    2    3    3    0    0  0.31670737358E+01 -0.36649817548E+02  0.15939958030E+01  0.54367077891E+02  0.39999985668E+02 0.  0.
         12    1    3    3    0    0 -0.31670737358E+01  0.36649817548E+02 -0.15939958030E+01  0.36820922109E+02  0.00000000000E+00 0. -1.
         11    1    4    4    0    0 -0.14514622217E+02 -0.24594662714E+02 -0.51258030973E+01  0.29014574782E+02  0.51100000000E-03 0. -1.
        -11    1    4    4    0    0 -0.88870082512E+00  0.44599866531E+00  0.23392519756E+01  0.25418111717E+01  0.51100000000E-03 0.  1.
         12    1    4    4    0    0  0.18570396778E+02 -0.12501153499E+02  0.43805469248E+01  0.22810691937E+02  0.00000000000E+00 0. -1.
</event>
<event>
 8    1  0.1254059E-006  0.9118800E+02  0.7816164E-02  0.1184000E+00
        -11   -1    0    0    0    0  0.00000000000E+00  0.00000000000E+00  0.45593999997E+02  0.45594000000E+02  0.51100000000E-03 0.  1.
         11   -1    0    0    0    0 -0.00000000000E+00 -0.00000000000E+00 -0.45593999997E+02  0.45594000000E+02  0.51100000000E-03 0. -1.
         23    2    1    2    0    0  0.88817841970E-15  0.00000000000E+00 -0.71054273576E-14  0.91188000000E+02  0.91188000000E+02 0.  0.
    9900012    2    3    3    0    0 -0.46008368611E+01 -0.19448176677E+02 -0.30925381631E+02  0.54367102334E+02  0.40000041391E+02 0.  0.
        -12    1    3    3    0    0  0.46008368611E+01  0.19448176677E+02  0.30925381631E+02  0.36820897666E+02  0.00000000000E+00 0.  1.
         11    1    4    4    0    0 -0.53069544868E+01 -0.46035155377E+01 -0.11825966544E+02  0.13755348276E+02  0.51100000000E-03 0. -1.
        -11    1    4    4    0    0  0.23974422367E+00  0.10440611587E+02 -0.41763061169E+01  0.11247461076E+02  0.51100000000E-03 0.  1.
        -12    1    4    4    0    0  0.46637340207E+00 -0.25285272727E+02 -0.14923108970E+02  0.29364292982E+02  0.00000000000E+00 0.  1.
</event>
<event>
 8    1  0.1254059E-006  0.9118800E+02  0.7816164E-02  0.1184000E+00
        -11   -1    0    0    0    0  0.00000000000E+00  0.00000000000E+00  0.45593999997E+02  0.45594000000E+02  0.51100000000E-03 0. -1.
         11   -1    0    0    0    0 -0.00000000000E+00 -0.00000000000E+00 -0.45593999997E+02  0.45594000000E+02  0.51100000000E-03 0.  1.
         23    2    1    2    0    0  0.00000000000E+00  0.88817841970E-15  0.00000000000E+00  0.91188000000E+02  0.91188000000E+02 0.  0.
    9900012    2    3    3    0    0 -0.34339443442E+02 -0.35744682054E+01 -0.12798679619E+02  0.54367076616E+02  0.39999982763E+02 0.  0.
         12    1    3    3    0    0  0.34339443442E+02  0.35744682054E+01  0.12798679619E+02  0.36820923384E+02  0.00000000000E+00 0. -1.
         11    1    4    4    0    0 -0.11167324883E+02  0.85659446271E+01 -0.12014704549E+02  0.18505071685E+02  0.51100000000E-03 0. -1.
        -11    1    4    4    0    0 -0.15128762187E+02  0.50836330283E+01 -0.43019623149E+01  0.16529659709E+02  0.51100000000E-03 0.  1.
         12    1    4    4    0    0 -0.80433563716E+01 -0.17224045861E+02  0.35179872452E+01  0.19332345222E+02  0.00000000000E+00 0. -1.
</event>
<event>
 8    1  0.1254059E-006  0.9118800E+02  0.7816164E-02  0.1184000E+00
        -11   -1    0    0    0    0  0.00000000000E+00  0.00000000000E+00  0.45593999997E+02  0.45594000000E+02  0.51100000000E-03 0.  1.
         11   -1    0    0    0    0 -0.00000000000E+00 -0.00000000000E+00 -0.45593999997E+02  0.45594000000E+02  0.51100000000E-03 0. -1.
         23    2    1    2    0    0 -0.17763568394E-14  0.35527136788E-14  0.00000000000E+00  0.91188000000E+02  0.91188000000E+02 0.  0.
    9900012    2    3    3    0    0 -0.63210263986E+01 -0.29379156518E+02  0.21276479918E+02  0.54367098190E+02  0.40000031943E+02 0.  0.
         12    1    3    3    0    0  0.63210263986E+01  0.29379156518E+02 -0.21276479918E+02  0.36820901810E+02  0.00000000000E+00 0. -1.
         11    1    4    4    0    0  0.27468054750E+01  0.36378226789E+01 -0.14315302450E+01  0.47778628344E+01  0.51100000000E-03 0. -1.
        -11    1    4    4    0    0 -0.16167119826E+02 -0.26867961349E+02  0.24785963335E+02  0.39970077423E+02  0.51100000000E-03 0.  1.
        -12    1    4    4    0    0  0.70992879523E+01 -0.61490178484E+01 -0.20779531728E+01  0.96191579319E+01  0.00000000000E+00 0.  1.
</event>
<event>
 8    1  0.1254059E-006  0.9118800E+02  0.7816164E-02  0.1184000E+00
        -11   -1    0    0    0    0  0.00000000000E+00  0.00000000000E+00  0.45593999997E+02  0.45594000000E+02  0.51100000000E-03 0.  1.
         11   -1    0    0    0    0 -0.00000000000E+00 -0.00000000000E+00 -0.45593999997E+02  0.45594000000E+02  0.51100000000E-03 0. -1.
         23    2    1    2    0    0  0.00000000000E+00  0.00000000000E+00  0.44408920985E-15  0.91188000000E+02  0.91188000000E+02 0.  0.
    9900012    2    3    3    0    0 -0.94491630841E+01  0.35567366303E+02 -0.12040183673E+01  0.54367165016E+02  0.40000184286E+02 0.  0.
        -12    1    3    3    0    0  0.94491630841E+01 -0.35567366303E+02  0.12040183673E+01  0.36820834984E+02  0.00000000000E+00 0.  1.
         11    1    4    4    0    0  0.47200903214E+01  0.65993510042E+00 -0.81643382916E+01  0.94536335332E+01  0.51100000000E-03 0. -1.
        -11    1    4    4    0    0 -0.13652456358E+02  0.37820715204E+02  0.35010775415E+01  0.40361536236E+02  0.51100000000E-03 0.  1.
        -12    1    4    4    0    0 -0.51679704721E+00 -0.29132840010E+01  0.34592423828E+01  0.45519952463E+01  0.00000000000E+00 0.  1.
</event>
<event>
 8    1  0.1254059E-006  0.9118800E+02  0.7816164E-02  0.1184000E+00
        -11   -1    0    0    0    0  0.00000000000E+00  0.00000000000E+00  0.45593999997E+02  0.45594000000E+02  0.51100000000E-03 0.  1.
         11   -1    0    0    0    0 -0.00000000000E+00 -0.00000000000E+00 -0.45593999997E+02  0.45594000000E+02  0.51100000000E-03 0. -1.
         23    2    1    2    0    0  0.00000000000E+00  0.00000000000E+00  0.35527136788E-14  0.91188000000E+02  0.91188000000E+02 0.  0.
    9900012    2    3    3    0    0  0.31327420686E+02 -0.74949740065E+01  0.17838094764E+02  0.54367088183E+02  0.40000009131E+02 0.  0.
         12    1    3    3    0    0 -0.31327420686E+02  0.74949740065E+01 -0.17838094764E+02  0.36820911817E+02  0.00000000000E+00 0. -1.
         11    1    4    4    0    0  0.13085238794E+02  0.12247428945E+02 -0.39400950903E+01  0.18350676817E+02  0.51100000000E-03 0. -1.
        -11    1    4    4    0    0  0.81948141916E-01 -0.39056829292E+01  0.61852201527E+01  0.73156013588E+01  0.51100000000E-03 0.  1.
         12    1    4    4    0    0  0.18160233751E+02 -0.15836720023E+02  0.15592969702E+02  0.28700810007E+02  0.00000000000E+00 0. -1.
</event>
<event>
 8    1  0.1254059E-006  0.9118800E+02  0.7816164E-02  0.1184000E+00
        -11   -1    0    0    0    0  0.00000000000E+00  0.00000000000E+00  0.45593999997E+02  0.45594000000E+02  0.51100000000E-03 0.  1.
         11   -1    0    0    0    0 -0.00000000000E+00 -0.00000000000E+00 -0.45593999997E+02  0.45594000000E+02  0.51100000000E-03 0. -1.
         23    2    1    2    0    0  0.17763568394E-14  0.44408920985E-15 -0.71054273576E-14  0.91188000000E+02  0.91188000000E+02 0.  0.
    9900012    2    3    3    0    0  0.94398146180E+01 -0.10917156153E+01  0.35573573259E+02  0.54367067673E+02  0.39999962374E+02 0.  0.
         12    1    3    3    0    0 -0.94398146180E+01  0.10917156153E+01 -0.35573573259E+02  0.36820932327E+02  0.00000000000E+00 0. -1.
         11    1    4    4    0    0  0.11092331546E+02 -0.41695851995E+01 -0.99918928224E+00  0.11892167142E+02  0.51100000000E-03 0. -1.
        -11    1    4    4    0    0 -0.89198128107E+01 -0.52162867238E+01  0.20854852748E+02  0.23274397761E+02  0.51100000000E-03 0.  1.
        -12    1    4    4    0    0  0.72672958830E+01  0.82941563080E+01  0.15717909794E+02  0.19200502769E+02  0.00000000000E+00 0.  1.
</event>
<event>
 8    1  0.1254059E-006  0.9118800E+02  0.7816164E-02  0.1184000E+00
        -11   -1    0    0    0    0  0.00000000000E+00  0.00000000000E+00  0.45593999997E+02  0.45594000000E+02  0.51100000000E-03 0.  1.
         11   -1    0    0    0    0 -0.00000000000E+00 -0.00000000000E+00 -0.45593999997E+02  0.45594000000E+02  0.51100000000E-03 0. -1.
         23    2    1    2    0    0 -0.17763568394E-14  0.17763568394E-14 -0.71054273576E-14  0.91188000000E+02  0.91188000000E+02 0.  0.
    9900012    2    3    3    0    0  0.86581534067E+01  0.14754608691E+02  0.32605527901E+02  0.54367047435E+02  0.39999916238E+02 0.  0.
         12    1    3    3    0    0 -0.86581534067E+01 -0.14754608691E+02 -0.32605527901E+02  0.36820952565E+02  0.00000000000E+00 0. -1.
         11    1    4    4    0    0 -0.14793216715E+01  0.53588125336E+01  0.65893429195E+00  0.55981656853E+01  0.51100000000E-03 0. -1.
        -11    1    4    4    0    0  0.89281566903E+01  0.17169051314E+02  0.35269063861E+02  0.40229282505E+02  0.51100000000E-03 0.  1.
        -12    1    4    4    0    0  0.12093183879E+01 -0.77732551566E+01 -0.33224702520E+01  0.85395992452E+01  0.00000000000E+00 0.  1.
</event>
<event>
 8    1  0.1254059E-006  0.9118800E+02  0.7816164E-02  0.1184000E+00
        -11   -1    0    0    0    0  0.00000000000E+00  0.00000000000E+00  0.45593999997E+02  0.45594000000E+02  0.51100000000E-03 0.  1.
         11   -1    0    0    0    0 -0.00000000000E+00 -0.00000000000E+00 -0.45593999997E+02  0.45594000000E+02  0.51100000000E-03 0. -1.
         23    2    1    2    0    0 -0.71054273576E-14  0.22204460493E-15 -0.77715611724E-15  0.91188000000E+02  0.91188000000E+02 0.  0.
    9900012    2    3    3    0    0  0.36801451071E+02 -0.10355245083E+01 -0.60182825997E+00  0.54367064254E+02  0.39999954579E+02 0.  0.
         12    1    3    3    0    0 -0.36801451071E+02  0.10355245083E+01  0.60182825997E+00  0.36820935746E+02  0.00000000000E+00 0. -1.
         11    1    4    4    0    0 -0.20895163215E+01  0.53991104063E+00 -0.23705667141E+00  0.21711237911E+01  0.51100000000E-03 0. -1.
        -11    1    4    4    0    0  0.16942046067E+01  0.11600436991E+02  0.42402089565E+01  0.12466749371E+02  0.51100000000E-03 0.  1.
        -12    1    4    4    0    0  0.37196762786E+02 -0.13175872540E+02 -0.46049805451E+01  0.39729191091E+02  0.00000000000E+00 0.  1.
</event>
<event>
 8    1  0.1254059E-006  0.9118800E+02  0.7816164E-02  0.1184000E+00
        -11   -1    0    0    0    0  0.00000000000E+00  0.00000000000E+00  0.45593999997E+02  0.45594000000E+02  0.51100000000E-03 0. -1.
         11   -1    0    0    0    0 -0.00000000000E+00 -0.00000000000E+00 -0.45593999997E+02  0.45594000000E+02  0.51100000000E-03 0.  1.
         23    2    1    2    0    0  0.00000000000E+00  0.35527136788E-14  0.00000000000E+00  0.91188000000E+02  0.91188000000E+02 0.  0.
    9900012    2    3    3    0    0 -0.18840145818E+02  0.29742376019E+02 -0.10780474162E+02  0.54367100379E+02  0.40000036934E+02 0.  0.
        -12    1    3    3    0    0  0.18840145818E+02 -0.29742376019E+02  0.10780474162E+02  0.36820899621E+02  0.00000000000E+00 0.  1.
         11    1    4    4    0    0 -0.19316703520E+01 -0.47304133473E+01  0.25184612709E+01  0.56965610871E+01  0.51100000000E-03 0. -1.
        -11    1    4    4    0    0  0.30360335992E+01  0.58517136276E+01 -0.12083170746E+02  0.13764558399E+02  0.51100000000E-03 0.  1.
         12    1    4    4    0    0 -0.19944509065E+02  0.28621075739E+02 -0.12157646876E+01  0.34905980893E+02  0.00000000000E+00 0. -1.
</event>
<event>
 8    1  0.1254059E-006  0.9118800E+02  0.7816164E-02  0.1184000E+00
        -11   -1    0    0    0    0  0.00000000000E+00  0.00000000000E+00  0.45593999997E+02  0.45594000000E+02  0.51100000000E-03 0.  1.
         11   -1    0    0    0    0 -0.00000000000E+00 -0.00000000000E+00 -0.45593999997E+02  0.45594000000E+02  0.51100000000E-03 0. -1.
         23    2    1    2    0    0 -0.17763568394E-14  0.00000000000E+00  0.00000000000E+00  0.91188000000E+02  0.91188000000E+02 0.  0.
    9900012    2    3    3    0    0 -0.80892237787E+01 -0.33681681704E+02  0.12485458466E+02  0.54367110591E+02  0.40000060215E+02 0.  0.
         12    1    3    3    0    0  0.80892237787E+01  0.33681681704E+02 -0.12485458466E+02  0.36820889409E+02  0.00000000000E+00 0. -1.
         11    1    4    4    0    0 -0.15833736463E+01  0.69110206881E+01  0.77304451219E+00  0.71321018735E+01  0.51100000000E-03 0. -1.
        -11    1    4    4    0    0  0.99875096912E+00 -0.13805542202E+01 -0.39865878639E+01  0.43354718903E+01  0.51100000000E-03 0.  1.
        -12    1    4    4    0    0 -0.75046011016E+01 -0.39212148172E+02  0.15699001818E+02  0.42899536828E+02  0.00000000000E+00 0.  1.
</event>
<event>
 8    1  0.1254059E-006  0.9118800E+02  0.7816164E-02  0.1184000E+00
        -11   -1    0    0    0    0  0.00000000000E+00  0.00000000000E+00  0.45593999997E+02  0.45594000000E+02  0.51100000000E-03 0. -1.
         11   -1    0    0    0    0 -0.00000000000E+00 -0.00000000000E+00 -0.45593999997E+02  0.45594000000E+02  0.51100000000E-03 0.  1.
         23    2    1    2    0    0  0.00000000000E+00  0.00000000000E+00  0.00000000000E+00  0.91188000000E+02  0.91188000000E+02 0.  0.
    9900012    2    3    3    0    0  0.16606403531E+02 -0.15006044937E+02 -0.29237396491E+02  0.54367090500E+02  0.40000014412E+02 0.  0.
         12    1    3    3    0    0 -0.16606403531E+02  0.15006044937E+02  0.29237396491E+02  0.36820909500E+02  0.00000000000E+00 0. -1.
         11    1    4    4    0    0  0.94967646260E-01 -0.95126843323E+01 -0.75987503663E+01  0.12175433851E+02  0.51100000000E-03 0. -1.
        -11    1    4    4    0    0  0.14524688463E+02  0.13883769940E+01 -0.28660680077E+02  0.32160981770E+02  0.51100000000E-03 0.  1.
        -12    1    4    4    0    0  0.19867474210E+01 -0.68817375991E+01  0.70220339529E+01  0.10030674879E+02  0.00000000000E+00 0.  1.
</event>
<event>
 8    1  0.1254059E-006  0.9118800E+02  0.7816164E-02  0.1184000E+00
        -11   -1    0    0    0    0  0.00000000000E+00  0.00000000000E+00  0.45593999997E+02  0.45594000000E+02  0.51100000000E-03 0.  1.
         11   -1    0    0    0    0 -0.00000000000E+00 -0.00000000000E+00 -0.45593999997E+02  0.45594000000E+02  0.51100000000E-03 0. -1.
         23    2    1    2    0    0 -0.35527136788E-14  0.00000000000E+00  0.00000000000E+00  0.91188000000E+02  0.91188000000E+02 0.  0.
    9900012    2    3    3    0    0 -0.30686122716E+02 -0.17143775012E+02  0.10965087080E+02  0.54367078180E+02  0.39999986327E+02 0.  0.
         12    1    3    3    0    0  0.30686122716E+02  0.17143775012E+02 -0.10965087080E+02  0.36820921820E+02  0.00000000000E+00 0. -1.
         11    1    4    4    0    0  0.92173475507E+01 -0.66905750387E+01  0.19292338100E+01  0.11551849790E+02  0.51100000000E-03 0. -1.
        -11    1    4    4    0    0 -0.10178529799E+01  0.82630813954E+00 -0.79072260278E-01  0.13134163520E+01  0.51100000000E-03 0.  1.
         12    1    4    4    0    0 -0.38885617287E+02 -0.11279508113E+02  0.91149255301E+01  0.41501812038E+02  0.00000000000E+00 0. -1.
</event>
<event>
 8    1  0.1254059E-006  0.9118800E+02  0.7816164E-02  0.1184000E+00
        -11   -1    0    0    0    0  0.00000000000E+00  0.00000000000E+00  0.45593999997E+02  0.45594000000E+02  0.51100000000E-03 0. -1.
         11   -1    0    0    0    0 -0.00000000000E+00 -0.00000000000E+00 -0.45593999997E+02  0.45594000000E+02  0.51100000000E-03 0.  1.
         23    2    1    2    0    0 -0.17763568394E-14  0.88817841970E-15  0.00000000000E+00  0.91188000000E+02  0.91188000000E+02 0.  0.
    9900012    2    3    3    0    0 -0.10205639743E+02  0.49718633417E+01  0.35027215706E+02  0.54367077309E+02  0.39999984342E+02 0.  0.
        -12    1    3    3    0    0  0.10205639743E+02 -0.49718633417E+01 -0.35027215706E+02  0.36820922691E+02  0.00000000000E+00 0.  1.
         11    1    4    4    0    0 -0.50853365201E+01  0.11799582730E+02  0.85807489872E+00  0.12877386883E+02  0.51100000000E-03 0. -1.
        -11    1    4    4    0    0  0.73992739089E+01  0.25615903815E+01  0.12757757573E+02  0.14969013936E+02  0.51100000000E-03 0.  1.
         12    1    4    4    0    0 -0.12519577132E+02 -0.93893097702E+01  0.21411383234E+02  0.26520676491E+02  0.00000000000E+00 0. -1.
</event>
<event>
 8    1  0.1254059E-006  0.9118800E+02  0.7816164E-02  0.1184000E+00
        -11   -1    0    0    0    0  0.00000000000E+00  0.00000000000E+00  0.45593999997E+02  0.45594000000E+02  0.51100000000E-03 0.  1.
         11   -1    0    0    0    0 -0.00000000000E+00 -0.00000000000E+00 -0.45593999997E+02  0.45594000000E+02  0.51100000000E-03 0. -1.
         23    2    1    2    0    0 -0.35527136788E-14 -0.35527136788E-14 -0.17763568394E-14  0.91188000000E+02  0.91188000000E+02 0.  0.
    9900012    2    3    3    0    0 -0.28334914234E+02 -0.23007414499E+02 -0.48552635447E+01  0.54367053914E+02  0.39999931007E+02 0.  0.
        -12    1    3    3    0    0  0.28334914234E+02  0.23007414499E+02  0.48552635447E+01  0.36820946086E+02  0.00000000000E+00 0.  1.
         11    1    4    4    0    0 -0.10250627478E+02  0.45313495442E+01 -0.66393186783E+01  0.13026474779E+02  0.51100000000E-03 0. -1.
        -11    1    4    4    0    0 -0.16587241300E+02 -0.14382466520E+02  0.11625699664E+02  0.24842479950E+02  0.51100000000E-03 0.  1.
        -12    1    4    4    0    0 -0.14970454563E+01 -0.13156297524E+02 -0.98416445307E+01  0.16498099185E+02  0.00000000000E+00 0.  1.
</event>
<event>
 8    1  0.1254059E-006  0.9118800E+02  0.7816164E-02  0.1184000E+00
        -11   -1    0    0    0    0  0.00000000000E+00  0.00000000000E+00  0.45593999997E+02  0.45594000000E+02  0.51100000000E-03 0. -1.
         11   -1    0    0    0    0 -0.00000000000E+00 -0.00000000000E+00 -0.45593999997E+02  0.45594000000E+02  0.51100000000E-03 0.  1.
         23    2    1    2    0    0  0.00000000000E+00  0.35527136788E-14  0.00000000000E+00  0.91188000000E+02  0.91188000000E+02 0.  0.
    9900012    2    3    3    0    0  0.76671484534E+00 -0.68549313204E+01  0.36169071044E+02  0.54367086986E+02  0.40000006401E+02 0.  0.
        -12    1    3    3    0    0 -0.76671484534E+00  0.68549313204E+01 -0.36169071044E+02  0.36820913014E+02  0.00000000000E+00 0.  1.
         11    1    4    4    0    0  0.50949736893E+01 -0.41319668238E+00 -0.62013330936E+00  0.51491799324E+01  0.51100000000E-03 0. -1.
        -11    1    4    4    0    0  0.30864940871E+01  0.12177391454E+02  0.12410285070E+02  0.17658722608E+02  0.51100000000E-03 0.  1.
        -12    1    4    4    0    0 -0.74147529311E+01 -0.18619126092E+02  0.24378919283E+02  0.31559184446E+02  0.00000000000E+00 0.  1.
</event>
<event>
 8    1  0.1254059E-006  0.9118800E+02  0.7816164E-02  0.1184000E+00
        -11   -1    0    0    0    0  0.00000000000E+00  0.00000000000E+00  0.45593999997E+02  0.45594000000E+02  0.51100000000E-03 0.  1.
         11   -1    0    0    0    0 -0.00000000000E+00 -0.00000000000E+00 -0.45593999997E+02  0.45594000000E+02  0.51100000000E-03 0. -1.
         23    2    1    2    0    0  0.00000000000E+00  0.35527136788E-14  0.00000000000E+00  0.91188000000E+02  0.91188000000E+02 0.  0.
    9900012    2    3    3    0    0 -0.13668540176E+02 -0.23638839975E+02 -0.24701389733E+02  0.54367049433E+02  0.39999920792E+02 0.  0.
        -12    1    3    3    0    0  0.13668540176E+02  0.23638839975E+02  0.24701389733E+02  0.36820950567E+02  0.00000000000E+00 0.  1.
         11    1    4    4    0    0 -0.11737900447E+02 -0.16223646280E+02 -0.84224802853E+01  0.21723792946E+02  0.51100000000E-03 0. -1.
        -11    1    4    4    0    0 -0.26407703055E+01 -0.17152631004E+02 -0.57456681308E+01  0.18281113770E+02  0.51100000000E-03 0.  1.
        -12    1    4    4    0    0  0.71013057648E+00  0.97374373090E+01 -0.10533241317E+02  0.14362142717E+02  0.00000000000E+00 0.  1.
</event>
<event>
 8    1  0.1254059E-006  0.9118800E+02  0.7816164E-02  0.1184000E+00
        -11   -1    0    0    0    0  0.00000000000E+00  0.00000000000E+00  0.45593999997E+02  0.45594000000E+02  0.51100000000E-03 0.  1.
         11   -1    0    0    0    0 -0.00000000000E+00 -0.00000000000E+00 -0.45593999997E+02  0.45594000000E+02  0.51100000000E-03 0. -1.
         23    2    1    2    0    0  0.00000000000E+00  0.00000000000E+00  0.00000000000E+00  0.91188000000E+02  0.91188000000E+02 0.  0.
    9900012    2    3    3    0    0 -0.11247002692E+02 -0.26554719803E+02 -0.22893955180E+02  0.54367063060E+02  0.39999951857E+02 0.  0.
        -12    1    3    3    0    0  0.11247002692E+02  0.26554719803E+02  0.22893955180E+02  0.36820936940E+02  0.00000000000E+00 0.  1.
         11    1    4    4    0    0 -0.77079822812E+01 -0.33961354785E+02 -0.94941316213E+01  0.36096054426E+02  0.51100000000E-03 0. -1.
        -11    1    4    4    0    0 -0.57240244258E+01  0.80026113247E+01 -0.12306350402E+02  0.15756030722E+02  0.51100000000E-03 0.  1.
         12    1    4    4    0    0  0.21850040150E+01 -0.59597634327E+00 -0.10934731571E+01  0.25149779109E+01  0.00000000000E+00 0. -1.
</event>
<event>
 8    1  0.1254059E-006  0.9118800E+02  0.7816164E-02  0.1184000E+00
        -11   -1    0    0    0    0  0.00000000000E+00  0.00000000000E+00  0.45593999997E+02  0.45594000000E+02  0.51100000000E-03 0.  1.
         11   -1    0    0    0    0 -0.00000000000E+00 -0.00000000000E+00 -0.45593999997E+02  0.45594000000E+02  0.51100000000E-03 0. -1.
         23    2    1    2    0    0  0.00000000000E+00  0.00000000000E+00  0.00000000000E+00  0.91188000000E+02  0.91188000000E+02 0.  0.
    9900012    2    3    3    0    0 -0.34688478940E+02  0.41445516961E+01 -0.11632311879E+02  0.54367101592E+02  0.40000039698E+02 0.  0.
        -12    1    3    3    0    0  0.34688478940E+02 -0.41445516961E+01  0.11632311879E+02  0.36820898408E+02  0.00000000000E+00 0.  1.
         11    1    4    4    0    0 -0.25981362722E+02  0.11601618481E+02 -0.55178310005E+01  0.28984051123E+02  0.51100000000E-03 0. -1.
        -11    1    4    4    0    0  0.69777790177E+01 -0.36265369095E+01 -0.47325921732E+01  0.91781587976E+01  0.51100000000E-03 0.  1.
         12    1    4    4    0    0 -0.15684895236E+02 -0.38305298754E+01 -0.13818887057E+01  0.16204891671E+02  0.00000000000E+00 0. -1.
</event>
<event>
 8    1  0.1254059E-006  0.9118800E+02  0.7816164E-02  0.1184000E+00
        -11   -1    0    0    0    0  0.00000000000E+00  0.00000000000E+00  0.45593999997E+02  0.45594000000E+02  0.51100000000E-03 0. -1.
         11   -1    0    0    0    0 -0.00000000000E+00 -0.00000000000E+00 -0.45593999997E+02  0.45594000000E+02  0.51100000000E-03 0.  1.
         23    2    1    2    0    0 -0.13322676296E-14  0.00000000000E+00  0.00000000000E+00  0.91188000000E+02  0.91188000000E+02 0.  0.
    9900012    2    3    3    0    0  0.30869691728E+01  0.22716718432E+02 -0.28813248696E+02  0.54367055207E+02  0.39999933956E+02 0.  0.
         12    1    3    3    0    0 -0.30869691728E+01 -0.22716718432E+02  0.28813248696E+02  0.36820944793E+02  0.00000000000E+00 0. -1.
         11    1    4    4    0    0  0.17924132765E+02  0.34692493158E+01 -0.16761840267E+02  0.24784461172E+02  0.51100000000E-03 0. -1.
        -11    1    4    4    0    0 -0.16264987112E+02  0.14457703528E+02 -0.11324348404E+02  0.24531935596E+02  0.51100000000E-03 0.  1.
        -12    1    4    4    0    0  0.14278235199E+01  0.47897655880E+01 -0.72706002510E+00  0.50506584394E+01  0.00000000000E+00 0.  1.
</event>
<event>
 8    1  0.1254059E-006  0.9118800E+02  0.7816164E-02  0.1184000E+00
        -11   -1    0    0    0    0  0.00000000000E+00  0.00000000000E+00  0.45593999997E+02  0.45594000000E+02  0.51100000000E-03 0.  1.
         11   -1    0    0    0    0 -0.00000000000E+00 -0.00000000000E+00 -0.45593999997E+02  0.45594000000E+02  0.51100000000E-03 0. -1.
         23    2    1    2    0    0 -0.35527136788E-14  0.00000000000E+00 -0.35527136788E-14  0.91188000000E+02  0.91188000000E+02 0.  0.
    9900012    2    3    3    0    0  0.29842620934E+02  0.52406726138E+01  0.20922047031E+02  0.54367099337E+02  0.40000034558E+02 0.  0.
         12    1    3    3    0    0 -0.29842620934E+02 -0.52406726138E+01 -0.20922047031E+02  0.36820900663E+02  0.00000000000E+00 0. -1.
         11    1    4    4    0    0  0.29642607087E+02 -0.37380033064E+01  0.97747448369E+01  0.31435687690E+02  0.51100000000E-03 0. -1.
        -11    1    4    4    0    0 -0.15024170497E+01  0.28474126498E+01  0.15100699716E+02  0.15440082512E+02  0.51100000000E-03 0.  1.
         12    1    4    4    0    0  0.17024308971E+01  0.61312632703E+01 -0.39533975219E+01  0.74913291355E+01  0.00000000000E+00 0. -1.
</event>
<event>
 8    1  0.1254059E-006  0.9118800E+02  0.7816164E-02  0.1184000E+00
        -11   -1    0    0    0    0  0.00000000000E+00  0.00000000000E+00  0.45593999997E+02  0.45594000000E+02  0.51100000000E-03 0. -1.
         11   -1    0    0    0    0 -0.00000000000E+00 -0.00000000000E+00 -0.45593999997E+02  0.45594000000E+02  0.51100000000E-03 0.  1.
         23    2    1    2    0    0  0.00000000000E+00 -0.44408920985E-15  0.00000000000E+00  0.91188000000E+02  0.91188000000E+02 0.  0.
    9900012    2    3    3    0    0 -0.27604246390E+02 -0.12414656358E+01  0.24336113646E+02  0.54367053745E+02  0.39999930623E+02 0.  0.
        -12    1    3    3    0    0  0.27604246390E+02  0.12414656358E+01 -0.24336113646E+02  0.36820946255E+02  0.00000000000E+00 0.  1.
         11    1    4    4    0    0 -0.11926194196E+02  0.22425377485E+01  0.21871747677E+02  0.25012725367E+02  0.51100000000E-03 0. -1.
        -11    1    4    4    0    0 -0.19339629185E+02  0.29880700602E+01  0.68356318998E+01  0.20728619911E+02  0.51100000000E-03 0.  1.
         12    1    4    4    0    0  0.36615769900E+01 -0.64720734445E+01 -0.43712659313E+01  0.86257084676E+01  0.00000000000E+00 0. -1.
</event>
<event>
 8    1  0.1254059E-006  0.9118800E+02  0.7816164E-02  0.1184000E+00
        -11   -1    0    0    0    0  0.00000000000E+00  0.00000000000E+00  0.45593999997E+02  0.45594000000E+02  0.51100000000E-03 0. -1.
         11   -1    0    0    0    0 -0.00000000000E+00 -0.00000000000E+00 -0.45593999997E+02  0.45594000000E+02  0.51100000000E-03 0.  1.
         23    2    1    2    0    0  0.00000000000E+00 -0.88817841970E-15  0.00000000000E+00  0.91188000000E+02  0.91188000000E+02 0.  0.
    9900012    2    3    3    0    0  0.29106838522E+02  0.43286437766E+01  0.22132182122E+02  0.54367099805E+02  0.40000035626E+02 0.  0.
        -12    1    3    3    0    0 -0.29106838522E+02 -0.43286437766E+01 -0.22132182122E+02  0.36820900195E+02  0.00000000000E+00 0.  1.
         11    1    4    4    0    0  0.31464931110E+00  0.43952905436E+01  0.30357577583E+00  0.44169833217E+01  0.51100000000E-03 0. -1.
        -11    1    4    4    0    0  0.20336601925E+02 -0.10083746005E+01 -0.56938123057E+01  0.21142698409E+02  0.51100000000E-03 0.  1.
         12    1    4    4    0    0  0.84555872858E+01  0.94172783350E+00  0.27522418652E+02  0.28807418074E+02  0.00000000000E+00 0. -1.
</event>
<event>
 8    1  0.1254059E-006  0.9118800E+02  0.7816164E-02  0.1184000E+00
        -11   -1    0    0    0    0  0.00000000000E+00  0.00000000000E+00  0.45593999997E+02  0.45594000000E+02  0.51100000000E-03 0.  1.
         11   -1    0    0    0    0 -0.00000000000E+00 -0.00000000000E+00 -0.45593999997E+02  0.45594000000E+02  0.51100000000E-03 0. -1.
         23    2    1    2    0    0  0.00000000000E+00  0.35527136788E-14 -0.35527136788E-14  0.91188000000E+02  0.91188000000E+02 0.  0.
    9900012    2    3    3    0    0 -0.72868822023E+01  0.25301870604E+02  0.25739008857E+02  0.54367083590E+02  0.39999998661E+02 0.  0.
         12    1    3    3    0    0  0.72868822023E+01 -0.25301870604E+02 -0.25739008857E+02  0.36820916410E+02  0.00000000000E+00 0. -1.
         11    1    4    4    0    0 -0.50485088790E+01 -0.50496930074E+01 -0.41805146105E+01  0.82742700004E+01  0.51100000000E-03 0. -1.
        -11    1    4    4    0    0 -0.25874691264E+01  0.22701857993E+02  0.10360241979E+02  0.25087924724E+02  0.51100000000E-03 0.  1.
         12    1    4    4    0    0  0.34909580310E+00  0.76497056181E+01  0.19559281489E+02  0.21004888866E+02  0.00000000000E+00 0. -1.
</event>
<event>
 8    1  0.1254059E-006  0.9118800E+02  0.7816164E-02  0.1184000E+00
        -11   -1    0    0    0    0  0.00000000000E+00  0.00000000000E+00  0.45593999997E+02  0.45594000000E+02  0.51100000000E-03 0.  1.
         11   -1    0    0    0    0 -0.00000000000E+00 -0.00000000000E+00 -0.45593999997E+02  0.45594000000E+02  0.51100000000E-03 0. -1.
         23    2    1    2    0    0  0.00000000000E+00  0.71054273576E-14  0.00000000000E+00  0.91188000000E+02  0.91188000000E+02 0.  0.
    9900012    2    3    3    0    0 -0.16601945633E+02 -0.24674529514E+02  0.21709959502E+02  0.54367090898E+02  0.40000015321E+02 0.  0.
        -12    1    3    3    0    0  0.16601945633E+02  0.24674529514E+02 -0.21709959502E+02  0.36820909102E+02  0.00000000000E+00 0.  1.
         11    1    4    4    0    0 -0.48027624025E+01 -0.15486045832E+02  0.64485338739E+01  0.17449003742E+02  0.51100000000E-03 0. -1.
        -11    1    4    4    0    0 -0.15067484973E+02  0.65079591545E+01  0.12541232358E+02  0.20655874348E+02  0.51100000000E-03 0.  1.
        -12    1    4    4    0    0  0.32683017427E+01 -0.15696442836E+02  0.27201932702E+01  0.16262212808E+02  0.00000000000E+00 0.  1.
</event>
<event>
 8    1  0.1254059E-006  0.9118800E+02  0.7816164E-02  0.1184000E+00
        -11   -1    0    0    0    0  0.00000000000E+00  0.00000000000E+00  0.45593999997E+02  0.45594000000E+02  0.51100000000E-03 0. -1.
         11   -1    0    0    0    0 -0.00000000000E+00 -0.00000000000E+00 -0.45593999997E+02  0.45594000000E+02  0.51100000000E-03 0.  1.
         23    2    1    2    0    0  0.00000000000E+00  0.00000000000E+00  0.00000000000E+00  0.91188000000E+02  0.91188000000E+02 0.  0.
    9900012    2    3    3    0    0 -0.26899618883E+00  0.73819559878E+01 -0.36072350683E+02  0.54367080444E+02  0.39999991487E+02 0.  0.
         12    1    3    3    0    0  0.26899618883E+00 -0.73819559878E+01  0.36072350683E+02  0.36820919556E+02  0.00000000000E+00 0. -1.
         11    1    4    4    0    0  0.28195196965E+01 -0.72825311822E+01 -0.21418014896E+01  0.80976703823E+01  0.51100000000E-03 0. -1.
        -11    1    4    4    0    0  0.61397001062E+01  0.11653575861E+02 -0.34105626195E+02  0.36560846354E+02  0.51100000000E-03 0.  1.
        -12    1    4    4    0    0 -0.92282159915E+01  0.30109113092E+01  0.17507700107E+00  0.97085637070E+01  0.00000000000E+00 0.  1.
</event>
<event>
 8    1  0.1254059E-006  0.9118800E+02  0.7816164E-02  0.1184000E+00
        -11   -1    0    0    0    0  0.00000000000E+00  0.00000000000E+00  0.45593999997E+02  0.45594000000E+02  0.51100000000E-03 0. -1.
         11   -1    0    0    0    0 -0.00000000000E+00 -0.00000000000E+00 -0.45593999997E+02  0.45594000000E+02  0.51100000000E-03 0.  1.
         23    2    1    2    0    0  0.00000000000E+00  0.35527136788E-14  0.71054273576E-14  0.91188000000E+02  0.91188000000E+02 0.  0.
    9900012    2    3    3    0    0 -0.67551805995E+01 -0.15712872686E+02 -0.32607519946E+02  0.54367120189E+02  0.40000082096E+02 0.  0.
         12    1    3    3    0    0  0.67551805995E+01  0.15712872686E+02  0.32607519946E+02  0.36820879811E+02  0.00000000000E+00 0. -1.
         11    1    4    4    0    0 -0.10403108722E+02  0.11016807941E+01 -0.21368165860E+02  0.23791529672E+02  0.51100000000E-03 0. -1.
        -11    1    4    4    0    0 -0.75895801537E+00 -0.26631697498E+01 -0.15025027079E+02  0.15278086574E+02  0.51100000000E-03 0.  1.
         12    1    4    4    0    0  0.44068861379E+01 -0.14151383730E+02  0.37856729920E+01  0.15297503944E+02  0.00000000000E+00 0. -1.
</event>
<event>
 8    1  0.1254059E-006  0.9118800E+02  0.7816164E-02  0.1184000E+00
        -11   -1    0    0    0    0  0.00000000000E+00  0.00000000000E+00  0.45593999997E+02  0.45594000000E+02  0.51100000000E-03 0.  1.
         11   -1    0    0    0    0 -0.00000000000E+00 -0.00000000000E+00 -0.45593999997E+02  0.45594000000E+02  0.51100000000E-03 0. -1.
         23    2    1    2    0    0  0.00000000000E+00  0.00000000000E+00 -0.17763568394E-14  0.91188000000E+02  0.91188000000E+02 0.  0.
    9900012    2    3    3    0    0  0.31644497354E+02 -0.10510870454E+02  0.15618162783E+02  0.54367087203E+02  0.40000006896E+02 0.  0.
         12    1    3    3    0    0 -0.31644497354E+02  0.10510870454E+02 -0.15618162783E+02  0.36820912797E+02  0.00000000000E+00 0. -1.
         11    1    4    4    0    0 -0.28781227068E+01 -0.52517149462E+01  0.12027487398E+02  0.13435942601E+02  0.51100000000E-03 0. -1.
        -11    1    4    4    0    0  0.44267302631E+01 -0.59541553083E+01 -0.57771292458E+01  0.94033573176E+01  0.51100000000E-03 0.  1.
        -12    1    4    4    0    0  0.30095889798E+02  0.69499980063E+00  0.93678046303E+01  0.31527787284E+02  0.00000000000E+00 0.  1.
</event>
<event>
 8    1  0.1254059E-006  0.9118800E+02  0.7816164E-02  0.1184000E+00
        -11   -1    0    0    0    0  0.00000000000E+00  0.00000000000E+00  0.45593999997E+02  0.45594000000E+02  0.51100000000E-03 0. -1.
         11   -1    0    0    0    0 -0.00000000000E+00 -0.00000000000E+00 -0.45593999997E+02  0.45594000000E+02  0.51100000000E-03 0.  1.
         23    2    1    2    0    0  0.22204460493E-15  0.00000000000E+00  0.00000000000E+00  0.91188000000E+02  0.91188000000E+02 0.  0.
    9900012    2    3    3    0    0 -0.12744002228E+01 -0.18750826540E+02  0.31663274345E+02  0.54367074780E+02  0.39999978575E+02 0.  0.
        -12    1    3    3    0    0  0.12744002228E+01  0.18750826540E+02 -0.31663274345E+02  0.36820925220E+02  0.00000000000E+00 0.  1.
         11    1    4    4    0    0  0.99468291791E+01 -0.96647272949E+01  0.14209482232E+02  0.19855874444E+02  0.51100000000E-03 0. -1.
        -11    1    4    4    0    0 -0.11960235590E+02  0.68732725454E+01  0.79286532196E+01  0.15910771603E+02  0.51100000000E-03 0.  1.
        -12    1    4    4    0    0  0.73900618860E+00 -0.15959371790E+02  0.95251388937E+01  0.18600428732E+02  0.00000000000E+00 0.  1.
</event>
<event>
 8    1  0.1254059E-006  0.9118800E+02  0.7816164E-02  0.1184000E+00
        -11   -1    0    0    0    0  0.00000000000E+00  0.00000000000E+00  0.45593999997E+02  0.45594000000E+02  0.51100000000E-03 0.  1.
         11   -1    0    0    0    0 -0.00000000000E+00 -0.00000000000E+00 -0.45593999997E+02  0.45594000000E+02  0.51100000000E-03 0. -1.
         23    2    1    2    0    0  0.00000000000E+00 -0.44408920985E-15  0.00000000000E+00  0.91188000000E+02  0.91188000000E+02 0.  0.
    9900012    2    3    3    0    0  0.35200475894E+02  0.33357251013E+01  0.10275170809E+02  0.54367086102E+02  0.40000004387E+02 0.  0.
         12    1    3    3    0    0 -0.35200475894E+02 -0.33357251013E+01 -0.10275170809E+02  0.36820913898E+02  0.00000000000E+00 0. -1.
         11    1    4    4    0    0  0.17546845277E+01 -0.40987343280E+00 -0.32327468405E+01  0.37010223478E+01  0.51100000000E-03 0. -1.
        -11    1    4    4    0    0  0.29363747163E+02 -0.11495153967E+02  0.29279629889E+01  0.31669246592E+02  0.51100000000E-03 0.  1.
         12    1    4    4    0    0  0.40820442032E+01  0.15240752501E+02  0.10579954660E+02  0.18996817162E+02  0.00000000000E+00 0. -1.
</event>
<event>
 8    1  0.1254059E-006  0.9118800E+02  0.7816164E-02  0.1184000E+00
        -11   -1    0    0    0    0  0.00000000000E+00  0.00000000000E+00  0.45593999997E+02  0.45594000000E+02  0.51100000000E-03 0. -1.
         11   -1    0    0    0    0 -0.00000000000E+00 -0.00000000000E+00 -0.45593999997E+02  0.45594000000E+02  0.51100000000E-03 0.  1.
         23    2    1    2    0    0 -0.35527136788E-14 -0.35527136788E-14  0.00000000000E+00  0.91188000000E+02  0.91188000000E+02 0.  0.
    9900012    2    3    3    0    0  0.18803915828E+02  0.25575582062E+02  0.18656964173E+02  0.54367082569E+02  0.39999996333E+02 0.  0.
        -12    1    3    3    0    0 -0.18803915828E+02 -0.25575582062E+02 -0.18656964173E+02  0.36820917431E+02  0.00000000000E+00 0.  1.
         11    1    4    4    0    0  0.13081882602E+01 -0.77295362056E+01 -0.91083508141E+00  0.78921928058E+01  0.51100000000E-03 0. -1.
        -11    1    4    4    0    0 -0.14089404744E+00  0.38277124469E+01 -0.34257825691E+01  0.51387955964E+01  0.51100000000E-03 0.  1.
         12    1    4    4    0    0  0.17636621615E+02  0.29477405821E+02  0.22993581823E+02  0.41336094167E+02  0.00000000000E+00 0. -1.
</event>
<event>
 8    1  0.1254059E-006  0.9118800E+02  0.7816164E-02  0.1184000E+00
        -11   -1    0    0    0    0  0.00000000000E+00  0.00000000000E+00  0.45593999997E+02  0.45594000000E+02  0.51100000000E-03 0. -1.
         11   -1    0    0    0    0 -0.00000000000E+00 -0.00000000000E+00 -0.45593999997E+02  0.45594000000E+02  0.51100000000E-03 0.  1.
         23    2    1    2    0    0 -0.35527136788E-14 -0.88817841970E-15  0.00000000000E+00  0.91188000000E+02  0.91188000000E+02 0.  0.
    9900012    2    3    3    0    0  0.30671923798E+02 -0.68976436894E+01  0.19168692846E+02  0.54367038804E+02  0.39999896562E+02 0.  0.
        -12    1    3    3    0    0 -0.30671923798E+02  0.68976436894E+01 -0.19168692846E+02  0.36820961196E+02  0.00000000000E+00 0.  1.
         11    1    4    4    0    0  0.93350354164E+01 -0.64976573076E+01 -0.61521737165E+01  0.12931035473E+02  0.51100000000E-03 0. -1.
        -11    1    4    4    0    0  0.31109508297E+01 -0.95618585599E+01  0.16527447527E+01  0.10190128540E+02  0.51100000000E-03 0.  1.
        -12    1    4    4    0    0  0.18225937552E+02  0.91618721781E+01  0.23668121809E+02  0.31245874791E+02  0.00000000000E+00 0.  1.
</event>
<event>
 8    1  0.1254059E-006  0.9118800E+02  0.7816164E-02  0.1184000E+00
        -11   -1    0    0    0    0  0.00000000000E+00  0.00000000000E+00  0.45593999997E+02  0.45594000000E+02  0.51100000000E-03 0. -1.
         11   -1    0    0    0    0 -0.00000000000E+00 -0.00000000000E+00 -0.45593999997E+02  0.45594000000E+02  0.51100000000E-03 0.  1.
         23    2    1    2    0    0  0.00000000000E+00  0.00000000000E+00  0.00000000000E+00  0.91188000000E+02  0.91188000000E+02 0.  0.
    9900012    2    3    3    0    0 -0.17995540423E+02  0.21585706464E+02 -0.23790720767E+02  0.54367073976E+02  0.39999976743E+02 0.  0.
         12    1    3    3    0    0  0.17995540423E+02 -0.21585706464E+02  0.23790720767E+02  0.36820926024E+02  0.00000000000E+00 0. -1.
         11    1    4    4    0    0 -0.73985145114E+01 -0.82992788617E+01 -0.53124639574E+01  0.12322269278E+02  0.51100000000E-03 0. -1.
        -11    1    4    4    0    0  0.56953720300E+01  0.90668158930E+01 -0.89145902196E+01  0.13932491954E+02  0.51100000000E-03 0.  1.
        -12    1    4    4    0    0 -0.16292397941E+02  0.20818169432E+02 -0.95636665898E+01  0.28112312744E+02  0.00000000000E+00 0.  1.
</event>
<event>
 8    1  0.1254059E-006  0.9118800E+02  0.7816164E-02  0.1184000E+00
        -11   -1    0    0    0    0  0.00000000000E+00  0.00000000000E+00  0.45593999997E+02  0.45594000000E+02  0.51100000000E-03 0. -1.
         11   -1    0    0    0    0 -0.00000000000E+00 -0.00000000000E+00 -0.45593999997E+02  0.45594000000E+02  0.51100000000E-03 0.  1.
         23    2    1    2    0    0  0.17763568394E-14  0.00000000000E+00  0.71054273576E-14  0.91188000000E+02  0.91188000000E+02 0.  0.
    9900012    2    3    3    0    0  0.12742830805E+02 -0.83019217776E+01 -0.33533239738E+02  0.54367084620E+02  0.40000001007E+02 0.  0.
         12    1    3    3    0    0 -0.12742830805E+02  0.83019217776E+01  0.33533239738E+02  0.36820915380E+02  0.00000000000E+00 0. -1.
         11    1    4    4    0    0 -0.55577753690E+01 -0.21192919271E+01  0.61647428049E+00  0.59799921508E+01  0.51100000000E-03 0. -1.
        -11    1    4    4    0    0  0.23802978028E+02 -0.60435857287E+01 -0.35062753784E+02  0.42807749236E+02  0.51100000000E-03 0.  1.
        -12    1    4    4    0    0 -0.55023718548E+01 -0.13904412179E+00  0.91303976527E+00  0.55793432328E+01  0.00000000000E+00 0.  1.
</event>
<event>
 8    1  0.1254059E-006  0.9118800E+02  0.7816164E-02  0.1184000E+00
        -11   -1    0    0    0    0  0.00000000000E+00  0.00000000000E+00  0.45593999997E+02  0.45594000000E+02  0.51100000000E-03 0. -1.
         11   -1    0    0    0    0 -0.00000000000E+00 -0.00000000000E+00 -0.45593999997E+02  0.45594000000E+02  0.51100000000E-03 0.  1.
         23    2    1    2    0    0  0.17763568394E-14 -0.71054273576E-14  0.00000000000E+00  0.91188000000E+02  0.91188000000E+02 0.  0.
    9900012    2    3    3    0    0  0.14312388122E+02 -0.31982396910E+02  0.11316449522E+02  0.54367079376E+02  0.39999989053E+02 0.  0.
         12    1    3    3    0    0 -0.14312388122E+02  0.31982396910E+02 -0.11316449522E+02  0.36820920624E+02  0.00000000000E+00 0. -1.
         11    1    4    4    0    0  0.12547636878E+02 -0.13091338769E+02  0.20860066079E+02  0.27639983702E+02  0.51100000000E-03 0. -1.
        -11    1    4    4    0    0  0.49510528328E+01 -0.14160722225E+02  0.68382801037E+00  0.15016877142E+02  0.51100000000E-03 0.  1.
        -12    1    4    4    0    0 -0.31863015888E+01 -0.47303359155E+01 -0.10227444567E+02  0.11710218531E+02  0.00000000000E+00 0.  1.
</event>
<event>
 8    1  0.1254059E-006  0.9118800E+02  0.7816164E-02  0.1184000E+00
        -11   -1    0    0    0    0  0.00000000000E+00  0.00000000000E+00  0.45593999997E+02  0.45594000000E+02  0.51100000000E-03 0.  1.
         11   -1    0    0    0    0 -0.00000000000E+00 -0.00000000000E+00 -0.45593999997E+02  0.45594000000E+02  0.51100000000E-03 0. -1.
         23    2    1    2    0    0  0.17763568394E-14  0.00000000000E+00  0.88817841970E-15  0.91188000000E+02  0.91188000000E+02 0.  0.
    9900012    2    3    3    0    0 -0.69797809851E+01  0.35603858388E+02 -0.62792549131E+01  0.54367066865E+02  0.39999960531E+02 0.  0.
        -12    1    3    3    0    0  0.69797809851E+01 -0.35603858388E+02  0.62792549131E+01  0.36820933135E+02  0.00000000000E+00 0.  1.
         11    1    4    4    0    0  0.63513563598E+01 -0.31744714691E+01  0.62837830161E+01  0.94817153497E+01  0.51100000000E-03 0. -1.
        -11    1    4    4    0    0 -0.11000919537E+02  0.13714938785E+02 -0.24219737000E+01  0.17747837429E+02  0.51100000000E-03 0.  1.
         12    1    4    4    0    0 -0.23302178075E+01  0.25063391072E+02 -0.10141064229E+02  0.27137514086E+02  0.00000000000E+00 0. -1.
</event>
<event>
 8    1  0.1254059E-006  0.9118800E+02  0.7816164E-02  0.1184000E+00
        -11   -1    0    0    0    0  0.00000000000E+00  0.00000000000E+00  0.45593999997E+02  0.45594000000E+02  0.51100000000E-03 0. -1.
         11   -1    0    0    0    0 -0.00000000000E+00 -0.00000000000E+00 -0.45593999997E+02  0.45594000000E+02  0.51100000000E-03 0.  1.
         23    2    1    2    0    0  0.35527136788E-14 -0.17763568394E-14 -0.17763568394E-14  0.91188000000E+02  0.91188000000E+02 0.  0.
    9900012    2    3    3    0    0  0.30861464471E+02  0.12211603334E+02  0.15944493960E+02  0.54367080227E+02  0.39999990994E+02 0.  0.
         12    1    3    3    0    0 -0.30861464471E+02 -0.12211603334E+02 -0.15944493960E+02  0.36820919773E+02  0.00000000000E+00 0. -1.
         11    1    4    4    0    0  0.24574313489E+02 -0.55322911946E+01  0.12884968997E+02  0.28293560321E+02  0.51100000000E-03 0. -1.
        -11    1    4    4    0    0 -0.16368990947E+01  0.14077556529E+02  0.77597013642E+01  0.16157660784E+02  0.51100000000E-03 0.  1.
        -12    1    4    4    0    0  0.79240500768E+01  0.36663379991E+01 -0.47001764014E+01  0.99158591230E+01  0.00000000000E+00 0.  1.
</event>
<event>
 8    1  0.1254059E-006  0.9118800E+02  0.7816164E-02  0.1184000E+00
        -11   -1    0    0    0    0  0.00000000000E+00  0.00000000000E+00  0.45593999997E+02  0.45594000000E+02  0.51100000000E-03 0. -1.
         11   -1    0    0    0    0 -0.00000000000E+00 -0.00000000000E+00 -0.45593999997E+02  0.45594000000E+02  0.51100000000E-03 0.  1.
         23    2    1    2    0    0 -0.35527136788E-14 -0.17763568394E-14 -0.35527136788E-14  0.91188000000E+02  0.91188000000E+02 0.  0.
    9900012    2    3    3    0    0  0.28216869580E+02  0.10999209825E+02  0.20942890137E+02  0.54367095707E+02  0.40000026284E+02 0.  0.
        -12    1    3    3    0    0 -0.28216869580E+02 -0.10999209825E+02 -0.20942890137E+02  0.36820904293E+02  0.00000000000E+00 0.  1.
         11    1    4    4    0    0  0.22788128686E+02 -0.96007136920E+00  0.18528442676E+02  0.29385774353E+02  0.51100000000E-03 0. -1.
        -11    1    4    4    0    0  0.38108783413E+01  0.78788279935E+01  0.11758193418E+02  0.14657893335E+02  0.51100000000E-03 0.  1.
        -12    1    4    4    0    0  0.16178625529E+01  0.40804532007E+01 -0.93437459577E+01  0.10323428020E+02  0.00000000000E+00 0.  1.
</event>
<event>
 8    1  0.1254059E-006  0.9118800E+02  0.7816164E-02  0.1184000E+00
        -11   -1    0    0    0    0  0.00000000000E+00  0.00000000000E+00  0.45593999997E+02  0.45594000000E+02  0.51100000000E-03 0.  1.
         11   -1    0    0    0    0 -0.00000000000E+00 -0.00000000000E+00 -0.45593999997E+02  0.45594000000E+02  0.51100000000E-03 0. -1.
         23    2    1    2    0    0  0.88817841970E-15  0.00000000000E+00 -0.17763568394E-14  0.91188000000E+02  0.91188000000E+02 0.  0.
    9900012    2    3    3    0    0  0.19722112601E+01 -0.35115211416E+02  0.10900004099E+02  0.54367112186E+02  0.40000063850E+02 0.  0.
         12    1    3    3    0    0 -0.19722112601E+01  0.35115211416E+02 -0.10900004099E+02  0.36820887814E+02  0.00000000000E+00 0. -1.
         11    1    4    4    0    0  0.84818533903E+00 -0.10762901499E+01 -0.56393405354E-01  0.13714952911E+01  0.51100000000E-03 0.  1.
        -11    1    4    4    0    0  0.80023053629E+01 -0.40838402966E+02  0.57466913853E+01  0.42009957273E+02  0.51100000000E-03 0. -1.
         12    1    4    4    0    0 -0.68782794418E+01  0.67994816999E+01  0.52097061193E+01  0.10985659621E+02  0.00000000000E+00 0. -1.
</event>
<event>
 8    1  0.1254059E-006  0.9118800E+02  0.7816164E-02  0.1184000E+00
        -11   -1    0    0    0    0  0.00000000000E+00  0.00000000000E+00  0.45593999997E+02  0.45594000000E+02  0.51100000000E-03 0.  1.
         11   -1    0    0    0    0 -0.00000000000E+00 -0.00000000000E+00 -0.45593999997E+02  0.45594000000E+02  0.51100000000E-03 0. -1.
         23    2    1    2    0    0  0.17763568394E-14  0.00000000000E+00  0.00000000000E+00  0.91188000000E+02  0.91188000000E+02 0.  0.
    9900012    2    3    3    0    0 -0.11132187131E+02  0.21084215115E+02 -0.28059046786E+02  0.54367084424E+02  0.40000000561E+02 0.  0.
        -12    1    3    3    0    0  0.11132187131E+02 -0.21084215115E+02  0.28059046786E+02  0.36820915576E+02  0.00000000000E+00 0.  1.
         11    1    4    4    0    0 -0.18796492325E+02  0.17336558141E+02 -0.19568163957E+02  0.32199028135E+02  0.51100000000E-03 0. -1.
        -11    1    4    4    0    0 -0.17335471386E+01 -0.37168631369E+01 -0.92745517762E+01  0.10140885966E+02  0.51100000000E-03 0.  1.
         12    1    4    4    0    0  0.93978523334E+01  0.74645201109E+01  0.78366894726E+00  0.12027170323E+02  0.00000000000E+00 0. -1.
</event>
<event>
 8    1  0.1254059E-006  0.9118800E+02  0.7816164E-02  0.1184000E+00
        -11   -1    0    0    0    0  0.00000000000E+00  0.00000000000E+00  0.45593999997E+02  0.45594000000E+02  0.51100000000E-03 0.  1.
         11   -1    0    0    0    0 -0.00000000000E+00 -0.00000000000E+00 -0.45593999997E+02  0.45594000000E+02  0.51100000000E-03 0. -1.
         23    2    1    2    0    0  0.35527136788E-14 -0.24980018054E-15  0.00000000000E+00  0.91188000000E+02  0.91188000000E+02 0.  0.
    9900012    2    3    3    0    0 -0.29825217111E+02 -0.94831479441E-01  0.21592266430E+02  0.54367101880E+02  0.40000040356E+02 0.  0.
         12    1    3    3    0    0  0.29825217111E+02  0.94831479441E-01 -0.21592266430E+02  0.36820898120E+02  0.00000000000E+00 0. -1.
         11    1    4    4    0    0  0.39350228309E+01  0.16974478813E+01  0.61984391391E+01  0.75356739587E+01  0.51100000000E-03 0. -1.
        -11    1    4    4    0    0 -0.80449042738E+01  0.10112197130E+02  0.13101327692E+02  0.18401679356E+02  0.51100000000E-03 0.  1.
         12    1    4    4    0    0 -0.25715335668E+02 -0.11904476491E+02  0.22924995987E+01  0.28429748565E+02  0.00000000000E+00 0. -1.
</event>
<event>
 8    1  0.1254059E-006  0.9118800E+02  0.7816164E-02  0.1184000E+00
        -11   -1    0    0    0    0  0.00000000000E+00  0.00000000000E+00  0.45593999997E+02  0.45594000000E+02  0.51100000000E-03 0. -1.
         11   -1    0    0    0    0 -0.00000000000E+00 -0.00000000000E+00 -0.45593999997E+02  0.45594000000E+02  0.51100000000E-03 0.  1.
         23    2    1    2    0    0  0.88817841970E-15  0.00000000000E+00  0.00000000000E+00  0.91188000000E+02  0.91188000000E+02 0.  0.
    9900012    2    3    3    0    0 -0.21437391858E+01 -0.16026912781E+02 -0.33080508703E+02  0.54367114527E+02  0.40000069188E+02 0.  0.
         12    1    3    3    0    0  0.21437391858E+01  0.16026912781E+02  0.33080508703E+02  0.36820885473E+02  0.00000000000E+00 0. -1.
         11    1    4    4    0    0 -0.12876720668E+02 -0.22388002628E+00 -0.78676004068E+01  0.15091692875E+02  0.51100000000E-03 0. -1.
        -11    1    4    4    0    0  0.15753494558E+02 -0.10507220871E+02 -0.25744638726E+02  0.31958734403E+02  0.51100000000E-03 0.  1.
        -12    1    4    4    0    0 -0.50205130763E+01 -0.52958118833E+01  0.53173043035E+00  0.73166872492E+01  0.00000000000E+00 0.  1.
</event>
<event>
 8    1  0.1254059E-006  0.9118800E+02  0.7816164E-02  0.1184000E+00
        -11   -1    0    0    0    0  0.00000000000E+00  0.00000000000E+00  0.45593999997E+02  0.45594000000E+02  0.51100000000E-03 0.  1.
         11   -1    0    0    0    0 -0.00000000000E+00 -0.00000000000E+00 -0.45593999997E+02  0.45594000000E+02  0.51100000000E-03 0. -1.
         23    2    1    2    0    0  0.00000000000E+00  0.00000000000E+00  0.35527136788E-14  0.91188000000E+02  0.91188000000E+02 0.  0.
    9900012    2    3    3    0    0  0.34501794380E+01 -0.25213786661E+02  0.26610904327E+02  0.54367095543E+02  0.40000025909E+02 0.  0.
         12    1    3    3    0    0 -0.34501794380E+01  0.25213786661E+02 -0.26610904327E+02  0.36820904457E+02  0.00000000000E+00 0. -1.
         11    1    4    4    0    0  0.12664267940E+02 -0.17275850352E+01  0.75354159128E+01  0.14837477068E+02  0.51100000000E-03 0. -1.
        -11    1    4    4    0    0  0.68381049584E+01 -0.10830132065E+02  0.21434070600E+01  0.12986363388E+02  0.51100000000E-03 0.  1.
         12    1    4    4    0    0 -0.16052193460E+02 -0.12656069561E+02  0.16932081354E+02  0.26543255087E+02  0.00000000000E+00 0. -1.
</event>
<event>
 8    1  0.1254059E-006  0.9118800E+02  0.7816164E-02  0.1184000E+00
        -11   -1    0    0    0    0  0.00000000000E+00  0.00000000000E+00  0.45593999997E+02  0.45594000000E+02  0.51100000000E-03 0.  1.
         11   -1    0    0    0    0 -0.00000000000E+00 -0.00000000000E+00 -0.45593999997E+02  0.45594000000E+02  0.51100000000E-03 0. -1.
         23    2    1    2    0    0  0.22204460493E-15  0.35527136788E-14  0.00000000000E+00  0.91188000000E+02  0.91188000000E+02 0.  0.
    9900012    2    3    3    0    0  0.19576922219E+01 -0.14807954292E+02 -0.33655184902E+02  0.54367088280E+02  0.40000009351E+02 0.  0.
        -12    1    3    3    0    0 -0.19576922219E+01  0.14807954292E+02  0.33655184902E+02  0.36820911720E+02  0.00000000000E+00 0.  1.
         11    1    4    4    0    0 -0.27651478663E+01  0.10040965852E+02 -0.21047650967E+02  0.23483412219E+02  0.51100000000E-03 0. -1.
        -11    1    4    4    0    0 -0.29259426460E+01 -0.14461374721E+01 -0.30673360740E+01  0.44789513068E+01  0.51100000000E-03 0.  1.
        -12    1    4    4    0    0  0.76487827342E+01 -0.23402782672E+02 -0.95401978604E+01  0.26404724754E+02  0.00000000000E+00 0.  1.
</event>
<event>
 8    1  0.1254059E-006  0.9118800E+02  0.7816164E-02  0.1184000E+00
        -11   -1    0    0    0    0  0.00000000000E+00  0.00000000000E+00  0.45593999997E+02  0.45594000000E+02  0.51100000000E-03 0.  1.
         11   -1    0    0    0    0 -0.00000000000E+00 -0.00000000000E+00 -0.45593999997E+02  0.45594000000E+02  0.51100000000E-03 0. -1.
         23    2    1    2    0    0  0.35527136788E-14  0.00000000000E+00  0.35527136788E-14  0.91188000000E+02  0.91188000000E+02 0.  0.
    9900012    2    3    3    0    0  0.18523001868E+02 -0.15483734664E+02 -0.27801721210E+02  0.54367036683E+02  0.39999891726E+02 0.  0.
        -12    1    3    3    0    0 -0.18523001868E+02  0.15483734664E+02  0.27801721210E+02  0.36820963317E+02  0.00000000000E+00 0.  1.
         11    1    4    4    0    0  0.97275696162E+01  0.45250641668E+00 -0.74638301651E+01  0.12269439013E+02  0.51100000000E-03 0. -1.
        -11    1    4    4    0    0 -0.76251545290E+00  0.85167779843E+01  0.51932144125E+00  0.85665997963E+01  0.51100000000E-03 0.  1.
         12    1    4    4    0    0  0.95579477046E+01 -0.24453019065E+02 -0.20857212486E+02  0.33530997874E+02  0.00000000000E+00 0. -1.
</event>
<event>
 8    1  0.1254059E-006  0.9118800E+02  0.7816164E-02  0.1184000E+00
        -11   -1    0    0    0    0  0.00000000000E+00  0.00000000000E+00  0.45593999997E+02  0.45594000000E+02  0.51100000000E-03 0.  1.
         11   -1    0    0    0    0 -0.00000000000E+00 -0.00000000000E+00 -0.45593999997E+02  0.45594000000E+02  0.51100000000E-03 0. -1.
         23    2    1    2    0    0  0.53290705182E-14  0.00000000000E+00 -0.71054273576E-14  0.91188000000E+02  0.91188000000E+02 0.  0.
    9900012    2    3    3    0    0 -0.15746892609E+02  0.20793845870E+02 -0.25989070393E+02  0.54367076155E+02  0.39999981710E+02 0.  0.
         12    1    3    3    0    0  0.15746892609E+02 -0.20793845870E+02  0.25989070393E+02  0.36820923845E+02  0.00000000000E+00 0. -1.
         11    1    4    4    0    0 -0.15026066068E+01  0.13662414877E+01  0.30693073280E+01  0.36803654917E+01  0.51100000000E-03 0.  1.
        -11    1    4    4    0    0 -0.12390505591E+01  0.79351590617E+01 -0.32080099020E+02  0.33070148911E+02  0.51100000000E-03 0. -1.
         12    1    4    4    0    0 -0.13005235443E+02  0.11492445321E+02  0.30217212984E+01  0.17616561752E+02  0.00000000000E+00 0. -1.
</event>
<event>
 8    1  0.1254059E-006  0.9118800E+02  0.7816164E-02  0.1184000E+00
        -11   -1    0    0    0    0  0.00000000000E+00  0.00000000000E+00  0.45593999997E+02  0.45594000000E+02  0.51100000000E-03 0.  1.
         11   -1    0    0    0    0 -0.00000000000E+00 -0.00000000000E+00 -0.45593999997E+02  0.45594000000E+02  0.51100000000E-03 0. -1.
         23    2    1    2    0    0  0.00000000000E+00 -0.17763568394E-14  0.35527136788E-14  0.91188000000E+02  0.91188000000E+02 0.  0.
    9900012    2    3    3    0    0  0.20102111611E+02  0.14630766561E+02 -0.27159236339E+02  0.54367104575E+02  0.40000046500E+02 0.  0.
        -12    1    3    3    0    0 -0.20102111611E+02 -0.14630766561E+02  0.27159236339E+02  0.36820895425E+02  0.00000000000E+00 0.  1.
         11    1    4    4    0    0  0.10678091055E+02  0.49402573295E+01 -0.99216654447E+01  0.15390491107E+02  0.51100000000E-03 0. -1.
        -11    1    4    4    0    0  0.20460660342E+01  0.14677255215E+02  0.44986233418E+01  0.15486956418E+02  0.51100000000E-03 0.  1.
         12    1    4    4    0    0  0.73779545213E+01 -0.49867459838E+01 -0.21736194236E+02  0.23489657049E+02  0.00000000000E+00 0. -1.
</event>
<event>
 8    1  0.1254059E-006  0.9118800E+02  0.7816164E-02  0.1184000E+00
        -11   -1    0    0    0    0  0.00000000000E+00  0.00000000000E+00  0.45593999997E+02  0.45594000000E+02  0.51100000000E-03 0. -1.
         11   -1    0    0    0    0 -0.00000000000E+00 -0.00000000000E+00 -0.45593999997E+02  0.45594000000E+02  0.51100000000E-03 0.  1.
         23    2    1    2    0    0  0.00000000000E+00  0.00000000000E+00  0.00000000000E+00  0.91188000000E+02  0.91188000000E+02 0.  0.
    9900012    2    3    3    0    0 -0.33082742171E+02 -0.20935987081E+01  0.16029199724E+02  0.54366997449E+02  0.39999802284E+02 0.  0.
        -12    1    3    3    0    0  0.33082742171E+02  0.20935987081E+01 -0.16029199724E+02  0.36821002551E+02  0.00000000000E+00 0.  1.
         11    1    4    4    0    0 -0.24470759402E+02 -0.17611077920E+01 -0.61770312284E+00  0.24541823970E+02  0.51100000000E-03 0. -1.
        -11    1    4    4    0    0  0.79215035935E+01 -0.10204790776E+01  0.72980382901E+01  0.10819101620E+02  0.51100000000E-03 0.  1.
        -12    1    4    4    0    0 -0.16533486362E+02  0.68798816152E+00  0.93488645564E+01  0.19006071859E+02  0.00000000000E+00 0.  1.
</event>
<event>
 8    1  0.1254059E-006  0.9118800E+02  0.7816164E-02  0.1184000E+00
        -11   -1    0    0    0    0  0.00000000000E+00  0.00000000000E+00  0.45593999997E+02  0.45594000000E+02  0.51100000000E-03 0.  1.
         11   -1    0    0    0    0 -0.00000000000E+00 -0.00000000000E+00 -0.45593999997E+02  0.45594000000E+02  0.51100000000E-03 0. -1.
         23    2    1    2    0    0  0.00000000000E+00  0.00000000000E+00  0.00000000000E+00  0.91188000000E+02  0.91188000000E+02 0.  0.
    9900012    2    3    3    0    0 -0.25357588015E+02 -0.19619819461E+02 -0.18106256541E+02  0.54367066938E+02  0.39999960699E+02 0.  0.
        -12    1    3    3    0    0  0.25357588015E+02  0.19619819461E+02  0.18106256541E+02  0.36820933062E+02  0.00000000000E+00 0.  1.
         11    1    4    4    0    0 -0.33390747469E+02 -0.20250306379E+02 -0.11002721866E+02  0.40571872199E+02  0.51100000000E-03 0. -1.
        -11    1    4    4    0    0  0.29398146078E+01 -0.38090851832E+01 -0.15683504021E+01  0.50607670472E+01  0.51100000000E-03 0.  1.
        -12    1    4    4    0    0  0.50933448462E+01  0.44395721021E+01 -0.55351842731E+01  0.87344276922E+01  0.00000000000E+00 0.  1.
</event>
<event>
 8    1  0.1254059E-006  0.9118800E+02  0.7816164E-02  0.1184000E+00
        -11   -1    0    0    0    0  0.00000000000E+00  0.00000000000E+00  0.45593999997E+02  0.45594000000E+02  0.51100000000E-03 0.  1.
         11   -1    0    0    0    0 -0.00000000000E+00 -0.00000000000E+00 -0.45593999997E+02  0.45594000000E+02  0.51100000000E-03 0. -1.
         23    2    1    2    0    0  0.00000000000E+00  0.00000000000E+00  0.00000000000E+00  0.91188000000E+02  0.91188000000E+02 0.  0.
    9900012    2    3    3    0    0 -0.27216172666E+02  0.11166846201E+02  0.22144114098E+02  0.54367077987E+02  0.39999985887E+02 0.  0.
         12    1    3    3    0    0  0.27216172666E+02 -0.11166846201E+02 -0.22144114098E+02  0.36820922013E+02  0.00000000000E+00 0. -1.
         11    1    4    4    0    0 -0.13170618272E+02  0.21763166713E+01 -0.40459793631E+01  0.13948888457E+02  0.51100000000E-03 0. -1.
        -11    1    4    4    0    0 -0.21064587189E+02  0.84049225842E+01  0.14983830542E+02  0.27182250368E+02  0.51100000000E-03 0.  1.
        -12    1    4    4    0    0  0.70190327953E+01  0.58560694553E+00  0.11206262920E+02  0.13235939162E+02  0.00000000000E+00 0.  1.
</event>
<event>
 8    1  0.1254059E-006  0.9118800E+02  0.7816164E-02  0.1184000E+00
        -11   -1    0    0    0    0  0.00000000000E+00  0.00000000000E+00  0.45593999997E+02  0.45594000000E+02  0.51100000000E-03 0. -1.
         11   -1    0    0    0    0 -0.00000000000E+00 -0.00000000000E+00 -0.45593999997E+02  0.45594000000E+02  0.51100000000E-03 0.  1.
         23    2    1    2    0    0  0.00000000000E+00  0.00000000000E+00  0.17763568394E-14  0.91188000000E+02  0.91188000000E+02 0.  0.
    9900012    2    3    3    0    0 -0.30917441178E+02 -0.17979219595E+02  0.87542708383E+01  0.54367112394E+02  0.40000064324E+02 0.  0.
        -12    1    3    3    0    0  0.30917441178E+02  0.17979219595E+02 -0.87542708383E+01  0.36820887606E+02  0.00000000000E+00 0.  1.
         11    1    4    4    0    0 -0.15738988047E+02  0.18761297195E+01 -0.49848337338E+01  0.16615780905E+02  0.51100000000E-03 0. -1.
        -11    1    4    4    0    0 -0.13439234651E+02 -0.13434532038E+02 -0.34559845713E+01  0.19314334280E+02  0.51100000000E-03 0.  1.
        -12    1    4    4    0    0 -0.17392184802E+01 -0.64208172760E+01  0.17195089143E+02  0.18436997208E+02  0.00000000000E+00 0.  1.
</event>
<event>
 8    1  0.1254059E-006  0.9118800E+02  0.7816164E-02  0.1184000E+00
        -11   -1    0    0    0    0  0.00000000000E+00  0.00000000000E+00  0.45593999997E+02  0.45594000000E+02  0.51100000000E-03 0. -1.
         11   -1    0    0    0    0 -0.00000000000E+00 -0.00000000000E+00 -0.45593999997E+02  0.45594000000E+02  0.51100000000E-03 0.  1.
         23    2    1    2    0    0  0.35527136788E-14 -0.17763568394E-14  0.00000000000E+00  0.91188000000E+02  0.91188000000E+02 0.  0.
    9900012    2    3    3    0    0  0.22297837880E+02 -0.15034921349E+02  0.25150300658E+02  0.54367081254E+02  0.39999993334E+02 0.  0.
        -12    1    3    3    0    0 -0.22297837880E+02  0.15034921349E+02 -0.25150300658E+02  0.36820918746E+02  0.00000000000E+00 0.  1.
         11    1    4    4    0    0  0.94553010409E+01  0.73899319355E+01  0.22671206259E+02  0.25651460100E+02  0.51100000000E-03 0. -1.
        -11    1    4    4    0    0  0.34125872172E+01 -0.10950109950E+02  0.66897089239E+01  0.13277908916E+02  0.51100000000E-03 0.  1.
        -12    1    4    4    0    0  0.94299496223E+01 -0.11474743335E+02 -0.42106145240E+01  0.15437712238E+02  0.00000000000E+00 0.  1.
</event>
<event>
 8    1  0.1254059E-006  0.9118800E+02  0.7816164E-02  0.1184000E+00
        -11   -1    0    0    0    0  0.00000000000E+00  0.00000000000E+00  0.45593999997E+02  0.45594000000E+02  0.51100000000E-03 0.  1.
         11   -1    0    0    0    0 -0.00000000000E+00 -0.00000000000E+00 -0.45593999997E+02  0.45594000000E+02  0.51100000000E-03 0. -1.
         23    2    1    2    0    0  0.00000000000E+00  0.00000000000E+00  0.00000000000E+00  0.91188000000E+02  0.91188000000E+02 0.  0.
    9900012    2    3    3    0    0 -0.43945384204E+01 -0.29746482503E+02 -0.21251251012E+02  0.54367070370E+02  0.39999968523E+02 0.  0.
         12    1    3    3    0    0  0.43945384204E+01  0.29746482503E+02  0.21251251012E+02  0.36820929630E+02  0.00000000000E+00 0. -1.
         11    1    4    4    0    0  0.54675284489E+00 -0.11042189135E+02 -0.55689272369E+01  0.12379088432E+02  0.51100000000E-03 0. -1.
        -11    1    4    4    0    0 -0.36367072265E+01 -0.27482415893E+02 -0.51174446636E+01  0.28190371812E+02  0.51100000000E-03 0.  1.
        -12    1    4    4    0    0 -0.13045840387E+01  0.87781225245E+01 -0.10564879111E+02  0.13797610126E+02  0.00000000000E+00 0.  1.
</event>
<event>
 8    1  0.1254059E-006  0.9118800E+02  0.7816164E-02  0.1184000E+00
        -11   -1    0    0    0    0  0.00000000000E+00  0.00000000000E+00  0.45593999997E+02  0.45594000000E+02  0.51100000000E-03 0.  1.
         11   -1    0    0    0    0 -0.00000000000E+00 -0.00000000000E+00 -0.45593999997E+02  0.45594000000E+02  0.51100000000E-03 0. -1.
         23    2    1    2    0    0  0.00000000000E+00  0.17763568394E-14 -0.35527136788E-14  0.91188000000E+02  0.91188000000E+02 0.  0.
    9900012    2    3    3    0    0  0.28685445468E+02 -0.65048391562E+01  0.22149754823E+02  0.54367090820E+02  0.40000015142E+02 0.  0.
        -12    1    3    3    0    0 -0.28685445468E+02  0.65048391562E+01 -0.22149754823E+02  0.36820909180E+02  0.00000000000E+00 0.  1.
         11    1    4    4    0    0  0.51907929992E+01  0.11157295940E+02 -0.44463265365E+01  0.13084319034E+02  0.51100000000E-03 0. -1.
        -11    1    4    4    0    0  0.50236545986E+01 -0.43756249431E+01  0.13438222899E+02  0.14998967768E+02  0.51100000000E-03 0.  1.
         12    1    4    4    0    0  0.18470997870E+02 -0.13286510153E+02  0.13157858461E+02  0.26283804018E+02  0.00000000000E+00 0. -1.
</event>
<event>
 8    1  0.1254059E-006  0.9118800E+02  0.7816164E-02  0.1184000E+00
        -11   -1    0    0    0    0  0.00000000000E+00  0.00000000000E+00  0.45593999997E+02  0.45594000000E+02  0.51100000000E-03 0.  1.
         11   -1    0    0    0    0 -0.00000000000E+00 -0.00000000000E+00 -0.45593999997E+02  0.45594000000E+02  0.51100000000E-03 0. -1.
         23    2    1    2    0    0 -0.35527136788E-14  0.00000000000E+00  0.17763568394E-14  0.91188000000E+02  0.91188000000E+02 0.  0.
    9900012    2    3    3    0    0 -0.18279307720E+02  0.30339421228E+02  0.10058099579E+02  0.54367096449E+02  0.40000027975E+02 0.  0.
         12    1    3    3    0    0  0.18279307720E+02 -0.30339421228E+02 -0.10058099579E+02  0.36820903551E+02  0.00000000000E+00 0. -1.
         11    1    4    4    0    0 -0.19333876934E+02 -0.13164607319E+01  0.10203047430E+01  0.19405486034E+02  0.51100000000E-03 0.  1.
        -11    1    4    4    0    0 -0.94415070928E+00  0.25908783045E+02  0.25249674597E+01  0.26048645269E+02  0.51100000000E-03 0. -1.
        -12    1    4    4    0    0  0.19987199233E+01  0.57470989145E+01  0.65128273764E+01  0.89129651463E+01  0.00000000000E+00 0.  1.
</event>
<event>
 8    1  0.1254059E-006  0.9118800E+02  0.7816164E-02  0.1184000E+00
        -11   -1    0    0    0    0  0.00000000000E+00  0.00000000000E+00  0.45593999997E+02  0.45594000000E+02  0.51100000000E-03 0.  1.
         11   -1    0    0    0    0 -0.00000000000E+00 -0.00000000000E+00 -0.45593999997E+02  0.45594000000E+02  0.51100000000E-03 0. -1.
         23    2    1    2    0    0 -0.17763568394E-14  0.00000000000E+00 -0.35527136788E-14  0.91188000000E+02  0.91188000000E+02 0.  0.
    9900012    2    3    3    0    0 -0.14288332920E+02  0.20124904803E+02  0.27324209026E+02  0.54367073207E+02  0.39999974991E+02 0.  0.
         12    1    3    3    0    0  0.14288332920E+02 -0.20124904803E+02 -0.27324209026E+02  0.36820926793E+02  0.00000000000E+00 0. -1.
         11    1    4    4    0    0  0.27132506029E+01  0.92890970693E+00 -0.68135223276E+01  0.73924751503E+01  0.51100000000E-03 0. -1.
        -11    1    4    4    0    0 -0.17507967640E+02  0.73419963764E+01  0.27386525501E+02  0.33323499530E+02  0.51100000000E-03 0.  1.
        -12    1    4    4    0    0  0.50638411687E+00  0.11853998720E+02  0.67512058529E+01  0.13651098527E+02  0.00000000000E+00 0.  1.
</event>
<event>
 8    1  0.1254059E-006  0.9118800E+02  0.7816164E-02  0.1184000E+00
        -11   -1    0    0    0    0  0.00000000000E+00  0.00000000000E+00  0.45593999997E+02  0.45594000000E+02  0.51100000000E-03 0.  1.
         11   -1    0    0    0    0 -0.00000000000E+00 -0.00000000000E+00 -0.45593999997E+02  0.45594000000E+02  0.51100000000E-03 0. -1.
         23    2    1    2    0    0 -0.17763568394E-14 -0.88817841970E-15 -0.71054273576E-14  0.91188000000E+02  0.91188000000E+02 0.  0.
    9900012    2    3    3    0    0 -0.12279213495E+02  0.57628537527E+01  0.34231356415E+02  0.54367145455E+02  0.40000139693E+02 0.  0.
         12    1    3    3    0    0  0.12279213495E+02 -0.57628537527E+01 -0.34231356415E+02  0.36820854545E+02  0.00000000000E+00 0. -1.
         11    1    4    4    0    0 -0.69952812774E+01  0.55060899186E+01 -0.56463906758E+00  0.89201907983E+01  0.51100000000E-03 0. -1.
        -11    1    4    4    0    0  0.82847762121E+01  0.45543261229E+01  0.28232677510E+02  0.29773536622E+02  0.51100000000E-03 0.  1.
        -12    1    4    4    0    0 -0.13568708430E+02 -0.42975622888E+01  0.65633179726E+01  0.15673418034E+02  0.00000000000E+00 0.  1.
</event>
<event>
 8    1  0.1254059E-006  0.9118800E+02  0.7816164E-02  0.1184000E+00
        -11   -1    0    0    0    0  0.00000000000E+00  0.00000000000E+00  0.45593999997E+02  0.45594000000E+02  0.51100000000E-03 0. -1.
         11   -1    0    0    0    0 -0.00000000000E+00 -0.00000000000E+00 -0.45593999997E+02  0.45594000000E+02  0.51100000000E-03 0.  1.
         23    2    1    2    0    0 -0.17763568394E-14  0.25535129566E-14  0.00000000000E+00  0.91188000000E+02  0.91188000000E+02 0.  0.
    9900012    2    3    3    0    0  0.12980621057E+02  0.67882970948E+00 -0.34450297279E+02  0.54367077749E+02  0.39999985345E+02 0.  0.
         12    1    3    3    0    0 -0.12980621057E+02 -0.67882970948E+00  0.34450297279E+02  0.36820922251E+02  0.00000000000E+00 0. -1.
         11    1    4    4    0    0 -0.48433777821E+01 -0.82936528540E+01 -0.74813120654E+01  0.12174276836E+02  0.51100000000E-03 0. -1.
        -11    1    4    4    0    0  0.90119139448E+00  0.13378471536E+02 -0.18267620286E+02  0.22660573641E+02  0.51100000000E-03 0.  1.
        -12    1    4    4    0    0  0.16922807444E+02 -0.44059889722E+01 -0.87013649279E+01  0.19532227273E+02  0.00000000000E+00 0.  1.
</event>
<event>
 8    1  0.1254059E-006  0.9118800E+02  0.7816164E-02  0.1184000E+00
        -11   -1    0    0    0    0  0.00000000000E+00  0.00000000000E+00  0.45593999997E+02  0.45594000000E+02  0.51100000000E-03 0. -1.
         11   -1    0    0    0    0 -0.00000000000E+00 -0.00000000000E+00 -0.45593999997E+02  0.45594000000E+02  0.51100000000E-03 0.  1.
         23    2    1    2    0    0  0.88817841970E-15  0.00000000000E+00  0.00000000000E+00  0.91188000000E+02  0.91188000000E+02 0.  0.
    9900012    2    3    3    0    0 -0.67716941521E+01  0.35876934238E+02 -0.47716989596E+01  0.54367090683E+02  0.40000014830E+02 0.  0.
         12    1    3    3    0    0  0.67716941521E+01 -0.35876934238E+02  0.47716989596E+01  0.36820909317E+02  0.00000000000E+00 0. -1.
         11    1    4    4    0    0 -0.92968286689E+01  0.13880308134E+02  0.68411268670E-01  0.16706246064E+02  0.51100000000E-03 0. -1.
        -11    1    4    4    0    0 -0.90815386650E+01 -0.21593295551E+01  0.28842411714E+01  0.97701533278E+01  0.51100000000E-03 0.  1.
         12    1    4    4    0    0  0.11606673182E+02  0.24155955658E+02 -0.77243513997E+01  0.27890691291E+02  0.00000000000E+00 0. -1.
</event>
<event>
 8    1  0.1254059E-006  0.9118800E+02  0.7816164E-02  0.1184000E+00
        -11   -1    0    0    0    0  0.00000000000E+00  0.00000000000E+00  0.45593999997E+02  0.45594000000E+02  0.51100000000E-03 0.  1.
         11   -1    0    0    0    0 -0.00000000000E+00 -0.00000000000E+00 -0.45593999997E+02  0.45594000000E+02  0.51100000000E-03 0. -1.
         23    2    1    2    0    0  0.00000000000E+00  0.13322676296E-14  0.17763568394E-14  0.91188000000E+02  0.91188000000E+02 0.  0.
    9900012    2    3    3    0    0  0.35470624418E+02 -0.18881803859E+01 -0.96977200375E+01  0.54367133692E+02  0.40000112876E+02 0.  0.
        -12    1    3    3    0    0 -0.35470624418E+02  0.18881803859E+01  0.96977200375E+01  0.36820866308E+02  0.00000000000E+00 0.  1.
         11    1    4    4    0    0  0.11127831577E+02 -0.46089159377E+01  0.19022309649E+01  0.12193819115E+02  0.51100000000E-03 0. -1.
        -11    1    4    4    0    0  0.16273203421E+02  0.13910573836E+02 -0.17021170649E+02  0.27350346699E+02  0.51100000000E-03 0.  1.
        -12    1    4    4    0    0  0.80695894208E+01 -0.11189838284E+02  0.54212196467E+01  0.14822967877E+02  0.00000000000E+00 0.  1.
</event>
<event>
 8    1  0.1254059E-006  0.9118800E+02  0.7816164E-02  0.1184000E+00
        -11   -1    0    0    0    0  0.00000000000E+00  0.00000000000E+00  0.45593999997E+02  0.45594000000E+02  0.51100000000E-03 0.  1.
         11   -1    0    0    0    0 -0.00000000000E+00 -0.00000000000E+00 -0.45593999997E+02  0.45594000000E+02  0.51100000000E-03 0. -1.
         23    2    1    2    0    0  0.00000000000E+00  0.00000000000E+00  0.00000000000E+00  0.91188000000E+02  0.91188000000E+02 0.  0.
    9900012    2    3    3    0    0  0.26942118036E+02 -0.17726937007E+02 -0.17766779972E+02  0.54367075372E+02  0.39999979926E+02 0.  0.
         12    1    3    3    0    0 -0.26942118036E+02  0.17726937007E+02  0.17766779972E+02  0.36820924628E+02  0.00000000000E+00 0. -1.
         11    1    4    4    0    0  0.50547932324E+01 -0.16707947379E+02 -0.12959283779E+02  0.21740503135E+02  0.51100000000E-03 0. -1.
        -11    1    4    4    0    0  0.38574063880E+01  0.61977756024E+01  0.68208551625E+01  0.99907993609E+01  0.51100000000E-03 0.  1.
        -12    1    4    4    0    0  0.18029918415E+02 -0.72167652301E+01 -0.11628351355E+02  0.22635772876E+02  0.00000000000E+00 0.  1.
</event>
<event>
 8    1  0.1365657E-006  0.9118800E+02  0.7816164E-02  0.1184000E+00
        -11   -1    0    0    0    0  0.00000000000E+00  0.00000000000E+00  0.45593999997E+02  0.45594000000E+02  0.51100000000E-03 0.  1.
         11   -1    0    0    0    0 -0.00000000000E+00 -0.00000000000E+00 -0.45593999997E+02  0.45594000000E+02  0.51100000000E-03 0. -1.
         23    2    1    2    0    0  0.00000000000E+00  0.35527136788E-14  0.00000000000E+00  0.91188000000E+02  0.91188000000E+02 0.  0.
    9900012    2    3    3    0    0 -0.13841427117E+02  0.28524247358E+02  0.18722923156E+02  0.54367276983E+02  0.40000439537E+02 0.  0.
         12    1    3    3    0    0  0.13841427117E+02 -0.28524247358E+02 -0.18722923156E+02  0.36820723017E+02  0.00000000000E+00 0. -1.
         11    1    4    4    0    0 -0.11281644892E+02  0.93802688098E+01 -0.16430863919E+01  0.14763627182E+02  0.51100000000E-03 0. -1.
        -11    1    4    4    0    0 -0.14442774534E+02  0.16154603638E+02  0.12044253069E+02  0.24791712067E+02  0.51100000000E-03 0.  1.
         12    1    4    4    0    0  0.11882992309E+02  0.29893749097E+01  0.83217564787E+01  0.14811937735E+02  0.00000000000E+00 0. -1.
</event>
<event>
 8    1  0.1254059E-006  0.9118800E+02  0.7816164E-02  0.1184000E+00
        -11   -1    0    0    0    0  0.00000000000E+00  0.00000000000E+00  0.45593999997E+02  0.45594000000E+02  0.51100000000E-03 0.  1.
         11   -1    0    0    0    0 -0.00000000000E+00 -0.00000000000E+00 -0.45593999997E+02  0.45594000000E+02  0.51100000000E-03 0. -1.
         23    2    1    2    0    0  0.11102230246E-14  0.00000000000E+00  0.00000000000E+00  0.91188000000E+02  0.91188000000E+02 0.  0.
    9900012    2    3    3    0    0  0.11189091812E+01  0.58494549557E+01  0.36336105797E+02  0.54367072995E+02  0.39999974507E+02 0.  0.
         12    1    3    3    0    0 -0.11189091812E+01 -0.58494549557E+01 -0.36336105797E+02  0.36820927005E+02  0.00000000000E+00 0. -1.
         11    1    4    4    0    0  0.51648804357E+01  0.22144723180E+01  0.19524222779E+02  0.20316868679E+02  0.51100000000E-03 0.  1.
        -11    1    4    4    0    0  0.40980659447E+01  0.82255546790E+01  0.21652938517E+02  0.23522407210E+02  0.51100000000E-03 0. -1.
         12    1    4    4    0    0 -0.81440371992E+01 -0.45905720413E+01 -0.48410554987E+01  0.10527797106E+02  0.00000000000E+00 0. -1.
</event>
<event>
 8    1  0.1254059E-006  0.9118800E+02  0.7816164E-02  0.1184000E+00
        -11   -1    0    0    0    0  0.00000000000E+00  0.00000000000E+00  0.45593999997E+02  0.45594000000E+02  0.51100000000E-03 0.  1.
         11   -1    0    0    0    0 -0.00000000000E+00 -0.00000000000E+00 -0.45593999997E+02  0.45594000000E+02  0.51100000000E-03 0. -1.
         23    2    1    2    0    0  0.35527136788E-14  0.00000000000E+00  0.35527136788E-14  0.91188000000E+02  0.91188000000E+02 0.  0.
    9900012    2    3    3    0    0 -0.19389137601E+02 -0.22509175194E+02 -0.21752654403E+02  0.54367087486E+02  0.40000007542E+02 0.  0.
        -12    1    3    3    0    0  0.19389137601E+02  0.22509175194E+02  0.21752654403E+02  0.36820912514E+02  0.00000000000E+00 0.  1.
         11    1    4    4    0    0  0.20649081695E+01  0.28790721727E+01 -0.32493141932E+00  0.35578761941E+01  0.51100000000E-03 0. -1.
        -11    1    4    4    0    0  0.75911586309E+01 -0.30903932615E+01  0.35322864980E+00  0.82037180967E+01  0.51100000000E-03 0.  1.
         12    1    4    4    0    0 -0.29045204401E+02 -0.22297854105E+02 -0.21780951633E+02  0.42605493195E+02  0.00000000000E+00 0. -1.
</event>
<event>
 8    1  0.1254059E-006  0.9118800E+02  0.7816164E-02  0.1184000E+00
        -11   -1    0    0    0    0  0.00000000000E+00  0.00000000000E+00  0.45593999997E+02  0.45594000000E+02  0.51100000000E-03 0. -1.
         11   -1    0    0    0    0 -0.00000000000E+00 -0.00000000000E+00 -0.45593999997E+02  0.45594000000E+02  0.51100000000E-03 0.  1.
         23    2    1    2    0    0  0.44408920985E-15  0.35527136788E-14 -0.71054273576E-14  0.91188000000E+02  0.91188000000E+02 0.  0.
    9900012    2    3    3    0    0  0.22442679591E+01  0.30482677596E+02 -0.20531659551E+02  0.54367089962E+02  0.40000013187E+02 0.  0.
         12    1    3    3    0    0 -0.22442679591E+01 -0.30482677596E+02  0.20531659551E+02  0.36820910038E+02  0.00000000000E+00 0. -1.
         11    1    4    4    0    0 -0.12018228135E+02  0.31015572906E+01 -0.21071782460E+01  0.12589585599E+02  0.51100000000E-03 0. -1.
        -11    1    4    4    0    0  0.47229740823E+01 -0.49294135422E+00  0.27581817469E+01  0.54915427860E+01  0.51100000000E-03 0.  1.
        -12    1    4    4    0    0  0.95395220121E+01  0.27874061659E+02 -0.21182663052E+02  0.36285961577E+02  0.00000000000E+00 0.  1.
</event>
<event>
 8    1  0.1254059E-006  0.9118800E+02  0.7816164E-02  0.1184000E+00
        -11   -1    0    0    0    0  0.00000000000E+00  0.00000000000E+00  0.45593999997E+02  0.45594000000E+02  0.51100000000E-03 0.  1.
         11   -1    0    0    0    0 -0.00000000000E+00 -0.00000000000E+00 -0.45593999997E+02  0.45594000000E+02  0.51100000000E-03 0. -1.
         23    2    1    2    0    0 -0.71054273576E-14  0.17763568394E-14  0.88817841970E-15  0.91188000000E+02  0.91188000000E+02 0.  0.
    9900012    2    3    3    0    0  0.33037210053E+02 -0.14555252049E+02 -0.72434341540E+01  0.54367082729E+02  0.39999996698E+02 0.  0.
        -12    1    3    3    0    0 -0.33037210053E+02  0.14555252049E+02  0.72434341540E+01  0.36820917271E+02  0.00000000000E+00 0.  1.
         11    1    4    4    0    0 -0.43967149590E+01 -0.12129054368E+02 -0.64052961863E+01  0.14403918973E+02  0.51100000000E-03 0. -1.
        -11    1    4    4    0    0  0.27940587554E+01 -0.36115556903E+01  0.23884984772E+01  0.51531567091E+01  0.51100000000E-03 0.  1.
         12    1    4    4    0    0  0.34639866257E+02  0.11853580090E+01 -0.32266364448E+01  0.34810007047E+02  0.00000000000E+00 0. -1.
</event>
<event>
 8    1  0.1254059E-006  0.9118800E+02  0.7816164E-02  0.1184000E+00
        -11   -1    0    0    0    0  0.00000000000E+00  0.00000000000E+00  0.45593999997E+02  0.45594000000E+02  0.51100000000E-03 0. -1.
         11   -1    0    0    0    0 -0.00000000000E+00 -0.00000000000E+00 -0.45593999997E+02  0.45594000000E+02  0.51100000000E-03 0.  1.
         23    2    1    2    0    0  0.00000000000E+00 -0.71054273576E-14  0.17763568394E-14  0.91188000000E+02  0.91188000000E+02 0.  0.
    9900012    2    3    3    0    0 -0.13677386167E+02  0.33657586869E+02 -0.59898540030E+01  0.54367049481E+02  0.39999920901E+02 0.  0.
         12    1    3    3    0    0  0.13677386167E+02 -0.33657586869E+02  0.59898540030E+01  0.36820950519E+02  0.00000000000E+00 0. -1.
         11    1    4    4    0    0 -0.94545558917E+01  0.17250542183E+02  0.80921525903E+01  0.21270937133E+02  0.51100000000E-03 0. -1.
        -11    1    4    4    0    0 -0.64344739535E+01  0.19756967091E+02 -0.26094524576E+01  0.20941572197E+02  0.51100000000E-03 0.  1.
         12    1    4    4    0    0  0.22116436779E+01 -0.33499224051E+01 -0.11472554136E+02  0.12154540151E+02  0.00000000000E+00 0. -1.
</event>
<event>
 8    1  0.1254059E-006  0.9118800E+02  0.7816164E-02  0.1184000E+00
        -11   -1    0    0    0    0  0.00000000000E+00  0.00000000000E+00  0.45593999997E+02  0.45594000000E+02  0.51100000000E-03 0.  1.
         11   -1    0    0    0    0 -0.00000000000E+00 -0.00000000000E+00 -0.45593999997E+02  0.45594000000E+02  0.51100000000E-03 0. -1.
         23    2    1    2    0    0  0.00000000000E+00  0.35527136788E-14 -0.35527136788E-14  0.91188000000E+02  0.91188000000E+02 0.  0.
    9900012    2    3    3    0    0  0.17864840220E+02 -0.23130354844E+02  0.22396713326E+02  0.54367101055E+02  0.40000038475E+02 0.  0.
         12    1    3    3    0    0 -0.17864840220E+02  0.23130354844E+02 -0.22396713326E+02  0.36820898945E+02  0.00000000000E+00 0. -1.
         11    1    4    4    0    0  0.19025232779E+02 -0.75837868564E+01 -0.28938337422E+01  0.20684476773E+02  0.51100000000E-03 0. -1.
        -11    1    4    4    0    0 -0.77194873564E+00  0.31021254255E+01  0.62949142937E+01  0.70601015030E+01  0.51100000000E-03 0.  1.
         12    1    4    4    0    0 -0.38844382313E+00 -0.18648693414E+02  0.18995632775E+02  0.26622522779E+02  0.00000000000E+00 0. -1.
</event>
<event>
 8    1  0.1254059E-006  0.9118800E+02  0.7816164E-02  0.1184000E+00
        -11   -1    0    0    0    0  0.00000000000E+00  0.00000000000E+00  0.45593999997E+02  0.45594000000E+02  0.51100000000E-03 0. -1.
         11   -1    0    0    0    0 -0.00000000000E+00 -0.00000000000E+00 -0.45593999997E+02  0.45594000000E+02  0.51100000000E-03 0.  1.
         23    2    1    2    0    0 -0.88817841970E-15  0.00000000000E+00  0.35527136788E-14  0.91188000000E+02  0.91188000000E+02 0.  0.
    9900012    2    3    3    0    0  0.36647356184E+01 -0.33242994919E+02  0.15403008596E+02  0.54367086484E+02  0.40000005257E+02 0.  0.
        -12    1    3    3    0    0 -0.36647356184E+01  0.33242994919E+02 -0.15403008596E+02  0.36820913516E+02  0.00000000000E+00 0.  1.
         11    1    4    4    0    0  0.77414126302E+01 -0.19374215064E+02  0.10913507915E+02  0.23545579928E+02  0.51100000000E-03 0. -1.
        -11    1    4    4    0    0 -0.78710328983E+01  0.50884575756E+01  0.64673431633E+01  0.11387365246E+02  0.51100000000E-03 0.  1.
        -12    1    4    4    0    0  0.37943558865E+01 -0.18957237431E+02 -0.19778424819E+01  0.19434141311E+02  0.00000000000E+00 0.  1.
</event>
<event>
 8    1  0.1254059E-006  0.9118800E+02  0.7816164E-02  0.1184000E+00
        -11   -1    0    0    0    0  0.00000000000E+00  0.00000000000E+00  0.45593999997E+02  0.45594000000E+02  0.51100000000E-03 0. -1.
         11   -1    0    0    0    0 -0.00000000000E+00 -0.00000000000E+00 -0.45593999997E+02  0.45594000000E+02  0.51100000000E-03 0.  1.
         23    2    1    2    0    0  0.00000000000E+00  0.00000000000E+00 -0.35527136788E-14  0.91188000000E+02  0.91188000000E+02 0.  0.
    9900012    2    3    3    0    0  0.27184342456E+01 -0.29097182152E+02 -0.22399604956E+02  0.54367106528E+02  0.40000050951E+02 0.  0.
         12    1    3    3    0    0 -0.27184342456E+01  0.29097182152E+02  0.22399604956E+02  0.36820893472E+02  0.00000000000E+00 0. -1.
         11    1    4    4    0    0  0.40799720260E+01 -0.27252988208E+02 -0.21504878082E+02  0.34954703826E+02  0.51100000000E-03 0. -1.
        -11    1    4    4    0    0  0.79229515535E+01  0.22439671773E+00 -0.46458458864E+01  0.91873499698E+01  0.51100000000E-03 0.  1.
         12    1    4    4    0    0 -0.92844893339E+01 -0.20685906616E+01  0.37511190125E+01  0.10225052732E+02  0.00000000000E+00 0. -1.
</event>
<event>
 8    1  0.1254059E-006  0.9118800E+02  0.7816164E-02  0.1184000E+00
        -11   -1    0    0    0    0  0.00000000000E+00  0.00000000000E+00  0.45593999997E+02  0.45594000000E+02  0.51100000000E-03 0.  1.
         11   -1    0    0    0    0 -0.00000000000E+00 -0.00000000000E+00 -0.45593999997E+02  0.45594000000E+02  0.51100000000E-03 0. -1.
         23    2    1    2    0    0  0.00000000000E+00  0.00000000000E+00  0.00000000000E+00  0.91188000000E+02  0.91188000000E+02 0.  0.
    9900012    2    3    3    0    0  0.30042418829E+01  0.16962456128E+02 -0.32542723037E+02  0.54367092762E+02  0.40000019569E+02 0.  0.
        -12    1    3    3    0    0 -0.30042418829E+01 -0.16962456128E+02  0.32542723037E+02  0.36820907238E+02  0.00000000000E+00 0.  1.
         11    1    4    4    0    0  0.34273918497E+01  0.23395538544E+02 -0.26160709574E+02  0.35263025456E+02  0.51100000000E-03 0. -1.
        -11    1    4    4    0    0  0.34718687734E+01 -0.91288908055E+01 -0.93445046828E+01  0.13517036959E+02  0.51100000000E-03 0.  1.
         12    1    4    4    0    0 -0.38950187403E+01  0.26958083901E+01  0.29624912200E+01  0.55870303464E+01  0.00000000000E+00 0. -1.
</event>
<event>
 8    1  0.1254059E-006  0.9118800E+02  0.7816164E-02  0.1184000E+00
        -11   -1    0    0    0    0  0.00000000000E+00  0.00000000000E+00  0.45593999997E+02  0.45594000000E+02  0.51100000000E-03 0. -1.
         11   -1    0    0    0    0 -0.00000000000E+00 -0.00000000000E+00 -0.45593999997E+02  0.45594000000E+02  0.51100000000E-03 0.  1.
         23    2    1    2    0    0 -0.88817841970E-15  0.00000000000E+00 -0.35527136788E-14  0.91188000000E+02  0.91188000000E+02 0.  0.
    9900012    2    3    3    0    0 -0.51392094579E+01  0.20838049339E+02  0.29918957657E+02  0.54367084729E+02  0.40000001258E+02 0.  0.
        -12    1    3    3    0    0  0.51392094579E+01 -0.20838049339E+02 -0.29918957657E+02  0.36820915271E+02  0.00000000000E+00 0.  1.
         11    1    4    4    0    0 -0.15284447726E+02 -0.34577483752E+01  0.71392161130E+01  0.17220301190E+02  0.51100000000E-03 0. -1.
        -11    1    4    4    0    0 -0.48537186038E+00  0.37170169603E+01  0.10029102010E+02  0.10706759001E+02  0.51100000000E-03 0.  1.
        -12    1    4    4    0    0  0.10630610129E+02  0.20578780754E+02  0.12750639533E+02  0.26440024537E+02  0.00000000000E+00 0.  1.
</event>
<event>
 8    1  0.1254059E-006  0.9118800E+02  0.7816164E-02  0.1184000E+00
        -11   -1    0    0    0    0  0.00000000000E+00  0.00000000000E+00  0.45593999997E+02  0.45594000000E+02  0.51100000000E-03 0. -1.
         11   -1    0    0    0    0 -0.00000000000E+00 -0.00000000000E+00 -0.45593999997E+02  0.45594000000E+02  0.51100000000E-03 0.  1.
         23    2    1    2    0    0  0.00000000000E+00  0.00000000000E+00 -0.71054273576E-14  0.91188000000E+02  0.91188000000E+02 0.  0.
    9900012    2    3    3    0    0  0.28587643889E+01  0.40320239775E+01 -0.36487643802E+02  0.54367110529E+02  0.40000060073E+02 0.  0.
         12    1    3    3    0    0 -0.28587643889E+01 -0.40320239775E+01  0.36487643802E+02  0.36820889471E+02  0.00000000000E+00 0. -1.
         11    1    4    4    0    0  0.60631722152E+01  0.70634877743E+01 -0.13667318119E+00  0.93098655559E+01  0.51100000000E-03 0. -1.
        -11    1    4    4    0    0 -0.40946762188E+01  0.32875753216E+01  0.24076557235E+01  0.57767924643E+01  0.51100000000E-03 0.  1.
        -12    1    4    4    0    0  0.89026839252E+00 -0.63190391184E+01 -0.38758626344E+02  0.39280452509E+02  0.00000000000E+00 0.  1.
</event>
<event>
 8    1  0.1254059E-006  0.9118800E+02  0.7816164E-02  0.1184000E+00
        -11   -1    0    0    0    0  0.00000000000E+00  0.00000000000E+00  0.45593999997E+02  0.45594000000E+02  0.51100000000E-03 0.  1.
         11   -1    0    0    0    0 -0.00000000000E+00 -0.00000000000E+00 -0.45593999997E+02  0.45594000000E+02  0.51100000000E-03 0. -1.
         23    2    1    2    0    0  0.00000000000E+00 -0.35527136788E-14  0.35527136788E-14  0.91188000000E+02  0.91188000000E+02 0.  0.
    9900012    2    3    3    0    0 -0.15253347290E+02 -0.24374643764E+02  0.22999766629E+02  0.54367121043E+02  0.40000084042E+02 0.  0.
         12    1    3    3    0    0  0.15253347290E+02  0.24374643764E+02 -0.22999766629E+02  0.36820878957E+02  0.00000000000E+00 0. -1.
         11    1    4    4    0    0 -0.99751091304E+01 -0.14141725881E+02  0.14675647380E+01  0.17367929053E+02  0.51100000000E-03 0. -1.
        -11    1    4    4    0    0  0.74744148269E+01 -0.23390416300E+01  0.20523647789E+02  0.21967205366E+02  0.51100000000E-03 0.  1.
        -12    1    4    4    0    0 -0.12752652987E+02 -0.78938762523E+01  0.10085541018E+01  0.15031986624E+02  0.00000000000E+00 0.  1.
</event>
<event>
 8    1  0.1254059E-006  0.9118800E+02  0.7816164E-02  0.1184000E+00
        -11   -1    0    0    0    0  0.00000000000E+00  0.00000000000E+00  0.45593999997E+02  0.45594000000E+02  0.51100000000E-03 0.  1.
         11   -1    0    0    0    0 -0.00000000000E+00 -0.00000000000E+00 -0.45593999997E+02  0.45594000000E+02  0.51100000000E-03 0. -1.
         23    2    1    2    0    0  0.11102230246E-15 -0.71054273576E-14 -0.17763568394E-14  0.91188000000E+02  0.91188000000E+02 0.  0.
    9900012    2    3    3    0    0  0.74808094136E+00 -0.35944972094E+02 -0.79489235872E+01  0.54367000148E+02  0.39999808437E+02 0.  0.
        -12    1    3    3    0    0 -0.74808094136E+00  0.35944972094E+02  0.79489235872E+01  0.36820999852E+02  0.00000000000E+00 0.  1.
         11    1    4    4    0    0  0.28451984345E+01 -0.10805836233E+02  0.34839191819E+00  0.11179562962E+02  0.51100000000E-03 0. -1.
        -11    1    4    4    0    0 -0.91715166596E+00 -0.24178238705E+01  0.12256441613E+02  0.12526268428E+02  0.51100000000E-03 0.  1.
         12    1    4    4    0    0 -0.11799658272E+01 -0.22721311990E+02 -0.20553757119E+02  0.30661168758E+02  0.00000000000E+00 0. -1.
</event>
<event>
 8    1  0.1254059E-006  0.9118800E+02  0.7816164E-02  0.1184000E+00
        -11   -1    0    0    0    0  0.00000000000E+00  0.00000000000E+00  0.45593999997E+02  0.45594000000E+02  0.51100000000E-03 0. -1.
         11   -1    0    0    0    0 -0.00000000000E+00 -0.00000000000E+00 -0.45593999997E+02  0.45594000000E+02  0.51100000000E-03 0.  1.
         23    2    1    2    0    0  0.00000000000E+00  0.44408920985E-15  0.00000000000E+00  0.91188000000E+02  0.91188000000E+02 0.  0.
    9900012    2    3    3    0    0  0.18214758850E+02 -0.48166718738E+00 -0.31996402662E+02  0.54367092535E+02  0.40000019051E+02 0.  0.
         12    1    3    3    0    0 -0.18214758850E+02  0.48166718738E+00  0.31996402662E+02  0.36820907465E+02  0.00000000000E+00 0. -1.
         11    1    4    4    0    0  0.16524823160E+02 -0.83078394647E+01 -0.18937160190E+02  0.26470852146E+02  0.51100000000E-03 0. -1.
        -11    1    4    4    0    0  0.89495766339E+01  0.10049541304E+02 -0.14906644132E+02  0.20082236975E+02  0.51100000000E-03 0.  1.
         12    1    4    4    0    0 -0.72596409432E+01 -0.22233690268E+01  0.18474016603E+01  0.78140034136E+01  0.00000000000E+00 0. -1.
</event>
<event>
 8    1  0.1254059E-006  0.9118800E+02  0.7816164E-02  0.1184000E+00
        -11   -1    0    0    0    0  0.00000000000E+00  0.00000000000E+00  0.45593999997E+02  0.45594000000E+02  0.51100000000E-03 0.  1.
         11   -1    0    0    0    0 -0.00000000000E+00 -0.00000000000E+00 -0.45593999997E+02  0.45594000000E+02  0.51100000000E-03 0. -1.
         23    2    1    2    0    0  0.00000000000E+00  0.88817841970E-15 -0.88817841970E-15  0.91188000000E+02  0.91188000000E+02 0.  0.
    9900012    2    3    3    0    0 -0.35397996775E+02 -0.64331272386E+01  0.78342470286E+01  0.54367099301E+02  0.40000034477E+02 0.  0.
         12    1    3    3    0    0  0.35397996775E+02  0.64331272386E+01 -0.78342470286E+01  0.36820900699E+02  0.00000000000E+00 0. -1.
         11    1    4    4    0    0 -0.16225191586E+02  0.77893099098E+01 -0.11388350784E+02  0.21298467661E+02  0.51100000000E-03 0. -1.
        -11    1    4    4    0    0 -0.18499038158E+02 -0.78749138890E+01  0.11935984627E+02  0.23381539958E+02  0.51100000000E-03 0.  1.
         12    1    4    4    0    0 -0.67376703119E+00 -0.63475232594E+01  0.72866131852E+01  0.96870916818E+01  0.00000000000E+00 0. -1.
</event>
<event>
 8    1  0.1254059E-006  0.9118800E+02  0.7816164E-02  0.1184000E+00
        -11   -1    0    0    0    0  0.00000000000E+00  0.00000000000E+00  0.45593999997E+02  0.45594000000E+02  0.51100000000E-03 0. -1.
         11   -1    0    0    0    0 -0.00000000000E+00 -0.00000000000E+00 -0.45593999997E+02  0.45594000000E+02  0.51100000000E-03 0.  1.
         23    2    1    2    0    0  0.00000000000E+00  0.00000000000E+00  0.00000000000E+00  0.91188000000E+02  0.91188000000E+02 0.  0.
    9900012    2    3    3    0    0  0.93466138193E+01 -0.20881379809E+02 -0.28851142164E+02  0.54367087236E+02  0.40000006972E+02 0.  0.
         12    1    3    3    0    0 -0.93466138193E+01  0.20881379809E+02  0.28851142164E+02  0.36820912764E+02  0.00000000000E+00 0. -1.
         11    1    4    4    0    0  0.10435077762E+02 -0.17050274639E+02  0.14674800856E+01  0.20043857195E+02  0.51100000000E-03 0. -1.
        -11    1    4    4    0    0 -0.12772524043E+01 -0.80581340275E+01 -0.73918665942E+01  0.11009295605E+02  0.51100000000E-03 0.  1.
        -12    1    4    4    0    0  0.18878846143E+00  0.42270288576E+01 -0.22926755655E+02  0.23313934437E+02  0.00000000000E+00 0.  1.
</event>
<event>
 8    1  0.1254059E-006  0.9118800E+02  0.7816164E-02  0.1184000E+00
        -11   -1    0    0    0    0  0.00000000000E+00  0.00000000000E+00  0.45593999997E+02  0.45594000000E+02  0.51100000000E-03 0. -1.
         11   -1    0    0    0    0 -0.00000000000E+00 -0.00000000000E+00 -0.45593999997E+02  0.45594000000E+02  0.51100000000E-03 0.  1.
         23    2    1    2    0    0  0.00000000000E+00  0.00000000000E+00 -0.35527136788E-14  0.91188000000E+02  0.91188000000E+02 0.  0.
    9900012    2    3    3    0    0  0.23652732455E+02  0.12768577621E+02 -0.25165263480E+02  0.54367098149E+02  0.40000031851E+02 0.  0.
         12    1    3    3    0    0 -0.23652732455E+02 -0.12768577621E+02  0.25165263480E+02  0.36820901851E+02  0.00000000000E+00 0. -1.
         11    1    4    4    0    0  0.88334740727E+01  0.52561250617E+00 -0.12304715736E+02  0.15156271385E+02  0.51100000000E-03 0. -1.
        -11    1    4    4    0    0  0.17478301692E+02  0.12085560869E+01 -0.19376816255E+02  0.26123029041E+02  0.51100000000E-03 0.  1.
         12    1    4    4    0    0 -0.26590433096E+01  0.11034409028E+02  0.65162685111E+01  0.13087797723E+02  0.00000000000E+00 0. -1.
</event>
<event>
 8    1  0.1254059E-006  0.9118800E+02  0.7816164E-02  0.1184000E+00
        -11   -1    0    0    0    0  0.00000000000E+00  0.00000000000E+00  0.45593999997E+02  0.45594000000E+02  0.51100000000E-03 0. -1.
         11   -1    0    0    0    0 -0.00000000000E+00 -0.00000000000E+00 -0.45593999997E+02  0.45594000000E+02  0.51100000000E-03 0.  1.
         23    2    1    2    0    0 -0.71054273576E-14  0.00000000000E+00 -0.88817841970E-15  0.91188000000E+02  0.91188000000E+02 0.  0.
    9900012    2    3    3    0    0  0.22065748447E+02 -0.28608213817E+02 -0.71030546264E+01  0.54367074735E+02  0.39999978474E+02 0.  0.
         12    1    3    3    0    0 -0.22065748447E+02  0.28608213817E+02  0.71030546264E+01  0.36820925265E+02  0.00000000000E+00 0. -1.
         11    1    4    4    0    0  0.15128893311E+02 -0.56228564737E+01  0.10368268691E+02  0.19183350167E+02  0.51100000000E-03 0. -1.
        -11    1    4    4    0    0 -0.65558082051E+01 -0.76221188324E+01 -0.65980887383E+01  0.12025393631E+02  0.51100000000E-03 0.  1.
        -12    1    4    4    0    0  0.13492663342E+02 -0.15363238511E+02 -0.10873234579E+02  0.23158330937E+02  0.00000000000E+00 0.  1.
</event>
<event>
 8    1  0.1254059E-006  0.9118800E+02  0.7816164E-02  0.1184000E+00
        -11   -1    0    0    0    0  0.00000000000E+00  0.00000000000E+00  0.45593999997E+02  0.45594000000E+02  0.51100000000E-03 0.  1.
         11   -1    0    0    0    0 -0.00000000000E+00 -0.00000000000E+00 -0.45593999997E+02  0.45594000000E+02  0.51100000000E-03 0. -1.
         23    2    1    2    0    0 -0.35527136788E-14  0.00000000000E+00 -0.71054273576E-14  0.91188000000E+02  0.91188000000E+02 0.  0.
    9900012    2    3    3    0    0 -0.20619468760E+02 -0.50649441224E+01 -0.30082553333E+02  0.54367134096E+02  0.40000113798E+02 0.  0.
        -12    1    3    3    0    0  0.20619468760E+02  0.50649441224E+01  0.30082553333E+02  0.36820865904E+02  0.00000000000E+00 0.  1.
         11    1    4    4    0    0 -0.17938568782E+02 -0.24721860113E+01 -0.23580677222E+02  0.29731335189E+02  0.51100000000E-03 0. -1.
        -11    1    4    4    0    0  0.77102151735E+01 -0.80577851098E+01  0.12697114341E+00  0.11153091089E+02  0.51100000000E-03 0.  1.
        -12    1    4    4    0    0 -0.10391115152E+02  0.54650269987E+01 -0.66288472542E+01  0.13482707818E+02  0.00000000000E+00 0.  1.
</event>
<event>
 8    1  0.1254059E-006  0.9118800E+02  0.7816164E-02  0.1184000E+00
        -11   -1    0    0    0    0  0.00000000000E+00  0.00000000000E+00  0.45593999997E+02  0.45594000000E+02  0.51100000000E-03 0. -1.
         11   -1    0    0    0    0 -0.00000000000E+00 -0.00000000000E+00 -0.45593999997E+02  0.45594000000E+02  0.51100000000E-03 0.  1.
         23    2    1    2    0    0  0.00000000000E+00  0.35527136788E-14  0.35527136788E-14  0.91188000000E+02  0.91188000000E+02 0.  0.
    9900012    2    3    3    0    0 -0.19659557710E+02 -0.17706073590E+02  0.25608137283E+02  0.54367082760E+02  0.39999996767E+02 0.  0.
        -12    1    3    3    0    0  0.19659557710E+02  0.17706073590E+02 -0.25608137283E+02  0.36820917240E+02  0.00000000000E+00 0.  1.
         11    1    4    4    0    0 -0.54815452873E+01  0.36911645405E+01  0.12822338477E+01  0.67317277353E+01  0.51100000000E-03 0. -1.
        -11    1    4    4    0    0  0.37449737122E+01  0.32407401560E+01 -0.37440582195E+01  0.62084778389E+01  0.51100000000E-03 0.  1.
         12    1    4    4    0    0 -0.17922986135E+02 -0.24637978287E+02  0.28069961654E+02  0.41426877185E+02  0.00000000000E+00 0. -1.
</event>
<event>
 8    1  0.1254059E-006  0.9118800E+02  0.7816164E-02  0.1184000E+00
        -11   -1    0    0    0    0  0.00000000000E+00  0.00000000000E+00  0.45593999997E+02  0.45594000000E+02  0.51100000000E-03 0. -1.
         11   -1    0    0    0    0 -0.00000000000E+00 -0.00000000000E+00 -0.45593999997E+02  0.45594000000E+02  0.51100000000E-03 0.  1.
         23    2    1    2    0    0  0.10658141036E-13 -0.35527136788E-14  0.88817841970E-15  0.91188000000E+02  0.91188000000E+02 0.  0.
    9900012    2    3    3    0    0 -0.30452296904E+02  0.19192173661E+02 -0.77523739884E+01  0.54367065478E+02  0.39999957371E+02 0.  0.
         12    1    3    3    0    0  0.30452296904E+02 -0.19192173661E+02  0.77523739884E+01  0.36820934522E+02  0.00000000000E+00 0. -1.
         11    1    4    4    0    0 -0.50109286762E+01  0.17089498155E+01 -0.30351628102E+01  0.61026329740E+01  0.51100000000E-03 0. -1.
        -11    1    4    4    0    0 -0.23968985432E+02 -0.54266945580E+01  0.10355795625E+01  0.24597432828E+02  0.51100000000E-03 0.  1.
         12    1    4    4    0    0 -0.14723827965E+01  0.22909918404E+02 -0.57527907406E+01  0.23666999676E+02  0.00000000000E+00 0. -1.
</event>
<event>
 8    1  0.1254059E-006  0.9118800E+02  0.7816164E-02  0.1184000E+00
        -11   -1    0    0    0    0  0.00000000000E+00  0.00000000000E+00  0.45593999997E+02  0.45594000000E+02  0.51100000000E-03 0. -1.
         11   -1    0    0    0    0 -0.00000000000E+00 -0.00000000000E+00 -0.45593999997E+02  0.45594000000E+02  0.51100000000E-03 0.  1.
         23    2    1    2    0    0 -0.71054273576E-14  0.00000000000E+00  0.26645352591E-14  0.91188000000E+02  0.91188000000E+02 0.  0.
    9900012    2    3    3    0    0 -0.36444375367E+02 -0.47181611357E+01 -0.23080190432E+01  0.54367075347E+02  0.39999979869E+02 0.  0.
         12    1    3    3    0    0  0.36444375367E+02  0.47181611357E+01  0.23080190432E+01  0.36820924653E+02  0.00000000000E+00 0. -1.
         11    1    4    4    0    0 -0.33690819924E+02 -0.18531517932E+01 -0.24932738272E+01  0.33833739571E+02  0.51100000000E-03 0.  1.
        -11    1    4    4    0    0  0.24659691451E+00 -0.24412448566E+00 -0.97878641421E+01  0.97940130451E+01  0.51100000000E-03 0. -1.
        -12    1    4    4    0    0 -0.30001523574E+01 -0.26208848569E+01  0.99731189261E+01  0.10739322731E+02  0.00000000000E+00 0.  1.
</event>
<event>
 8    1  0.1254059E-006  0.9118800E+02  0.7816164E-02  0.1184000E+00
        -11   -1    0    0    0    0  0.00000000000E+00  0.00000000000E+00  0.45593999997E+02  0.45594000000E+02  0.51100000000E-03 0. -1.
         11   -1    0    0    0    0 -0.00000000000E+00 -0.00000000000E+00 -0.45593999997E+02  0.45594000000E+02  0.51100000000E-03 0.  1.
         23    2    1    2    0    0  0.49960036108E-15 -0.17763568394E-14  0.00000000000E+00  0.91188000000E+02  0.91188000000E+02 0.  0.
    9900012    2    3    3    0    0 -0.34464047381E+00 -0.14023655063E+02 -0.34044071041E+02  0.54367075902E+02  0.39999981135E+02 0.  0.
         12    1    3    3    0    0  0.34464047381E+00  0.14023655063E+02  0.34044071041E+02  0.36820924098E+02  0.00000000000E+00 0. -1.
         11    1    4    4    0    0 -0.10550131526E+02 -0.16739875022E+02 -0.10221860432E+02  0.22271396946E+02  0.51100000000E-03 0. -1.
        -11    1    4    4    0    0  0.53938423405E+01  0.67443436748E+01 -0.24313148467E+02  0.25801335149E+02  0.51100000000E-03 0.  1.
        -12    1    4    4    0    0  0.48116487115E+01 -0.40281237154E+01  0.49093785880E+00  0.62943438078E+01  0.00000000000E+00 0.  1.
</event>
<event>
 8    1  0.1254059E-006  0.9118800E+02  0.7816164E-02  0.1184000E+00
        -11   -1    0    0    0    0  0.00000000000E+00  0.00000000000E+00  0.45593999997E+02  0.45594000000E+02  0.51100000000E-03 0.  1.
         11   -1    0    0    0    0 -0.00000000000E+00 -0.00000000000E+00 -0.45593999997E+02  0.45594000000E+02  0.51100000000E-03 0. -1.
         23    2    1    2    0    0  0.00000000000E+00  0.00000000000E+00  0.00000000000E+00  0.91188000000E+02  0.91188000000E+02 0.  0.
    9900012    2    3    3    0    0 -0.21848488246E+02  0.17512367028E+02 -0.23911163289E+02  0.54367039022E+02  0.39999897058E+02 0.  0.
        -12    1    3    3    0    0  0.21848488246E+02 -0.17512367028E+02  0.23911163289E+02  0.36820960978E+02  0.00000000000E+00 0.  1.
         11    1    4    4    0    0 -0.13000428615E+02  0.17538260661E+02 -0.10756368076E+02  0.24337238661E+02  0.51100000000E-03 0. -1.
        -11    1    4    4    0    0  0.33262095798E+01  0.92785753910E+01 -0.33688704203E-01  0.98568132094E+01  0.51100000000E-03 0.  1.
         12    1    4    4    0    0 -0.12174269211E+02 -0.93044690237E+01 -0.13121106508E+02  0.20172987152E+02  0.00000000000E+00 0. -1.
</event>
<event>
 8    1  0.1254059E-006  0.9118800E+02  0.7816164E-02  0.1184000E+00
        -11   -1    0    0    0    0  0.00000000000E+00  0.00000000000E+00  0.45593999997E+02  0.45594000000E+02  0.51100000000E-03 0.  1.
         11   -1    0    0    0    0 -0.00000000000E+00 -0.00000000000E+00 -0.45593999997E+02  0.45594000000E+02  0.51100000000E-03 0. -1.
         23    2    1    2    0    0  0.00000000000E+00  0.00000000000E+00  0.35527136788E-14  0.91188000000E+02  0.91188000000E+02 0.  0.
    9900012    2    3    3    0    0 -0.31514819143E+02  0.49711656318E+01  0.18381620617E+02  0.54367078095E+02  0.39999986134E+02 0.  0.
         12    1    3    3    0    0  0.31514819143E+02 -0.49711656318E+01 -0.18381620617E+02  0.36820921905E+02  0.00000000000E+00 0. -1.
         11    1    4    4    0    0 -0.22255068544E+01  0.67692823071E+01 -0.97639608184E+01  0.12087638100E+02  0.51100000000E-03 0. -1.
        -11    1    4    4    0    0 -0.87623461476E+01  0.47275141852E+01  0.10065212903E+02  0.14157563753E+02  0.51100000000E-03 0.  1.
         12    1    4    4    0    0 -0.20526966141E+02 -0.65256308606E+01  0.18080368533E+02  0.28121876242E+02  0.00000000000E+00 0. -1.
</event>
<event>
 8    1  0.1254059E-006  0.9118800E+02  0.7816164E-02  0.1184000E+00
        -11   -1    0    0    0    0  0.00000000000E+00  0.00000000000E+00  0.45593999997E+02  0.45594000000E+02  0.51100000000E-03 0. -1.
         11   -1    0    0    0    0 -0.00000000000E+00 -0.00000000000E+00 -0.45593999997E+02  0.45594000000E+02  0.51100000000E-03 0.  1.
         23    2    1    2    0    0  0.17763568394E-14  0.00000000000E+00 -0.44408920985E-15  0.91188000000E+02  0.91188000000E+02 0.  0.
    9900012    2    3    3    0    0  0.14215664335E+02  0.33829741481E+02  0.30402939272E+01  0.54367083277E+02  0.39999997946E+02 0.  0.
         12    1    3    3    0    0 -0.14215664335E+02 -0.33829741481E+02 -0.30402939272E+01  0.36820916723E+02  0.00000000000E+00 0. -1.
         11    1    4    4    0    0 -0.47267785489E+01  0.36725564093E+01  0.90409227652E+00  0.60537169685E+01  0.51100000000E-03 0. -1.
        -11    1    4    4    0    0  0.16917940929E+02  0.28041879534E+01  0.99085839264E+01  0.19805560609E+02  0.51100000000E-03 0.  1.
        -12    1    4    4    0    0  0.20245019550E+01  0.27352997119E+02 -0.77723822758E+01  0.28507805699E+02  0.00000000000E+00 0.  1.
</event>
<event>
 8    1  0.1254059E-006  0.9118800E+02  0.7816164E-02  0.1184000E+00
        -11   -1    0    0    0    0  0.00000000000E+00  0.00000000000E+00  0.45593999997E+02  0.45594000000E+02  0.51100000000E-03 0.  1.
         11   -1    0    0    0    0 -0.00000000000E+00 -0.00000000000E+00 -0.45593999997E+02  0.45594000000E+02  0.51100000000E-03 0. -1.
         23    2    1    2    0    0 -0.17763568394E-14  0.00000000000E+00  0.35527136788E-14  0.91188000000E+02  0.91188000000E+02 0.  0.
    9900012    2    3    3    0    0 -0.13130203192E+02 -0.15917930405E+02  0.30495872546E+02  0.54367068635E+02  0.39999964568E+02 0.  0.
         12    1    3    3    0    0  0.13130203192E+02  0.15917930405E+02 -0.30495872546E+02  0.36820931365E+02  0.00000000000E+00 0. -1.
         11    1    4    4    0    0 -0.14548275555E+01 -0.31813767908E+01  0.14782447450E+02  0.15190735149E+02  0.51100000000E-03 0.  1.
        -11    1    4    4    0    0 -0.26528713069E+00 -0.30453855393E+01  0.22523412946E+02  0.22729911600E+02  0.51100000000E-03 0. -1.
         12    1    4    4    0    0 -0.11410088506E+02 -0.96911680747E+01 -0.68099878498E+01  0.16446421887E+02  0.00000000000E+00 0. -1.
</event>
<event>
 8    1  0.1254059E-006  0.9118800E+02  0.7816164E-02  0.1184000E+00
        -11   -1    0    0    0    0  0.00000000000E+00  0.00000000000E+00  0.45593999997E+02  0.45594000000E+02  0.51100000000E-03 0.  1.
         11   -1    0    0    0    0 -0.00000000000E+00 -0.00000000000E+00 -0.45593999997E+02  0.45594000000E+02  0.51100000000E-03 0. -1.
         23    2    1    2    0    0  0.00000000000E+00  0.17763568394E-14  0.00000000000E+00  0.91188000000E+02  0.91188000000E+02 0.  0.
    9900012    2    3    3    0    0 -0.22703191576E+02  0.14888026247E+02  0.24873505028E+02  0.54367089016E+02  0.40000011031E+02 0.  0.
         12    1    3    3    0    0  0.22703191576E+02 -0.14888026247E+02 -0.24873505028E+02  0.36820910984E+02  0.00000000000E+00 0. -1.
         11    1    4    4    0    0  0.40302711259E+01 -0.14923839302E+01  0.34735212269E+01  0.55259067236E+01  0.51100000000E-03 0. -1.
        -11    1    4    4    0    0 -0.30557875422E+02  0.85283384002E+01  0.77870312935E+01  0.32667325615E+02  0.51100000000E-03 0.  1.
        -12    1    4    4    0    0  0.38244127206E+01  0.78520717774E+01  0.13612952508E+02  0.16173856678E+02  0.00000000000E+00 0.  1.
</event>
<event>
 8    1  0.1254059E-006  0.9118800E+02  0.7816164E-02  0.1184000E+00
        -11   -1    0    0    0    0  0.00000000000E+00  0.00000000000E+00  0.45593999997E+02  0.45594000000E+02  0.51100000000E-03 0.  1.
         11   -1    0    0    0    0 -0.00000000000E+00 -0.00000000000E+00 -0.45593999997E+02  0.45594000000E+02  0.51100000000E-03 0. -1.
         23    2    1    2    0    0  0.00000000000E+00 -0.71054273576E-14  0.13322676296E-14  0.91188000000E+02  0.91188000000E+02 0.  0.
    9900012    2    3    3    0    0  0.22631321456E+02  0.28975547477E+02  0.20051047815E+01  0.54367088718E+02  0.40000010351E+02 0.  0.
        -12    1    3    3    0    0 -0.22631321456E+02 -0.28975547477E+02 -0.20051047815E+01  0.36820911282E+02  0.00000000000E+00 0.  1.
         11    1    4    4    0    0  0.32102726769E+01  0.23150645235E+02 -0.71993330066E+01  0.24455850454E+02  0.51100000000E-03 0. -1.
        -11    1    4    4    0    0  0.15255107178E+02 -0.30539148970E+01  0.12073089019E+02  0.19692744094E+02  0.51100000000E-03 0.  1.
        -12    1    4    4    0    0  0.41659416003E+01  0.88788171397E+01 -0.28686512314E+01  0.10218494170E+02  0.00000000000E+00 0.  1.
</event>
<event>
 8    1  0.1254059E-006  0.9118800E+02  0.7816164E-02  0.1184000E+00
        -11   -1    0    0    0    0  0.00000000000E+00  0.00000000000E+00  0.45593999997E+02  0.45594000000E+02  0.51100000000E-03 0.  1.
         11   -1    0    0    0    0 -0.00000000000E+00 -0.00000000000E+00 -0.45593999997E+02  0.45594000000E+02  0.51100000000E-03 0. -1.
         23    2    1    2    0    0  0.11102230246E-14 -0.35527136788E-14  0.35527136788E-14  0.91188000000E+02  0.91188000000E+02 0.  0.
    9900012    2    3    3    0    0 -0.15568162747E+01  0.22904483921E+02  0.28787866419E+02  0.54367077775E+02  0.39999985403E+02 0.  0.
         12    1    3    3    0    0  0.15568162747E+01 -0.22904483921E+02 -0.28787866419E+02  0.36820922225E+02  0.00000000000E+00 0. -1.
         11    1    4    4    0    0  0.96965615076E+01  0.30256371936E+01 -0.52009237643E+01  0.11411721770E+02  0.51100000000E-03 0. -1.
        -11    1    4    4    0    0 -0.90591316556E+01  0.20709622418E+02  0.33717564043E+02  0.40593477952E+02  0.51100000000E-03 0.  1.
         12    1    4    4    0    0 -0.21942461267E+01 -0.83077569093E+00  0.27122614071E+00  0.23618780520E+01  0.00000000000E+00 0. -1.
</event>
<event>
 8    1  0.1254059E-006  0.9118800E+02  0.7816164E-02  0.1184000E+00
        -11   -1    0    0    0    0  0.00000000000E+00  0.00000000000E+00  0.45593999997E+02  0.45594000000E+02  0.51100000000E-03 0. -1.
         11   -1    0    0    0    0 -0.00000000000E+00 -0.00000000000E+00 -0.45593999997E+02  0.45594000000E+02  0.51100000000E-03 0.  1.
         23    2    1    2    0    0 -0.88817841970E-15  0.00000000000E+00  0.00000000000E+00  0.91188000000E+02  0.91188000000E+02 0.  0.
    9900012    2    3    3    0    0  0.61504112189E+01  0.54144810377E+01 -0.35897569068E+02  0.54367087083E+02  0.40000006622E+02 0.  0.
         12    1    3    3    0    0 -0.61504112189E+01 -0.54144810377E+01  0.35897569068E+02  0.36820912917E+02  0.00000000000E+00 0. -1.
         11    1    4    4    0    0  0.16645358615E+02 -0.99720048707E+00 -0.78651378260E+00  0.16693740636E+02  0.51100000000E-03 0. -1.
        -11    1    4    4    0    0 -0.47515502095E+01  0.37727041807E+01 -0.93332198283E+01  0.11131914429E+02  0.51100000000E-03 0.  1.
        -12    1    4    4    0    0 -0.57433971867E+01  0.26389773441E+01 -0.25777835457E+02  0.26541432017E+02  0.00000000000E+00 0.  1.
</event>
<event>
 8    1  0.1254059E-006  0.9118800E+02  0.7816164E-02  0.1184000E+00
        -11   -1    0    0    0    0  0.00000000000E+00  0.00000000000E+00  0.45593999997E+02  0.45594000000E+02  0.51100000000E-03 0.  1.
         11   -1    0    0    0    0 -0.00000000000E+00 -0.00000000000E+00 -0.45593999997E+02  0.45594000000E+02  0.51100000000E-03 0. -1.
         23    2    1    2    0    0  0.88817841970E-15 -0.17763568394E-14  0.00000000000E+00  0.91188000000E+02  0.91188000000E+02 0.  0.
    9900012    2    3    3    0    0  0.40293245684E+01  0.94736552535E+01 -0.35352419564E+02  0.54367093312E+02  0.40000020822E+02 0.  0.
        -12    1    3    3    0    0 -0.40293245684E+01 -0.94736552535E+01  0.35352419564E+02  0.36820906688E+02  0.00000000000E+00 0.  1.
         11    1    4    4    0    0 -0.85869310606E+01 -0.11845770467E+02 -0.81286251557E+01  0.16737150599E+02  0.51100000000E-03 0. -1.
        -11    1    4    4    0    0  0.10285447271E+02  0.15678784131E+02 -0.15171077024E+02  0.24120038883E+02  0.51100000000E-03 0.  1.
         12    1    4    4    0    0  0.23308083584E+01  0.56406415893E+01 -0.12052717384E+02  0.13509903830E+02  0.00000000000E+00 0. -1.
</event>
<event>
 8    1  0.1254059E-006  0.9118800E+02  0.7816164E-02  0.1184000E+00
        -11   -1    0    0    0    0  0.00000000000E+00  0.00000000000E+00  0.45593999997E+02  0.45594000000E+02  0.51100000000E-03 0.  1.
         11   -1    0    0    0    0 -0.00000000000E+00 -0.00000000000E+00 -0.45593999997E+02  0.45594000000E+02  0.51100000000E-03 0. -1.
         23    2    1    2    0    0  0.00000000000E+00 -0.35527136788E-14  0.00000000000E+00  0.91188000000E+02  0.91188000000E+02 0.  0.
    9900012    2    3    3    0    0 -0.92297574918E+01 -0.30073806409E+02 -0.19135241964E+02  0.54367085559E+02  0.40000003149E+02 0.  0.
        -12    1    3    3    0    0  0.92297574918E+01  0.30073806409E+02  0.19135241964E+02  0.36820914441E+02  0.00000000000E+00 0.  1.
         11    1    4    4    0    0 -0.89875324011E+00 -0.12478777481E+01 -0.98306428920E+01  0.99502008116E+01  0.51100000000E-03 0. -1.
        -11    1    4    4    0    0 -0.37054385879E+00 -0.45503998260E+01 -0.17106078763E+02  0.17704840362E+02  0.51100000000E-03 0.  1.
        -12    1    4    4    0    0 -0.79604603929E+01 -0.24275528835E+02  0.78014796914E+01  0.26712044385E+02  0.00000000000E+00 0.  1.
</event>
<event>
 8    1  0.1254059E-006  0.9118800E+02  0.7816164E-02  0.1184000E+00
        -11   -1    0    0    0    0  0.00000000000E+00  0.00000000000E+00  0.45593999997E+02  0.45594000000E+02  0.51100000000E-03 0.  1.
         11   -1    0    0    0    0 -0.00000000000E+00 -0.00000000000E+00 -0.45593999997E+02  0.45594000000E+02  0.51100000000E-03 0. -1.
         23    2    1    2    0    0 -0.17763568394E-14  0.00000000000E+00 -0.88817841970E-15  0.91188000000E+02  0.91188000000E+02 0.  0.
    9900012    2    3    3    0    0  0.12425595051E+02  0.34090120555E+02 -0.62648776826E+01  0.54367076272E+02  0.39999981977E+02 0.  0.
        -12    1    3    3    0    0 -0.12425595051E+02 -0.34090120555E+02  0.62648776826E+01  0.36820923728E+02  0.00000000000E+00 0.  1.
         11    1    4    4    0    0 -0.10056463654E+02  0.18138706248E+02 -0.12086671819E+02  0.24004848709E+02  0.51100000000E-03 0. -1.
        -11    1    4    4    0    0  0.14582898502E+01  0.42765822418E+01 -0.21816304268E+01  0.50174970392E+01  0.51100000000E-03 0.  1.
        -12    1    4    4    0    0  0.21023768856E+02  0.11674832064E+02  0.80034245630E+01  0.25344730524E+02  0.00000000000E+00 0.  1.
</event>
<event>
 8    1  0.1254059E-006  0.9118800E+02  0.7816164E-02  0.1184000E+00
        -11   -1    0    0    0    0  0.00000000000E+00  0.00000000000E+00  0.45593999997E+02  0.45594000000E+02  0.51100000000E-03 0.  1.
         11   -1    0    0    0    0 -0.00000000000E+00 -0.00000000000E+00 -0.45593999997E+02  0.45594000000E+02  0.51100000000E-03 0. -1.
         23    2    1    2    0    0  0.35527136788E-14  0.00000000000E+00 -0.77715611724E-15  0.91188000000E+02  0.91188000000E+02 0.  0.
    9900012    2    3    3    0    0 -0.30259938711E+02 -0.20962523419E+02 -0.82954220626E+00  0.54367089920E+02  0.40000013090E+02 0.  0.
         12    1    3    3    0    0  0.30259938711E+02  0.20962523419E+02  0.82954220626E+00  0.36820910080E+02  0.00000000000E+00 0. -1.
         11    1    4    4    0    0 -0.24074430407E+02 -0.85812286443E+01 -0.55465288831E+01  0.26153004940E+02  0.51100000000E-03 0. -1.
        -11    1    4    4    0    0 -0.14736815907E+02 -0.11963928121E+02  0.14030309364E+01  0.19033597013E+02  0.51100000000E-03 0.  1.
         12    1    4    4    0    0  0.85513076037E+01 -0.41736665341E+00  0.33139557405E+01  0.91804879666E+01  0.00000000000E+00 0. -1.
</event>
<event>
 8    1  0.1254059E-006  0.9118800E+02  0.7816164E-02  0.1184000E+00
        -11   -1    0    0    0    0  0.00000000000E+00  0.00000000000E+00  0.45593999997E+02  0.45594000000E+02  0.51100000000E-03 0. -1.
         11   -1    0    0    0    0 -0.00000000000E+00 -0.00000000000E+00 -0.45593999997E+02  0.45594000000E+02  0.51100000000E-03 0.  1.
         23    2    1    2    0    0  0.88817841970E-15  0.17763568394E-14 -0.71054273576E-14  0.91188000000E+02  0.91188000000E+02 0.  0.
    9900012    2    3    3    0    0 -0.31952893491E+01  0.14341330999E+02 -0.33762343269E+02  0.54367089204E+02  0.40000011458E+02 0.  0.
         12    1    3    3    0    0  0.31952893491E+01 -0.14341330999E+02  0.33762343269E+02  0.36820910796E+02  0.00000000000E+00 0. -1.
         11    1    4    4    0    0  0.13143243724E+02  0.15712632046E+00 -0.11505388149E+02  0.17468357135E+02  0.51100000000E-03 0. -1.
        -11    1    4    4    0    0 -0.13994344231E+02 -0.80218361607E+00 -0.13067619590E+02  0.19163711828E+02  0.51100000000E-03 0.  1.
        -12    1    4    4    0    0 -0.23441888420E+01  0.14986388295E+02 -0.91893355298E+01  0.17735020241E+02  0.00000000000E+00 0.  1.
</event>
<event>
 8    1  0.1254059E-006  0.9118800E+02  0.7816164E-02  0.1184000E+00
        -11   -1    0    0    0    0  0.00000000000E+00  0.00000000000E+00  0.45593999997E+02  0.45594000000E+02  0.51100000000E-03 0. -1.
         11   -1    0    0    0    0 -0.00000000000E+00 -0.00000000000E+00 -0.45593999997E+02  0.45594000000E+02  0.51100000000E-03 0.  1.
         23    2    1    2    0    0  0.35527136788E-14 -0.22204460493E-15  0.00000000000E+00  0.91188000000E+02  0.91188000000E+02 0.  0.
    9900012    2    3    3    0    0 -0.26458437039E+02  0.15910982416E+01  0.25557653493E+02  0.54367161658E+02  0.40000176631E+02 0.  0.
        -12    1    3    3    0    0  0.26458437039E+02 -0.15910982416E+01 -0.25557653493E+02  0.36820838342E+02  0.00000000000E+00 0.  1.
         11    1    4    4    0    0  0.44108384056E+01  0.27667632623E+01  0.80684654355E+01  0.96026355306E+01  0.51100000000E-03 0. -1.
        -11    1    4    4    0    0 -0.39800624444E+01  0.58349729365E+01 -0.52969337114E+01  0.88286642951E+01  0.51100000000E-03 0.  1.
         12    1    4    4    0    0 -0.26889213000E+02 -0.70106379573E+01  0.22786121769E+02  0.35935861832E+02  0.00000000000E+00 0. -1.
</event>
<event>
 8    1  0.1254059E-006  0.9118800E+02  0.7816164E-02  0.1184000E+00
        -11   -1    0    0    0    0  0.00000000000E+00  0.00000000000E+00  0.45593999997E+02  0.45594000000E+02  0.51100000000E-03 0. -1.
         11   -1    0    0    0    0 -0.00000000000E+00 -0.00000000000E+00 -0.45593999997E+02  0.45594000000E+02  0.51100000000E-03 0.  1.
         23    2    1    2    0    0  0.71054273576E-14  0.17763568394E-14  0.30531133177E-15  0.91188000000E+02  0.91188000000E+02 0.  0.
    9900012    2    3    3    0    0  0.35578059607E+02  0.94840754189E+01  0.18490156702E+00  0.54367079309E+02  0.39999988901E+02 0.  0.
        -12    1    3    3    0    0 -0.35578059607E+02 -0.94840754189E+01 -0.18490156702E+00  0.36820920691E+02  0.00000000000E+00 0.  1.
         11    1    4    4    0    0  0.69501237230E+01 -0.22277184912E+01  0.12513325871E+01  0.74049161336E+01  0.51100000000E-03 0. -1.
        -11    1    4    4    0    0  0.31941832193E+02 -0.31515467186E+00  0.61791194594E+01  0.32535541856E+02  0.51100000000E-03 0.  1.
         12    1    4    4    0    0 -0.33138963093E+01  0.12026948582E+02 -0.72455504795E+01  0.14426621319E+02  0.00000000000E+00 0. -1.
</event>
<event>
 8    1  0.1254059E-006  0.9118800E+02  0.7816164E-02  0.1184000E+00
        -11   -1    0    0    0    0  0.00000000000E+00  0.00000000000E+00  0.45593999997E+02  0.45594000000E+02  0.51100000000E-03 0.  1.
         11   -1    0    0    0    0 -0.00000000000E+00 -0.00000000000E+00 -0.45593999997E+02  0.45594000000E+02  0.51100000000E-03 0. -1.
         23    2    1    2    0    0  0.17763568394E-14  0.14210854715E-13 -0.13322676296E-14  0.91188000000E+02  0.91188000000E+02 0.  0.
    9900012    2    3    3    0    0  0.13269003375E+02  0.34268359634E+02  0.23218455116E+01  0.54367110696E+02  0.40000060453E+02 0.  0.
        -12    1    3    3    0    0 -0.13269003375E+02 -0.34268359634E+02 -0.23218455116E+01  0.36820889304E+02  0.00000000000E+00 0.  1.
         11    1    4    4    0    0  0.16098918492E+02  0.10320995397E+02  0.12686893872E+02  0.22948973810E+02  0.51100000000E-03 0.  1.
        -11    1    4    4    0    0 -0.41024611803E+01 -0.11790476983E+01 -0.16876608426E+00  0.42718641672E+01  0.51100000000E-03 0. -1.
        -12    1    4    4    0    0  0.12725460637E+01  0.25126411936E+02 -0.10196282276E+02  0.27146272718E+02  0.00000000000E+00 0.  1.
</event>
<event>
 8    1  0.1254059E-006  0.9118800E+02  0.7816164E-02  0.1184000E+00
        -11   -1    0    0    0    0  0.00000000000E+00  0.00000000000E+00  0.45593999997E+02  0.45594000000E+02  0.51100000000E-03 0.  1.
         11   -1    0    0    0    0 -0.00000000000E+00 -0.00000000000E+00 -0.45593999997E+02  0.45594000000E+02  0.51100000000E-03 0. -1.
         23    2    1    2    0    0 -0.35527136788E-14  0.66613381478E-15  0.00000000000E+00  0.91188000000E+02  0.91188000000E+02 0.  0.
    9900012    2    3    3    0    0 -0.21800687216E+02  0.14616299504E+01 -0.29637407917E+02  0.54367051163E+02  0.39999924737E+02 0.  0.
        -12    1    3    3    0    0  0.21800687216E+02 -0.14616299504E+01  0.29637407917E+02  0.36820948837E+02  0.00000000000E+00 0.  1.
         11    1    4    4    0    0 -0.19623295328E+01  0.15470334239E+02 -0.22420923883E+02  0.27310800184E+02  0.51100000000E-03 0. -1.
        -11    1    4    4    0    0 -0.13621532444E+02 -0.39018565916E+01 -0.31716616583E+01  0.14519988599E+02  0.51100000000E-03 0.  1.
         12    1    4    4    0    0 -0.62168252386E+01 -0.10106847697E+02 -0.40448223760E+01  0.12536262380E+02  0.00000000000E+00 0. -1.
</event>
<event>
 8    1  0.1254059E-006  0.9118800E+02  0.7816164E-02  0.1184000E+00
        -11   -1    0    0    0    0  0.00000000000E+00  0.00000000000E+00  0.45593999997E+02  0.45594000000E+02  0.51100000000E-03 0.  1.
         11   -1    0    0    0    0 -0.00000000000E+00 -0.00000000000E+00 -0.45593999997E+02  0.45594000000E+02  0.51100000000E-03 0. -1.
         23    2    1    2    0    0 -0.44408920985E-15  0.71054273576E-14  0.00000000000E+00  0.91188000000E+02  0.91188000000E+02 0.  0.
    9900012    2    3    3    0    0 -0.22928015197E+01  0.25665027229E+02  0.26302639808E+02  0.54367089876E+02  0.40000012990E+02 0.  0.
         12    1    3    3    0    0  0.22928015197E+01 -0.25665027229E+02 -0.26302639808E+02  0.36820910124E+02  0.00000000000E+00 0. -1.
         11    1    4    4    0    0 -0.60722553816E+01  0.19302462167E+00 -0.15784649030E+01  0.62770292045E+01  0.51100000000E-03 0. -1.
        -11    1    4    4    0    0  0.10919457828E+02  0.49826469707E+01 -0.91161704777E+00  0.12037124906E+02  0.51100000000E-03 0.  1.
        -12    1    4    4    0    0 -0.71400039663E+01  0.20489355637E+02  0.28792721759E+02  0.36052935766E+02  0.00000000000E+00 0.  1.
</event>
<event>
 8    1  0.1254059E-006  0.9118800E+02  0.7816164E-02  0.1184000E+00
        -11   -1    0    0    0    0  0.00000000000E+00  0.00000000000E+00  0.45593999997E+02  0.45594000000E+02  0.51100000000E-03 0.  1.
         11   -1    0    0    0    0 -0.00000000000E+00 -0.00000000000E+00 -0.45593999997E+02  0.45594000000E+02  0.51100000000E-03 0. -1.
         23    2    1    2    0    0  0.00000000000E+00 -0.35527136788E-14  0.00000000000E+00  0.91188000000E+02  0.91188000000E+02 0.  0.
    9900012    2    3    3    0    0  0.88061556126E+01 -0.22891457477E+02 -0.27463042411E+02  0.54367001907E+02  0.39999812446E+02 0.  0.
        -12    1    3    3    0    0 -0.88061556126E+01  0.22891457477E+02  0.27463042411E+02  0.36820998093E+02  0.00000000000E+00 0.  1.
         11    1    4    4    0    0  0.22388838875E+02 -0.14633517861E+02 -0.11351017429E+02  0.29055903843E+02  0.51100000000E-03 0. -1.
        -11    1    4    4    0    0 -0.11259808101E+02 -0.62836421294E+01 -0.50690574677E+01  0.13855063361E+02  0.51100000000E-03 0.  1.
        -12    1    4    4    0    0 -0.23228751621E+01 -0.19742974865E+01 -0.11042967514E+02  0.11456034702E+02  0.00000000000E+00 0.  1.
</event>
<event>
 8    1  0.1254059E-006  0.9118800E+02  0.7816164E-02  0.1184000E+00
        -11   -1    0    0    0    0  0.00000000000E+00  0.00000000000E+00  0.45593999997E+02  0.45594000000E+02  0.51100000000E-03 0.  1.
         11   -1    0    0    0    0 -0.00000000000E+00 -0.00000000000E+00 -0.45593999997E+02  0.45594000000E+02  0.51100000000E-03 0. -1.
         23    2    1    2    0    0 -0.17763568394E-14  0.00000000000E+00  0.44408920985E-15  0.91188000000E+02  0.91188000000E+02 0.  0.
    9900012    2    3    3    0    0  0.82485187280E+01 -0.35851447823E+02  0.15543384321E+01  0.54367077413E+02  0.39999984578E+02 0.  0.
        -12    1    3    3    0    0 -0.82485187280E+01  0.35851447823E+02 -0.15543384321E+01  0.36820922587E+02  0.00000000000E+00 0.  1.
         11    1    4    4    0    0 -0.43794606375E+01 -0.20367154574E+02 -0.20665509828E+01  0.20934930001E+02  0.51100000000E-03 0. -1.
        -11    1    4    4    0    0  0.19196929404E+02 -0.17241859630E+02  0.54882760903E+01  0.26380390383E+02  0.51100000000E-03 0.  1.
        -12    1    4    4    0    0 -0.65689500385E+01  0.17575663818E+01 -0.18673866754E+01  0.70517570286E+01  0.00000000000E+00 0.  1.
</event>
<event>
 8    1  0.1254059E-006  0.9118800E+02  0.7816164E-02  0.1184000E+00
        -11   -1    0    0    0    0  0.00000000000E+00  0.00000000000E+00  0.45593999997E+02  0.45594000000E+02  0.51100000000E-03 0. -1.
         11   -1    0    0    0    0 -0.00000000000E+00 -0.00000000000E+00 -0.45593999997E+02  0.45594000000E+02  0.51100000000E-03 0.  1.
         23    2    1    2    0    0  0.00000000000E+00  0.88817841970E-15  0.00000000000E+00  0.91188000000E+02  0.91188000000E+02 0.  0.
    9900012    2    3    3    0    0 -0.34907317981E+02  0.67351313619E+01  0.95862739017E+01  0.54367088952E+02  0.40000010885E+02 0.  0.
        -12    1    3    3    0    0  0.34907317981E+02 -0.67351313619E+01 -0.95862739017E+01  0.36820911048E+02  0.00000000000E+00 0.  1.
         11    1    4    4    0    0 -0.88479372074E+01  0.23366170454E+01  0.14532956919E+01  0.92659506081E+01  0.51100000000E-03 0. -1.
        -11    1    4    4    0    0 -0.27153946029E+02  0.12027926981E+02 -0.47622954354E+01  0.30078019724E+02  0.51100000000E-03 0.  1.
         12    1    4    4    0    0  0.10945652559E+01 -0.76294126648E+01  0.12895273645E+02  0.15023118621E+02  0.00000000000E+00 0. -1.
</event>
<event>
 8    1  0.1254059E-006  0.9118800E+02  0.7816164E-02  0.1184000E+00
        -11   -1    0    0    0    0  0.00000000000E+00  0.00000000000E+00  0.45593999997E+02  0.45594000000E+02  0.51100000000E-03 0.  1.
         11   -1    0    0    0    0 -0.00000000000E+00 -0.00000000000E+00 -0.45593999997E+02  0.45594000000E+02  0.51100000000E-03 0. -1.
         23    2    1    2    0    0  0.26645352591E-14  0.00000000000E+00 -0.35527136788E-14  0.91188000000E+02  0.91188000000E+02 0.  0.
    9900012    2    3    3    0    0 -0.68717949681E+01 -0.32980888702E+02  0.14859938549E+02  0.54367104311E+02  0.40000045898E+02 0.  0.
        -12    1    3    3    0    0  0.68717949681E+01  0.32980888702E+02 -0.14859938549E+02  0.36820895689E+02  0.00000000000E+00 0.  1.
         11    1    4    4    0    0 -0.20435339982E+02 -0.22384529442E+02  0.78756047149E+01  0.31316057038E+02  0.51100000000E-03 0. -1.
        -11    1    4    4    0    0  0.79885576419E+01 -0.45247499887E+01 -0.34022514621E+01  0.97911046838E+01  0.51100000000E-03 0.  1.
        -12    1    4    4    0    0  0.55749873722E+01 -0.60716092710E+01  0.10386585296E+02  0.13259942589E+02  0.00000000000E+00 0.  1.
</event>
<event>
 8    1  0.1254059E-006  0.9118800E+02  0.7816164E-02  0.1184000E+00
        -11   -1    0    0    0    0  0.00000000000E+00  0.00000000000E+00  0.45593999997E+02  0.45594000000E+02  0.51100000000E-03 0. -1.
         11   -1    0    0    0    0 -0.00000000000E+00 -0.00000000000E+00 -0.45593999997E+02  0.45594000000E+02  0.51100000000E-03 0.  1.
         23    2    1    2    0    0 -0.88817841970E-15  0.00000000000E+00  0.00000000000E+00  0.91188000000E+02  0.91188000000E+02 0.  0.
    9900012    2    3    3    0    0  0.64198259898E+01  0.88835205460E+01  0.35151777919E+02  0.54367101126E+02  0.40000038637E+02 0.  0.
        -12    1    3    3    0    0 -0.64198259898E+01 -0.88835205460E+01 -0.35151777919E+02  0.36820898874E+02  0.00000000000E+00 0.  1.
         11    1    4    4    0    0  0.11499291908E+02  0.79472249667E+01  0.39736163773E+01  0.14532092981E+02  0.51100000000E-03 0. -1.
        -11    1    4    4    0    0 -0.19533036559E+01  0.25758582055E+01 -0.36228285805E+01  0.48554431159E+01  0.51100000000E-03 0.  1.
         12    1    4    4    0    0 -0.31261622619E+01 -0.16395626262E+01  0.34800990122E+02  0.34979565028E+02  0.00000000000E+00 0. -1.
</event>
<event>
 8    1  0.1254059E-006  0.9118800E+02  0.7816164E-02  0.1184000E+00
        -11   -1    0    0    0    0  0.00000000000E+00  0.00000000000E+00  0.45593999997E+02  0.45594000000E+02  0.51100000000E-03 0.  1.
         11   -1    0    0    0    0 -0.00000000000E+00 -0.00000000000E+00 -0.45593999997E+02  0.45594000000E+02  0.51100000000E-03 0. -1.
         23    2    1    2    0    0  0.00000000000E+00 -0.17763568394E-14  0.00000000000E+00  0.91188000000E+02  0.91188000000E+02 0.  0.
    9900012    2    3    3    0    0  0.32961667761E+02  0.15987612099E+02  0.37019907804E+01  0.54367081788E+02  0.39999994553E+02 0.  0.
         12    1    3    3    0    0 -0.32961667761E+02 -0.15987612099E+02 -0.37019907804E+01  0.36820918212E+02  0.00000000000E+00 0. -1.
         11    1    4    4    0    0 -0.80804246947E+01  0.34113242449E+01  0.44169709873E+01  0.98203884503E+01  0.51100000000E-03 0. -1.
        -11    1    4    4    0    0  0.18632474808E+02  0.11507622831E+02 -0.24939156828E+01  0.22041191355E+02  0.51100000000E-03 0.  1.
         12    1    4    4    0    0  0.22409617648E+02  0.10686650235E+01  0.17789354759E+01  0.22505501983E+02  0.00000000000E+00 0. -1.
</event>
<event>
 8    1  0.1254059E-006  0.9118800E+02  0.7816164E-02  0.1184000E+00
        -11   -1    0    0    0    0  0.00000000000E+00  0.00000000000E+00  0.45593999997E+02  0.45594000000E+02  0.51100000000E-03 0. -1.
         11   -1    0    0    0    0 -0.00000000000E+00 -0.00000000000E+00 -0.45593999997E+02  0.45594000000E+02  0.51100000000E-03 0.  1.
         23    2    1    2    0    0  0.17763568394E-14  0.35527136788E-14 -0.71054273576E-14  0.91188000000E+02  0.91188000000E+02 0.  0.
    9900012    2    3    3    0    0 -0.13731142684E+02 -0.10040039522E+02  0.32656286656E+02  0.54367085682E+02  0.40000003430E+02 0.  0.
        -12    1    3    3    0    0  0.13731142684E+02  0.10040039522E+02 -0.32656286656E+02  0.36820914318E+02  0.00000000000E+00 0.  1.
         11    1    4    4    0    0  0.25743194626E+01 -0.55738616022E+01  0.34918716321E+01  0.70631594639E+01  0.51100000000E-03 0. -1.
        -11    1    4    4    0    0  0.20693822160E+01  0.60883079969E+01 -0.42706808231E+01  0.77193621482E+01  0.51100000000E-03 0.  1.
         12    1    4    4    0    0 -0.18374844363E+02 -0.10554485916E+02  0.33435095847E+02  0.39584564070E+02  0.00000000000E+00 0. -1.
</event>
<event>
 8    1  0.1254059E-006  0.9118800E+02  0.7816164E-02  0.1184000E+00
        -11   -1    0    0    0    0  0.00000000000E+00  0.00000000000E+00  0.45593999997E+02  0.45594000000E+02  0.51100000000E-03 0. -1.
         11   -1    0    0    0    0 -0.00000000000E+00 -0.00000000000E+00 -0.45593999997E+02  0.45594000000E+02  0.51100000000E-03 0.  1.
         23    2    1    2    0    0  0.17763568394E-14  0.00000000000E+00  0.00000000000E+00  0.91188000000E+02  0.91188000000E+02 0.  0.
    9900012    2    3    3    0    0  0.13632880696E+02  0.11877159596E+02 -0.32075731904E+02  0.54367150834E+02  0.40000151957E+02 0.  0.
         12    1    3    3    0    0 -0.13632880696E+02 -0.11877159596E+02  0.32075731904E+02  0.36820849166E+02  0.00000000000E+00 0. -1.
         11    1    4    4    0    0 -0.54155048179E+01 -0.51287551742E+00 -0.37525641599E+01  0.66085150952E+01  0.51100000000E-03 0. -1.
        -11    1    4    4    0    0  0.19901746900E+02 -0.33544225867E+01 -0.72621122564E+01  0.21449241368E+02  0.51100000000E-03 0.  1.
         12    1    4    4    0    0 -0.85336138670E+00  0.15744457700E+02 -0.21061055487E+02  0.26309394371E+02  0.00000000000E+00 0. -1.
</event>
<event>
 8    1  0.1254059E-006  0.9118800E+02  0.7816164E-02  0.1184000E+00
        -11   -1    0    0    0    0  0.00000000000E+00  0.00000000000E+00  0.45593999997E+02  0.45594000000E+02  0.51100000000E-03 0.  1.
         11   -1    0    0    0    0 -0.00000000000E+00 -0.00000000000E+00 -0.45593999997E+02  0.45594000000E+02  0.51100000000E-03 0. -1.
         23    2    1    2    0    0  0.53290705182E-14  0.31086244690E-14 -0.71054273576E-14  0.91188000000E+02  0.91188000000E+02 0.  0.
    9900012    2    3    3    0    0 -0.14625366907E+02 -0.18466387460E+01  0.33741194531E+02  0.54367086918E+02  0.40000006248E+02 0.  0.
         12    1    3    3    0    0  0.14625366907E+02  0.18466387460E+01 -0.33741194531E+02  0.36820913082E+02  0.00000000000E+00 0. -1.
         11    1    4    4    0    0 -0.14490986838E+00  0.96559836350E+01  0.61851209025E+01  0.11467987603E+02  0.51100000000E-03 0. -1.
        -11    1    4    4    0    0  0.69157847073E+01  0.15389313945E+01  0.10194138003E+02  0.12414380285E+02  0.51100000000E-03 0.  1.
         12    1    4    4    0    0 -0.21396241746E+02 -0.13041553775E+02  0.17361935625E+02  0.30484719030E+02  0.00000000000E+00 0. -1.
</event>
<event>
 8    1  0.1254059E-006  0.9118800E+02  0.7816164E-02  0.1184000E+00
        -11   -1    0    0    0    0  0.00000000000E+00  0.00000000000E+00  0.45593999997E+02  0.45594000000E+02  0.51100000000E-03 0.  1.
         11   -1    0    0    0    0 -0.00000000000E+00 -0.00000000000E+00 -0.45593999997E+02  0.45594000000E+02  0.51100000000E-03 0. -1.
         23    2    1    2    0    0  0.35527136788E-14  0.00000000000E+00  0.00000000000E+00  0.91188000000E+02  0.91188000000E+02 0.  0.
    9900012    2    3    3    0    0 -0.21946341042E+02  0.24971166330E+02  0.15829695944E+02  0.54367077867E+02  0.39999985613E+02 0.  0.
         12    1    3    3    0    0  0.21946341042E+02 -0.24971166330E+02 -0.15829695944E+02  0.36820922133E+02  0.00000000000E+00 0. -1.
         11    1    4    4    0    0 -0.20539265203E+02  0.24846523325E+01  0.93697891120E+01  0.22711844059E+02  0.51100000000E-03 0. -1.
        -11    1    4    4    0    0  0.84018112297E+01  0.77669664048E+01  0.79063623391E+01  0.13907795108E+02  0.51100000000E-03 0.  1.
        -12    1    4    4    0    0 -0.98088870691E+01  0.14719547593E+02 -0.14464555070E+01  0.17747438700E+02  0.00000000000E+00 0.  1.
</event>
<event>
 8    1  0.1254059E-006  0.9118800E+02  0.7816164E-02  0.1184000E+00
        -11   -1    0    0    0    0  0.00000000000E+00  0.00000000000E+00  0.45593999997E+02  0.45594000000E+02  0.51100000000E-03 0.  1.
         11   -1    0    0    0    0 -0.00000000000E+00 -0.00000000000E+00 -0.45593999997E+02  0.45594000000E+02  0.51100000000E-03 0. -1.
         23    2    1    2    0    0  0.00000000000E+00  0.00000000000E+00  0.00000000000E+00  0.91188000000E+02  0.91188000000E+02 0.  0.
    9900012    2    3    3    0    0 -0.24234916614E+02  0.20606625585E+02 -0.18542251913E+02  0.54367091439E+02  0.40000016553E+02 0.  0.
        -12    1    3    3    0    0  0.24234916614E+02 -0.20606625585E+02  0.18542251913E+02  0.36820908561E+02  0.00000000000E+00 0.  1.
         11    1    4    4    0    0 -0.75786029049E+01 -0.11291890172E+02 -0.48980751524E+01  0.14454519920E+02  0.51100000000E-03 0. -1.
        -11    1    4    4    0    0 -0.16731091673E+01  0.87497480207E+01 -0.75388221440E+01  0.11670099584E+02  0.51100000000E-03 0.  1.
        -12    1    4    4    0    0 -0.14983204542E+02  0.23148767736E+02 -0.61053546164E+01  0.28242471935E+02  0.00000000000E+00 0.  1.
</event>
<event>
 8    1  0.1254059E-006  0.9118800E+02  0.7816164E-02  0.1184000E+00
        -11   -1    0    0    0    0  0.00000000000E+00  0.00000000000E+00  0.45593999997E+02  0.45594000000E+02  0.51100000000E-03 0.  1.
         11   -1    0    0    0    0 -0.00000000000E+00 -0.00000000000E+00 -0.45593999997E+02  0.45594000000E+02  0.51100000000E-03 0. -1.
         23    2    1    2    0    0  0.00000000000E+00  0.00000000000E+00  0.00000000000E+00  0.91188000000E+02  0.91188000000E+02 0.  0.
    9900012    2    3    3    0    0  0.22942581281E+02 -0.23506597978E+02  0.16639078080E+02  0.54367067045E+02  0.39999960942E+02 0.  0.
        -12    1    3    3    0    0 -0.22942581281E+02  0.23506597978E+02 -0.16639078080E+02  0.36820932955E+02  0.00000000000E+00 0.  1.
         11    1    4    4    0    0 -0.10102221661E+01 -0.62607633795E+01  0.68173956198E+01  0.93109929769E+01  0.51100000000E-03 0. -1.
        -11    1    4    4    0    0  0.42241646607E+00  0.72334128184E+01  0.83698804493E+01  0.11070483082E+02  0.51100000000E-03 0.  1.
         12    1    4    4    0    0  0.23530386981E+02 -0.24479247417E+02  0.14518020114E+01  0.33985590986E+02  0.00000000000E+00 0. -1.
</event>
<event>
 8    1  0.1254059E-006  0.9118800E+02  0.7816164E-02  0.1184000E+00
        -11   -1    0    0    0    0  0.00000000000E+00  0.00000000000E+00  0.45593999997E+02  0.45594000000E+02  0.51100000000E-03 0.  1.
         11   -1    0    0    0    0 -0.00000000000E+00 -0.00000000000E+00 -0.45593999997E+02  0.45594000000E+02  0.51100000000E-03 0. -1.
         23    2    1    2    0    0 -0.35527136788E-14  0.00000000000E+00  0.00000000000E+00  0.91188000000E+02  0.91188000000E+02 0.  0.
    9900012    2    3    3    0    0 -0.17868765436E+02 -0.11836463017E+02  0.29939697851E+02  0.54367080099E+02  0.39999990702E+02 0.  0.
         12    1    3    3    0    0  0.17868765436E+02  0.11836463017E+02 -0.29939697851E+02  0.36820919901E+02  0.00000000000E+00 0. -1.
         11    1    4    4    0    0  0.37532396794E+01 -0.88975613271E+01 -0.32041297817E+01  0.10174470678E+02  0.51100000000E-03 0. -1.
        -11    1    4    4    0    0 -0.20105849575E+02 -0.84909530272E+01  0.19052847147E+02  0.28971580128E+02  0.51100000000E-03 0.  1.
        -12    1    4    4    0    0 -0.15161555396E+01  0.55520513376E+01  0.14090980486E+02  0.15221029293E+02  0.00000000000E+00 0.  1.
</event>
<event>
 8    1  0.1254059E-006  0.9118800E+02  0.7816164E-02  0.1184000E+00
        -11   -1    0    0    0    0  0.00000000000E+00  0.00000000000E+00  0.45593999997E+02  0.45594000000E+02  0.51100000000E-03 0.  1.
         11   -1    0    0    0    0 -0.00000000000E+00 -0.00000000000E+00 -0.45593999997E+02  0.45594000000E+02  0.51100000000E-03 0. -1.
         23    2    1    2    0    0  0.00000000000E+00  0.00000000000E+00 -0.17763568394E-14  0.91188000000E+02  0.91188000000E+02 0.  0.
    9900012    2    3    3    0    0 -0.33045600296E+02 -0.31114484409E+01  0.15940109655E+02  0.54367083307E+02  0.39999998015E+02 0.  0.
         12    1    3    3    0    0  0.33045600296E+02  0.31114484409E+01 -0.15940109655E+02  0.36820916693E+02  0.00000000000E+00 0. -1.
         11    1    4    4    0    0 -0.10249272039E+02 -0.16949059838E+01  0.19401500287E+02  0.22007691775E+02  0.51100000000E-03 0. -1.
        -11    1    4    4    0    0 -0.47903471835E+01 -0.29956831343E+01  0.88429395719E+01  0.10493765964E+02  0.51100000000E-03 0.  1.
        -12    1    4    4    0    0 -0.18005981074E+02  0.15791406772E+01 -0.12304330204E+02  0.21865625568E+02  0.00000000000E+00 0.  1.
</event>
<event>
 8    1  0.1254059E-006  0.9118800E+02  0.7816164E-02  0.1184000E+00
        -11   -1    0    0    0    0  0.00000000000E+00  0.00000000000E+00  0.45593999997E+02  0.45594000000E+02  0.51100000000E-03 0. -1.
         11   -1    0    0    0    0 -0.00000000000E+00 -0.00000000000E+00 -0.45593999997E+02  0.45594000000E+02  0.51100000000E-03 0.  1.
         23    2    1    2    0    0 -0.88817841970E-15  0.00000000000E+00  0.00000000000E+00  0.91188000000E+02  0.91188000000E+02 0.  0.
    9900012    2    3    3    0    0 -0.42130931542E+01 -0.14548200734E+02 -0.33561504199E+02  0.54367151794E+02  0.40000154145E+02 0.  0.
         12    1    3    3    0    0  0.42130931542E+01  0.14548200734E+02  0.33561504199E+02  0.36820848206E+02  0.00000000000E+00 0. -1.
         11    1    4    4    0    0 -0.30371586138E+01 -0.59809353958E+01  0.51225752351E+01  0.84401835262E+01  0.51100000000E-03 0. -1.
        -11    1    4    4    0    0 -0.97241270655E+01 -0.11360558414E+02 -0.29496623033E+02  0.33070707662E+02  0.51100000000E-03 0.  1.
        -12    1    4    4    0    0  0.85481925251E+01  0.27932930763E+01 -0.91874564006E+01  0.12856260606E+02  0.00000000000E+00 0.  1.
</event>
<event>
 8    1  0.1254059E-006  0.9118800E+02  0.7816164E-02  0.1184000E+00
        -11   -1    0    0    0    0  0.00000000000E+00  0.00000000000E+00  0.45593999997E+02  0.45594000000E+02  0.51100000000E-03 0.  1.
         11   -1    0    0    0    0 -0.00000000000E+00 -0.00000000000E+00 -0.45593999997E+02  0.45594000000E+02  0.51100000000E-03 0. -1.
         23    2    1    2    0    0 -0.35527136788E-14 -0.44408920985E-15 -0.71054273576E-14  0.91188000000E+02  0.91188000000E+02 0.  0.
    9900012    2    3    3    0    0  0.18827959291E+02  0.31922563317E+01  0.31481729687E+02  0.54367056834E+02  0.39999937664E+02 0.  0.
         12    1    3    3    0    0 -0.18827959291E+02 -0.31922563317E+01 -0.31481729687E+02  0.36820943166E+02  0.00000000000E+00 0. -1.
         11    1    4    4    0    0  0.94303602947E+01 -0.12351479140E+02  0.25548579060E+02  0.29903521942E+02  0.51100000000E-03 0. -1.
        -11    1    4    4    0    0  0.60413557743E+01 -0.25170264150E+00  0.57060522884E+01  0.83138659353E+01  0.51100000000E-03 0.  1.
        -12    1    4    4    0    0  0.33562432217E+01  0.15795438114E+02  0.22709833834E+00  0.16149668957E+02  0.00000000000E+00 0.  1.
</event>
<event>
 8    1  0.1254059E-006  0.9118800E+02  0.7816164E-02  0.1184000E+00
        -11   -1    0    0    0    0  0.00000000000E+00  0.00000000000E+00  0.45593999997E+02  0.45594000000E+02  0.51100000000E-03 0. -1.
         11   -1    0    0    0    0 -0.00000000000E+00 -0.00000000000E+00 -0.45593999997E+02  0.45594000000E+02  0.51100000000E-03 0.  1.
         23    2    1    2    0    0  0.00000000000E+00 -0.35527136788E-14  0.00000000000E+00  0.91188000000E+02  0.91188000000E+02 0.  0.
    9900012    2    3    3    0    0  0.25476154068E+02 -0.21234090119E+02  0.15995588284E+02  0.54367084017E+02  0.39999999635E+02 0.  0.
        -12    1    3    3    0    0 -0.25476154068E+02  0.21234090119E+02 -0.15995588284E+02  0.36820915983E+02  0.00000000000E+00 0.  1.
         11    1    4    4    0    0 -0.44856665249E+00 -0.17024830146E+01  0.16832818171E+02  0.16924639680E+02  0.51100000000E-03 0. -1.
        -11    1    4    4    0    0  0.20605517140E+02 -0.45484189067E+01  0.23328974079E+01  0.21230116856E+02  0.51100000000E-03 0.  1.
         12    1    4    4    0    0  0.53192035804E+01 -0.14983188198E+02 -0.31701272954E+01  0.16212327481E+02  0.00000000000E+00 0. -1.
</event>
<event>
 8    1  0.1254059E-006  0.9118800E+02  0.7816164E-02  0.1184000E+00
        -11   -1    0    0    0    0  0.00000000000E+00  0.00000000000E+00  0.45593999997E+02  0.45594000000E+02  0.51100000000E-03 0. -1.
         11   -1    0    0    0    0 -0.00000000000E+00 -0.00000000000E+00 -0.45593999997E+02  0.45594000000E+02  0.51100000000E-03 0.  1.
         23    2    1    2    0    0 -0.44408920985E-14  0.00000000000E+00  0.71054273576E-14  0.91188000000E+02  0.91188000000E+02 0.  0.
    9900012    2    3    3    0    0 -0.48236991852E+01 -0.14610384910E+02  0.33452180881E+02  0.54367084385E+02  0.40000000472E+02 0.  0.
        -12    1    3    3    0    0  0.48236991852E+01  0.14610384910E+02 -0.33452180881E+02  0.36820915615E+02  0.00000000000E+00 0.  1.
         11    1    4    4    0    0 -0.30744099550E+01  0.12135862620E+01  0.77651736142E+01  0.84393548158E+01  0.51100000000E-03 0. -1.
        -11    1    4    4    0    0  0.16310471567E+02 -0.97480890632E+01  0.12143059535E+02  0.22550180005E+02  0.51100000000E-03 0.  1.
        -12    1    4    4    0    0 -0.18059760797E+02 -0.60758821090E+01  0.13543947732E+02  0.23377549564E+02  0.00000000000E+00 0.  1.
</event>
<event>
 8    1  0.1254059E-006  0.9118800E+02  0.7816164E-02  0.1184000E+00
        -11   -1    0    0    0    0  0.00000000000E+00  0.00000000000E+00  0.45593999997E+02  0.45594000000E+02  0.51100000000E-03 0.  1.
         11   -1    0    0    0    0 -0.00000000000E+00 -0.00000000000E+00 -0.45593999997E+02  0.45594000000E+02  0.51100000000E-03 0. -1.
         23    2    1    2    0    0  0.00000000000E+00  0.88817841970E-15  0.88817841970E-15  0.91188000000E+02  0.91188000000E+02 0.  0.
    9900012    2    3    3    0    0 -0.35617667059E+02  0.74755929768E+01 -0.55925765460E+01  0.54367087335E+02  0.40000007198E+02 0.  0.
        -12    1    3    3    0    0  0.35617667059E+02 -0.74755929768E+01  0.55925765460E+01  0.36820912665E+02  0.00000000000E+00 0.  1.
         11    1    4    4    0    0 -0.12070150547E+02  0.20150137708E+01 -0.63456374408E+01  0.13784626564E+02  0.51100000000E-03 0. -1.
        -11    1    4    4    0    0 -0.91850566673E+01  0.69996323157E+01 -0.15181976580E+02  0.19074918917E+02  0.51100000000E-03 0.  1.
        -12    1    4    4    0    0 -0.14362459844E+02 -0.15390531097E+01  0.15935037475E+02  0.21507541854E+02  0.00000000000E+00 0.  1.
</event>
<event>
 8    1  0.1254059E-006  0.9118800E+02  0.7816164E-02  0.1184000E+00
        -11   -1    0    0    0    0  0.00000000000E+00  0.00000000000E+00  0.45593999997E+02  0.45594000000E+02  0.51100000000E-03 0.  1.
         11   -1    0    0    0    0 -0.00000000000E+00 -0.00000000000E+00 -0.45593999997E+02  0.45594000000E+02  0.51100000000E-03 0. -1.
         23    2    1    2    0    0  0.00000000000E+00 -0.88817841970E-15  0.00000000000E+00  0.91188000000E+02  0.91188000000E+02 0.  0.
    9900012    2    3    3    0    0 -0.32598956737E+02 -0.61208113678E+01  0.15988259639E+02  0.54367071734E+02  0.39999971631E+02 0.  0.
         12    1    3    3    0    0  0.32598956737E+02  0.61208113678E+01 -0.15988259639E+02  0.36820928266E+02  0.00000000000E+00 0. -1.
         11    1    4    4    0    0 -0.71119947106E+01 -0.75914261852E+01  0.56005228535E+01  0.11814231959E+02  0.51100000000E-03 0. -1.
        -11    1    4    4    0    0 -0.16766415324E+02 -0.12805213955E+02 -0.27586827500E+01  0.21276666046E+02  0.51100000000E-03 0.  1.
         12    1    4    4    0    0 -0.87205467025E+01  0.14275828773E+02  0.13146419535E+02  0.21276173729E+02  0.00000000000E+00 0. -1.
</event>
<event>
 8    1  0.1254059E-006  0.9118800E+02  0.7816164E-02  0.1184000E+00
        -11   -1    0    0    0    0  0.00000000000E+00  0.00000000000E+00  0.45593999997E+02  0.45594000000E+02  0.51100000000E-03 0. -1.
         11   -1    0    0    0    0 -0.00000000000E+00 -0.00000000000E+00 -0.45593999997E+02  0.45594000000E+02  0.51100000000E-03 0.  1.
         23    2    1    2    0    0 -0.17763568394E-14  0.00000000000E+00  0.00000000000E+00  0.91188000000E+02  0.91188000000E+02 0.  0.
    9900012    2    3    3    0    0  0.14741395974E+02  0.31547439769E+02  0.11967937056E+02  0.54367065348E+02  0.39999957074E+02 0.  0.
        -12    1    3    3    0    0 -0.14741395974E+02 -0.31547439769E+02 -0.11967937056E+02  0.36820934652E+02  0.00000000000E+00 0.  1.
         11    1    4    4    0    0  0.88159681687E+00  0.11808538165E+02 -0.40406859030E+01  0.12511831575E+02  0.51100000000E-03 0. -1.
        -11    1    4    4    0    0  0.78205932700E+01  0.25493270705E+02  0.19268659365E+02  0.32899084552E+02  0.51100000000E-03 0.  1.
        -12    1    4    4    0    0  0.60392058875E+01 -0.57543691015E+01 -0.32600364057E+01  0.89561492213E+01  0.00000000000E+00 0.  1.
</event>
<event>
 8    1  0.1254059E-006  0.9118800E+02  0.7816164E-02  0.1184000E+00
        -11   -1    0    0    0    0  0.00000000000E+00  0.00000000000E+00  0.45593999997E+02  0.45594000000E+02  0.51100000000E-03 0.  1.
         11   -1    0    0    0    0 -0.00000000000E+00 -0.00000000000E+00 -0.45593999997E+02  0.45594000000E+02  0.51100000000E-03 0. -1.
         23    2    1    2    0    0  0.35527136788E-14 -0.35527136788E-14  0.00000000000E+00  0.91188000000E+02  0.91188000000E+02 0.  0.
    9900012    2    3    3    0    0 -0.64760888822E+01  0.20450440225E+02  0.29926905016E+02  0.54367083710E+02  0.39999998934E+02 0.  0.
         12    1    3    3    0    0  0.64760888822E+01 -0.20450440225E+02 -0.29926905016E+02  0.36820916290E+02  0.00000000000E+00 0. -1.
         11    1    4    4    0    0 -0.31886967645E+00  0.21413534177E+01 -0.46072863389E+01  0.50905952501E+01  0.51100000000E-03 0. -1.
        -11    1    4    4    0    0  0.11787184799E+02  0.49938773148E+01  0.12945770684E+02  0.18206304265E+02  0.51100000000E-03 0.  1.
        -12    1    4    4    0    0 -0.17944404004E+02  0.13315209492E+02  0.21588420670E+02  0.31070184195E+02  0.00000000000E+00 0.  1.
</event>
<event>
 8    1  0.1254059E-006  0.9118800E+02  0.7816164E-02  0.1184000E+00
        -11   -1    0    0    0    0  0.00000000000E+00  0.00000000000E+00  0.45593999997E+02  0.45594000000E+02  0.51100000000E-03 0. -1.
         11   -1    0    0    0    0 -0.00000000000E+00 -0.00000000000E+00 -0.45593999997E+02  0.45594000000E+02  0.51100000000E-03 0.  1.
         23    2    1    2    0    0 -0.71054273576E-14 -0.35527136788E-14  0.17763568394E-14  0.91188000000E+02  0.91188000000E+02 0.  0.
    9900012    2    3    3    0    0  0.26795842995E+02  0.20949870992E+02 -0.14101968763E+02  0.54367084485E+02  0.40000000700E+02 0.  0.
         12    1    3    3    0    0 -0.26795842995E+02 -0.20949870992E+02  0.14101968763E+02  0.36820915515E+02  0.00000000000E+00 0. -1.
         11    1    4    4    0    0  0.15717441878E+02  0.37411588299E+01 -0.13438795258E+02  0.21015124716E+02  0.51100000000E-03 0. -1.
        -11    1    4    4    0    0 -0.79533268128E+01  0.10453718793E+02  0.22930667420E+00  0.13137283806E+02  0.51100000000E-03 0.  1.
         12    1    4    4    0    0  0.19031727930E+02  0.67549933686E+01 -0.89248017904E+00  0.20214675963E+02  0.00000000000E+00 0. -1.
</event>
<event>
 8    1  0.1254059E-006  0.9118800E+02  0.7816164E-02  0.1184000E+00
        -11   -1    0    0    0    0  0.00000000000E+00  0.00000000000E+00  0.45593999997E+02  0.45594000000E+02  0.51100000000E-03 0.  1.
         11   -1    0    0    0    0 -0.00000000000E+00 -0.00000000000E+00 -0.45593999997E+02  0.45594000000E+02  0.51100000000E-03 0. -1.
         23    2    1    2    0    0 -0.35527136788E-14 -0.15543122345E-14  0.35527136788E-14  0.91188000000E+02  0.91188000000E+02 0.  0.
    9900012    2    3    3    0    0  0.25935647525E+02  0.12387569015E+01 -0.26107214366E+02  0.54367095976E+02  0.40000026896E+02 0.  0.
        -12    1    3    3    0    0 -0.25935647525E+02 -0.12387569015E+01  0.26107214366E+02  0.36820904024E+02  0.00000000000E+00 0.  1.
         11    1    4    4    0    0 -0.14943031088E+01 -0.95719584351E+01  0.18220792578E+01  0.98577534534E+01  0.51100000000E-03 0. -1.
        -11    1    4    4    0    0  0.17378165927E+02  0.79770148627E+01 -0.57064855031E+01  0.19954883967E+02  0.51100000000E-03 0.  1.
         12    1    4    4    0    0  0.10051784707E+02  0.28337004739E+01 -0.22222808121E+02  0.24554458555E+02  0.00000000000E+00 0. -1.
</event>
<event>
 8    1  0.1254059E-006  0.9118800E+02  0.7816164E-02  0.1184000E+00
        -11   -1    0    0    0    0  0.00000000000E+00  0.00000000000E+00  0.45593999997E+02  0.45594000000E+02  0.51100000000E-03 0.  1.
         11   -1    0    0    0    0 -0.00000000000E+00 -0.00000000000E+00 -0.45593999997E+02  0.45594000000E+02  0.51100000000E-03 0. -1.
         23    2    1    2    0    0  0.88817841970E-15  0.35527136788E-14  0.00000000000E+00  0.91188000000E+02  0.91188000000E+02 0.  0.
    9900012    2    3    3    0    0  0.73861207078E+01  0.31177880171E+02 -0.18142901705E+02  0.54367083752E+02  0.39999999029E+02 0.  0.
        -12    1    3    3    0    0 -0.73861207078E+01 -0.31177880171E+02  0.18142901705E+02  0.36820916248E+02  0.00000000000E+00 0.  1.
         11    1    4    4    0    0  0.86757240785E+01  0.12175623243E+01 -0.21367337829E+02  0.23093587258E+02  0.51100000000E-03 0. -1.
        -11    1    4    4    0    0  0.22937334491E+01  0.53426136344E+01 -0.13754675730E+01  0.59746669269E+01  0.51100000000E-03 0.  1.
         12    1    4    4    0    0 -0.35833368198E+01  0.24617704212E+02  0.45999036963E+01  0.25298829567E+02  0.00000000000E+00 0. -1.
</event>
<event>
 8    1  0.1254059E-006  0.9118800E+02  0.7816164E-02  0.1184000E+00
        -11   -1    0    0    0    0  0.00000000000E+00  0.00000000000E+00  0.45593999997E+02  0.45594000000E+02  0.51100000000E-03 0.  1.
         11   -1    0    0    0    0 -0.00000000000E+00 -0.00000000000E+00 -0.45593999997E+02  0.45594000000E+02  0.51100000000E-03 0. -1.
         23    2    1    2    0    0 -0.17763568394E-14  0.00000000000E+00  0.00000000000E+00  0.91188000000E+02  0.91188000000E+02 0.  0.
    9900012    2    3    3    0    0 -0.12105029124E+02  0.33391729245E+02 -0.97077442070E+01  0.54367087333E+02  0.40000007192E+02 0.  0.
        -12    1    3    3    0    0  0.12105029124E+02 -0.33391729245E+02  0.97077442070E+01  0.36820912667E+02  0.00000000000E+00 0.  1.
         11    1    4    4    0    0 -0.52571648511E+00  0.13671268013E+02 -0.48211238661E+01  0.14505970581E+02  0.51100000000E-03 0. -1.
        -11    1    4    4    0    0  0.60999417603E+01  0.20920641646E+02 -0.36779595726E+01  0.22099998263E+02  0.51100000000E-03 0.  1.
         12    1    4    4    0    0 -0.17679254399E+02 -0.12001804132E+01 -0.12086607683E+01  0.17761118489E+02  0.00000000000E+00 0. -1.
</event>
<event>
 8    1  0.1254059E-006  0.9118800E+02  0.7816164E-02  0.1184000E+00
        -11   -1    0    0    0    0  0.00000000000E+00  0.00000000000E+00  0.45593999997E+02  0.45594000000E+02  0.51100000000E-03 0.  1.
         11   -1    0    0    0    0 -0.00000000000E+00 -0.00000000000E+00 -0.45593999997E+02  0.45594000000E+02  0.51100000000E-03 0. -1.
         23    2    1    2    0    0 -0.17763568394E-14  0.00000000000E+00  0.00000000000E+00  0.91188000000E+02  0.91188000000E+02 0.  0.
    9900012    2    3    3    0    0 -0.14723070512E+02  0.27529963947E+02  0.19522121984E+02  0.54367068901E+02  0.39999965174E+02 0.  0.
         12    1    3    3    0    0  0.14723070512E+02 -0.27529963947E+02 -0.19522121984E+02  0.36820931099E+02  0.00000000000E+00 0. -1.
         11    1    4    4    0    0 -0.12826484922E+02  0.13912390560E+02 -0.20456142009E+01  0.19033072906E+02  0.51100000000E-03 0. -1.
        -11    1    4    4    0    0 -0.95510501284E+01  0.36516340682E+01 -0.16853612774E+00  0.10226700084E+02  0.51100000000E-03 0.  1.
        -12    1    4    4    0    0  0.76544645388E+01  0.99659393192E+01  0.21736272313E+02  0.25107295911E+02  0.00000000000E+00 0.  1.
</event>
<event>
 8    1  0.1254059E-006  0.9118800E+02  0.7816164E-02  0.1184000E+00
        -11   -1    0    0    0    0  0.00000000000E+00  0.00000000000E+00  0.45593999997E+02  0.45594000000E+02  0.51100000000E-03 0.  1.
         11   -1    0    0    0    0 -0.00000000000E+00 -0.00000000000E+00 -0.45593999997E+02  0.45594000000E+02  0.51100000000E-03 0. -1.
         23    2    1    2    0    0  0.00000000000E+00  0.00000000000E+00  0.00000000000E+00  0.91188000000E+02  0.91188000000E+02 0.  0.
    9900012    2    3    3    0    0 -0.16804962786E+02  0.32030795477E+02  0.68847312871E+01  0.54367107045E+02  0.40000052130E+02 0.  0.
        -12    1    3    3    0    0  0.16804962786E+02 -0.32030795477E+02 -0.68847312871E+01  0.36820892955E+02  0.00000000000E+00 0.  1.
         11    1    4    4    0    0  0.84822467825E+00  0.85582007287E+01  0.49071107489E+01  0.99016170891E+01  0.51100000000E-03 0. -1.
        -11    1    4    4    0    0 -0.96100026229E+01  0.14653796285E+02 -0.15436717345E+02  0.23353332495E+02  0.51100000000E-03 0.  1.
        -12    1    4    4    0    0 -0.80431848414E+01  0.88187984627E+01  0.17414337883E+02  0.21112157461E+02  0.00000000000E+00 0.  1.
</event>
<event>
 8    1  0.1254059E-006  0.9118800E+02  0.7816164E-02  0.1184000E+00
        -11   -1    0    0    0    0  0.00000000000E+00  0.00000000000E+00  0.45593999997E+02  0.45594000000E+02  0.51100000000E-03 0. -1.
         11   -1    0    0    0    0 -0.00000000000E+00 -0.00000000000E+00 -0.45593999997E+02  0.45594000000E+02  0.51100000000E-03 0.  1.
         23    2    1    2    0    0  0.17763568394E-14  0.00000000000E+00  0.00000000000E+00  0.91188000000E+02  0.91188000000E+02 0.  0.
    9900012    2    3    3    0    0 -0.63051592155E+01  0.29286840431E+02 -0.21408086791E+02  0.54367078838E+02  0.39999987827E+02 0.  0.
         12    1    3    3    0    0  0.63051592155E+01 -0.29286840431E+02  0.21408086791E+02  0.36820921162E+02  0.00000000000E+00 0. -1.
         11    1    4    4    0    0  0.95825682896E+01  0.11264265895E+02 -0.40274717459E+01  0.15327420856E+02  0.51100000000E-03 0. -1.
        -11    1    4    4    0    0 -0.90531554831E+01  0.17548993231E+01 -0.19201279764E+02  0.21300902344E+02  0.51100000000E-03 0.  1.
         12    1    4    4    0    0 -0.68345720220E+01  0.16267675213E+02  0.18206647187E+01  0.17738755638E+02  0.00000000000E+00 0. -1.
</event>
<event>
 8    1  0.1254059E-006  0.9118800E+02  0.7816164E-02  0.1184000E+00
        -11   -1    0    0    0    0  0.00000000000E+00  0.00000000000E+00  0.45593999997E+02  0.45594000000E+02  0.51100000000E-03 0.  1.
         11   -1    0    0    0    0 -0.00000000000E+00 -0.00000000000E+00 -0.45593999997E+02  0.45594000000E+02  0.51100000000E-03 0. -1.
         23    2    1    2    0    0  0.00000000000E+00  0.00000000000E+00  0.00000000000E+00  0.91188000000E+02  0.91188000000E+02 0.  0.
    9900012    2    3    3    0    0  0.14274102976E+02 -0.41915495095E+01 -0.33681734305E+02  0.54367104725E+02  0.40000046842E+02 0.  0.
        -12    1    3    3    0    0 -0.14274102976E+02  0.41915495095E+01  0.33681734305E+02  0.36820895275E+02  0.00000000000E+00 0.  1.
         11    1    4    4    0    0  0.12022725730E+02  0.65469334069E+00  0.13513596915E+00  0.12041296414E+02  0.51100000000E-03 0. -1.
        -11    1    4    4    0    0 -0.23726079983E+01 -0.10438582847E+02 -0.36677449838E+01  0.11315725081E+02  0.51100000000E-03 0.  1.
         12    1    4    4    0    0  0.46239852442E+01  0.55923399971E+01 -0.30149125290E+02  0.31010083230E+02  0.00000000000E+00 0. -1.
</event>
<event>
 8    1  0.1254059E-006  0.9118800E+02  0.7816164E-02  0.1184000E+00
        -11   -1    0    0    0    0  0.00000000000E+00  0.00000000000E+00  0.45593999997E+02  0.45594000000E+02  0.51100000000E-03 0. -1.
         11   -1    0    0    0    0 -0.00000000000E+00 -0.00000000000E+00 -0.45593999997E+02  0.45594000000E+02  0.51100000000E-03 0.  1.
         23    2    1    2    0    0  0.00000000000E+00  0.00000000000E+00 -0.17763568394E-14  0.91188000000E+02  0.91188000000E+02 0.  0.
    9900012    2    3    3    0    0 -0.11427724296E+02 -0.33799850729E+02 -0.90971282275E+01  0.54367074782E+02  0.39999978582E+02 0.  0.
         12    1    3    3    0    0  0.11427724296E+02  0.33799850729E+02  0.90971282275E+01  0.36820925218E+02  0.00000000000E+00 0. -1.
         11    1    4    4    0    0 -0.45709082614E+01  0.20415473999E+01 -0.26321276223E+01  0.56559008302E+01  0.51100000000E-03 0. -1.
        -11    1    4    4    0    0  0.57234990165E+00  0.88700084966E-01  0.89107426424E+01  0.89295457228E+01  0.51100000000E-03 0.  1.
        -12    1    4    4    0    0 -0.74291659362E+01 -0.35930098214E+02 -0.15375743248E+02  0.39781628229E+02  0.00000000000E+00 0.  1.
</event>
<event>
 8    1  0.1254059E-006  0.9118800E+02  0.7816164E-02  0.1184000E+00
        -11   -1    0    0    0    0  0.00000000000E+00  0.00000000000E+00  0.45593999997E+02  0.45594000000E+02  0.51100000000E-03 0.  1.
         11   -1    0    0    0    0 -0.00000000000E+00 -0.00000000000E+00 -0.45593999997E+02  0.45594000000E+02  0.51100000000E-03 0. -1.
         23    2    1    2    0    0 -0.35527136788E-14  0.00000000000E+00  0.00000000000E+00  0.91188000000E+02  0.91188000000E+02 0.  0.
    9900012    2    3    3    0    0  0.24619475940E+02  0.25306396378E+02  0.10452221732E+02  0.54367065298E+02  0.39999956960E+02 0.  0.
        -12    1    3    3    0    0 -0.24619475940E+02 -0.25306396378E+02 -0.10452221732E+02  0.36820934702E+02  0.00000000000E+00 0.  1.
         11    1    4    4    0    0  0.22467717611E+02  0.80663635556E+01 -0.72947792653E+01  0.24961537622E+02  0.51100000000E-03 0. -1.
        -11    1    4    4    0    0 -0.26851219859E+01  0.18284002779E+02  0.14460275203E+02  0.23465169868E+02  0.51100000000E-03 0.  1.
        -12    1    4    4    0    0  0.48368803145E+01 -0.10439699569E+01  0.32867257943E+01  0.59403578086E+01  0.00000000000E+00 0.  1.
</event>
<event>
 8    1  0.1254059E-006  0.9118800E+02  0.7816164E-02  0.1184000E+00
        -11   -1    0    0    0    0  0.00000000000E+00  0.00000000000E+00  0.45593999997E+02  0.45594000000E+02  0.51100000000E-03 0.  1.
         11   -1    0    0    0    0 -0.00000000000E+00 -0.00000000000E+00 -0.45593999997E+02  0.45594000000E+02  0.51100000000E-03 0. -1.
         23    2    1    2    0    0  0.00000000000E+00  0.00000000000E+00  0.00000000000E+00  0.91188000000E+02  0.91188000000E+02 0.  0.
    9900012    2    3    3    0    0 -0.67470407041E+01  0.33257621094E+02  0.14289432575E+02  0.54367084715E+02  0.40000001226E+02 0.  0.
         12    1    3    3    0    0  0.67470407041E+01 -0.33257621094E+02 -0.14289432575E+02  0.36820915285E+02  0.00000000000E+00 0. -1.
         11    1    4    4    0    0  0.46116757186E+01 -0.50217353567E+01 -0.14542414995E+01  0.69713841901E+01  0.51100000000E-03 0. -1.
        -11    1    4    4    0    0 -0.24092410508E+00  0.25086041220E+02  0.16915527192E+01  0.25144161536E+02  0.51100000000E-03 0.  1.
         12    1    4    4    0    0 -0.11117792318E+02  0.13193315231E+02  0.14052121355E+02  0.22251538989E+02  0.00000000000E+00 0. -1.
</event>
<event>
 8    1  0.1254059E-006  0.9118800E+02  0.7816164E-02  0.1184000E+00
        -11   -1    0    0    0    0  0.00000000000E+00  0.00000000000E+00  0.45593999997E+02  0.45594000000E+02  0.51100000000E-03 0.  1.
         11   -1    0    0    0    0 -0.00000000000E+00 -0.00000000000E+00 -0.45593999997E+02  0.45594000000E+02  0.51100000000E-03 0. -1.
         23    2    1    2    0    0 -0.35527136788E-14  0.00000000000E+00  0.00000000000E+00  0.91188000000E+02  0.91188000000E+02 0.  0.
    9900012    2    3    3    0    0  0.11835146772E+02 -0.33840916675E+02  0.83964889141E+01  0.54367090633E+02  0.40000014717E+02 0.  0.
         12    1    3    3    0    0 -0.11835146772E+02  0.33840916675E+02 -0.83964889141E+01  0.36820909367E+02  0.00000000000E+00 0. -1.
         11    1    4    4    0    0 -0.28920409748E+01 -0.25002779179E+01  0.10205390679E+02  0.10897948883E+02  0.51100000000E-03 0.  1.
        -11    1    4    4    0    0 -0.47943755783E+01 -0.11320300994E+02 -0.82102444806E+01  0.14783212319E+02  0.51100000000E-03 0. -1.
         12    1    4    4    0    0  0.19521563325E+02 -0.20020337763E+02  0.64013427153E+01  0.28685929432E+02  0.00000000000E+00 0. -1.
</event>
<event>
 8    1  0.1254059E-006  0.9118800E+02  0.7816164E-02  0.1184000E+00
        -11   -1    0    0    0    0  0.00000000000E+00  0.00000000000E+00  0.45593999997E+02  0.45594000000E+02  0.51100000000E-03 0. -1.
         11   -1    0    0    0    0 -0.00000000000E+00 -0.00000000000E+00 -0.45593999997E+02  0.45594000000E+02  0.51100000000E-03 0.  1.
         23    2    1    2    0    0  0.17763568394E-14  0.35527136788E-14 -0.71054273576E-14  0.91188000000E+02  0.91188000000E+02 0.  0.
    9900012    2    3    3    0    0 -0.69420492446E+01  0.16020673754E+02  0.32417968655E+02  0.54367099319E+02  0.40000034517E+02 0.  0.
        -12    1    3    3    0    0  0.69420492446E+01 -0.16020673754E+02 -0.32417968655E+02  0.36820900681E+02  0.00000000000E+00 0.  1.
         11    1    4    4    0    0  0.10248553082E+02  0.18063806702E+02  0.89381515540E+01  0.22610274353E+02  0.51100000000E-03 0. -1.
        -11    1    4    4    0    0 -0.54596647525E+01  0.97250497097E+00  0.24094931830E+00  0.55508343484E+01  0.51100000000E-03 0.  1.
         12    1    4    4    0    0 -0.11730937574E+02 -0.30156379193E+01  0.23238867783E+02  0.26205990618E+02  0.00000000000E+00 0. -1.
</event>
<event>
 8    1  0.1254059E-006  0.9118800E+02  0.7816164E-02  0.1184000E+00
        -11   -1    0    0    0    0  0.00000000000E+00  0.00000000000E+00  0.45593999997E+02  0.45594000000E+02  0.51100000000E-03 0.  1.
         11   -1    0    0    0    0 -0.00000000000E+00 -0.00000000000E+00 -0.45593999997E+02  0.45594000000E+02  0.51100000000E-03 0. -1.
         23    2    1    2    0    0  0.00000000000E+00 -0.35527136788E-14  0.00000000000E+00  0.91188000000E+02  0.91188000000E+02 0.  0.
    9900012    2    3    3    0    0  0.17543457894E+02 -0.27544696759E+02  0.17008706580E+02  0.54367091076E+02  0.40000015727E+02 0.  0.
        -12    1    3    3    0    0 -0.17543457894E+02  0.27544696759E+02 -0.17008706580E+02  0.36820908924E+02  0.00000000000E+00 0.  1.
         11    1    4    4    0    0  0.15479395908E+02 -0.54594257509E+01  0.34948420358E+01  0.16781863673E+02  0.51100000000E-03 0. -1.
        -11    1    4    4    0    0  0.38774606633E+01 -0.12438349944E+02 -0.70390446491E+01  0.14808625877E+02  0.51100000000E-03 0.  1.
        -12    1    4    4    0    0 -0.18133986778E+01 -0.96469210639E+01  0.20552909193E+02  0.22776601526E+02  0.00000000000E+00 0.  1.
</event>
<event>
 8    1  0.1254059E-006  0.9118800E+02  0.7816164E-02  0.1184000E+00
        -11   -1    0    0    0    0  0.00000000000E+00  0.00000000000E+00  0.45593999997E+02  0.45594000000E+02  0.51100000000E-03 0.  1.
         11   -1    0    0    0    0 -0.00000000000E+00 -0.00000000000E+00 -0.45593999997E+02  0.45594000000E+02  0.51100000000E-03 0. -1.
         23    2    1    2    0    0  0.17763568394E-14  0.36082248300E-15  0.71054273576E-14  0.91188000000E+02  0.91188000000E+02 0.  0.
    9900012    2    3    3    0    0 -0.15294114023E+02 -0.12734555548E+00 -0.33494083976E+02  0.54367084721E+02  0.40000001238E+02 0.  0.
        -12    1    3    3    0    0  0.15294114023E+02  0.12734555548E+00  0.33494083976E+02  0.36820915279E+02  0.00000000000E+00 0.  1.
         11    1    4    4    0    0 -0.19112186119E+02  0.62065609309E+00 -0.33091191476E+02  0.38218945901E+02  0.51100000000E-03 0. -1.
        -11    1    4    4    0    0  0.46662615556E+01 -0.45441049659E+01  0.58693664027E+01  0.87676877840E+01  0.51100000000E-03 0.  1.
         12    1    4    4    0    0 -0.84818945971E+00  0.37961033174E+01 -0.62722589020E+01  0.73804510356E+01  0.00000000000E+00 0. -1.
</event>
<event>
 8    1  0.1254059E-006  0.9118800E+02  0.7816164E-02  0.1184000E+00
        -11   -1    0    0    0    0  0.00000000000E+00  0.00000000000E+00  0.45593999997E+02  0.45594000000E+02  0.51100000000E-03 0.  1.
         11   -1    0    0    0    0 -0.00000000000E+00 -0.00000000000E+00 -0.45593999997E+02  0.45594000000E+02  0.51100000000E-03 0. -1.
         23    2    1    2    0    0 -0.11102230246E-15 -0.35527136788E-14  0.00000000000E+00  0.91188000000E+02  0.91188000000E+02 0.  0.
    9900012    2    3    3    0    0 -0.92733666854E+00 -0.20131680810E+02 -0.30816155721E+02  0.54367082317E+02  0.39999995759E+02 0.  0.
        -12    1    3    3    0    0  0.92733666854E+00  0.20131680810E+02  0.30816155721E+02  0.36820917683E+02  0.00000000000E+00 0.  1.
         11    1    4    4    0    0  0.22825287403E+01  0.37259956089E+01 -0.21570628791E+02  0.22008748429E+02  0.51100000000E-03 0. -1.
        -11    1    4    4    0    0 -0.43317430931E+01 -0.25001600593E+02 -0.25822611084E+01  0.25505138759E+02  0.51100000000E-03 0.  1.
        -12    1    4    4    0    0  0.11218776843E+01  0.11439241740E+01 -0.66632658219E+01  0.68531951284E+01  0.00000000000E+00 0.  1.
</event>
<event>
 8    1  0.1254059E-006  0.9118800E+02  0.7816164E-02  0.1184000E+00
        -11   -1    0    0    0    0  0.00000000000E+00  0.00000000000E+00  0.45593999997E+02  0.45594000000E+02  0.51100000000E-03 0. -1.
         11   -1    0    0    0    0 -0.00000000000E+00 -0.00000000000E+00 -0.45593999997E+02  0.45594000000E+02  0.51100000000E-03 0.  1.
         23    2    1    2    0    0  0.00000000000E+00  0.00000000000E+00  0.00000000000E+00  0.91188000000E+02  0.91188000000E+02 0.  0.
    9900012    2    3    3    0    0  0.20465830750E+02  0.20161141298E+02  0.23031682815E+02  0.54367078501E+02  0.39999987058E+02 0.  0.
        -12    1    3    3    0    0 -0.20465830750E+02 -0.20161141298E+02 -0.23031682815E+02  0.36820921499E+02  0.00000000000E+00 0.  1.
         11    1    4    4    0    0  0.43566184467E+01  0.11173523291E+02  0.24029470509E+01  0.12231185626E+02  0.51100000000E-03 0. -1.
        -11    1    4    4    0    0  0.14809298227E+02  0.17451276028E+02  0.37279427934E+01  0.23189650854E+02  0.51100000000E-03 0.  1.
        -12    1    4    4    0    0  0.12999140761E+01 -0.84636580200E+01  0.16900792971E+02  0.18946242021E+02  0.00000000000E+00 0.  1.
</event>
<event>
 8    1  0.1254059E-006  0.9118800E+02  0.7816164E-02  0.1184000E+00
        -11   -1    0    0    0    0  0.00000000000E+00  0.00000000000E+00  0.45593999997E+02  0.45594000000E+02  0.51100000000E-03 0. -1.
         11   -1    0    0    0    0 -0.00000000000E+00 -0.00000000000E+00 -0.45593999997E+02  0.45594000000E+02  0.51100000000E-03 0.  1.
         23    2    1    2    0    0  0.00000000000E+00  0.00000000000E+00  0.00000000000E+00  0.91188000000E+02  0.91188000000E+02 0.  0.
    9900012    2    3    3    0    0 -0.22079903005E+02  0.13793828010E+02 -0.26038149477E+02  0.54367122280E+02  0.40000086861E+02 0.  0.
         12    1    3    3    0    0  0.22079903005E+02 -0.13793828010E+02  0.26038149477E+02  0.36820877720E+02  0.00000000000E+00 0. -1.
         11    1    4    4    0    0  0.52903104367E+01 -0.31729994068E+01  0.18482381901E+01  0.64398209929E+01  0.51100000000E-03 0. -1.
        -11    1    4    4    0    0 -0.20141245797E+02  0.14559808352E+01 -0.21920907478E+02  0.29804627953E+02  0.51100000000E-03 0.  1.
         12    1    4    4    0    0 -0.72289676445E+01  0.15510846582E+02 -0.59654801893E+01  0.18122673334E+02  0.00000000000E+00 0. -1.
</event>
<event>
 8    1  0.1254059E-006  0.9118800E+02  0.7816164E-02  0.1184000E+00
        -11   -1    0    0    0    0  0.00000000000E+00  0.00000000000E+00  0.45593999997E+02  0.45594000000E+02  0.51100000000E-03 0. -1.
         11   -1    0    0    0    0 -0.00000000000E+00 -0.00000000000E+00 -0.45593999997E+02  0.45594000000E+02  0.51100000000E-03 0.  1.
         23    2    1    2    0    0  0.17763568394E-14  0.00000000000E+00  0.71054273576E-14  0.91188000000E+02  0.91188000000E+02 0.  0.
    9900012    2    3    3    0    0 -0.10923511466E+02 -0.13845588463E+02  0.32322719376E+02  0.54367060162E+02  0.39999945252E+02 0.  0.
        -12    1    3    3    0    0  0.10923511466E+02  0.13845588463E+02 -0.32322719376E+02  0.36820939838E+02  0.00000000000E+00 0.  1.
         11    1    4    4    0    0 -0.12132616759E+02 -0.14226157798E+02  0.16277363513E+02  0.24789847081E+02  0.51100000000E-03 0. -1.
        -11    1    4    4    0    0  0.95848564328E+01 -0.82449789698E+01  0.10000292518E+02  0.16120018665E+02  0.51100000000E-03 0.  1.
         12    1    4    4    0    0 -0.83757511394E+01  0.86255483044E+01  0.60450633458E+01  0.13457194416E+02  0.00000000000E+00 0. -1.
</event>
<event>
 8    1  0.1254059E-006  0.9118800E+02  0.7816164E-02  0.1184000E+00
        -11   -1    0    0    0    0  0.00000000000E+00  0.00000000000E+00  0.45593999997E+02  0.45594000000E+02  0.51100000000E-03 0.  1.
         11   -1    0    0    0    0 -0.00000000000E+00 -0.00000000000E+00 -0.45593999997E+02  0.45594000000E+02  0.51100000000E-03 0. -1.
         23    2    1    2    0    0  0.00000000000E+00  0.00000000000E+00  0.00000000000E+00  0.91188000000E+02  0.91188000000E+02 0.  0.
    9900012    2    3    3    0    0  0.35487883844E+02  0.13909461525E+01 -0.97188070272E+01  0.54367084192E+02  0.40000000033E+02 0.  0.
        -12    1    3    3    0    0 -0.35487883844E+02 -0.13909461525E+01  0.97188070272E+01  0.36820915808E+02  0.00000000000E+00 0.  1.
         11    1    4    4    0    0  0.18137700290E+02  0.45205280153E+00 -0.98615058099E+01  0.20650177254E+02  0.51100000000E-03 0. -1.
        -11    1    4    4    0    0  0.36537776482E+01  0.43440166038E+01  0.13275735612E+02  0.14438342275E+02  0.51100000000E-03 0.  1.
        -12    1    4    4    0    0  0.13696405906E+02 -0.34051232528E+01 -0.13133036829E+02  0.19278564663E+02  0.00000000000E+00 0.  1.
</event>
<event>
 8    1  0.1254059E-006  0.9118800E+02  0.7816164E-02  0.1184000E+00
        -11   -1    0    0    0    0  0.00000000000E+00  0.00000000000E+00  0.45593999997E+02  0.45594000000E+02  0.51100000000E-03 0.  1.
         11   -1    0    0    0    0 -0.00000000000E+00 -0.00000000000E+00 -0.45593999997E+02  0.45594000000E+02  0.51100000000E-03 0. -1.
         23    2    1    2    0    0  0.00000000000E+00  0.00000000000E+00 -0.17763568394E-14  0.91188000000E+02  0.91188000000E+02 0.  0.
    9900012    2    3    3    0    0 -0.85890318300E+01  0.32792948077E+02  0.14374738343E+02  0.54367054687E+02  0.39999932769E+02 0.  0.
         12    1    3    3    0    0  0.85890318300E+01 -0.32792948077E+02 -0.14374738343E+02  0.36820945313E+02  0.00000000000E+00 0. -1.
         11    1    4    4    0    0 -0.90799022989E+01  0.46845259810E+01  0.15803748083E+02  0.18818816731E+02  0.51100000000E-03 0.  1.
        -11    1    4    4    0    0 -0.16912025600E+01  0.11490547007E+01  0.69404871640E+01  0.72353890800E+01  0.51100000000E-03 0. -1.
         12    1    4    4    0    0  0.21820730289E+01  0.26959367395E+02 -0.83694969040E+01  0.28312848876E+02  0.00000000000E+00 0. -1.
</event>
<event>
 8    1  0.1254059E-006  0.9118800E+02  0.7816164E-02  0.1184000E+00
        -11   -1    0    0    0    0  0.00000000000E+00  0.00000000000E+00  0.45593999997E+02  0.45594000000E+02  0.51100000000E-03 0.  1.
         11   -1    0    0    0    0 -0.00000000000E+00 -0.00000000000E+00 -0.45593999997E+02  0.45594000000E+02  0.51100000000E-03 0. -1.
         23    2    1    2    0    0  0.17763568394E-14  0.17763568394E-14  0.00000000000E+00  0.91188000000E+02  0.91188000000E+02 0.  0.
    9900012    2    3    3    0    0  0.12710428064E+02  0.15612362693E+02  0.30829834123E+02  0.54367088516E+02  0.40000009890E+02 0.  0.
         12    1    3    3    0    0 -0.12710428064E+02 -0.15612362693E+02 -0.30829834123E+02  0.36820911484E+02  0.00000000000E+00 0. -1.
         11    1    4    4    0    0 -0.10734782426E+01 -0.74949592741E+01  0.80150644867E+01  0.11025789271E+02  0.51100000000E-03 0. -1.
        -11    1    4    4    0    0 -0.49079159637E+01  0.15995219910E+02  0.86582989130E+01  0.18838812049E+02  0.51100000000E-03 0.  1.
         12    1    4    4    0    0  0.18691822271E+02  0.71121020570E+01  0.14156470724E+02  0.24502487196E+02  0.00000000000E+00 0. -1.
</event>
<event>
 8    1  0.1254059E-006  0.9118800E+02  0.7816164E-02  0.1184000E+00
        -11   -1    0    0    0    0  0.00000000000E+00  0.00000000000E+00  0.45593999997E+02  0.45594000000E+02  0.51100000000E-03 0. -1.
         11   -1    0    0    0    0 -0.00000000000E+00 -0.00000000000E+00 -0.45593999997E+02  0.45594000000E+02  0.51100000000E-03 0.  1.
         23    2    1    2    0    0 -0.35527136788E-14  0.17763568394E-14  0.00000000000E+00  0.91188000000E+02  0.91188000000E+02 0.  0.
    9900012    2    3    3    0    0  0.28326014223E+02 -0.15728677919E+02  0.17493593454E+02  0.54367079278E+02  0.39999988831E+02 0.  0.
         12    1    3    3    0    0 -0.28326014223E+02  0.15728677919E+02 -0.17493593454E+02  0.36820920722E+02  0.00000000000E+00 0. -1.
         11    1    4    4    0    0  0.39218301715E+01 -0.73790239329E+01  0.15003080129E+02  0.17173326984E+02  0.51100000000E-03 0. -1.
        -11    1    4    4    0    0  0.28419826115E+02 -0.12573195385E+02  0.65526774041E+00  0.31083776068E+02  0.51100000000E-03 0.  1.
         12    1    4    4    0    0 -0.40156420635E+01  0.42235413982E+01  0.18352455849E+01  0.61099762259E+01  0.00000000000E+00 0. -1.
</event>
<event>
 8    1  0.1254059E-006  0.9118800E+02  0.7816164E-02  0.1184000E+00
        -11   -1    0    0    0    0  0.00000000000E+00  0.00000000000E+00  0.45593999997E+02  0.45594000000E+02  0.51100000000E-03 0.  1.
         11   -1    0    0    0    0 -0.00000000000E+00 -0.00000000000E+00 -0.45593999997E+02  0.45594000000E+02  0.51100000000E-03 0. -1.
         23    2    1    2    0    0 -0.17763568394E-14  0.71054273576E-14  0.00000000000E+00  0.91188000000E+02  0.91188000000E+02 0.  0.
    9900012    2    3    3    0    0 -0.70879130829E+01  0.27920022895E+02 -0.22935005423E+02  0.54367073015E+02  0.39999974551E+02 0.  0.
        -12    1    3    3    0    0  0.70879130829E+01 -0.27920022895E+02  0.22935005423E+02  0.36820926985E+02  0.00000000000E+00 0.  1.
         11    1    4    4    0    0  0.59128154914E+00 -0.53153492817E+01  0.53343050790E+01  0.75536324238E+01  0.51100000000E-03 0. -1.
        -11    1    4    4    0    0  0.79283267366E+00  0.29041080663E+01  0.15999435292E+01  0.34091416613E+01  0.51100000000E-03 0.  1.
         12    1    4    4    0    0 -0.84720273058E+01  0.30331264111E+02 -0.29869254031E+02  0.43404298930E+02  0.00000000000E+00 0. -1.
</event>
<event>
 8    1  0.1254059E-006  0.9118800E+02  0.7816164E-02  0.1184000E+00
        -11   -1    0    0    0    0  0.00000000000E+00  0.00000000000E+00  0.45593999997E+02  0.45594000000E+02  0.51100000000E-03 0. -1.
         11   -1    0    0    0    0 -0.00000000000E+00 -0.00000000000E+00 -0.45593999997E+02  0.45594000000E+02  0.51100000000E-03 0.  1.
         23    2    1    2    0    0  0.53290705182E-14 -0.17763568394E-14  0.00000000000E+00  0.91188000000E+02  0.91188000000E+02 0.  0.
    9900012    2    3    3    0    0  0.14340758775E+02 -0.71249562004E+01  0.33156569434E+02  0.54367075789E+02  0.39999980876E+02 0.  0.
        -12    1    3    3    0    0 -0.14340758775E+02  0.71249562004E+01 -0.33156569434E+02  0.36820924211E+02  0.00000000000E+00 0.  1.
         11    1    4    4    0    0 -0.64075088376E+01  0.23839507176E+01  0.61833546659E+01  0.92180944730E+01  0.51100000000E-03 0. -1.
        -11    1    4    4    0    0 -0.68553423787E+01 -0.68238091201E+00  0.77663878491E+01  0.10381625274E+02  0.51100000000E-03 0.  1.
         12    1    4    4    0    0  0.27603609991E+02 -0.88265260060E+01  0.19206826919E+02  0.34767356043E+02  0.00000000000E+00 0. -1.
</event>
<event>
 8    1  0.1254059E-006  0.9118800E+02  0.7816164E-02  0.1184000E+00
        -11   -1    0    0    0    0  0.00000000000E+00  0.00000000000E+00  0.45593999997E+02  0.45594000000E+02  0.51100000000E-03 0.  1.
         11   -1    0    0    0    0 -0.00000000000E+00 -0.00000000000E+00 -0.45593999997E+02  0.45594000000E+02  0.51100000000E-03 0. -1.
         23    2    1    2    0    0  0.00000000000E+00  0.35527136788E-14  0.00000000000E+00  0.91188000000E+02  0.91188000000E+02 0.  0.
    9900012    2    3    3    0    0  0.36214391059E+01  0.15414003362E+02  0.33242614707E+02  0.54367112540E+02  0.40000064657E+02 0.  0.
         12    1    3    3    0    0 -0.36214391059E+01 -0.15414003362E+02 -0.33242614707E+02  0.36820887460E+02  0.00000000000E+00 0. -1.
         11    1    4    4    0    0  0.29375268036E+01  0.11902772641E+01  0.73981815053E+01  0.80485348688E+01  0.51100000000E-03 0. -1.
        -11    1    4    4    0    0  0.10142613065E+02 -0.69047829434E+01  0.18181071892E+02  0.21933991946E+02  0.51100000000E-03 0.  1.
         12    1    4    4    0    0 -0.94587007627E+01  0.21128509041E+02  0.76633613091E+01  0.24384585725E+02  0.00000000000E+00 0. -1.
</event>
<event>
 8    1  0.1254059E-006  0.9118800E+02  0.7816164E-02  0.1184000E+00
        -11   -1    0    0    0    0  0.00000000000E+00  0.00000000000E+00  0.45593999997E+02  0.45594000000E+02  0.51100000000E-03 0. -1.
         11   -1    0    0    0    0 -0.00000000000E+00 -0.00000000000E+00 -0.45593999997E+02  0.45594000000E+02  0.51100000000E-03 0.  1.
         23    2    1    2    0    0 -0.17763568394E-14  0.17763568394E-14  0.71054273576E-14  0.91188000000E+02  0.91188000000E+02 0.  0.
    9900012    2    3    3    0    0  0.73415232952E+01 -0.11819796786E+02 -0.34090677280E+02  0.54367084235E+02  0.40000000132E+02 0.  0.
         12    1    3    3    0    0 -0.73415232952E+01  0.11819796786E+02  0.34090677280E+02  0.36820915765E+02  0.00000000000E+00 0. -1.
         11    1    4    4    0    0 -0.96709968083E+01 -0.13286416857E+01 -0.27022108422E+00  0.97655766696E+01  0.51100000000E-03 0. -1.
        -11    1    4    4    0    0 -0.19964906575E+01 -0.13465333896E+01 -0.18186706385E+02  0.18345446752E+02  0.51100000000E-03 0.  1.
        -12    1    4    4    0    0  0.19009010761E+02 -0.91446217110E+01 -0.15633749810E+02  0.26256060814E+02  0.00000000000E+00 0.  1.
</event>
<event>
 8    1  0.1254059E-006  0.9118800E+02  0.7816164E-02  0.1184000E+00
        -11   -1    0    0    0    0  0.00000000000E+00  0.00000000000E+00  0.45593999997E+02  0.45594000000E+02  0.51100000000E-03 0.  1.
         11   -1    0    0    0    0 -0.00000000000E+00 -0.00000000000E+00 -0.45593999997E+02  0.45594000000E+02  0.51100000000E-03 0. -1.
         23    2    1    2    0    0 -0.17763568394E-14  0.00000000000E+00  0.00000000000E+00  0.91188000000E+02  0.91188000000E+02 0.  0.
    9900012    2    3    3    0    0  0.11210707987E+02 -0.33117336548E+02 -0.11547378761E+02  0.54367083256E+02  0.39999997900E+02 0.  0.
         12    1    3    3    0    0 -0.11210707987E+02  0.33117336548E+02  0.11547378761E+02  0.36820916744E+02  0.00000000000E+00 0. -1.
         11    1    4    4    0    0 -0.27062557923E+01  0.14955458829E+01 -0.33468704655E+01  0.45565359732E+01  0.51100000000E-03 0. -1.
        -11    1    4    4    0    0  0.32824869035E+01 -0.25743009187E+02  0.92342419088E+01  0.27545389200E+02  0.51100000000E-03 0.  1.
        -12    1    4    4    0    0  0.10634476876E+02 -0.88698732434E+01 -0.17434750204E+02  0.22265158083E+02  0.00000000000E+00 0.  1.
</event>
<event>
 8    1  0.1254059E-006  0.9118800E+02  0.7816164E-02  0.1184000E+00
        -11   -1    0    0    0    0  0.00000000000E+00  0.00000000000E+00  0.45593999997E+02  0.45594000000E+02  0.51100000000E-03 0.  1.
         11   -1    0    0    0    0 -0.00000000000E+00 -0.00000000000E+00 -0.45593999997E+02  0.45594000000E+02  0.51100000000E-03 0. -1.
         23    2    1    2    0    0  0.35527136788E-14  0.00000000000E+00  0.00000000000E+00  0.91188000000E+02  0.91188000000E+02 0.  0.
    9900012    2    3    3    0    0  0.30240212410E+02  0.13625548326E+02 -0.15989186325E+02  0.54367080767E+02  0.39999992225E+02 0.  0.
        -12    1    3    3    0    0 -0.30240212410E+02 -0.13625548326E+02  0.15989186325E+02  0.36820919233E+02  0.00000000000E+00 0.  1.
         11    1    4    4    0    0  0.27183871614E+02  0.11727478968E+00 -0.39365494045E+01  0.27467672832E+02  0.51100000000E-03 0. -1.
        -11    1    4    4    0    0  0.65537204120E+01  0.34276693199E+01  0.33845241198E+01  0.81335829733E+01  0.51100000000E-03 0.  1.
         12    1    4    4    0    0 -0.34973796159E+01  0.10080604216E+02 -0.15437161040E+02  0.18765824962E+02  0.00000000000E+00 0. -1.
</event>
<event>
 8    1  0.1254059E-006  0.9118800E+02  0.7816164E-02  0.1184000E+00
        -11   -1    0    0    0    0  0.00000000000E+00  0.00000000000E+00  0.45593999997E+02  0.45594000000E+02  0.51100000000E-03 0. -1.
         11   -1    0    0    0    0 -0.00000000000E+00 -0.00000000000E+00 -0.45593999997E+02  0.45594000000E+02  0.51100000000E-03 0.  1.
         23    2    1    2    0    0  0.00000000000E+00  0.35527136788E-14 -0.88817841970E-15  0.91188000000E+02  0.91188000000E+02 0.  0.
    9900012    2    3    3    0    0  0.23125207467E+02 -0.28038735061E+02 -0.59020790283E+01  0.54367076314E+02  0.39999982073E+02 0.  0.
         12    1    3    3    0    0 -0.23125207467E+02  0.28038735061E+02  0.59020790283E+01  0.36820923686E+02  0.00000000000E+00 0. -1.
         11    1    4    4    0    0 -0.61206948775E+01 -0.17106501415E+02  0.34249256476E+01  0.18488521098E+02  0.51100000000E-03 0. -1.
        -11    1    4    4    0    0  0.13544936334E+02  0.18141046464E+01 -0.14108533715E+00  0.13666608259E+02  0.51100000000E-03 0.  1.
        -12    1    4    4    0    0  0.15700966010E+02 -0.12746338292E+02 -0.91859193388E+01  0.22211946957E+02  0.00000000000E+00 0.  1.
</event>
<event>
 8    1  0.1254059E-006  0.9118800E+02  0.7816164E-02  0.1184000E+00
        -11   -1    0    0    0    0  0.00000000000E+00  0.00000000000E+00  0.45593999997E+02  0.45594000000E+02  0.51100000000E-03 0. -1.
         11   -1    0    0    0    0 -0.00000000000E+00 -0.00000000000E+00 -0.45593999997E+02  0.45594000000E+02  0.51100000000E-03 0.  1.
         23    2    1    2    0    0  0.00000000000E+00 -0.17763568394E-14  0.00000000000E+00  0.91188000000E+02  0.91188000000E+02 0.  0.
    9900012    2    3    3    0    0 -0.97934435883E+01 -0.13880535589E+02  0.32668012720E+02  0.54367083925E+02  0.39999999423E+02 0.  0.
        -12    1    3    3    0    0  0.97934435883E+01  0.13880535589E+02 -0.32668012720E+02  0.36820916075E+02  0.00000000000E+00 0.  1.
         11    1    4    4    0    0 -0.11896333188E+02 -0.59172691085E+01  0.32832070569E+01  0.13686353271E+02  0.51100000000E-03 0. -1.
        -11    1    4    4    0    0  0.12145590442E+02 -0.96034884781E+01  0.90307091842E+01  0.17924733381E+02  0.51100000000E-03 0.  1.
        -12    1    4    4    0    0 -0.10042700843E+02  0.16402219979E+01  0.20354096479E+02  0.22755997273E+02  0.00000000000E+00 0.  1.
</event>
<event>
 8    1  0.1254059E-006  0.9118800E+02  0.7816164E-02  0.1184000E+00
        -11   -1    0    0    0    0  0.00000000000E+00  0.00000000000E+00  0.45593999997E+02  0.45594000000E+02  0.51100000000E-03 0. -1.
         11   -1    0    0    0    0 -0.00000000000E+00 -0.00000000000E+00 -0.45593999997E+02  0.45594000000E+02  0.51100000000E-03 0.  1.
         23    2    1    2    0    0  0.00000000000E+00  0.00000000000E+00  0.00000000000E+00  0.91188000000E+02  0.91188000000E+02 0.  0.
    9900012    2    3    3    0    0  0.10701550199E+02  0.10536131519E+02  0.33619153284E+02  0.54367072369E+02  0.39999973080E+02 0.  0.
        -12    1    3    3    0    0 -0.10701550199E+02 -0.10536131519E+02 -0.33619153284E+02  0.36820927631E+02  0.00000000000E+00 0.  1.
         11    1    4    4    0    0  0.12681583514E+02  0.11139013052E+02  0.22207227033E+02  0.27893746700E+02  0.51100000000E-03 0. -1.
        -11    1    4    4    0    0  0.13051320011E+01  0.65015622976E+01  0.16056401248E+02  0.17371865276E+02  0.51100000000E-03 0.  1.
        -12    1    4    4    0    0 -0.32851653157E+01 -0.71044438305E+01 -0.46444749975E+01  0.91014603935E+01  0.00000000000E+00 0.  1.
</event>
<event>
 8    1  0.1254059E-006  0.9118800E+02  0.7816164E-02  0.1184000E+00
        -11   -1    0    0    0    0  0.00000000000E+00  0.00000000000E+00  0.45593999997E+02  0.45594000000E+02  0.51100000000E-03 0. -1.
         11   -1    0    0    0    0 -0.00000000000E+00 -0.00000000000E+00 -0.45593999997E+02  0.45594000000E+02  0.51100000000E-03 0.  1.
         23    2    1    2    0    0 -0.35527136788E-14  0.17763568394E-14  0.00000000000E+00  0.91188000000E+02  0.91188000000E+02 0.  0.
    9900012    2    3    3    0    0  0.28074325512E+02 -0.12462413792E+02  0.20305053187E+02  0.54367154064E+02  0.40000159320E+02 0.  0.
        -12    1    3    3    0    0 -0.28074325512E+02  0.12462413792E+02 -0.20305053187E+02  0.36820845936E+02  0.00000000000E+00 0.  1.
         11    1    4    4    0    0  0.91766790644E+01  0.17086977832E+01 -0.57345099327E+01  0.10955167328E+02  0.51100000000E-03 0. -1.
        -11    1    4    4    0    0 -0.46551274107E+01  0.29550531074E+01  0.29872023643E+01  0.62710388536E+01  0.51100000000E-03 0.  1.
         12    1    4    4    0    0  0.23552773859E+02 -0.17126164682E+02  0.23052360756E+02  0.37140947882E+02  0.00000000000E+00 0. -1.
</event>
<event>
 8    1  0.1254059E-006  0.9118800E+02  0.7816164E-02  0.1184000E+00
        -11   -1    0    0    0    0  0.00000000000E+00  0.00000000000E+00  0.45593999997E+02  0.45594000000E+02  0.51100000000E-03 0.  1.
         11   -1    0    0    0    0 -0.00000000000E+00 -0.00000000000E+00 -0.45593999997E+02  0.45594000000E+02  0.51100000000E-03 0. -1.
         23    2    1    2    0    0  0.00000000000E+00  0.44408920985E-15  0.00000000000E+00  0.91188000000E+02  0.91188000000E+02 0.  0.
    9900012    2    3    3    0    0  0.28783123149E+02 -0.25458481007E+01 -0.22821730751E+02  0.54367069604E+02  0.39999966776E+02 0.  0.
        -12    1    3    3    0    0 -0.28783123149E+02  0.25458481007E+01  0.22821730751E+02  0.36820930396E+02  0.00000000000E+00 0.  1.
         11    1    4    4    0    0  0.87794516054E+01 -0.60605856594E+01 -0.13119493669E+02  0.16909482057E+02  0.51100000000E-03 0. -1.
        -11    1    4    4    0    0 -0.77682820038E+01 -0.88409358961E+00 -0.35497899551E+00  0.78264830616E+01  0.51100000000E-03 0.  1.
         12    1    4    4    0    0  0.27771953547E+02  0.43988311483E+01 -0.93472580863E+01  0.29631104486E+02  0.00000000000E+00 0. -1.
</event>
<event>
 8    1  0.1254059E-006  0.9118800E+02  0.7816164E-02  0.1184000E+00
        -11   -1    0    0    0    0  0.00000000000E+00  0.00000000000E+00  0.45593999997E+02  0.45594000000E+02  0.51100000000E-03 0. -1.
         11   -1    0    0    0    0 -0.00000000000E+00 -0.00000000000E+00 -0.45593999997E+02  0.45594000000E+02  0.51100000000E-03 0.  1.
         23    2    1    2    0    0  0.35527136788E-14 -0.17763568394E-14  0.00000000000E+00  0.91188000000E+02  0.91188000000E+02 0.  0.
    9900012    2    3    3    0    0  0.31346108736E+02  0.14152383164E+02  0.13149587828E+02  0.54367080102E+02  0.39999990708E+02 0.  0.
        -12    1    3    3    0    0 -0.31346108736E+02 -0.14152383164E+02 -0.13149587828E+02  0.36820919898E+02  0.00000000000E+00 0.  1.
         11    1    4    4    0    0 -0.21149153525E+01  0.36610177060E+01  0.52832195846E+01  0.67667072518E+01  0.51100000000E-03 0. -1.
        -11    1    4    4    0    0 -0.58571771094E+01 -0.88459940678E+00  0.19952330366E+01  0.62505995659E+01  0.51100000000E-03 0.  1.
         12    1    4    4    0    0  0.39318201198E+02  0.11375964865E+02  0.58711352064E+01  0.41349773284E+02  0.00000000000E+00 0. -1.
</event>
<event>
 8    1  0.1254059E-006  0.9118800E+02  0.7816164E-02  0.1184000E+00
        -11   -1    0    0    0    0  0.00000000000E+00  0.00000000000E+00  0.45593999997E+02  0.45594000000E+02  0.51100000000E-03 0. -1.
         11   -1    0    0    0    0 -0.00000000000E+00 -0.00000000000E+00 -0.45593999997E+02  0.45594000000E+02  0.51100000000E-03 0.  1.
         23    2    1    2    0    0 -0.35527136788E-14 -0.35527136788E-14  0.35527136788E-14  0.91188000000E+02  0.91188000000E+02 0.  0.
    9900012    2    3    3    0    0 -0.16942625480E+02 -0.26138963650E+02  0.19633694761E+02  0.54367082727E+02  0.39999996693E+02 0.  0.
        -12    1    3    3    0    0  0.16942625480E+02  0.26138963650E+02 -0.19633694761E+02  0.36820917273E+02  0.00000000000E+00 0.  1.
         11    1    4    4    0    0 -0.24582220364E+02 -0.26262164372E+02  0.10441708517E+02  0.37456856682E+02  0.51100000000E-03 0. -1.
        -11    1    4    4    0    0  0.96790010049E+01 -0.31464813205E+01  0.77627773107E+01  0.12800160819E+02  0.51100000000E-03 0.  1.
        -12    1    4    4    0    0 -0.20394061215E+01  0.32696820423E+01  0.14292089338E+01  0.41100652261E+01  0.00000000000E+00 0.  1.
</event>
<event>
 8    1  0.1254059E-006  0.9118800E+02  0.7816164E-02  0.1184000E+00
        -11   -1    0    0    0    0  0.00000000000E+00  0.00000000000E+00  0.45593999997E+02  0.45594000000E+02  0.51100000000E-03 0. -1.
         11   -1    0    0    0    0 -0.00000000000E+00 -0.00000000000E+00 -0.45593999997E+02  0.45594000000E+02  0.51100000000E-03 0.  1.
         23    2    1    2    0    0 -0.17763568394E-14  0.00000000000E+00  0.00000000000E+00  0.91188000000E+02  0.91188000000E+02 0.  0.
    9900012    2    3    3    0    0  0.95712809482E+01 -0.18241167436E+02  0.30519324952E+02  0.54367098274E+02  0.40000032135E+02 0.  0.
        -12    1    3    3    0    0 -0.95712809482E+01  0.18241167436E+02 -0.30519324952E+02  0.36820901726E+02  0.00000000000E+00 0.  1.
         11    1    4    4    0    0  0.94517703640E+01 -0.11774338275E+02  0.21467124101E+02  0.26245159978E+02  0.51100000000E-03 0. -1.
        -11    1    4    4    0    0  0.97270731104E+01 -0.27176919052E+01 -0.45291568536E+01  0.11068652251E+02  0.51100000000E-03 0.  1.
        -12    1    4    4    0    0 -0.96075625262E+01 -0.37491372551E+01  0.13581357704E+02  0.17053286045E+02  0.00000000000E+00 0.  1.
</event>
<event>
 8    1  0.1254059E-006  0.9118800E+02  0.7816164E-02  0.1184000E+00
        -11   -1    0    0    0    0  0.00000000000E+00  0.00000000000E+00  0.45593999997E+02  0.45594000000E+02  0.51100000000E-03 0.  1.
         11   -1    0    0    0    0 -0.00000000000E+00 -0.00000000000E+00 -0.45593999997E+02  0.45594000000E+02  0.51100000000E-03 0. -1.
         23    2    1    2    0    0  0.35527136788E-14  0.00000000000E+00  0.17763568394E-14  0.91188000000E+02  0.91188000000E+02 0.  0.
    9900012    2    3    3    0    0 -0.31136055866E+02  0.14824697763E+02 -0.12905563464E+02  0.54367092801E+02  0.40000019657E+02 0.  0.
        -12    1    3    3    0    0  0.31136055866E+02 -0.14824697763E+02  0.12905563464E+02  0.36820907199E+02  0.00000000000E+00 0.  1.
         11    1    4    4    0    0 -0.15363865554E+02  0.73617282182E+01 -0.21978760140E+02  0.27808439451E+02  0.51100000000E-03 0. -1.
        -11    1    4    4    0    0 -0.13033345302E+02 -0.34771951293E+01  0.65802536028E+01  0.15008621304E+02  0.51100000000E-03 0.  1.
        -12    1    4    4    0    0 -0.27388450105E+01  0.10940164674E+02  0.24929430733E+01  0.11550032045E+02  0.00000000000E+00 0.  1.
</event>
<event>
 8    1  0.1254059E-006  0.9118800E+02  0.7816164E-02  0.1184000E+00
        -11   -1    0    0    0    0  0.00000000000E+00  0.00000000000E+00  0.45593999997E+02  0.45594000000E+02  0.51100000000E-03 0.  1.
         11   -1    0    0    0    0 -0.00000000000E+00 -0.00000000000E+00 -0.45593999997E+02  0.45594000000E+02  0.51100000000E-03 0. -1.
         23    2    1    2    0    0  0.35527136788E-14 -0.17763568394E-14 -0.71054273576E-14  0.91188000000E+02  0.91188000000E+02 0.  0.
    9900012    2    3    3    0    0  0.25643108008E+02 -0.13419556448E+02 -0.22762382403E+02  0.54367088330E+02  0.40000009465E+02 0.  0.
        -12    1    3    3    0    0 -0.25643108008E+02  0.13419556448E+02  0.22762382403E+02  0.36820911670E+02  0.00000000000E+00 0.  1.
         11    1    4    4    0    0  0.15388461363E+02 -0.56086171935E+00 -0.18950930217E+00  0.15399844903E+02  0.51100000000E-03 0. -1.
        -11    1    4    4    0    0  0.12089190108E+02 -0.13007074184E+01  0.14503873063E+01  0.12245161528E+02  0.51100000000E-03 0.  1.
        -12    1    4    4    0    0 -0.18345434633E+01 -0.11557987311E+02 -0.24023260407E+02  0.26722081899E+02  0.00000000000E+00 0.  1.
</event>
<event>
 8    1  0.1254059E-006  0.9118800E+02  0.7816164E-02  0.1184000E+00
        -11   -1    0    0    0    0  0.00000000000E+00  0.00000000000E+00  0.45593999997E+02  0.45594000000E+02  0.51100000000E-03 0. -1.
         11   -1    0    0    0    0 -0.00000000000E+00 -0.00000000000E+00 -0.45593999997E+02  0.45594000000E+02  0.51100000000E-03 0.  1.
         23    2    1    2    0    0  0.00000000000E+00  0.00000000000E+00 -0.38857805862E-15  0.91188000000E+02  0.91188000000E+02 0.  0.
    9900012    2    3    3    0    0  0.18211088546E+02 -0.32001379926E+02 -0.21802086059E+00  0.54367087514E+02  0.40000007605E+02 0.  0.
         12    1    3    3    0    0 -0.18211088546E+02  0.32001379926E+02  0.21802086059E+00  0.36820912486E+02  0.00000000000E+00 0. -1.
         11    1    4    4    0    0 -0.20628730789E+01 -0.12549318298E+02  0.32925425955E+01  0.13137034372E+02  0.51100000000E-03 0.  1.
        -11    1    4    4    0    0 -0.16137468760E+01 -0.13224947120E+02  0.81929503685E+01  0.15640583152E+02  0.51100000000E-03 0. -1.
         12    1    4    4    0    0  0.21887708501E+02 -0.62271145072E+01 -0.11703513825E+02  0.25589469990E+02  0.00000000000E+00 0. -1.
</event>
<event>
 8    1  0.1254059E-006  0.9118800E+02  0.7816164E-02  0.1184000E+00
        -11   -1    0    0    0    0  0.00000000000E+00  0.00000000000E+00  0.45593999997E+02  0.45594000000E+02  0.51100000000E-03 0. -1.
         11   -1    0    0    0    0 -0.00000000000E+00 -0.00000000000E+00 -0.45593999997E+02  0.45594000000E+02  0.51100000000E-03 0.  1.
         23    2    1    2    0    0  0.35527136788E-14 -0.88817841970E-15  0.00000000000E+00  0.91188000000E+02  0.91188000000E+02 0.  0.
    9900012    2    3    3    0    0 -0.29703067454E+02  0.35788348735E+01  0.21463942052E+02  0.54367067317E+02  0.39999961562E+02 0.  0.
        -12    1    3    3    0    0  0.29703067454E+02 -0.35788348735E+01 -0.21463942052E+02  0.36820932683E+02  0.00000000000E+00 0.  1.
         11    1    4    4    0    0  0.12345779971E+01 -0.42769038924E+01  0.40695432092E+01  0.60313573869E+01  0.51100000000E-03 0. -1.
        -11    1    4    4    0    0  0.24493218785E+01  0.61818948538E+01 -0.48078675996E+01  0.82055220897E+01  0.51100000000E-03 0.  1.
         12    1    4    4    0    0 -0.33386967330E+02  0.16738439122E+01  0.22202266443E+02  0.40130187840E+02  0.00000000000E+00 0. -1.
</event>
<event>
 8    1  0.1254059E-006  0.9118800E+02  0.7816164E-02  0.1184000E+00
        -11   -1    0    0    0    0  0.00000000000E+00  0.00000000000E+00  0.45593999997E+02  0.45594000000E+02  0.51100000000E-03 0.  1.
         11   -1    0    0    0    0 -0.00000000000E+00 -0.00000000000E+00 -0.45593999997E+02  0.45594000000E+02  0.51100000000E-03 0. -1.
         23    2    1    2    0    0 -0.88817841970E-15 -0.17763568394E-14 -0.71054273576E-14  0.91188000000E+02  0.91188000000E+02 0.  0.
    9900012    2    3    3    0    0  0.50342210950E+01  0.12972824723E+02  0.34090247648E+02  0.54367047431E+02  0.39999916229E+02 0.  0.
         12    1    3    3    0    0 -0.50342210950E+01 -0.12972824723E+02 -0.34090247648E+02  0.36820952569E+02  0.00000000000E+00 0. -1.
         11    1    4    4    0    0  0.51052287136E+01 -0.99978059886E+01  0.41838940456E+01  0.11980169216E+02  0.51100000000E-03 0. -1.
        -11    1    4    4    0    0 -0.13341994382E+00 -0.30128749285E+01  0.74745555646E+01  0.80600370573E+01  0.51100000000E-03 0.  1.
        -12    1    4    4    0    0  0.62412325142E-01  0.25983505640E+02  0.22431798038E+02  0.34326841158E+02  0.00000000000E+00 0.  1.
</event>
<event>
 8    1  0.1254059E-006  0.9118800E+02  0.7816164E-02  0.1184000E+00
        -11   -1    0    0    0    0  0.00000000000E+00  0.00000000000E+00  0.45593999997E+02  0.45594000000E+02  0.51100000000E-03 0.  1.
         11   -1    0    0    0    0 -0.00000000000E+00 -0.00000000000E+00 -0.45593999997E+02  0.45594000000E+02  0.51100000000E-03 0. -1.
         23    2    1    2    0    0  0.00000000000E+00  0.00000000000E+00 -0.17763568394E-14  0.91188000000E+02  0.91188000000E+02 0.  0.
    9900012    2    3    3    0    0  0.35230091516E+02  0.54333963689E+01  0.92249329395E+01  0.54367074807E+02  0.39999978637E+02 0.  0.
         12    1    3    3    0    0 -0.35230091516E+02 -0.54333963689E+01 -0.92249329395E+01  0.36820925193E+02  0.00000000000E+00 0. -1.
         11    1    4    4    0    0  0.29039965760E+02  0.64814224886E+01  0.76191013423E+01  0.30714477927E+02  0.51100000000E-03 0. -1.
        -11    1    4    4    0    0  0.79963406050E+01 -0.19603125652E+01  0.11170198958E+02  0.13876513735E+02  0.51100000000E-03 0.  1.
         12    1    4    4    0    0 -0.18062148490E+01  0.91228644555E+00 -0.95643673605E+01  0.97760831444E+01  0.00000000000E+00 0. -1.
</event>
<event>
 8    1  0.1254059E-006  0.9118800E+02  0.7816164E-02  0.1184000E+00
        -11   -1    0    0    0    0  0.00000000000E+00  0.00000000000E+00  0.45593999997E+02  0.45594000000E+02  0.51100000000E-03 0.  1.
         11   -1    0    0    0    0 -0.00000000000E+00 -0.00000000000E+00 -0.45593999997E+02  0.45594000000E+02  0.51100000000E-03 0. -1.
         23    2    1    2    0    0  0.71054273576E-14  0.88817841970E-15  0.00000000000E+00  0.91188000000E+02  0.91188000000E+02 0.  0.
    9900012    2    3    3    0    0 -0.33927585992E+02 -0.43087267132E+01 -0.13643088639E+02  0.54367080881E+02  0.39999992485E+02 0.  0.
        -12    1    3    3    0    0  0.33927585992E+02  0.43087267132E+01  0.13643088639E+02  0.36820919119E+02  0.00000000000E+00 0.  1.
         11    1    4    4    0    0 -0.15916175402E+02 -0.12704002155E+02 -0.12550488597E+02  0.23921351853E+02  0.51100000000E-03 0. -1.
        -11    1    4    4    0    0 -0.16906946229E+02  0.65515749768E+00 -0.91359087014E+01  0.19228595638E+02  0.51100000000E-03 0.  1.
        -12    1    4    4    0    0 -0.11044643607E+01  0.77401179441E+01  0.80433086592E+01  0.11217133390E+02  0.00000000000E+00 0.  1.
</event>
<event>
 8    1  0.1254059E-006  0.9118800E+02  0.7816164E-02  0.1184000E+00
        -11   -1    0    0    0    0  0.00000000000E+00  0.00000000000E+00  0.45593999997E+02  0.45594000000E+02  0.51100000000E-03 0. -1.
         11   -1    0    0    0    0 -0.00000000000E+00 -0.00000000000E+00 -0.45593999997E+02  0.45594000000E+02  0.51100000000E-03 0.  1.
         23    2    1    2    0    0  0.00000000000E+00  0.00000000000E+00 -0.71054273576E-14  0.91188000000E+02  0.91188000000E+02 0.  0.
    9900012    2    3    3    0    0 -0.16554173267E+02 -0.25054262741E+01  0.32794219675E+02  0.54367100263E+02  0.40000036670E+02 0.  0.
        -12    1    3    3    0    0  0.16554173267E+02  0.25054262741E+01 -0.32794219675E+02  0.36820899737E+02  0.00000000000E+00 0.  1.
         11    1    4    4    0    0 -0.61463839499E+01  0.37226692886E+01  0.15485052815E+02  0.17071120738E+02  0.51100000000E-03 0. -1.
        -11    1    4    4    0    0 -0.21176675734E+02 -0.51535934739E+01  0.14285044843E+02  0.26059041181E+02  0.51100000000E-03 0.  1.
        -12    1    4    4    0    0  0.10768886417E+02 -0.10745020888E+01  0.30241220168E+01  0.11236938345E+02  0.00000000000E+00 0.  1.
</event>
<event>
 8    1  0.1254059E-006  0.9118800E+02  0.7816164E-02  0.1184000E+00
        -11   -1    0    0    0    0  0.00000000000E+00  0.00000000000E+00  0.45593999997E+02  0.45594000000E+02  0.51100000000E-03 0. -1.
         11   -1    0    0    0    0 -0.00000000000E+00 -0.00000000000E+00 -0.45593999997E+02  0.45594000000E+02  0.51100000000E-03 0.  1.
         23    2    1    2    0    0  0.35527136788E-14 -0.17763568394E-14 -0.35527136788E-14  0.91188000000E+02  0.91188000000E+02 0.  0.
    9900012    2    3    3    0    0 -0.23868915621E+02  0.20668010550E+01  0.27960343488E+02  0.54367114521E+02  0.40000069172E+02 0.  0.
        -12    1    3    3    0    0  0.23868915621E+02 -0.20668010550E+01 -0.27960343488E+02  0.36820885479E+02  0.00000000000E+00 0.  1.
         11    1    4    4    0    0 -0.13956045015E+01 -0.91911345589E+01  0.12749847734E+02  0.15779204159E+02  0.51100000000E-03 0. -1.
        -11    1    4    4    0    0 -0.17047740048E+02 -0.29229116454E+01  0.15752863982E+02  0.23394904940E+02  0.51100000000E-03 0.  1.
        -12    1    4    4    0    0 -0.54255710718E+01  0.14180847259E+02 -0.54236822826E+00  0.15193005422E+02  0.00000000000E+00 0.  1.
</event>
<event>
 8    1  0.1254059E-006  0.9118800E+02  0.7816164E-02  0.1184000E+00
        -11   -1    0    0    0    0  0.00000000000E+00  0.00000000000E+00  0.45593999997E+02  0.45594000000E+02  0.51100000000E-03 0. -1.
         11   -1    0    0    0    0 -0.00000000000E+00 -0.00000000000E+00 -0.45593999997E+02  0.45594000000E+02  0.51100000000E-03 0.  1.
         23    2    1    2    0    0 -0.53290705182E-14  0.00000000000E+00 -0.27755575616E-15  0.91188000000E+02  0.91188000000E+02 0.  0.
    9900012    2    3    3    0    0  0.15612984486E+02 -0.33346238849E+02  0.20185084111E+00  0.54367113621E+02  0.40000067122E+02 0.  0.
        -12    1    3    3    0    0 -0.15612984486E+02  0.33346238849E+02 -0.20185084111E+00  0.36820886379E+02  0.00000000000E+00 0.  1.
         11    1    4    4    0    0 -0.40772669578E+01 -0.24487877743E+02  0.18176687067E+01  0.24891447969E+02  0.51100000000E-03 0.  1.
        -11    1    4    4    0    0  0.21727593337E+02 -0.11799004750E+02 -0.41783150642E+01  0.25075149897E+02  0.51100000000E-03 0. -1.
         12    1    4    4    0    0 -0.20373418926E+01  0.29406436434E+01  0.25624971986E+01  0.44005157559E+01  0.00000000000E+00 0. -1.
</event>
<event>
 8    1  0.1254059E-006  0.9118800E+02  0.7816164E-02  0.1184000E+00
        -11   -1    0    0    0    0  0.00000000000E+00  0.00000000000E+00  0.45593999997E+02  0.45594000000E+02  0.51100000000E-03 0.  1.
         11   -1    0    0    0    0 -0.00000000000E+00 -0.00000000000E+00 -0.45593999997E+02  0.45594000000E+02  0.51100000000E-03 0. -1.
         23    2    1    2    0    0  0.35527136788E-14  0.00000000000E+00 -0.17763568394E-14  0.91188000000E+02  0.91188000000E+02 0.  0.
    9900012    2    3    3    0    0 -0.30260466432E+02  0.17480709866E+02  0.11597777342E+02  0.54367089021E+02  0.40000011040E+02 0.  0.
         12    1    3    3    0    0  0.30260466432E+02 -0.17480709866E+02 -0.11597777342E+02  0.36820910979E+02  0.00000000000E+00 0. -1.
         11    1    4    4    0    0 -0.13628897540E+02  0.11109705256E+02  0.11085022040E+02  0.20785815185E+02  0.51100000000E-03 0.  1.
        -11    1    4    4    0    0 -0.18840813442E+02 -0.34044704346E+01  0.83216073710E+01  0.20876202231E+02  0.51100000000E-03 0. -1.
         12    1    4    4    0    0  0.22092445502E+01  0.97754750449E+01 -0.78088520691E+01  0.12705071604E+02  0.00000000000E+00 0. -1.
</event>
<event>
 8    1  0.1254059E-006  0.9118800E+02  0.7816164E-02  0.1184000E+00
        -11   -1    0    0    0    0  0.00000000000E+00  0.00000000000E+00  0.45593999997E+02  0.45594000000E+02  0.51100000000E-03 0.  1.
         11   -1    0    0    0    0 -0.00000000000E+00 -0.00000000000E+00 -0.45593999997E+02  0.45594000000E+02  0.51100000000E-03 0. -1.
         23    2    1    2    0    0  0.62450045135E-16 -0.35527136788E-14  0.00000000000E+00  0.91188000000E+02  0.91188000000E+02 0.  0.
    9900012    2    3    3    0    0  0.19117386747E-01  0.15471226781E+02  0.33412873226E+02  0.54367091255E+02  0.40000016134E+02 0.  0.
         12    1    3    3    0    0 -0.19117386747E-01 -0.15471226781E+02 -0.33412873226E+02  0.36820908745E+02  0.00000000000E+00 0. -1.
         11    1    4    4    0    0 -0.17433947293E+01 -0.40430945921E+01  0.12216780937E+02  0.12985983820E+02  0.51100000000E-03 0. -1.
        -11    1    4    4    0    0 -0.49020814649E+01 -0.58722115459E+00  0.19522966530E+02  0.20137563253E+02  0.51100000000E-03 0.  1.
        -12    1    4    4    0    0  0.66645935810E+01  0.20101542528E+02  0.16731257589E+01  0.21243544182E+02  0.00000000000E+00 0.  1.
</event>
<event>
 8    1  0.1254059E-006  0.9118800E+02  0.7816164E-02  0.1184000E+00
        -11   -1    0    0    0    0  0.00000000000E+00  0.00000000000E+00  0.45593999997E+02  0.45594000000E+02  0.51100000000E-03 0.  1.
         11   -1    0    0    0    0 -0.00000000000E+00 -0.00000000000E+00 -0.45593999997E+02  0.45594000000E+02  0.51100000000E-03 0. -1.
         23    2    1    2    0    0  0.00000000000E+00  0.44408920985E-15 -0.71054273576E-14  0.91188000000E+02  0.91188000000E+02 0.  0.
    9900012    2    3    3    0    0  0.10713783288E+02  0.33472826828E+01 -0.35068366801E+02  0.54367084697E+02  0.40000001183E+02 0.  0.
        -12    1    3    3    0    0 -0.10713783288E+02 -0.33472826828E+01  0.35068366801E+02  0.36820915303E+02  0.00000000000E+00 0.  1.
         11    1    4    4    0    0  0.18807405915E+02 -0.78436343937E+01 -0.55126203615E+01  0.21109952659E+02  0.51100000000E-03 0. -1.
        -11    1    4    4    0    0 -0.12040014586E+01 -0.11601149137E+00 -0.69883146029E+01  0.70922224605E+01  0.51100000000E-03 0.  1.
        -12    1    4    4    0    0 -0.68896211691E+01  0.11306928568E+02 -0.22567431836E+02  0.26164909577E+02  0.00000000000E+00 0.  1.
</event>
<event>
 8    1  0.1254059E-006  0.9118800E+02  0.7816164E-02  0.1184000E+00
        -11   -1    0    0    0    0  0.00000000000E+00  0.00000000000E+00  0.45593999997E+02  0.45594000000E+02  0.51100000000E-03 0. -1.
         11   -1    0    0    0    0 -0.00000000000E+00 -0.00000000000E+00 -0.45593999997E+02  0.45594000000E+02  0.51100000000E-03 0.  1.
         23    2    1    2    0    0  0.00000000000E+00  0.17763568394E-14 -0.35527136788E-14  0.91188000000E+02  0.91188000000E+02 0.  0.
    9900012    2    3    3    0    0  0.28089136931E+02  0.77124162445E+01 -0.22523287826E+02  0.54367089197E+02  0.40000011443E+02 0.  0.
         12    1    3    3    0    0 -0.28089136931E+02 -0.77124162445E+01  0.22523287826E+02  0.36820910803E+02  0.00000000000E+00 0. -1.
         11    1    4    4    0    0  0.13545169929E+02  0.96199059236E+01  0.84692351207E+01  0.18647846046E+02  0.51100000000E-03 0. -1.
        -11    1    4    4    0    0  0.13732909429E+01 -0.12662561913E+01  0.17590631766E+00  0.18762398699E+01  0.51100000000E-03 0.  1.
        -12    1    4    4    0    0  0.13170676059E+02 -0.64123348774E+00 -0.31168429265E+02  0.33843003281E+02  0.00000000000E+00 0.  1.
</event>
<event>
 8    1  0.1254059E-006  0.9118800E+02  0.7816164E-02  0.1184000E+00
        -11   -1    0    0    0    0  0.00000000000E+00  0.00000000000E+00  0.45593999997E+02  0.45594000000E+02  0.51100000000E-03 0.  1.
         11   -1    0    0    0    0 -0.00000000000E+00 -0.00000000000E+00 -0.45593999997E+02  0.45594000000E+02  0.51100000000E-03 0. -1.
         23    2    1    2    0    0  0.00000000000E+00 -0.17763568394E-14  0.00000000000E+00  0.91188000000E+02  0.91188000000E+02 0.  0.
    9900012    2    3    3    0    0 -0.31935190079E+02 -0.43839662436E+01  0.17796162768E+02  0.54367096499E+02  0.40000028088E+02 0.  0.
         12    1    3    3    0    0  0.31935190079E+02  0.43839662436E+01 -0.17796162768E+02  0.36820903501E+02  0.00000000000E+00 0. -1.
         11    1    4    4    0    0 -0.16820183580E+02  0.44170574554E-01  0.29887053117E+01  0.17083702362E+02  0.51100000000E-03 0. -1.
        -11    1    4    4    0    0  0.21905835862E+00 -0.11204742482E+02  0.17014835483E+02  0.20373975249E+02  0.51100000000E-03 0.  1.
         12    1    4    4    0    0 -0.15334064858E+02  0.67766056640E+01 -0.22073780267E+01  0.16909418888E+02  0.00000000000E+00 0. -1.
</event>
<event>
 8    1  0.1254059E-006  0.9118800E+02  0.7816164E-02  0.1184000E+00
        -11   -1    0    0    0    0  0.00000000000E+00  0.00000000000E+00  0.45593999997E+02  0.45594000000E+02  0.51100000000E-03 0.  1.
         11   -1    0    0    0    0 -0.00000000000E+00 -0.00000000000E+00 -0.45593999997E+02  0.45594000000E+02  0.51100000000E-03 0. -1.
         23    2    1    2    0    0  0.35527136788E-14  0.00000000000E+00  0.00000000000E+00  0.91188000000E+02  0.91188000000E+02 0.  0.
    9900012    2    3    3    0    0 -0.20580037667E+02 -0.24932965989E+02 -0.17623543312E+02  0.54367081730E+02  0.39999994419E+02 0.  0.
        -12    1    3    3    0    0  0.20580037667E+02  0.24932965989E+02  0.17623543312E+02  0.36820918270E+02  0.00000000000E+00 0.  1.
         11    1    4    4    0    0 -0.22619215461E+02 -0.22513117608E+02 -0.39037928194E+01  0.32151344779E+02  0.51100000000E-03 0. -1.
        -11    1    4    4    0    0  0.41092060638E+01 -0.42384759970E+01  0.20178426971E+01  0.62387452796E+01  0.51100000000E-03 0.  1.
        -12    1    4    4    0    0 -0.20700282697E+01  0.18186276153E+01 -0.15737593190E+02  0.15976991671E+02  0.00000000000E+00 0.  1.
</event>
<event>
 8    1  0.1254059E-006  0.9118800E+02  0.7816164E-02  0.1184000E+00
        -11   -1    0    0    0    0  0.00000000000E+00  0.00000000000E+00  0.45593999997E+02  0.45594000000E+02  0.51100000000E-03 0.  1.
         11   -1    0    0    0    0 -0.00000000000E+00 -0.00000000000E+00 -0.45593999997E+02  0.45594000000E+02  0.51100000000E-03 0. -1.
         23    2    1    2    0    0  0.00000000000E+00  0.35527136788E-14  0.71054273576E-14  0.91188000000E+02  0.91188000000E+02 0.  0.
    9900012    2    3    3    0    0 -0.84450000490E+01  0.16056762922E+02 -0.32041254072E+02  0.54367087140E+02  0.40000006752E+02 0.  0.
        -12    1    3    3    0    0  0.84450000490E+01 -0.16056762922E+02  0.32041254072E+02  0.36820912860E+02  0.00000000000E+00 0.  1.
         11    1    4    4    0    0 -0.69160327424E+01  0.88574292333E+01 -0.34607806859E+01  0.11758510311E+02  0.51100000000E-03 0. -1.
        -11    1    4    4    0    0 -0.69862877065E+01 -0.72569052215E+01  0.51189969200E-01  0.10073406077E+02  0.51100000000E-03 0.  1.
         12    1    4    4    0    0  0.54573204000E+01  0.14456238910E+02 -0.28631663355E+02  0.32535170752E+02  0.00000000000E+00 0. -1.
</event>
<event>
 8    1  0.1254059E-006  0.9118800E+02  0.7816164E-02  0.1184000E+00
        -11   -1    0    0    0    0  0.00000000000E+00  0.00000000000E+00  0.45593999997E+02  0.45594000000E+02  0.51100000000E-03 0. -1.
         11   -1    0    0    0    0 -0.00000000000E+00 -0.00000000000E+00 -0.45593999997E+02  0.45594000000E+02  0.51100000000E-03 0.  1.
         23    2    1    2    0    0 -0.88817841970E-15  0.00000000000E+00  0.88817841970E-15  0.91188000000E+02  0.91188000000E+02 0.  0.
    9900012    2    3    3    0    0 -0.69895451873E+01 -0.35803073912E+02 -0.50066897142E+01  0.54367071367E+02  0.39999970796E+02 0.  0.
         12    1    3    3    0    0  0.69895451873E+01  0.35803073912E+02  0.50066897142E+01  0.36820928633E+02  0.00000000000E+00 0. -1.
         11    1    4    4    0    0  0.63873904598E+01 -0.41196271051E+01 -0.27660273906E+01  0.80883244345E+01  0.51100000000E-03 0. -1.
        -11    1    4    4    0    0 -0.60221603382E+01 -0.13963605592E+02  0.14354510966E+02  0.20911735499E+02  0.51100000000E-03 0.  1.
        -12    1    4    4    0    0 -0.73547753090E+01 -0.17719841215E+02 -0.16595173290E+02  0.25367011433E+02  0.00000000000E+00 0.  1.
</event>
<event>
 8    1  0.1254059E-006  0.9118800E+02  0.7816164E-02  0.1184000E+00
        -11   -1    0    0    0    0  0.00000000000E+00  0.00000000000E+00  0.45593999997E+02  0.45594000000E+02  0.51100000000E-03 0. -1.
         11   -1    0    0    0    0 -0.00000000000E+00 -0.00000000000E+00 -0.45593999997E+02  0.45594000000E+02  0.51100000000E-03 0.  1.
         23    2    1    2    0    0  0.00000000000E+00  0.00000000000E+00  0.00000000000E+00  0.91188000000E+02  0.91188000000E+02 0.  0.
    9900012    2    3    3    0    0 -0.15315384972E+02 -0.32425431683E+02  0.83553931046E+01  0.54367051742E+02  0.39999926057E+02 0.  0.
         12    1    3    3    0    0  0.15315384972E+02  0.32425431683E+02 -0.83553931046E+01  0.36820948258E+02  0.00000000000E+00 0. -1.
         11    1    4    4    0    0  0.28982514600E+01 -0.24511020092E+02  0.67138406922E+01  0.25578616549E+02  0.51100000000E-03 0. -1.
        -11    1    4    4    0    0 -0.78789651694E+00 -0.69945198680E+01 -0.64560251724E+01  0.95511439311E+01  0.51100000000E-03 0.  1.
        -12    1    4    4    0    0 -0.17425739915E+02 -0.91989172298E+00  0.80975775849E+01  0.19237291262E+02  0.00000000000E+00 0.  1.
</event>
<event>
 8    1  0.1254059E-006  0.9118800E+02  0.7816164E-02  0.1184000E+00
        -11   -1    0    0    0    0  0.00000000000E+00  0.00000000000E+00  0.45593999997E+02  0.45594000000E+02  0.51100000000E-03 0.  1.
         11   -1    0    0    0    0 -0.00000000000E+00 -0.00000000000E+00 -0.45593999997E+02  0.45594000000E+02  0.51100000000E-03 0. -1.
         23    2    1    2    0    0  0.00000000000E+00  0.00000000000E+00  0.00000000000E+00  0.91188000000E+02  0.91188000000E+02 0.  0.
    9900012    2    3    3    0    0 -0.35041566790E+02  0.80394312151E+01 -0.79519161721E+01  0.54367125103E+02  0.40000093298E+02 0.  0.
        -12    1    3    3    0    0  0.35041566790E+02 -0.80394312151E+01  0.79519161721E+01  0.36820874897E+02  0.00000000000E+00 0.  1.
         11    1    4    4    0    0 -0.87270129247E+01 -0.14978042227E+01 -0.10569864782E+02  0.13788626249E+02  0.51100000000E-03 0. -1.
        -11    1    4    4    0    0 -0.56286925140E+01  0.15800526766E+02  0.75745605336E+01  0.18404151516E+02  0.51100000000E-03 0.  1.
        -12    1    4    4    0    0 -0.20685861351E+02 -0.62632913279E+01 -0.49566119241E+01  0.22174347338E+02  0.00000000000E+00 0.  1.
</event>
<event>
 8    1  0.1254059E-006  0.9118800E+02  0.7816164E-02  0.1184000E+00
        -11   -1    0    0    0    0  0.00000000000E+00  0.00000000000E+00  0.45593999997E+02  0.45594000000E+02  0.51100000000E-03 0. -1.
         11   -1    0    0    0    0 -0.00000000000E+00 -0.00000000000E+00 -0.45593999997E+02  0.45594000000E+02  0.51100000000E-03 0.  1.
         23    2    1    2    0    0  0.00000000000E+00  0.00000000000E+00  0.00000000000E+00  0.91188000000E+02  0.91188000000E+02 0.  0.
    9900012    2    3    3    0    0  0.25737252786E+02 -0.18880791758E+02  0.18354532095E+02  0.54367091173E+02  0.40000015948E+02 0.  0.
        -12    1    3    3    0    0 -0.25737252786E+02  0.18880791758E+02 -0.18354532095E+02  0.36820908827E+02  0.00000000000E+00 0.  1.
         11    1    4    4    0    0  0.62443202686E+01 -0.38684988285E+01  0.16904387180E+02  0.18431362537E+02  0.51100000000E-03 0. -1.
        -11    1    4    4    0    0  0.19712193777E+02  0.84578165833E+00  0.31692277074E+01  0.19983241345E+02  0.51100000000E-03 0.  1.
        -12    1    4    4    0    0 -0.21926125979E+00 -0.15858074588E+02 -0.17190827918E+01  0.15952487291E+02  0.00000000000E+00 0.  1.
</event>
<event>
 8    1  0.1254059E-006  0.9118800E+02  0.7816164E-02  0.1184000E+00
        -11   -1    0    0    0    0  0.00000000000E+00  0.00000000000E+00  0.45593999997E+02  0.45594000000E+02  0.51100000000E-03 0. -1.
         11   -1    0    0    0    0 -0.00000000000E+00 -0.00000000000E+00 -0.45593999997E+02  0.45594000000E+02  0.51100000000E-03 0.  1.
         23    2    1    2    0    0  0.88817841970E-15  0.00000000000E+00  0.00000000000E+00  0.91188000000E+02  0.91188000000E+02 0.  0.
    9900012    2    3    3    0    0 -0.50325361781E+01  0.83419842522E+01 -0.35508662839E+02  0.54367078525E+02  0.39999987115E+02 0.  0.
         12    1    3    3    0    0  0.50325361781E+01 -0.83419842522E+01  0.35508662839E+02  0.36820921475E+02  0.00000000000E+00 0. -1.
         11    1    4    4    0    0  0.87440144930E+01 -0.34684408084E+01 -0.16370046776E+02  0.18880315220E+02  0.51100000000E-03 0. -1.
        -11    1    4    4    0    0 -0.74607767616E+01  0.44844921072E+00 -0.21059247409E+02  0.22346279294E+02  0.51100000000E-03 0.  1.
        -12    1    4    4    0    0 -0.63157739096E+01  0.11361975850E+02  0.19206313465E+01  0.13140484012E+02  0.00000000000E+00 0.  1.
</event>
<event>
 8    1  0.1254059E-006  0.9118800E+02  0.7816164E-02  0.1184000E+00
        -11   -1    0    0    0    0  0.00000000000E+00  0.00000000000E+00  0.45593999997E+02  0.45594000000E+02  0.51100000000E-03 0. -1.
         11   -1    0    0    0    0 -0.00000000000E+00 -0.00000000000E+00 -0.45593999997E+02  0.45594000000E+02  0.51100000000E-03 0.  1.
         23    2    1    2    0    0  0.17763568394E-14  0.13322676296E-14  0.00000000000E+00  0.91188000000E+02  0.91188000000E+02 0.  0.
    9900012    2    3    3    0    0  0.78142322784E+01  0.15641047850E+01  0.35948177181E+02  0.54367080776E+02  0.39999992244E+02 0.  0.
        -12    1    3    3    0    0 -0.78142322784E+01 -0.15641047850E+01 -0.35948177181E+02  0.36820919224E+02  0.00000000000E+00 0.  1.
         11    1    4    4    0    0 -0.45773474506E+01 -0.52238906415E+01  0.28764583850E+01  0.75176562983E+01  0.51100000000E-03 0. -1.
        -11    1    4    4    0    0  0.15931486190E+01 -0.10871929554E+02  0.52658543239E+01  0.12184670565E+02  0.51100000000E-03 0.  1.
         12    1    4    4    0    0  0.10798431110E+02  0.17659924981E+02  0.27805864472E+02  0.34664753912E+02  0.00000000000E+00 0. -1.
</event>
<event>
 8    1  0.1254059E-006  0.9118800E+02  0.7816164E-02  0.1184000E+00
        -11   -1    0    0    0    0  0.00000000000E+00  0.00000000000E+00  0.45593999997E+02  0.45594000000E+02  0.51100000000E-03 0. -1.
         11   -1    0    0    0    0 -0.00000000000E+00 -0.00000000000E+00 -0.45593999997E+02  0.45594000000E+02  0.51100000000E-03 0.  1.
         23    2    1    2    0    0 -0.35527136788E-14 -0.22204460493E-14  0.00000000000E+00  0.91188000000E+02  0.91188000000E+02 0.  0.
    9900012    2    3    3    0    0  0.23048105388E+02 -0.21263949829E+01  0.28636408653E+02  0.54367073639E+02  0.39999975974E+02 0.  0.
        -12    1    3    3    0    0 -0.23048105388E+02  0.21263949829E+01 -0.28636408653E+02  0.36820926361E+02  0.00000000000E+00 0.  1.
         11    1    4    4    0    0 -0.72699171436E+00 -0.23484923652E+01  0.21229572794E+01  0.32482120026E+01  0.51100000000E-03 0.  1.
        -11    1    4    4    0    0  0.38562365083E+01 -0.15260295402E+02  0.19249933631E+02  0.24865782128E+02  0.51100000000E-03 0. -1.
        -12    1    4    4    0    0  0.19918860594E+02  0.15482392784E+02  0.72635177422E+01  0.26253079508E+02  0.00000000000E+00 0.  1.
</event>
<event>
 8    1  0.1254059E-006  0.9118800E+02  0.7816164E-02  0.1184000E+00
        -11   -1    0    0    0    0  0.00000000000E+00  0.00000000000E+00  0.45593999997E+02  0.45594000000E+02  0.51100000000E-03 0.  1.
         11   -1    0    0    0    0 -0.00000000000E+00 -0.00000000000E+00 -0.45593999997E+02  0.45594000000E+02  0.51100000000E-03 0. -1.
         23    2    1    2    0    0 -0.35527136788E-14 -0.35527136788E-14 -0.35527136788E-14  0.91188000000E+02  0.91188000000E+02 0.  0.
    9900012    2    3    3    0    0 -0.18148236327E+02 -0.16635133925E+02 -0.27380528884E+02  0.54367088490E+02  0.40000009830E+02 0.  0.
        -12    1    3    3    0    0  0.18148236327E+02  0.16635133925E+02  0.27380528884E+02  0.36820911510E+02  0.00000000000E+00 0.  1.
         11    1    4    4    0    0 -0.11966190239E+02 -0.92894829120E+01 -0.18298997725E+01  0.15258857593E+02  0.51100000000E-03 0. -1.
        -11    1    4    4    0    0 -0.53071851141E+01  0.10481621151E+02 -0.96373752914E+01  0.15195709873E+02  0.51100000000E-03 0.  1.
         12    1    4    4    0    0 -0.87486097417E+00 -0.17827272164E+02 -0.15913253820E+02  0.23912521023E+02  0.00000000000E+00 0. -1.
</event>
<event>
 8    1  0.1254059E-006  0.9118800E+02  0.7816164E-02  0.1184000E+00
        -11   -1    0    0    0    0  0.00000000000E+00  0.00000000000E+00  0.45593999997E+02  0.45594000000E+02  0.51100000000E-03 0.  1.
         11   -1    0    0    0    0 -0.00000000000E+00 -0.00000000000E+00 -0.45593999997E+02  0.45594000000E+02  0.51100000000E-03 0. -1.
         23    2    1    2    0    0  0.00000000000E+00  0.00000000000E+00  0.00000000000E+00  0.91188000000E+02  0.91188000000E+02 0.  0.
    9900012    2    3    3    0    0  0.11979017316E+02 -0.87366812025E+01  0.33703930801E+02  0.54367062943E+02  0.39999951591E+02 0.  0.
         12    1    3    3    0    0 -0.11979017316E+02  0.87366812025E+01 -0.33703930801E+02  0.36820937057E+02  0.00000000000E+00 0. -1.
         11    1    4    4    0    0  0.13770018929E+02 -0.15919465509E+01 -0.89718197654E+00  0.13890739753E+02  0.51100000000E-03 0. -1.
        -11    1    4    4    0    0 -0.31665997243E+01 -0.63015397933E+01  0.13430842546E+01  0.71791805352E+01  0.51100000000E-03 0.  1.
         12    1    4    4    0    0  0.13755981113E+01 -0.84319485828E+00  0.33258028523E+02  0.33297142655E+02  0.00000000000E+00 0. -1.
</event>
<event>
 8    1  0.1254059E-006  0.9118800E+02  0.7816164E-02  0.1184000E+00
        -11   -1    0    0    0    0  0.00000000000E+00  0.00000000000E+00  0.45593999997E+02  0.45594000000E+02  0.51100000000E-03 0. -1.
         11   -1    0    0    0    0 -0.00000000000E+00 -0.00000000000E+00 -0.45593999997E+02  0.45594000000E+02  0.51100000000E-03 0.  1.
         23    2    1    2    0    0  0.88817841970E-15 -0.88817841970E-15  0.00000000000E+00  0.91188000000E+02  0.91188000000E+02 0.  0.
    9900012    2    3    3    0    0 -0.50646582843E+01 -0.44396374743E+01 -0.36199704690E+02  0.54367085236E+02  0.40000002412E+02 0.  0.
         12    1    3    3    0    0  0.50646582843E+01  0.44396374743E+01  0.36199704690E+02  0.36820914764E+02  0.00000000000E+00 0. -1.
         11    1    4    4    0    0  0.37642514796E+01 -0.11598278261E+02  0.17843937891E+01  0.12323705176E+02  0.51100000000E-03 0. -1.
        -11    1    4    4    0    0 -0.70309624526E+01  0.17687386688E+01 -0.55901931836E+01  0.91549510965E+01  0.51100000000E-03 0.  1.
         12    1    4    4    0    0 -0.17979473113E+01  0.53899021179E+01 -0.32393905295E+02  0.32888428963E+02  0.00000000000E+00 0. -1.
</event>
<event>
 8    1  0.1254059E-006  0.9118800E+02  0.7816164E-02  0.1184000E+00
        -11   -1    0    0    0    0  0.00000000000E+00  0.00000000000E+00  0.45593999997E+02  0.45594000000E+02  0.51100000000E-03 0.  1.
         11   -1    0    0    0    0 -0.00000000000E+00 -0.00000000000E+00 -0.45593999997E+02  0.45594000000E+02  0.51100000000E-03 0. -1.
         23    2    1    2    0    0  0.00000000000E+00 -0.35527136788E-14 -0.17763568394E-14  0.91188000000E+02  0.91188000000E+02 0.  0.
    9900012    2    3    3    0    0  0.17007806753E+02  0.29124031076E+02  0.14775197181E+02  0.54367066710E+02  0.39999960178E+02 0.  0.
         12    1    3    3    0    0 -0.17007806753E+02 -0.29124031076E+02 -0.14775197181E+02  0.36820933290E+02  0.00000000000E+00 0. -1.
         11    1    4    4    0    0  0.51678687686E+01  0.12265983749E+02 -0.98657479364E+01  0.16567866717E+02  0.51100000000E-03 0. -1.
        -11    1    4    4    0    0 -0.68767290944E+00 -0.40588837483E+01  0.22266124419E+01  0.46803028257E+01  0.51100000000E-03 0.  1.
         12    1    4    4    0    0  0.12527610894E+02  0.20916931075E+02  0.22414332675E+02  0.33118897167E+02  0.00000000000E+00 0. -1.
</event>
<event>
 8    1  0.1254059E-006  0.9118800E+02  0.7816164E-02  0.1184000E+00
        -11   -1    0    0    0    0  0.00000000000E+00  0.00000000000E+00  0.45593999997E+02  0.45594000000E+02  0.51100000000E-03 0. -1.
         11   -1    0    0    0    0 -0.00000000000E+00 -0.00000000000E+00 -0.45593999997E+02  0.45594000000E+02  0.51100000000E-03 0.  1.
         23    2    1    2    0    0  0.00000000000E+00  0.00000000000E+00  0.00000000000E+00  0.91188000000E+02  0.91188000000E+02 0.  0.
    9900012    2    3    3    0    0  0.17971075093E+02  0.30304845107E+02  0.10697497761E+02  0.54367086984E+02  0.40000006397E+02 0.  0.
        -12    1    3    3    0    0 -0.17971075093E+02 -0.30304845107E+02 -0.10697497761E+02  0.36820913016E+02  0.00000000000E+00 0.  1.
         11    1    4    4    0    0 -0.26591836560E+01  0.26456623521E+02  0.99176717775E+01  0.28379295262E+02  0.51100000000E-03 0. -1.
        -11    1    4    4    0    0  0.12099774529E+02 -0.52221747547E+01  0.25133851353E+01  0.13416137966E+02  0.51100000000E-03 0.  1.
         12    1    4    4    0    0  0.85304842198E+01  0.90703963416E+01 -0.17335591520E+01  0.12571653756E+02  0.00000000000E+00 0. -1.
</event>
<event>
 8    1  0.1254059E-006  0.9118800E+02  0.7816164E-02  0.1184000E+00
        -11   -1    0    0    0    0  0.00000000000E+00  0.00000000000E+00  0.45593999997E+02  0.45594000000E+02  0.51100000000E-03 0.  1.
         11   -1    0    0    0    0 -0.00000000000E+00 -0.00000000000E+00 -0.45593999997E+02  0.45594000000E+02  0.51100000000E-03 0. -1.
         23    2    1    2    0    0  0.17763568394E-14 -0.35527136788E-14  0.00000000000E+00  0.91188000000E+02  0.91188000000E+02 0.  0.
    9900012    2    3    3    0    0 -0.11956793537E+02 -0.14618085227E+02 -0.31609018886E+02  0.54367035831E+02  0.39999889784E+02 0.  0.
        -12    1    3    3    0    0  0.11956793537E+02  0.14618085227E+02  0.31609018886E+02  0.36820964169E+02  0.00000000000E+00 0.  1.
         11    1    4    4    0    0 -0.13443196524E+02  0.14801593073E+01 -0.76513463126E+01  0.15538774244E+02  0.51100000000E-03 0. -1.
        -11    1    4    4    0    0 -0.31537344393E+01 -0.20804615329E+02 -0.24380767287E+02  0.32205587615E+02  0.51100000000E-03 0.  1.
        -12    1    4    4    0    0  0.46401374260E+01  0.47063707952E+01  0.42309471321E+00  0.66226739713E+01  0.00000000000E+00 0.  1.
</event>
<event>
 8    1  0.1254059E-006  0.9118800E+02  0.7816164E-02  0.1184000E+00
        -11   -1    0    0    0    0  0.00000000000E+00  0.00000000000E+00  0.45593999997E+02  0.45594000000E+02  0.51100000000E-03 0.  1.
         11   -1    0    0    0    0 -0.00000000000E+00 -0.00000000000E+00 -0.45593999997E+02  0.45594000000E+02  0.51100000000E-03 0. -1.
         23    2    1    2    0    0  0.35527136788E-14  0.00000000000E+00  0.00000000000E+00  0.91188000000E+02  0.91188000000E+02 0.  0.
    9900012    2    3    3    0    0  0.30311467878E+02  0.10005108557E+02 -0.18354638433E+02  0.54367081569E+02  0.39999994052E+02 0.  0.
        -12    1    3    3    0    0 -0.30311467878E+02 -0.10005108557E+02  0.18354638433E+02  0.36820918431E+02  0.00000000000E+00 0.  1.
         11    1    4    4    0    0  0.12420328987E+02  0.11608053511E+02 -0.19810175318E+02  0.26104683963E+02  0.51100000000E-03 0. -1.
        -11    1    4    4    0    0  0.32104315013E+01  0.39127240328E+01 -0.83517666836E+01  0.97656687830E+01  0.51100000000E-03 0.  1.
        -12    1    4    4    0    0  0.14680707390E+02 -0.55156689876E+01  0.98073035680E+01  0.18496728822E+02  0.00000000000E+00 0.  1.
</event>
<event>
 8    1  0.1254059E-006  0.9118800E+02  0.7816164E-02  0.1184000E+00
        -11   -1    0    0    0    0  0.00000000000E+00  0.00000000000E+00  0.45593999997E+02  0.45594000000E+02  0.51100000000E-03 0. -1.
         11   -1    0    0    0    0 -0.00000000000E+00 -0.00000000000E+00 -0.45593999997E+02  0.45594000000E+02  0.51100000000E-03 0.  1.
         23    2    1    2    0    0  0.00000000000E+00  0.53290705182E-14 -0.35527136788E-14  0.91188000000E+02  0.91188000000E+02 0.  0.
    9900012    2    3    3    0    0 -0.24378264974E+02  0.10571231779E+02 -0.25489778525E+02  0.54367088092E+02  0.40000008924E+02 0.  0.
         12    1    3    3    0    0  0.24378264974E+02 -0.10571231779E+02  0.25489778525E+02  0.36820911908E+02  0.00000000000E+00 0. -1.
         11    1    4    4    0    0 -0.22203975382E+01 -0.79322467785E+01 -0.92880853699E+01  0.12414476803E+02  0.51100000000E-03 0. -1.
        -11    1    4    4    0    0 -0.60492025218E+01 -0.26748579347E+01  0.47019356647E+01  0.81151657639E+01  0.51100000000E-03 0.  1.
        -12    1    4    4    0    0 -0.16108664914E+02  0.21178336492E+02 -0.20903628819E+02  0.33837445526E+02  0.00000000000E+00 0.  1.
</event>
<event>
 8    1  0.1254059E-006  0.9118800E+02  0.7816164E-02  0.1184000E+00
        -11   -1    0    0    0    0  0.00000000000E+00  0.00000000000E+00  0.45593999997E+02  0.45594000000E+02  0.51100000000E-03 0.  1.
         11   -1    0    0    0    0 -0.00000000000E+00 -0.00000000000E+00 -0.45593999997E+02  0.45594000000E+02  0.51100000000E-03 0. -1.
         23    2    1    2    0    0  0.88817841970E-15  0.35527136788E-14  0.00000000000E+00  0.91188000000E+02  0.91188000000E+02 0.  0.
    9900012    2    3    3    0    0  0.53168209665E+01 -0.30067519383E+02 -0.20578046697E+02  0.54367077783E+02  0.39999985422E+02 0.  0.
        -12    1    3    3    0    0 -0.53168209665E+01  0.30067519383E+02  0.20578046697E+02  0.36820922217E+02  0.00000000000E+00 0.  1.
         11    1    4    4    0    0 -0.21669350435E+01 -0.13971261891E+02  0.41544813440E+01  0.14736060593E+02  0.51100000000E-03 0. -1.
        -11    1    4    4    0    0  0.12168631640E+01  0.69246832804E+01 -0.68346679177E+01  0.98053393771E+01  0.51100000000E-03 0.  1.
         12    1    4    4    0    0  0.62668928460E+01 -0.23020940772E+02 -0.17897860123E+02  0.29825677813E+02  0.00000000000E+00 0. -1.
</event>
<event>
 8    1  0.1254059E-006  0.9118800E+02  0.7816164E-02  0.1184000E+00
        -11   -1    0    0    0    0  0.00000000000E+00  0.00000000000E+00  0.45593999997E+02  0.45594000000E+02  0.51100000000E-03 0. -1.
         11   -1    0    0    0    0 -0.00000000000E+00 -0.00000000000E+00 -0.45593999997E+02  0.45594000000E+02  0.51100000000E-03 0.  1.
         23    2    1    2    0    0  0.17763568394E-14 -0.17763568394E-14  0.00000000000E+00  0.91188000000E+02  0.91188000000E+02 0.  0.
    9900012    2    3    3    0    0 -0.73802510824E+01  0.91727394554E+01 -0.34888017644E+02  0.54367068042E+02  0.39999963215E+02 0.  0.
         12    1    3    3    0    0  0.73802510824E+01 -0.91727394554E+01  0.34888017644E+02  0.36820931958E+02  0.00000000000E+00 0. -1.
         11    1    4    4    0    0  0.37862193381E+01  0.18485802682E+01  0.70416237968E+01  0.82059229731E+01  0.51100000000E-03 0. -1.
        -11    1    4    4    0    0  0.76225528836E+00  0.36233473835E+01 -0.24155555315E+02  0.24437686720E+02  0.51100000000E-03 0.  1.
        -12    1    4    4    0    0 -0.11928725709E+02  0.37008118037E+01 -0.17774086125E+02  0.21723458349E+02  0.00000000000E+00 0.  1.
</event>
<event>
 8    1  0.1254059E-006  0.9118800E+02  0.7816164E-02  0.1184000E+00
        -11   -1    0    0    0    0  0.00000000000E+00  0.00000000000E+00  0.45593999997E+02  0.45594000000E+02  0.51100000000E-03 0.  1.
         11   -1    0    0    0    0 -0.00000000000E+00 -0.00000000000E+00 -0.45593999997E+02  0.45594000000E+02  0.51100000000E-03 0. -1.
         23    2    1    2    0    0  0.17763568394E-14  0.00000000000E+00  0.00000000000E+00  0.91188000000E+02  0.91188000000E+02 0.  0.
    9900012    2    3    3    0    0  0.41712874113E+01  0.23337610469E+02  0.28173423711E+02  0.54367007283E+02  0.39999824704E+02 0.  0.
         12    1    3    3    0    0 -0.41712874113E+01 -0.23337610469E+02 -0.28173423711E+02  0.36820992717E+02  0.00000000000E+00 0. -1.
         11    1    4    4    0    0  0.10950114186E+02 -0.71140762926E+00  0.15110439114E+02  0.18674487194E+02  0.51100000000E-03 0. -1.
        -11    1    4    4    0    0  0.52988524090E+01  0.11461163371E+02  0.13172964898E+02  0.18247276705E+02  0.51100000000E-03 0.  1.
         12    1    4    4    0    0 -0.12077679184E+02  0.12587854727E+02 -0.10998030079E+00  0.17445243384E+02  0.00000000000E+00 0. -1.
</event>
<event>
 8    1  0.1254059E-006  0.9118800E+02  0.7816164E-02  0.1184000E+00
        -11   -1    0    0    0    0  0.00000000000E+00  0.00000000000E+00  0.45593999997E+02  0.45594000000E+02  0.51100000000E-03 0.  1.
         11   -1    0    0    0    0 -0.00000000000E+00 -0.00000000000E+00 -0.45593999997E+02  0.45594000000E+02  0.51100000000E-03 0. -1.
         23    2    1    2    0    0  0.00000000000E+00  0.35527136788E-14 -0.71054273576E-14  0.91188000000E+02  0.91188000000E+02 0.  0.
    9900012    2    3    3    0    0 -0.17124268585E+02  0.15706232461E+02 -0.28563154242E+02  0.54367080770E+02  0.39999992232E+02 0.  0.
        -12    1    3    3    0    0  0.17124268585E+02 -0.15706232461E+02  0.28563154242E+02  0.36820919230E+02  0.00000000000E+00 0.  1.
         11    1    4    4    0    0 -0.64803626792E+01 -0.46198635701E+01 -0.23350282428E+02  0.24669291226E+02  0.51100000000E-03 0. -1.
        -11    1    4    4    0    0  0.41655819764E+01  0.37491260597E+01 -0.49348473720E+01  0.74673113140E+01  0.51100000000E-03 0.  1.
        -12    1    4    4    0    0 -0.14809487882E+02  0.16576969971E+02 -0.27802444212E+00  0.22230478230E+02  0.00000000000E+00 0.  1.
</event>
<event>
 8    1  0.1254059E-006  0.9118800E+02  0.7816164E-02  0.1184000E+00
        -11   -1    0    0    0    0  0.00000000000E+00  0.00000000000E+00  0.45593999997E+02  0.45594000000E+02  0.51100000000E-03 0.  1.
         11   -1    0    0    0    0 -0.00000000000E+00 -0.00000000000E+00 -0.45593999997E+02  0.45594000000E+02  0.51100000000E-03 0. -1.
         23    2    1    2    0    0  0.00000000000E+00  0.00000000000E+00  0.00000000000E+00  0.91188000000E+02  0.91188000000E+02 0.  0.
    9900012    2    3    3    0    0  0.22168906437E+02  0.26272693673E+02  0.13193403426E+02  0.54367071992E+02  0.39999972220E+02 0.  0.
         12    1    3    3    0    0 -0.22168906437E+02 -0.26272693673E+02 -0.13193403426E+02  0.36820928008E+02  0.00000000000E+00 0. -1.
         11    1    4    4    0    0 -0.48559458574E+00  0.14381702529E+01  0.14450391514E+02  0.14529898518E+02  0.51100000000E-03 0. -1.
        -11    1    4    4    0    0  0.83066342545E+01  0.11426978313E+02 -0.11010470518E+02  0.17911071082E+02  0.51100000000E-03 0.  1.
        -12    1    4    4    0    0  0.14347866768E+02  0.13407545107E+02  0.97534824299E+01  0.21926102392E+02  0.00000000000E+00 0.  1.
</event>
<event>
 8    1  0.1254059E-006  0.9118800E+02  0.7816164E-02  0.1184000E+00
        -11   -1    0    0    0    0  0.00000000000E+00  0.00000000000E+00  0.45593999997E+02  0.45594000000E+02  0.51100000000E-03 0. -1.
         11   -1    0    0    0    0 -0.00000000000E+00 -0.00000000000E+00 -0.45593999997E+02  0.45594000000E+02  0.51100000000E-03 0.  1.
         23    2    1    2    0    0 -0.71054273576E-14  0.00000000000E+00  0.53290705182E-14  0.91188000000E+02  0.91188000000E+02 0.  0.
    9900012    2    3    3    0    0  0.32200442387E+02 -0.11095670681E+02 -0.13992718966E+02  0.54367101290E+02  0.40000039011E+02 0.  0.
         12    1    3    3    0    0 -0.32200442387E+02  0.11095670681E+02  0.13992718966E+02  0.36820898710E+02  0.00000000000E+00 0. -1.
         11    1    4    4    0    0  0.34044511052E+01  0.95810989729E+01 -0.22609902531E+01  0.10416324786E+02  0.51100000000E-03 0. -1.
        -11    1    4    4    0    0  0.16204986432E+02 -0.83252374816E+01  0.57628857450E+01  0.19108166232E+02  0.51100000000E-03 0.  1.
        -12    1    4    4    0    0  0.12591004850E+02 -0.12351532172E+02 -0.17494614458E+02  0.24842610272E+02  0.00000000000E+00 0.  1.
</event>
<event>
 8    1  0.1254059E-006  0.9118800E+02  0.7816164E-02  0.1184000E+00
        -11   -1    0    0    0    0  0.00000000000E+00  0.00000000000E+00  0.45593999997E+02  0.45594000000E+02  0.51100000000E-03 0.  1.
         11   -1    0    0    0    0 -0.00000000000E+00 -0.00000000000E+00 -0.45593999997E+02  0.45594000000E+02  0.51100000000E-03 0. -1.
         23    2    1    2    0    0 -0.35527136788E-14  0.00000000000E+00  0.00000000000E+00  0.91188000000E+02  0.91188000000E+02 0.  0.
    9900012    2    3    3    0    0  0.24294273122E+02  0.27080972300E+02 -0.56740397140E+01  0.54367007429E+02  0.39999825034E+02 0.  0.
         12    1    3    3    0    0 -0.24294273122E+02 -0.27080972300E+02  0.56740397140E+01  0.36820992571E+02  0.00000000000E+00 0. -1.
         11    1    4    4    0    0 -0.71935572635E+01  0.74586467574E+01 -0.14150865618E+01  0.10458544248E+02  0.51100000000E-03 0. -1.
        -11    1    4    4    0    0  0.30369113466E+02  0.14851501673E+02 -0.11021346058E+02  0.35557280883E+02  0.51100000000E-03 0.  1.
         12    1    4    4    0    0  0.11187169202E+01  0.47708238705E+01  0.67623929056E+01  0.83511822972E+01  0.00000000000E+00 0. -1.
</event>
<event>
 8    1  0.1254059E-006  0.9118800E+02  0.7816164E-02  0.1184000E+00
        -11   -1    0    0    0    0  0.00000000000E+00  0.00000000000E+00  0.45593999997E+02  0.45594000000E+02  0.51100000000E-03 0.  1.
         11   -1    0    0    0    0 -0.00000000000E+00 -0.00000000000E+00 -0.45593999997E+02  0.45594000000E+02  0.51100000000E-03 0. -1.
         23    2    1    2    0    0  0.00000000000E+00  0.00000000000E+00  0.00000000000E+00  0.91188000000E+02  0.91188000000E+02 0.  0.
    9900012    2    3    3    0    0 -0.32761780793E+02  0.68583695567E+01  0.15343028206E+02  0.54367081649E+02  0.39999994236E+02 0.  0.
         12    1    3    3    0    0  0.32761780793E+02 -0.68583695567E+01 -0.15343028206E+02  0.36820918351E+02  0.00000000000E+00 0. -1.
         11    1    4    4    0    0 -0.19374744817E+02 -0.70103781288E+01 -0.50407566831E+01  0.21211679953E+02  0.51100000000E-03 0. -1.
        -11    1    4    4    0    0 -0.13695110517E+02  0.16440354976E+01  0.12429020921E+02  0.18567160960E+02  0.51100000000E-03 0.  1.
        -12    1    4    4    0    0  0.30807454152E+00  0.12224712188E+02  0.79547639678E+01  0.14588240736E+02  0.00000000000E+00 0.  1.
</event>
<event>
 8    1  0.1254059E-006  0.9118800E+02  0.7816164E-02  0.1184000E+00
        -11   -1    0    0    0    0  0.00000000000E+00  0.00000000000E+00  0.45593999997E+02  0.45594000000E+02  0.51100000000E-03 0. -1.
         11   -1    0    0    0    0 -0.00000000000E+00 -0.00000000000E+00 -0.45593999997E+02  0.45594000000E+02  0.51100000000E-03 0.  1.
         23    2    1    2    0    0  0.17763568394E-14  0.00000000000E+00 -0.35527136788E-14  0.91188000000E+02  0.91188000000E+02 0.  0.
    9900012    2    3    3    0    0  0.14638154257E+02 -0.22100934477E+02 -0.25554886872E+02  0.54367094147E+02  0.40000022727E+02 0.  0.
         12    1    3    3    0    0 -0.14638154257E+02  0.22100934477E+02  0.25554886872E+02  0.36820905853E+02  0.00000000000E+00 0. -1.
         11    1    4    4    0    0  0.17502853144E+02 -0.26592027787E+02 -0.16904218711E+02  0.36044950000E+02  0.51100000000E-03 0. -1.
        -11    1    4    4    0    0 -0.31650241880E+00  0.38144871586E+01 -0.12825519148E+02  0.13384484590E+02  0.51100000000E-03 0.  1.
        -12    1    4    4    0    0 -0.25481964676E+01  0.67660615192E+00  0.41748509881E+01  0.49376595564E+01  0.00000000000E+00 0.  1.
</event>
<event>
 8    1  0.1254059E-006  0.9118800E+02  0.7816164E-02  0.1184000E+00
        -11   -1    0    0    0    0  0.00000000000E+00  0.00000000000E+00  0.45593999997E+02  0.45594000000E+02  0.51100000000E-03 0.  1.
         11   -1    0    0    0    0 -0.00000000000E+00 -0.00000000000E+00 -0.45593999997E+02  0.45594000000E+02  0.51100000000E-03 0. -1.
         23    2    1    2    0    0 -0.44408920985E-15  0.00000000000E+00 -0.66613381478E-15  0.91188000000E+02  0.91188000000E+02 0.  0.
    9900012    2    3    3    0    0 -0.37035949520E+01  0.36593488656E+02 -0.17282242717E+01  0.54366989874E+02  0.39999785015E+02 0.  0.
         12    1    3    3    0    0  0.37035949520E+01 -0.36593488656E+02  0.17282242717E+01  0.36821010126E+02  0.00000000000E+00 0. -1.
         11    1    4    4    0    0 -0.35976278990E+00 -0.30140403743E+01 -0.62055811138E+01  0.69081912151E+01  0.51100000000E-03 0. -1.
        -11    1    4    4    0    0  0.10442940450E+02  0.22588562298E+02 -0.91403382296E+00  0.24902482005E+02  0.51100000000E-03 0.  1.
        -12    1    4    4    0    0 -0.13786772612E+02  0.17018966733E+02  0.53913906650E+01  0.22556316654E+02  0.00000000000E+00 0.  1.
</event>
<event>
 8    1  0.1254059E-006  0.9118800E+02  0.7816164E-02  0.1184000E+00
        -11   -1    0    0    0    0  0.00000000000E+00  0.00000000000E+00  0.45593999997E+02  0.45594000000E+02  0.51100000000E-03 0. -1.
         11   -1    0    0    0    0 -0.00000000000E+00 -0.00000000000E+00 -0.45593999997E+02  0.45594000000E+02  0.51100000000E-03 0.  1.
         23    2    1    2    0    0  0.00000000000E+00  0.00000000000E+00 -0.35527136788E-14  0.91188000000E+02  0.91188000000E+02 0.  0.
    9900012    2    3    3    0    0 -0.24545051648E+02  0.65223348220E+01 -0.26660458187E+02  0.54367076021E+02  0.39999981405E+02 0.  0.
         12    1    3    3    0    0  0.24545051648E+02 -0.65223348220E+01  0.26660458187E+02  0.36820923979E+02  0.00000000000E+00 0. -1.
         11    1    4    4    0    0 -0.13971156593E+02  0.11886039563E+02  0.11828684456E+01  0.18381249442E+02  0.51100000000E-03 0. -1.
        -11    1    4    4    0    0 -0.12596019226E+02  0.39635422845E+01 -0.17313153738E+02  0.21774174161E+02  0.51100000000E-03 0.  1.
        -12    1    4    4    0    0  0.20221241711E+01 -0.93272470256E+01 -0.10530172895E+02  0.14211652417E+02  0.00000000000E+00 0.  1.
</event>
<event>
 8    1  0.1254059E-006  0.9118800E+02  0.7816164E-02  0.1184000E+00
        -11   -1    0    0    0    0  0.00000000000E+00  0.00000000000E+00  0.45593999997E+02  0.45594000000E+02  0.51100000000E-03 0.  1.
         11   -1    0    0    0    0 -0.00000000000E+00 -0.00000000000E+00 -0.45593999997E+02  0.45594000000E+02  0.51100000000E-03 0. -1.
         23    2    1    2    0    0  0.35527136788E-14 -0.17763568394E-14  0.00000000000E+00  0.91188000000E+02  0.91188000000E+02 0.  0.
    9900012    2    3    3    0    0  0.30777048632E+02  0.89487572070E+01  0.18123818550E+02  0.54367085062E+02  0.40000002016E+02 0.  0.
         12    1    3    3    0    0 -0.30777048632E+02 -0.89487572070E+01 -0.18123818550E+02  0.36820914938E+02  0.00000000000E+00 0. -1.
         11    1    4    4    0    0  0.14458738818E+02  0.63624584931E+00  0.12605196429E+01  0.14527520333E+02  0.51100000000E-03 0. -1.
        -11    1    4    4    0    0  0.68223999576E+01  0.19408597440E+02  0.53897601504E+01  0.21267071037E+02  0.51100000000E-03 0.  1.
         12    1    4    4    0    0  0.94959098558E+01 -0.11096086082E+02  0.11473538757E+02  0.18572493692E+02  0.00000000000E+00 0. -1.
</event>
<event>
 8    1  0.1254059E-006  0.9118800E+02  0.7816164E-02  0.1184000E+00
        -11   -1    0    0    0    0  0.00000000000E+00  0.00000000000E+00  0.45593999997E+02  0.45594000000E+02  0.51100000000E-03 0.  1.
         11   -1    0    0    0    0 -0.00000000000E+00 -0.00000000000E+00 -0.45593999997E+02  0.45594000000E+02  0.51100000000E-03 0. -1.
         23    2    1    2    0    0  0.17763568394E-14  0.35527136788E-14  0.35527136788E-14  0.91188000000E+02  0.91188000000E+02 0.  0.
    9900012    2    3    3    0    0  0.15358195316E+02  0.17890235310E+02  0.28281505944E+02  0.54367105643E+02  0.40000048933E+02 0.  0.
        -12    1    3    3    0    0 -0.15358195316E+02 -0.17890235310E+02 -0.28281505944E+02  0.36820894357E+02  0.00000000000E+00 0.  1.
         11    1    4    4    0    0 -0.37675422563E+01 -0.57442759799E+01  0.32811602301E+01  0.76129556614E+01  0.51100000000E-03 0. -1.
        -11    1    4    4    0    0  0.15716558931E+01  0.12350140133E+02  0.22529019450E+02  0.25740100645E+02  0.51100000000E-03 0.  1.
         12    1    4    4    0    0  0.17554081680E+02  0.11284371156E+02  0.24713262638E+01  0.21014049336E+02  0.00000000000E+00 0. -1.
</event>
<event>
 8    1  0.1254059E-006  0.9118800E+02  0.7816164E-02  0.1184000E+00
        -11   -1    0    0    0    0  0.00000000000E+00  0.00000000000E+00  0.45593999997E+02  0.45594000000E+02  0.51100000000E-03 0.  1.
         11   -1    0    0    0    0 -0.00000000000E+00 -0.00000000000E+00 -0.45593999997E+02  0.45594000000E+02  0.51100000000E-03 0. -1.
         23    2    1    2    0    0  0.00000000000E+00  0.00000000000E+00 -0.30531133177E-15  0.91188000000E+02  0.91188000000E+02 0.  0.
    9900012    2    3    3    0    0  0.26053239467E+02  0.26018209386E+02 -0.23545010859E+00  0.54367164280E+02  0.40000182608E+02 0.  0.
        -12    1    3    3    0    0 -0.26053239467E+02 -0.26018209386E+02  0.23545010859E+00  0.36820835720E+02  0.00000000000E+00 0.  1.
         11    1    4    4    0    0  0.68027285945E+01  0.15617019035E+02  0.86931946280E+01  0.19124330915E+02  0.51100000000E-03 0. -1.
        -11    1    4    4    0    0 -0.60846390409E+01 -0.11397186758E+01 -0.80973165319E+00  0.62431928153E+01  0.51100000000E-03 0.  1.
        -12    1    4    4    0    0  0.25335149914E+02  0.11540909027E+02 -0.81189130834E+01  0.28999640549E+02  0.00000000000E+00 0.  1.
</event>
<event>
 8    1  0.1254059E-006  0.9118800E+02  0.7816164E-02  0.1184000E+00
        -11   -1    0    0    0    0  0.00000000000E+00  0.00000000000E+00  0.45593999997E+02  0.45594000000E+02  0.51100000000E-03 0. -1.
         11   -1    0    0    0    0 -0.00000000000E+00 -0.00000000000E+00 -0.45593999997E+02  0.45594000000E+02  0.51100000000E-03 0.  1.
         23    2    1    2    0    0  0.00000000000E+00  0.17763568394E-14  0.00000000000E+00  0.91188000000E+02  0.91188000000E+02 0.  0.
    9900012    2    3    3    0    0 -0.30879689343E+02  0.13874643927E+02  0.14481659049E+02  0.54367090087E+02  0.40000013470E+02 0.  0.
         12    1    3    3    0    0  0.30879689343E+02 -0.13874643927E+02 -0.14481659049E+02  0.36820909913E+02  0.00000000000E+00 0. -1.
         11    1    4    4    0    0  0.19134093858E+01  0.89116404695E+01 -0.58740593926E+00  0.91336475372E+01  0.51100000000E-03 0. -1.
        -11    1    4    4    0    0 -0.10590238766E+02  0.13899685053E+02  0.10722845932E+01  0.17507261242E+02  0.51100000000E-03 0.  1.
        -12    1    4    4    0    0 -0.22202859963E+02 -0.89366815950E+01  0.13996780395E+02  0.27726181307E+02  0.00000000000E+00 0.  1.
</event>
<event>
 8    1  0.1254059E-006  0.9118800E+02  0.7816164E-02  0.1184000E+00
        -11   -1    0    0    0    0  0.00000000000E+00  0.00000000000E+00  0.45593999997E+02  0.45594000000E+02  0.51100000000E-03 0. -1.
         11   -1    0    0    0    0 -0.00000000000E+00 -0.00000000000E+00 -0.45593999997E+02  0.45594000000E+02  0.51100000000E-03 0.  1.
         23    2    1    2    0    0  0.35527136788E-14  0.00000000000E+00  0.88817841970E-15  0.91188000000E+02  0.91188000000E+02 0.  0.
    9900012    2    3    3    0    0  0.25038566460E+02  0.26036949557E+02  0.71363757418E+01  0.54367076447E+02  0.39999982375E+02 0.  0.
        -12    1    3    3    0    0 -0.25038566460E+02 -0.26036949557E+02 -0.71363757418E+01  0.36820923553E+02  0.00000000000E+00 0.  1.
         11    1    4    4    0    0  0.16282915641E+02  0.18646901037E+02  0.18129091974E+01  0.24821903635E+02  0.51100000000E-03 0. -1.
        -11    1    4    4    0    0  0.10916454210E+02  0.75840160415E+01 -0.83521403964E+01  0.15698551567E+02  0.51100000000E-03 0.  1.
        -12    1    4    4    0    0 -0.21608033901E+01 -0.19396752229E+00  0.13675606941E+02  0.13846621245E+02  0.00000000000E+00 0.  1.
</event>
<event>
 8    1  0.1254059E-006  0.9118800E+02  0.7816164E-02  0.1184000E+00
        -11   -1    0    0    0    0  0.00000000000E+00  0.00000000000E+00  0.45593999997E+02  0.45594000000E+02  0.51100000000E-03 0. -1.
         11   -1    0    0    0    0 -0.00000000000E+00 -0.00000000000E+00 -0.45593999997E+02  0.45594000000E+02  0.51100000000E-03 0.  1.
         23    2    1    2    0    0 -0.71054273576E-14  0.00000000000E+00 -0.17763568394E-14  0.91188000000E+02  0.91188000000E+02 0.  0.
    9900012    2    3    3    0    0 -0.32331711103E+02 -0.12299644258E+02 -0.12615846848E+02  0.54367076826E+02  0.39999983239E+02 0.  0.
         12    1    3    3    0    0  0.32331711103E+02  0.12299644258E+02  0.12615846848E+02  0.36820923174E+02  0.00000000000E+00 0. -1.
         11    1    4    4    0    0 -0.17669875666E+02  0.94473838253E+00  0.21895837889E+01  0.17830067698E+02  0.51100000000E-03 0.  1.
        -11    1    4    4    0    0  0.38422620605E+01  0.30888625740E+00  0.49441607691E+01  0.62692196032E+01  0.51100000000E-03 0. -1.
        -12    1    4    4    0    0 -0.18504097497E+02 -0.13553268898E+02 -0.19749591406E+02  0.30267789525E+02  0.00000000000E+00 0.  1.
</event>
<event>
 8    1  0.1254059E-006  0.9118800E+02  0.7816164E-02  0.1184000E+00
        -11   -1    0    0    0    0  0.00000000000E+00  0.00000000000E+00  0.45593999997E+02  0.45594000000E+02  0.51100000000E-03 0. -1.
         11   -1    0    0    0    0 -0.00000000000E+00 -0.00000000000E+00 -0.45593999997E+02  0.45594000000E+02  0.51100000000E-03 0.  1.
         23    2    1    2    0    0  0.00000000000E+00  0.17763568394E-14  0.00000000000E+00  0.91188000000E+02  0.91188000000E+02 0.  0.
    9900012    2    3    3    0    0 -0.23537362611E+02 -0.11120268067E+02  0.26040577436E+02  0.54367089178E+02  0.40000011398E+02 0.  0.
        -12    1    3    3    0    0  0.23537362611E+02  0.11120268067E+02 -0.26040577436E+02  0.36820910822E+02  0.00000000000E+00 0.  1.
         11    1    4    4    0    0 -0.83679913120E+01 -0.11323487746E+01  0.16506934587E+02  0.18541423410E+02  0.51100000000E-03 0. -1.
        -11    1    4    4    0    0 -0.44094376770E+01 -0.12756091536E+02  0.17539567990E+02  0.22131368178E+02  0.51100000000E-03 0.  1.
         12    1    4    4    0    0 -0.10759933622E+02  0.27681722433E+01 -0.80059251406E+01  0.13694297590E+02  0.00000000000E+00 0. -1.
</event>
<event>
 8    1  0.1254059E-006  0.9118800E+02  0.7816164E-02  0.1184000E+00
        -11   -1    0    0    0    0  0.00000000000E+00  0.00000000000E+00  0.45593999997E+02  0.45594000000E+02  0.51100000000E-03 0. -1.
         11   -1    0    0    0    0 -0.00000000000E+00 -0.00000000000E+00 -0.45593999997E+02  0.45594000000E+02  0.51100000000E-03 0.  1.
         23    2    1    2    0    0  0.00000000000E+00  0.00000000000E+00  0.00000000000E+00  0.91188000000E+02  0.91188000000E+02 0.  0.
    9900012    2    3    3    0    0 -0.14358013859E+02  0.29359757230E+02  0.16959710525E+02  0.54367086273E+02  0.40000004777E+02 0.  0.
        -12    1    3    3    0    0  0.14358013859E+02 -0.29359757230E+02 -0.16959710525E+02  0.36820913727E+02  0.00000000000E+00 0.  1.
         11    1    4    4    0    0  0.66067955199E+01 -0.35963232536E+00  0.72269492637E+01  0.97983610044E+01  0.51100000000E-03 0. -1.
        -11    1    4    4    0    0 -0.34037762409E+01  0.20894477363E+02 -0.26565021043E+01  0.21335929337E+02  0.51100000000E-03 0.  1.
         12    1    4    4    0    0 -0.17561033138E+02  0.88249121921E+01  0.12389263365E+02  0.23232795932E+02  0.00000000000E+00 0. -1.
</event>
<event>
 8    1  0.1254059E-006  0.9118800E+02  0.7816164E-02  0.1184000E+00
        -11   -1    0    0    0    0  0.00000000000E+00  0.00000000000E+00  0.45593999997E+02  0.45594000000E+02  0.51100000000E-03 0.  1.
         11   -1    0    0    0    0 -0.00000000000E+00 -0.00000000000E+00 -0.45593999997E+02  0.45594000000E+02  0.51100000000E-03 0. -1.
         23    2    1    2    0    0 -0.17763568394E-14  0.44408920985E-15  0.00000000000E+00  0.91188000000E+02  0.91188000000E+02 0.  0.
    9900012    2    3    3    0    0 -0.11931662392E+02 -0.32076031199E+01 -0.34686107194E+02  0.54367091300E+02  0.40000016237E+02 0.  0.
        -12    1    3    3    0    0  0.11931662392E+02  0.32076031199E+01  0.34686107194E+02  0.36820908700E+02  0.00000000000E+00 0.  1.
         11    1    4    4    0    0 -0.58773355962E+01 -0.85724345349E+01  0.19306572997E+01  0.10571525218E+02  0.51100000000E-03 0. -1.
        -11    1    4    4    0    0  0.40343109217E+01  0.72734006884E+01 -0.30991158036E+02  0.32087846592E+02  0.51100000000E-03 0.  1.
        -12    1    4    4    0    0 -0.10088637717E+02 -0.19085692734E+01 -0.56256064571E+01  0.11707719491E+02  0.00000000000E+00 0.  1.
</event>
<event>
 8    1  0.1254059E-006  0.9118800E+02  0.7816164E-02  0.1184000E+00
        -11   -1    0    0    0    0  0.00000000000E+00  0.00000000000E+00  0.45593999997E+02  0.45594000000E+02  0.51100000000E-03 0.  1.
         11   -1    0    0    0    0 -0.00000000000E+00 -0.00000000000E+00 -0.45593999997E+02  0.45594000000E+02  0.51100000000E-03 0. -1.
         23    2    1    2    0    0 -0.13322676296E-14 -0.71054273576E-14 -0.35527136788E-14  0.91188000000E+02  0.91188000000E+02 0.  0.
    9900012    2    3    3    0    0 -0.39317371267E+01 -0.33215808958E+02 -0.15395826027E+02  0.54367082295E+02  0.39999995707E+02 0.  0.
        -12    1    3    3    0    0  0.39317371267E+01  0.33215808958E+02  0.15395826027E+02  0.36820917705E+02  0.00000000000E+00 0.  1.
         11    1    4    4    0    0 -0.86465490197E+01 -0.72912462205E+01  0.45627287170E+01  0.12196047516E+02  0.51100000000E-03 0. -1.
        -11    1    4    4    0    0  0.92916181733E+01 -0.11359383155E+02  0.26276055589E+01  0.14908858614E+02  0.51100000000E-03 0.  1.
        -12    1    4    4    0    0 -0.45768062803E+01 -0.14565179583E+02 -0.22586160303E+02  0.27262176165E+02  0.00000000000E+00 0.  1.
</event>
<event>
 8    1  0.1254059E-006  0.9118800E+02  0.7816164E-02  0.1184000E+00
        -11   -1    0    0    0    0  0.00000000000E+00  0.00000000000E+00  0.45593999997E+02  0.45594000000E+02  0.51100000000E-03 0.  1.
         11   -1    0    0    0    0 -0.00000000000E+00 -0.00000000000E+00 -0.45593999997E+02  0.45594000000E+02  0.51100000000E-03 0. -1.
         23    2    1    2    0    0 -0.35527136788E-14  0.00000000000E+00  0.35527136788E-14  0.91188000000E+02  0.91188000000E+02 0.  0.
    9900012    2    3    3    0    0  0.26587764595E+02 -0.18173322878E+02  0.17849370331E+02  0.54367096809E+02  0.40000028796E+02 0.  0.
         12    1    3    3    0    0 -0.26587764595E+02  0.18173322878E+02 -0.17849370331E+02  0.36820903191E+02  0.00000000000E+00 0. -1.
         11    1    4    4    0    0  0.12686435405E+01  0.10903472366E+01 -0.39296993546E+01  0.42709309065E+01  0.51100000000E-03 0. -1.
        -11    1    4    4    0    0  0.34250991842E+01 -0.17471936718E+02 -0.17695270681E+01  0.17892207896E+02  0.51100000000E-03 0.  1.
        -12    1    4    4    0    0  0.21894021870E+02 -0.17917333967E+01  0.23548596754E+02  0.32203958006E+02  0.00000000000E+00 0.  1.
</event>
<event>
 8    1  0.1254059E-006  0.9118800E+02  0.7816164E-02  0.1184000E+00
        -11   -1    0    0    0    0  0.00000000000E+00  0.00000000000E+00  0.45593999997E+02  0.45594000000E+02  0.51100000000E-03 0.  1.
         11   -1    0    0    0    0 -0.00000000000E+00 -0.00000000000E+00 -0.45593999997E+02  0.45594000000E+02  0.51100000000E-03 0. -1.
         23    2    1    2    0    0 -0.88817841970E-15 -0.88817841970E-15  0.00000000000E+00  0.91188000000E+02  0.91188000000E+02 0.  0.
    9900012    2    3    3    0    0  0.32107766511E+01 -0.30456443215E+01 -0.36554001022E+02  0.54367081669E+02  0.39999994281E+02 0.  0.
        -12    1    3    3    0    0 -0.32107766511E+01  0.30456443215E+01  0.36554001022E+02  0.36820918331E+02  0.00000000000E+00 0.  1.
         11    1    4    4    0    0 -0.91744479944E+01 -0.86460109404E+01 -0.64823142905E+01  0.14175485883E+02  0.51100000000E-03 0. -1.
        -11    1    4    4    0    0 -0.65765995582E+01  0.55709002010E-02 -0.49920398015E+01  0.82566430482E+01  0.51100000000E-03 0.  1.
         12    1    4    4    0    0  0.18961824204E+02  0.55947957188E+01 -0.25079646930E+02  0.31934952738E+02  0.00000000000E+00 0. -1.
</event>
<event>
 8    1  0.1254059E-006  0.9118800E+02  0.7816164E-02  0.1184000E+00
        -11   -1    0    0    0    0  0.00000000000E+00  0.00000000000E+00  0.45593999997E+02  0.45594000000E+02  0.51100000000E-03 0.  1.
         11   -1    0    0    0    0 -0.00000000000E+00 -0.00000000000E+00 -0.45593999997E+02  0.45594000000E+02  0.51100000000E-03 0. -1.
         23    2    1    2    0    0  0.00000000000E+00 -0.44408920985E-15  0.00000000000E+00  0.91188000000E+02  0.91188000000E+02 0.  0.
    9900012    2    3    3    0    0  0.32150909001E+02  0.38522462462E+01 -0.17528774814E+02  0.54367099723E+02  0.40000035438E+02 0.  0.
         12    1    3    3    0    0 -0.32150909001E+02 -0.38522462462E+01  0.17528774814E+02  0.36820900277E+02  0.00000000000E+00 0. -1.
         11    1    4    4    0    0  0.25257351688E+02 -0.70248827320E+01 -0.41367512819E+01  0.26540450319E+02  0.51100000000E-03 0.  1.
        -11    1    4    4    0    0  0.44950051039E+01  0.94831735059E+01 -0.18923362380E+02  0.21638606579E+02  0.51100000000E-03 0. -1.
        -12    1    4    4    0    0  0.23985522093E+01  0.13939554723E+01  0.55313388483E+01  0.61880428258E+01  0.00000000000E+00 0.  1.
</event>
<event>
 8    1  0.1254059E-006  0.9118800E+02  0.7816164E-02  0.1184000E+00
        -11   -1    0    0    0    0  0.00000000000E+00  0.00000000000E+00  0.45593999997E+02  0.45594000000E+02  0.51100000000E-03 0.  1.
         11   -1    0    0    0    0 -0.00000000000E+00 -0.00000000000E+00 -0.45593999997E+02  0.45594000000E+02  0.51100000000E-03 0. -1.
         23    2    1    2    0    0 -0.35527136788E-14  0.35527136788E-14  0.00000000000E+00  0.91188000000E+02  0.91188000000E+02 0.  0.
    9900012    2    3    3    0    0  0.21530811236E+02  0.16434941829E+02  0.24941887201E+02  0.54367070048E+02  0.39999967788E+02 0.  0.
         12    1    3    3    0    0 -0.21530811236E+02 -0.16434941829E+02 -0.24941887201E+02  0.36820929952E+02  0.00000000000E+00 0. -1.
         11    1    4    4    0    0  0.18012803072E+02  0.13338976514E+02  0.30318386169E+01  0.22618165589E+02  0.51100000000E-03 0.  1.
        -11    1    4    4    0    0  0.41134425896E+01  0.95724542337E+01  0.17488082876E+01  0.10564592784E+02  0.51100000000E-03 0. -1.
        -12    1    4    4    0    0 -0.59543442629E+00 -0.64764889185E+01  0.20161240297E+02  0.21184311675E+02  0.00000000000E+00 0.  1.
</event>
<event>
 8    1  0.1254059E-006  0.9118800E+02  0.7816164E-02  0.1184000E+00
        -11   -1    0    0    0    0  0.00000000000E+00  0.00000000000E+00  0.45593999997E+02  0.45594000000E+02  0.51100000000E-03 0.  1.
         11   -1    0    0    0    0 -0.00000000000E+00 -0.00000000000E+00 -0.45593999997E+02  0.45594000000E+02  0.51100000000E-03 0. -1.
         23    2    1    2    0    0  0.00000000000E+00  0.00000000000E+00  0.00000000000E+00  0.91188000000E+02  0.91188000000E+02 0.  0.
    9900012    2    3    3    0    0  0.33548450079E+02 -0.48652019350E+01  0.14373999243E+02  0.54367074607E+02  0.39999978182E+02 0.  0.
         12    1    3    3    0    0 -0.33548450079E+02  0.48652019350E+01 -0.14373999243E+02  0.36820925393E+02  0.00000000000E+00 0. -1.
         11    1    4    4    0    0  0.16260499409E+02 -0.47282951243E+01  0.80075157215E+01  0.18731815825E+02  0.51100000000E-03 0. -1.
        -11    1    4    4    0    0 -0.29390344760E+01 -0.24057232853E+01  0.13533582436E+02  0.14056432050E+02  0.51100000000E-03 0.  1.
         12    1    4    4    0    0  0.20226985146E+02  0.22688164746E+01 -0.71670989138E+01  0.21578826732E+02  0.00000000000E+00 0. -1.
</event>
<event>
 8    1  0.1254059E-006  0.9118800E+02  0.7816164E-02  0.1184000E+00
        -11   -1    0    0    0    0  0.00000000000E+00  0.00000000000E+00  0.45593999997E+02  0.45594000000E+02  0.51100000000E-03 0.  1.
         11   -1    0    0    0    0 -0.00000000000E+00 -0.00000000000E+00 -0.45593999997E+02  0.45594000000E+02  0.51100000000E-03 0. -1.
         23    2    1    2    0    0  0.00000000000E+00 -0.17763568394E-14 -0.22204460493E-15  0.91188000000E+02  0.91188000000E+02 0.  0.
    9900012    2    3    3    0    0 -0.35818239445E+02 -0.84309332319E+01  0.13238875311E+01  0.54367087595E+02  0.40000007791E+02 0.  0.
         12    1    3    3    0    0  0.35818239445E+02  0.84309332319E+01 -0.13238875311E+01  0.36820912405E+02  0.00000000000E+00 0. -1.
         11    1    4    4    0    0 -0.25927834778E+02 -0.15077998087E+02 -0.89655885310E+01  0.31304638962E+02  0.51100000000E-03 0. -1.
        -11    1    4    4    0    0 -0.46835315956E+01  0.10053749046E+02  0.62499878928E-01  0.11091313925E+02  0.51100000000E-03 0.  1.
        -12    1    4    4    0    0 -0.52068730720E+01 -0.34066841913E+01  0.10226976183E+02  0.11971134709E+02  0.00000000000E+00 0.  1.
</event>
<event>
 8    1  0.1254059E-006  0.9118800E+02  0.7816164E-02  0.1184000E+00
        -11   -1    0    0    0    0  0.00000000000E+00  0.00000000000E+00  0.45593999997E+02  0.45594000000E+02  0.51100000000E-03 0. -1.
         11   -1    0    0    0    0 -0.00000000000E+00 -0.00000000000E+00 -0.45593999997E+02  0.45594000000E+02  0.51100000000E-03 0.  1.
         23    2    1    2    0    0  0.00000000000E+00  0.00000000000E+00  0.13322676296E-14  0.91188000000E+02  0.91188000000E+02 0.  0.
    9900012    2    3    3    0    0 -0.36459423162E+02  0.51179208664E+01  0.54451380957E+00  0.54367093620E+02  0.40000021527E+02 0.  0.
        -12    1    3    3    0    0  0.36459423162E+02 -0.51179208664E+01 -0.54451380957E+00  0.36820906380E+02  0.00000000000E+00 0.  1.
         11    1    4    4    0    0 -0.21873140788E+02  0.71275006225E+01  0.12987422567E+02  0.26417961660E+02  0.51100000000E-03 0. -1.
        -11    1    4    4    0    0 -0.13948587830E+02 -0.55308557928E+01 -0.33937958041E-02  0.15005115129E+02  0.51100000000E-03 0.  1.
         12    1    4    4    0    0 -0.63769454365E+00  0.35212760366E+01 -0.12439514961E+02  0.12944016831E+02  0.00000000000E+00 0. -1.
</event>
<event>
 8    1  0.1254059E-006  0.9118800E+02  0.7816164E-02  0.1184000E+00
        -11   -1    0    0    0    0  0.00000000000E+00  0.00000000000E+00  0.45593999997E+02  0.45594000000E+02  0.51100000000E-03 0.  1.
         11   -1    0    0    0    0 -0.00000000000E+00 -0.00000000000E+00 -0.45593999997E+02  0.45594000000E+02  0.51100000000E-03 0. -1.
         23    2    1    2    0    0 -0.71054273576E-14  0.35527136788E-14  0.26645352591E-14  0.91188000000E+02  0.91188000000E+02 0.  0.
    9900012    2    3    3    0    0 -0.30523701550E+02  0.19061967455E+02  0.77914347001E+01  0.54367334413E+02  0.40000570457E+02 0.  0.
         12    1    3    3    0    0  0.30523701550E+02 -0.19061967455E+02 -0.77914347001E+01  0.36820665587E+02  0.00000000000E+00 0. -1.
         11    1    4    4    0    0 -0.91164424489E+01 -0.53675113665E+01 -0.37773719057E+01  0.11233353906E+02  0.51100000000E-03 0. -1.
        -11    1    4    4    0    0 -0.17914069634E+02  0.12722856803E+02  0.18817269205E+02  0.28928784915E+02  0.51100000000E-03 0.  1.
         12    1    4    4    0    0 -0.34931894672E+01  0.11706622019E+02 -0.72484625993E+01  0.14205195592E+02  0.00000000000E+00 0. -1.
</event>
<event>
 8    1  0.1254059E-006  0.9118800E+02  0.7816164E-02  0.1184000E+00
        -11   -1    0    0    0    0  0.00000000000E+00  0.00000000000E+00  0.45593999997E+02  0.45594000000E+02  0.51100000000E-03 0.  1.
         11   -1    0    0    0    0 -0.00000000000E+00 -0.00000000000E+00 -0.45593999997E+02  0.45594000000E+02  0.51100000000E-03 0. -1.
         23    2    1    2    0    0  0.00000000000E+00  0.00000000000E+00  0.71054273576E-14  0.91188000000E+02  0.91188000000E+02 0.  0.
    9900012    2    3    3    0    0  0.82901210617E+01  0.29290109113E+02 -0.20715773791E+02  0.54367083623E+02  0.39999998735E+02 0.  0.
        -12    1    3    3    0    0 -0.82901210617E+01 -0.29290109113E+02  0.20715773791E+02  0.36820916377E+02  0.00000000000E+00 0.  1.
         11    1    4    4    0    0  0.42509025381E+01 -0.19079917397E+00  0.24507949306E+01  0.49104961833E+01  0.51100000000E-03 0. -1.
        -11    1    4    4    0    0 -0.11216898799E+02  0.15978928585E+02 -0.21461117820E+02  0.29012489651E+02  0.51100000000E-03 0.  1.
         12    1    4    4    0    0  0.15256117323E+02  0.13501979702E+02 -0.17054509020E+01  0.20444097789E+02  0.00000000000E+00 0. -1.
</event>
<event>
 8    1  0.1254059E-006  0.9118800E+02  0.7816164E-02  0.1184000E+00
        -11   -1    0    0    0    0  0.00000000000E+00  0.00000000000E+00  0.45593999997E+02  0.45594000000E+02  0.51100000000E-03 0.  1.
         11   -1    0    0    0    0 -0.00000000000E+00 -0.00000000000E+00 -0.45593999997E+02  0.45594000000E+02  0.51100000000E-03 0. -1.
         23    2    1    2    0    0  0.00000000000E+00  0.00000000000E+00  0.44408920985E-15  0.91188000000E+02  0.91188000000E+02 0.  0.
    9900012    2    3    3    0    0  0.34399864881E+02 -0.13046847566E+02 -0.14863618161E+01  0.54367079226E+02  0.39999988711E+02 0.  0.
        -12    1    3    3    0    0 -0.34399864881E+02  0.13046847566E+02  0.14863618161E+01  0.36820920774E+02  0.00000000000E+00 0.  1.
         11    1    4    4    0    0  0.26054192364E+02 -0.11387858309E+02  0.18953904084E+01  0.28497311482E+02  0.51100000000E-03 0. -1.
        -11    1    4    4    0    0 -0.32344504741E+01  0.89537777115E+01 -0.35522054921E+01  0.10161199206E+02  0.51100000000E-03 0.  1.
        -12    1    4    4    0    0  0.11580122991E+02 -0.10612766969E+02  0.17045326769E+00  0.15708568538E+02  0.00000000000E+00 0.  1.
</event>
<event>
 8    1  0.1254059E-006  0.9118800E+02  0.7816164E-02  0.1184000E+00
        -11   -1    0    0    0    0  0.00000000000E+00  0.00000000000E+00  0.45593999997E+02  0.45594000000E+02  0.51100000000E-03 0. -1.
         11   -1    0    0    0    0 -0.00000000000E+00 -0.00000000000E+00 -0.45593999997E+02  0.45594000000E+02  0.51100000000E-03 0.  1.
         23    2    1    2    0    0 -0.35527136788E-14  0.00000000000E+00  0.17763568394E-14  0.91188000000E+02  0.91188000000E+02 0.  0.
    9900012    2    3    3    0    0  0.28244498524E+02 -0.21352883682E+02 -0.10103593351E+02  0.54367082887E+02  0.39999997058E+02 0.  0.
         12    1    3    3    0    0 -0.28244498524E+02  0.21352883682E+02  0.10103593351E+02  0.36820917113E+02  0.00000000000E+00 0. -1.
         11    1    4    4    0    0 -0.79297201991E+01  0.88050018850E+00  0.19207184551E+01  0.82063940109E+01  0.51100000000E-03 0. -1.
        -11    1    4    4    0    0  0.27887084787E+02 -0.15620009250E+02 -0.27629542350E+01  0.32082831908E+02  0.51100000000E-03 0.  1.
         12    1    4    4    0    0  0.82871339368E+01 -0.66133746197E+01 -0.92613575715E+01  0.14077856968E+02  0.00000000000E+00 0. -1.
</event>
<event>
 8    1  0.1254059E-006  0.9118800E+02  0.7816164E-02  0.1184000E+00
        -11   -1    0    0    0    0  0.00000000000E+00  0.00000000000E+00  0.45593999997E+02  0.45594000000E+02  0.51100000000E-03 0.  1.
         11   -1    0    0    0    0 -0.00000000000E+00 -0.00000000000E+00 -0.45593999997E+02  0.45594000000E+02  0.51100000000E-03 0. -1.
         23    2    1    2    0    0  0.00000000000E+00  0.00000000000E+00  0.00000000000E+00  0.91188000000E+02  0.91188000000E+02 0.  0.
    9900012    2    3    3    0    0 -0.90069954955E+01 -0.25589024404E+02  0.24896829451E+02  0.54367132893E+02  0.40000111057E+02 0.  0.
         12    1    3    3    0    0  0.90069954955E+01  0.25589024404E+02 -0.24896829451E+02  0.36820867107E+02  0.00000000000E+00 0. -1.
         11    1    4    4    0    0 -0.64278504032E+01  0.14229727047E+01  0.31325747807E+00  0.65909212280E+01  0.51100000000E-03 0. -1.
        -11    1    4    4    0    0  0.10004704309E+02 -0.25757490643E+02  0.20768882419E+02  0.34567165197E+02  0.51100000000E-03 0.  1.
        -12    1    4    4    0    0 -0.12583849401E+02 -0.12545064655E+01  0.38146895536E+01  0.13209046469E+02  0.00000000000E+00 0.  1.
</event>
<event>
 8    1  0.1254059E-006  0.9118800E+02  0.7816164E-02  0.1184000E+00
        -11   -1    0    0    0    0  0.00000000000E+00  0.00000000000E+00  0.45593999997E+02  0.45594000000E+02  0.51100000000E-03 0. -1.
         11   -1    0    0    0    0 -0.00000000000E+00 -0.00000000000E+00 -0.45593999997E+02  0.45594000000E+02  0.51100000000E-03 0.  1.
         23    2    1    2    0    0 -0.17763568394E-14  0.00000000000E+00  0.00000000000E+00  0.91188000000E+02  0.91188000000E+02 0.  0.
    9900012    2    3    3    0    0  0.11398235922E+02  0.45749710732E+01  0.34712114331E+02  0.54367068130E+02  0.39999963415E+02 0.  0.
        -12    1    3    3    0    0 -0.11398235922E+02 -0.45749710732E+01 -0.34712114331E+02  0.36820931870E+02  0.00000000000E+00 0.  1.
         11    1    4    4    0    0  0.77154637088E+01  0.19236714736E+02  0.28420511330E+02  0.35175347029E+02  0.51100000000E-03 0. -1.
        -11    1    4    4    0    0 -0.23374541717E+01 -0.10633817692E+02  0.37874723955E+01  0.11527650156E+02  0.51100000000E-03 0.  1.
         12    1    4    4    0    0  0.60202263848E+01 -0.40279259708E+01  0.25041306057E+01  0.76640709444E+01  0.00000000000E+00 0. -1.
</event>
<event>
 8    1  0.1254059E-006  0.9118800E+02  0.7816164E-02  0.1184000E+00
        -11   -1    0    0    0    0  0.00000000000E+00  0.00000000000E+00  0.45593999997E+02  0.45594000000E+02  0.51100000000E-03 0. -1.
         11   -1    0    0    0    0 -0.00000000000E+00 -0.00000000000E+00 -0.45593999997E+02  0.45594000000E+02  0.51100000000E-03 0.  1.
         23    2    1    2    0    0 -0.17763568394E-14  0.00000000000E+00  0.00000000000E+00  0.91188000000E+02  0.91188000000E+02 0.  0.
    9900012    2    3    3    0    0  0.92473877440E+01 -0.15165984567E+02  0.32253057157E+02  0.54367068942E+02  0.39999965267E+02 0.  0.
        -12    1    3    3    0    0 -0.92473877440E+01  0.15165984567E+02 -0.32253057157E+02  0.36820931058E+02  0.00000000000E+00 0.  1.
         11    1    4    4    0    0  0.11626791538E+02 -0.13330878922E+02  0.60218397715E+01  0.18685747745E+02  0.51100000000E-03 0. -1.
        -11    1    4    4    0    0  0.54319265306E+01 -0.53821409640E+01 -0.44484603815E+00  0.76597098801E+01  0.51100000000E-03 0.  1.
        -12    1    4    4    0    0 -0.78113303245E+01  0.35470353190E+01  0.26676063424E+02  0.28021611317E+02  0.00000000000E+00 0.  1.
</event>
<event>
 8    1  0.1254059E-006  0.9118800E+02  0.7816164E-02  0.1184000E+00
        -11   -1    0    0    0    0  0.00000000000E+00  0.00000000000E+00  0.45593999997E+02  0.45594000000E+02  0.51100000000E-03 0. -1.
         11   -1    0    0    0    0 -0.00000000000E+00 -0.00000000000E+00 -0.45593999997E+02  0.45594000000E+02  0.51100000000E-03 0.  1.
         23    2    1    2    0    0 -0.44408920985E-15  0.00000000000E+00  0.00000000000E+00  0.91188000000E+02  0.91188000000E+02 0.  0.
    9900012    2    3    3    0    0  0.23567243396E+01 -0.24951460280E+02  0.26975014024E+02  0.54367069793E+02  0.39999967206E+02 0.  0.
        -12    1    3    3    0    0 -0.23567243396E+01  0.24951460280E+02 -0.26975014024E+02  0.36820930207E+02  0.00000000000E+00 0.  1.
         11    1    4    4    0    0  0.63542984385E+01 -0.15734089775E+02  0.17186100865E+02  0.24151620089E+02  0.51100000000E-03 0.  1.
        -11    1    4    4    0    0 -0.36405495169E+01 -0.18564929950E+02  0.44131810573E+01  0.19426435394E+02  0.51100000000E-03 0. -1.
        -12    1    4    4    0    0 -0.35702458197E+00  0.93475594451E+01  0.53757321020E+01  0.10789014309E+02  0.00000000000E+00 0.  1.
</event>
<event>
 8    1  0.1254059E-006  0.9118800E+02  0.7816164E-02  0.1184000E+00
        -11   -1    0    0    0    0  0.00000000000E+00  0.00000000000E+00  0.45593999997E+02  0.45594000000E+02  0.51100000000E-03 0.  1.
         11   -1    0    0    0    0 -0.00000000000E+00 -0.00000000000E+00 -0.45593999997E+02  0.45594000000E+02  0.51100000000E-03 0. -1.
         23    2    1    2    0    0 -0.35527136788E-14  0.35527136788E-14  0.17763568394E-14  0.91188000000E+02  0.91188000000E+02 0.  0.
    9900012    2    3    3    0    0 -0.25337312688E+02  0.23983579422E+02  0.11772276846E+02  0.54367109214E+02  0.40000057074E+02 0.  0.
         12    1    3    3    0    0  0.25337312688E+02 -0.23983579422E+02 -0.11772276846E+02  0.36820890786E+02  0.00000000000E+00 0. -1.
         11    1    4    4    0    0 -0.10733265323E+02  0.83729274880E+01  0.15938171206E+01  0.13705807254E+02  0.51100000000E-03 0. -1.
        -11    1    4    4    0    0 -0.58950855670E+01 -0.16396522313E+01 -0.10629145308E+02  0.12264551501E+02  0.51100000000E-03 0.  1.
        -12    1    4    4    0    0 -0.87089617982E+01  0.17250304166E+02  0.20807605033E+02  0.28396750459E+02  0.00000000000E+00 0.  1.
</event>
<event>
 8    1  0.1254059E-006  0.9118800E+02  0.7816164E-02  0.1184000E+00
        -11   -1    0    0    0    0  0.00000000000E+00  0.00000000000E+00  0.45593999997E+02  0.45594000000E+02  0.51100000000E-03 0.  1.
         11   -1    0    0    0    0 -0.00000000000E+00 -0.00000000000E+00 -0.45593999997E+02  0.45594000000E+02  0.51100000000E-03 0. -1.
         23    2    1    2    0    0  0.35527136788E-14  0.00000000000E+00  0.00000000000E+00  0.91188000000E+02  0.91188000000E+02 0.  0.
    9900012    2    3    3    0    0 -0.31007891152E+02 -0.19700644360E+02  0.24849217145E+01  0.54367088309E+02  0.40000009417E+02 0.  0.
         12    1    3    3    0    0  0.31007891152E+02  0.19700644360E+02 -0.24849217145E+01  0.36820911691E+02  0.00000000000E+00 0. -1.
         11    1    4    4    0    0 -0.24307547531E+02  0.31331663680E+01 -0.54727394206E+00  0.24514752854E+02  0.51100000000E-03 0.  1.
        -11    1    4    4    0    0 -0.43437566038E+01 -0.20687996318E+02  0.90873623466E+01  0.23009597297E+02  0.51100000000E-03 0. -1.
         12    1    4    4    0    0 -0.23565870167E+01 -0.21458144094E+01 -0.60551666900E+01  0.68427381574E+01  0.00000000000E+00 0. -1.
</event>
<event>
 8    1  0.1254059E-006  0.9118800E+02  0.7816164E-02  0.1184000E+00
        -11   -1    0    0    0    0  0.00000000000E+00  0.00000000000E+00  0.45593999997E+02  0.45594000000E+02  0.51100000000E-03 0. -1.
         11   -1    0    0    0    0 -0.00000000000E+00 -0.00000000000E+00 -0.45593999997E+02  0.45594000000E+02  0.51100000000E-03 0.  1.
         23    2    1    2    0    0 -0.71054273576E-14  0.22204460493E-15  0.00000000000E+00  0.91188000000E+02  0.91188000000E+02 0.  0.
    9900012    2    3    3    0    0 -0.34052581316E+02 -0.11629722979E+01  0.13958837560E+02  0.54367082780E+02  0.39999996814E+02 0.  0.
        -12    1    3    3    0    0  0.34052581316E+02  0.11629722979E+01 -0.13958837560E+02  0.36820917220E+02  0.00000000000E+00 0.  1.
         11    1    4    4    0    0 -0.17328430405E+02 -0.50411467639E+01  0.25560708185E+01  0.18226934995E+02  0.51100000000E-03 0. -1.
        -11    1    4    4    0    0 -0.13415917189E+02  0.11276979178E+01  0.21385102685E+02  0.25270163310E+02  0.51100000000E-03 0.  1.
        -12    1    4    4    0    0 -0.33082337225E+01  0.27504765483E+01 -0.99823359436E+01  0.10869984475E+02  0.00000000000E+00 0.  1.
</event>
<event>
 8    1  0.1254059E-006  0.9118800E+02  0.7816164E-02  0.1184000E+00
        -11   -1    0    0    0    0  0.00000000000E+00  0.00000000000E+00  0.45593999997E+02  0.45594000000E+02  0.51100000000E-03 0. -1.
         11   -1    0    0    0    0 -0.00000000000E+00 -0.00000000000E+00 -0.45593999997E+02  0.45594000000E+02  0.51100000000E-03 0.  1.
         23    2    1    2    0    0  0.13322676296E-14  0.00000000000E+00  0.66613381478E-15  0.91188000000E+02  0.91188000000E+02 0.  0.
    9900012    2    3    3    0    0  0.33148494479E+01 -0.36653557188E+02  0.11429332410E+01  0.54367112208E+02  0.40000063900E+02 0.  0.
        -12    1    3    3    0    0 -0.33148494479E+01  0.36653557188E+02 -0.11429332410E+01  0.36820887792E+02  0.00000000000E+00 0.  1.
         11    1    4    4    0    0  0.21229092581E+01  0.22026510865E+01 -0.21002063425E+01  0.37106983803E+01  0.51100000000E-03 0. -1.
        -11    1    4    4    0    0 -0.13367876500E+02 -0.23344592737E+02 -0.58340745501E+01  0.27526470139E+02  0.51100000000E-03 0.  1.
         12    1    4    4    0    0  0.14559816690E+02 -0.15511615537E+02  0.90772141335E+01  0.23129943689E+02  0.00000000000E+00 0. -1.
</event>
<event>
 8    1  0.1254059E-006  0.9118800E+02  0.7816164E-02  0.1184000E+00
        -11   -1    0    0    0    0  0.00000000000E+00  0.00000000000E+00  0.45593999997E+02  0.45594000000E+02  0.51100000000E-03 0.  1.
         11   -1    0    0    0    0 -0.00000000000E+00 -0.00000000000E+00 -0.45593999997E+02  0.45594000000E+02  0.51100000000E-03 0. -1.
         23    2    1    2    0    0  0.00000000000E+00 -0.17763568394E-14  0.00000000000E+00  0.91188000000E+02  0.91188000000E+02 0.  0.
    9900012    2    3    3    0    0  0.32050105315E+02 -0.91732633359E+01 -0.15634002113E+02  0.54367081584E+02  0.39999994086E+02 0.  0.
        -12    1    3    3    0    0 -0.32050105315E+02  0.91732633359E+01  0.15634002113E+02  0.36820918416E+02  0.00000000000E+00 0.  1.
         11    1    4    4    0    0  0.83557427619E+01 -0.15637134811E+02 -0.19722448826E+00  0.17730688649E+02  0.51100000000E-03 0.  1.
        -11    1    4    4    0    0  0.26891544844E+02  0.45135596953E+01 -0.17461040445E+02  0.32379242408E+02  0.51100000000E-03 0. -1.
         12    1    4    4    0    0 -0.31971822912E+01  0.19503117799E+01  0.20242628200E+01  0.42571505266E+01  0.00000000000E+00 0. -1.
</event>
<event>
 8    1  0.1254059E-006  0.9118800E+02  0.7816164E-02  0.1184000E+00
        -11   -1    0    0    0    0  0.00000000000E+00  0.00000000000E+00  0.45593999997E+02  0.45594000000E+02  0.51100000000E-03 0. -1.
         11   -1    0    0    0    0 -0.00000000000E+00 -0.00000000000E+00 -0.45593999997E+02  0.45594000000E+02  0.51100000000E-03 0.  1.
         23    2    1    2    0    0 -0.71054273576E-14  0.00000000000E+00  0.35527136788E-14  0.91188000000E+02  0.91188000000E+02 0.  0.
    9900012    2    3    3    0    0  0.24652130627E+02 -0.22913178883E+02 -0.14934474265E+02  0.54367084306E+02  0.40000000292E+02 0.  0.
         12    1    3    3    0    0 -0.24652130627E+02  0.22913178883E+02  0.14934474265E+02  0.36820915694E+02  0.00000000000E+00 0. -1.
         11    1    4    4    0    0 -0.49307984859E+01 -0.61812623392E+01 -0.62849361052E+01  0.10100554436E+02  0.51100000000E-03 0. -1.
        -11    1    4    4    0    0  0.10757744067E+02 -0.21277841047E+02 -0.26355812192E+01  0.23987952511E+02  0.51100000000E-03 0.  1.
        -12    1    4    4    0    0  0.18825185046E+02  0.45459245029E+01 -0.60139569407E+01  0.20278577359E+02  0.00000000000E+00 0.  1.
</event>
<event>
 8    1  0.1254059E-006  0.9118800E+02  0.7816164E-02  0.1184000E+00
        -11   -1    0    0    0    0  0.00000000000E+00  0.00000000000E+00  0.45593999997E+02  0.45594000000E+02  0.51100000000E-03 0. -1.
         11   -1    0    0    0    0 -0.00000000000E+00 -0.00000000000E+00 -0.45593999997E+02  0.45594000000E+02  0.51100000000E-03 0.  1.
         23    2    1    2    0    0  0.71054273576E-14  0.00000000000E+00 -0.88817841970E-15  0.91188000000E+02  0.91188000000E+02 0.  0.
    9900012    2    3    3    0    0 -0.36279137536E+02 -0.50538978250E+01 -0.37499527193E+01  0.54367084083E+02  0.39999999784E+02 0.  0.
         12    1    3    3    0    0  0.36279137536E+02  0.50538978250E+01  0.37499527193E+01  0.36820915917E+02  0.00000000000E+00 0. -1.
         11    1    4    4    0    0 -0.42147409729E+01 -0.64019068523E+01  0.74574517672E+01  0.10694018886E+02  0.51100000000E-03 0. -1.
        -11    1    4    4    0    0 -0.36976177130E+01 -0.40187175788E+01  0.74958106851E+01  0.92741385485E+01  0.51100000000E-03 0.  1.
        -12    1    4    4    0    0 -0.28366778850E+02  0.53667266062E+01 -0.18703215172E+02  0.34398926648E+02  0.00000000000E+00 0.  1.
</event>
<event>
 8    1  0.1254059E-006  0.9118800E+02  0.7816164E-02  0.1184000E+00
        -11   -1    0    0    0    0  0.00000000000E+00  0.00000000000E+00  0.45593999997E+02  0.45594000000E+02  0.51100000000E-03 0. -1.
         11   -1    0    0    0    0 -0.00000000000E+00 -0.00000000000E+00 -0.45593999997E+02  0.45594000000E+02  0.51100000000E-03 0.  1.
         23    2    1    2    0    0  0.22204460493E-15  0.00000000000E+00  0.71054273576E-14  0.91188000000E+02  0.91188000000E+02 0.  0.
    9900012    2    3    3    0    0  0.18916591341E+01 -0.69898768031E+01 -0.36101847543E+02  0.54367080022E+02  0.39999990527E+02 0.  0.
         12    1    3    3    0    0 -0.18916591341E+01  0.69898768031E+01  0.36101847543E+02  0.36820919978E+02  0.00000000000E+00 0. -1.
         11    1    4    4    0    0  0.55608339493E+01  0.14706419231E+02 -0.15622027185E+02  0.22164146147E+02  0.51100000000E-03 0. -1.
        -11    1    4    4    0    0  0.97456952771E+00 -0.51215772188E+01 -0.11853567876E+02  0.12949417386E+02  0.51100000000E-03 0.  1.
        -12    1    4    4    0    0 -0.46437443429E+01 -0.16574718815E+02 -0.86262524810E+01  0.19253516489E+02  0.00000000000E+00 0.  1.
</event>
<event>
 8    1  0.1254059E-006  0.9118800E+02  0.7816164E-02  0.1184000E+00
        -11   -1    0    0    0    0  0.00000000000E+00  0.00000000000E+00  0.45593999997E+02  0.45594000000E+02  0.51100000000E-03 0. -1.
         11   -1    0    0    0    0 -0.00000000000E+00 -0.00000000000E+00 -0.45593999997E+02  0.45594000000E+02  0.51100000000E-03 0.  1.
         23    2    1    2    0    0 -0.35527136788E-14  0.00000000000E+00  0.35527136788E-14  0.91188000000E+02  0.91188000000E+02 0.  0.
    9900012    2    3    3    0    0 -0.18907894476E+02 -0.99799798002E+01  0.29978104310E+02  0.54366875515E+02  0.39999524310E+02 0.  0.
        -12    1    3    3    0    0  0.18907894476E+02  0.99799798002E+01 -0.29978104310E+02  0.36821124485E+02  0.00000000000E+00 0.  1.
         11    1    4    4    0    0 -0.70207135003E+01  0.14541881036E+01  0.99089516671E+01  0.12230797378E+02  0.51100000000E-03 0. -1.
        -11    1    4    4    0    0 -0.75016192593E+01 -0.21734159847E+02  0.52854126172E+01  0.23592023707E+02  0.51100000000E-03 0.  1.
        -12    1    4    4    0    0 -0.43855617159E+01  0.10299991944E+02  0.14783740025E+02  0.18544054431E+02  0.00000000000E+00 0.  1.
</event>
<event>
 8    1  0.1254059E-006  0.9118800E+02  0.7816164E-02  0.1184000E+00
        -11   -1    0    0    0    0  0.00000000000E+00  0.00000000000E+00  0.45593999997E+02  0.45594000000E+02  0.51100000000E-03 0.  1.
         11   -1    0    0    0    0 -0.00000000000E+00 -0.00000000000E+00 -0.45593999997E+02  0.45594000000E+02  0.51100000000E-03 0. -1.
         23    2    1    2    0    0  0.22204460493E-14  0.35527136788E-14  0.00000000000E+00  0.91188000000E+02  0.91188000000E+02 0.  0.
    9900012    2    3    3    0    0 -0.20238045925E+01  0.31527297375E+02  0.18913020986E+02  0.54367236461E+02  0.40000347158E+02 0.  0.
         12    1    3    3    0    0  0.20238045925E+01 -0.31527297375E+02 -0.18913020986E+02  0.36820763539E+02  0.00000000000E+00 0. -1.
         11    1    4    4    0    0 -0.16409804235E+02  0.22377536248E+02  0.60414917215E+01  0.28399567356E+02  0.51100000000E-03 0. -1.
        -11    1    4    4    0    0  0.59136225408E+01  0.90081674119E+01  0.13726679877E+02  0.17451067371E+02  0.51100000000E-03 0.  1.
         12    1    4    4    0    0  0.84723771014E+01  0.14159371555E+00 -0.85515061264E+00  0.85166017342E+01  0.00000000000E+00 0. -1.
</event>
<event>
 8    1  0.1254059E-006  0.9118800E+02  0.7816164E-02  0.1184000E+00
        -11   -1    0    0    0    0  0.00000000000E+00  0.00000000000E+00  0.45593999997E+02  0.45594000000E+02  0.51100000000E-03 0.  1.
         11   -1    0    0    0    0 -0.00000000000E+00 -0.00000000000E+00 -0.45593999997E+02  0.45594000000E+02  0.51100000000E-03 0. -1.
         23    2    1    2    0    0  0.00000000000E+00 -0.13322676296E-14  0.17763568394E-14  0.91188000000E+02  0.91188000000E+02 0.  0.
    9900012    2    3    3    0    0  0.34457329324E+02 -0.28783216047E+01 -0.12656531428E+02  0.54367081120E+02  0.39999993030E+02 0.  0.
         12    1    3    3    0    0 -0.34457329324E+02  0.28783216047E+01  0.12656531428E+02  0.36820918880E+02  0.00000000000E+00 0. -1.
         11    1    4    4    0    0  0.89973084164E+01 -0.78747467813E+01 -0.14571160501E+02  0.18848923424E+02  0.51100000000E-03 0. -1.
        -11    1    4    4    0    0  0.16767751311E+02 -0.86267583466E+01 -0.17817133110E+01  0.18940774699E+02  0.51100000000E-03 0.  1.
        -12    1    4    4    0    0  0.86922695961E+01  0.13623183523E+02  0.36963423846E+01  0.16577382998E+02  0.00000000000E+00 0.  1.
</event>
<event>
 8    1  0.1254059E-006  0.9118800E+02  0.7816164E-02  0.1184000E+00
        -11   -1    0    0    0    0  0.00000000000E+00  0.00000000000E+00  0.45593999997E+02  0.45594000000E+02  0.51100000000E-03 0.  1.
         11   -1    0    0    0    0 -0.00000000000E+00 -0.00000000000E+00 -0.45593999997E+02  0.45594000000E+02  0.51100000000E-03 0. -1.
         23    2    1    2    0    0  0.00000000000E+00  0.00000000000E+00  0.00000000000E+00  0.91188000000E+02  0.91188000000E+02 0.  0.
    9900012    2    3    3    0    0  0.24162116944E+02  0.12941809607E+02 -0.24586281653E+02  0.54367033464E+02  0.39999884388E+02 0.  0.
        -12    1    3    3    0    0 -0.24162116944E+02 -0.12941809607E+02  0.24586281653E+02  0.36820966536E+02  0.00000000000E+00 0.  1.
         11    1    4    4    0    0  0.10501046220E+02  0.35330765914E+01 -0.14695173978E+02  0.18403878407E+02  0.51100000000E-03 0. -1.
        -11    1    4    4    0    0  0.14798087337E+02  0.26360935001E+01 -0.19207142842E+02  0.24389479580E+02  0.51100000000E-03 0.  1.
        -12    1    4    4    0    0 -0.11370166129E+01  0.67726395157E+01  0.93160351679E+01  0.11573675477E+02  0.00000000000E+00 0.  1.
</event>
<event>
 8    1  0.1254059E-006  0.9118800E+02  0.7816164E-02  0.1184000E+00
        -11   -1    0    0    0    0  0.00000000000E+00  0.00000000000E+00  0.45593999997E+02  0.45594000000E+02  0.51100000000E-03 0.  1.
         11   -1    0    0    0    0 -0.00000000000E+00 -0.00000000000E+00 -0.45593999997E+02  0.45594000000E+02  0.51100000000E-03 0. -1.
         23    2    1    2    0    0  0.00000000000E+00  0.00000000000E+00  0.00000000000E+00  0.91188000000E+02  0.91188000000E+02 0.  0.
    9900012    2    3    3    0    0  0.12515108690E+02  0.20445868567E+02  0.27948470343E+02  0.54367102652E+02  0.40000042115E+02 0.  0.
         12    1    3    3    0    0 -0.12515108690E+02 -0.20445868567E+02 -0.27948470343E+02  0.36820897348E+02  0.00000000000E+00 0. -1.
         11    1    4    4    0    0  0.17193927217E+02  0.28477622091E+01  0.21848542609E+02  0.27948160891E+02  0.51100000000E-03 0. -1.
        -11    1    4    4    0    0  0.46445294386E+01 -0.26077759846E-01  0.44172960204E+01  0.64097455604E+01  0.51100000000E-03 0.  1.
        -12    1    4    4    0    0 -0.93233479657E+01  0.17624184118E+02  0.16826317135E+01  0.20009196201E+02  0.00000000000E+00 0.  1.
</event>
<event>
 8    1  0.1254059E-006  0.9118800E+02  0.7816164E-02  0.1184000E+00
        -11   -1    0    0    0    0  0.00000000000E+00  0.00000000000E+00  0.45593999997E+02  0.45594000000E+02  0.51100000000E-03 0.  1.
         11   -1    0    0    0    0 -0.00000000000E+00 -0.00000000000E+00 -0.45593999997E+02  0.45594000000E+02  0.51100000000E-03 0. -1.
         23    2    1    2    0    0  0.00000000000E+00  0.00000000000E+00  0.00000000000E+00  0.91188000000E+02  0.91188000000E+02 0.  0.
    9900012    2    3    3    0    0 -0.25604663124E+02  0.10288780157E+02 -0.24378723922E+02  0.54367082699E+02  0.39999996629E+02 0.  0.
        -12    1    3    3    0    0  0.25604663124E+02 -0.10288780157E+02  0.24378723922E+02  0.36820917301E+02  0.00000000000E+00 0.  1.
         11    1    4    4    0    0 -0.17912432912E+02  0.15490827130E-01 -0.59224977296E+01  0.18866146199E+02  0.51100000000E-03 0. -1.
        -11    1    4    4    0    0 -0.13380002464E+02  0.67085328949E+01  0.91909160500E+00  0.14995786381E+02  0.51100000000E-03 0.  1.
        -12    1    4    4    0    0  0.56877722520E+01  0.35647564351E+01 -0.19375317797E+02  0.20505150119E+02  0.00000000000E+00 0.  1.
</event>
<event>
 8    1  0.1254059E-006  0.9118800E+02  0.7816164E-02  0.1184000E+00
        -11   -1    0    0    0    0  0.00000000000E+00  0.00000000000E+00  0.45593999997E+02  0.45594000000E+02  0.51100000000E-03 0.  1.
         11   -1    0    0    0    0 -0.00000000000E+00 -0.00000000000E+00 -0.45593999997E+02  0.45594000000E+02  0.51100000000E-03 0. -1.
         23    2    1    2    0    0 -0.88817841970E-15 -0.17763568394E-14  0.00000000000E+00  0.91188000000E+02  0.91188000000E+02 0.  0.
    9900012    2    3    3    0    0 -0.14064787347E+01  0.59368613709E+01  0.36311920142E+02  0.54367081356E+02  0.39999993568E+02 0.  0.
         12    1    3    3    0    0  0.14064787347E+01 -0.59368613709E+01 -0.36311920142E+02  0.36820918644E+02  0.00000000000E+00 0. -1.
         11    1    4    4    0    0 -0.12972629457E+02  0.15656683793E+02  0.18536967217E+02  0.27514360183E+02  0.51100000000E-03 0. -1.
        -11    1    4    4    0    0  0.34595441151E+01 -0.28031523831E+01  0.15269986104E+02  0.15905929229E+02  0.51100000000E-03 0.  1.
        -12    1    4    4    0    0  0.81066066070E+01 -0.69166700388E+01  0.25049668216E+01  0.10946791945E+02  0.00000000000E+00 0.  1.
</event>
<event>
 8    1  0.1254059E-006  0.9118800E+02  0.7816164E-02  0.1184000E+00
        -11   -1    0    0    0    0  0.00000000000E+00  0.00000000000E+00  0.45593999997E+02  0.45594000000E+02  0.51100000000E-03 0.  1.
         11   -1    0    0    0    0 -0.00000000000E+00 -0.00000000000E+00 -0.45593999997E+02  0.45594000000E+02  0.51100000000E-03 0. -1.
         23    2    1    2    0    0  0.00000000000E+00 -0.17763568394E-14  0.00000000000E+00  0.91188000000E+02  0.91188000000E+02 0.  0.
    9900012    2    3    3    0    0  0.26776856197E+02  0.15677222128E+02 -0.19824337585E+02  0.54367086349E+02  0.40000004950E+02 0.  0.
        -12    1    3    3    0    0 -0.26776856197E+02 -0.15677222128E+02  0.19824337585E+02  0.36820913651E+02  0.00000000000E+00 0.  1.
         11    1    4    4    0    0  0.22922303753E+02  0.65273402114E+01 -0.14757900303E+02  0.28032727323E+02  0.51100000000E-03 0. -1.
        -11    1    4    4    0    0 -0.73236172517E+01 -0.26155829221E+01 -0.63708923562E+01  0.10053104662E+02  0.51100000000E-03 0.  1.
         12    1    4    4    0    0  0.11178169696E+02  0.11765464838E+02  0.13044550741E+01  0.16281254363E+02  0.00000000000E+00 0. -1.
</event>
<event>
 8    1  0.1254059E-006  0.9118800E+02  0.7816164E-02  0.1184000E+00
        -11   -1    0    0    0    0  0.00000000000E+00  0.00000000000E+00  0.45593999997E+02  0.45594000000E+02  0.51100000000E-03 0.  1.
         11   -1    0    0    0    0 -0.00000000000E+00 -0.00000000000E+00 -0.45593999997E+02  0.45594000000E+02  0.51100000000E-03 0. -1.
         23    2    1    2    0    0  0.00000000000E+00  0.00000000000E+00  0.00000000000E+00  0.91188000000E+02  0.91188000000E+02 0.  0.
    9900012    2    3    3    0    0  0.80608939237E+01 -0.30295758907E+01  0.35799768382E+02  0.54367085330E+02  0.40000002627E+02 0.  0.
         12    1    3    3    0    0 -0.80608939237E+01  0.30295758907E+01 -0.35799768382E+02  0.36820914670E+02  0.00000000000E+00 0. -1.
         11    1    4    4    0    0 -0.93385415169E+01  0.81762736400E+01  0.10147214788E+02  0.16032023469E+02  0.51100000000E-03 0. -1.
        -11    1    4    4    0    0  0.64941931798E+01 -0.32562396029E+01  0.23589800761E+02  0.24683118555E+02  0.51100000000E-03 0.  1.
        -12    1    4    4    0    0  0.10905242261E+02 -0.79496099277E+01  0.20627528334E+01  0.13651943306E+02  0.00000000000E+00 0.  1.
</event>
<event>
 8    1  0.1254059E-006  0.9118800E+02  0.7816164E-02  0.1184000E+00
        -11   -1    0    0    0    0  0.00000000000E+00  0.00000000000E+00  0.45593999997E+02  0.45594000000E+02  0.51100000000E-03 0.  1.
         11   -1    0    0    0    0 -0.00000000000E+00 -0.00000000000E+00 -0.45593999997E+02  0.45594000000E+02  0.51100000000E-03 0. -1.
         23    2    1    2    0    0 -0.22204460493E-14  0.71054273576E-14  0.17763568394E-14  0.91188000000E+02  0.91188000000E+02 0.  0.
    9900012    2    3    3    0    0  0.18572840007E+01  0.34274621831E+02 -0.13325921090E+02  0.54367090473E+02  0.40000014350E+02 0.  0.
        -12    1    3    3    0    0 -0.18572840007E+01 -0.34274621831E+02  0.13325921090E+02  0.36820909527E+02  0.00000000000E+00 0.  1.
         11    1    4    4    0    0  0.80626435985E+00  0.11556053292E+02  0.10993688765E+02  0.15970398330E+02  0.51100000000E-03 0.  1.
        -11    1    4    4    0    0 -0.84151064046E+01  0.10748959559E+02 -0.15941451169E+02  0.20987711000E+02  0.51100000000E-03 0. -1.
        -12    1    4    4    0    0  0.94661260455E+01  0.11969608980E+02 -0.83781586865E+01  0.17408981142E+02  0.00000000000E+00 0.  1.
</event>
<event>
 8    1  0.1254059E-006  0.9118800E+02  0.7816164E-02  0.1184000E+00
        -11   -1    0    0    0    0  0.00000000000E+00  0.00000000000E+00  0.45593999997E+02  0.45594000000E+02  0.51100000000E-03 0. -1.
         11   -1    0    0    0    0 -0.00000000000E+00 -0.00000000000E+00 -0.45593999997E+02  0.45594000000E+02  0.51100000000E-03 0.  1.
         23    2    1    2    0    0  0.00000000000E+00  0.00000000000E+00  0.88817841970E-15  0.91188000000E+02  0.91188000000E+02 0.  0.
    9900012    2    3    3    0    0  0.32993779253E+02  0.15579040025E+02  0.49481410244E+01  0.54367081257E+02  0.39999993342E+02 0.  0.
         12    1    3    3    0    0 -0.32993779253E+02 -0.15579040025E+02 -0.49481410244E+01  0.36820918743E+02  0.00000000000E+00 0. -1.
         11    1    4    4    0    0  0.29720596022E+02 -0.29454602860E+01 -0.49208487527E+01  0.30268867123E+02  0.51100000000E-03 0. -1.
        -11    1    4    4    0    0  0.58157793497E+01  0.50015041908E+01  0.10191522836E+01  0.77380233427E+01  0.51100000000E-03 0.  1.
        -12    1    4    4    0    0 -0.25425961189E+01  0.13522996120E+02  0.88498374935E+01  0.16360190792E+02  0.00000000000E+00 0.  1.
</event>
<event>
 8    1  0.1254059E-006  0.9118800E+02  0.7816164E-02  0.1184000E+00
        -11   -1    0    0    0    0  0.00000000000E+00  0.00000000000E+00  0.45593999997E+02  0.45594000000E+02  0.51100000000E-03 0.  1.
         11   -1    0    0    0    0 -0.00000000000E+00 -0.00000000000E+00 -0.45593999997E+02  0.45594000000E+02  0.51100000000E-03 0. -1.
         23    2    1    2    0    0  0.17763568394E-14  0.35527136788E-14  0.00000000000E+00  0.91188000000E+02  0.91188000000E+02 0.  0.
    9900012    2    3    3    0    0 -0.13643258491E+02  0.30146965945E+02  0.16149366167E+02  0.54367080870E+02  0.39999992460E+02 0.  0.
         12    1    3    3    0    0  0.13643258491E+02 -0.30146965945E+02 -0.16149366167E+02  0.36820919130E+02  0.00000000000E+00 0. -1.
         11    1    4    4    0    0 -0.49730027396E+01 -0.29516712606E+01  0.81205599357E+01  0.99692834952E+01  0.51100000000E-03 0. -1.
        -11    1    4    4    0    0 -0.14531992920E+02  0.91557502257E+01 -0.29259702651E+01  0.17423199553E+02  0.51100000000E-03 0.  1.
         12    1    4    4    0    0  0.58617371684E+01  0.23942886980E+02  0.10954776496E+02  0.26974597822E+02  0.00000000000E+00 0. -1.
</event>
<event>
 8    1  0.1254059E-006  0.9118800E+02  0.7816164E-02  0.1184000E+00
        -11   -1    0    0    0    0  0.00000000000E+00  0.00000000000E+00  0.45593999997E+02  0.45594000000E+02  0.51100000000E-03 0.  1.
         11   -1    0    0    0    0 -0.00000000000E+00 -0.00000000000E+00 -0.45593999997E+02  0.45594000000E+02  0.51100000000E-03 0. -1.
         23    2    1    2    0    0  0.35527136788E-14  0.00000000000E+00 -0.71054273576E-14  0.91188000000E+02  0.91188000000E+02 0.  0.
    9900012    2    3    3    0    0  0.25454904441E+02  0.37202035585E+01 -0.26343647591E+02  0.54367084164E+02  0.39999999968E+02 0.  0.
        -12    1    3    3    0    0 -0.25454904441E+02 -0.37202035585E+01  0.26343647591E+02  0.36820915836E+02  0.00000000000E+00 0.  1.
         11    1    4    4    0    0 -0.50427981931E+01  0.46545812211E+01  0.12654445721E+01  0.69782727223E+01  0.51100000000E-03 0.  1.
        -11    1    4    4    0    0  0.85388210642E+01 -0.94024163857E+01 -0.24454064171E+01  0.12934330747E+02  0.51100000000E-03 0. -1.
         12    1    4    4    0    0  0.21958881570E+02  0.84680387231E+01 -0.25163685746E+02  0.34454480695E+02  0.00000000000E+00 0. -1.
</event>
<event>
 8    1  0.1254059E-006  0.9118800E+02  0.7816164E-02  0.1184000E+00
        -11   -1    0    0    0    0  0.00000000000E+00  0.00000000000E+00  0.45593999997E+02  0.45594000000E+02  0.51100000000E-03 0.  1.
         11   -1    0    0    0    0 -0.00000000000E+00 -0.00000000000E+00 -0.45593999997E+02  0.45594000000E+02  0.51100000000E-03 0. -1.
         23    2    1    2    0    0 -0.35527136788E-14  0.35527136788E-14 -0.88817841970E-15  0.91188000000E+02  0.91188000000E+02 0.  0.
    9900012    2    3    3    0    0  0.29885058335E+02 -0.19983661449E+02  0.79571059218E+01  0.54367096001E+02  0.40000026954E+02 0.  0.
         12    1    3    3    0    0 -0.29885058335E+02  0.19983661449E+02 -0.79571059218E+01  0.36820903999E+02  0.00000000000E+00 0. -1.
         11    1    4    4    0    0  0.11981433539E+02 -0.20531673182E+01  0.66143062391E+01  0.13839049569E+02  0.51100000000E-03 0.  1.
        -11    1    4    4    0    0 -0.78193721027E+01  0.10977090344E+01  0.31024606181E+01  0.84836788808E+01  0.51100000000E-03 0. -1.
         12    1    4    4    0    0  0.25722996899E+02 -0.19028203166E+02 -0.17596609353E+01  0.32044367552E+02  0.00000000000E+00 0. -1.
</event>
<event>
 8    1  0.1254059E-006  0.9118800E+02  0.7816164E-02  0.1184000E+00
        -11   -1    0    0    0    0  0.00000000000E+00  0.00000000000E+00  0.45593999997E+02  0.45594000000E+02  0.51100000000E-03 0. -1.
         11   -1    0    0    0    0 -0.00000000000E+00 -0.00000000000E+00 -0.45593999997E+02  0.45594000000E+02  0.51100000000E-03 0.  1.
         23    2    1    2    0    0  0.35527136788E-14 -0.35527136788E-14 -0.88817841970E-15  0.91188000000E+02  0.91188000000E+02 0.  0.
    9900012    2    3    3    0    0  0.25050568773E+02 -0.26842542034E+02  0.27797095573E+01  0.54367084152E+02  0.39999999940E+02 0.  0.
        -12    1    3    3    0    0 -0.25050568773E+02  0.26842542034E+02 -0.27797095573E+01  0.36820915848E+02  0.00000000000E+00 0.  1.
         11    1    4    4    0    0  0.15790288345E+02  0.79125111545E+00  0.50112726740E+01  0.16585298864E+02  0.51100000000E-03 0. -1.
        -11    1    4    4    0    0  0.93624071980E+01 -0.16004356009E+02 -0.12422652622E+02  0.22318520969E+02  0.51100000000E-03 0.  1.
         12    1    4    4    0    0 -0.10212677005E+00 -0.11629437140E+02  0.10191089505E+02  0.15463264319E+02  0.00000000000E+00 0. -1.
</event>
<event>
 8    1  0.1254059E-006  0.9118800E+02  0.7816164E-02  0.1184000E+00
        -11   -1    0    0    0    0  0.00000000000E+00  0.00000000000E+00  0.45593999997E+02  0.45594000000E+02  0.51100000000E-03 0. -1.
         11   -1    0    0    0    0 -0.00000000000E+00 -0.00000000000E+00 -0.45593999997E+02  0.45594000000E+02  0.51100000000E-03 0.  1.
         23    2    1    2    0    0  0.00000000000E+00  0.88817841970E-15  0.00000000000E+00  0.91188000000E+02  0.91188000000E+02 0.  0.
    9900012    2    3    3    0    0  0.13020464091E+02 -0.73981610133E+01 -0.33638008909E+02  0.54367069608E+02  0.39999966786E+02 0.  0.
         12    1    3    3    0    0 -0.13020464091E+02  0.73981610133E+01  0.33638008909E+02  0.36820930392E+02  0.00000000000E+00 0. -1.
         11    1    4    4    0    0  0.45182424037E+00  0.10046534989E+02 -0.77054171631E+00  0.10086166033E+02  0.51100000000E-03 0. -1.
        -11    1    4    4    0    0  0.11859137824E+02 -0.46029934964E+01 -0.51484195678E+01  0.13723444296E+02  0.51100000000E-03 0.  1.
        -12    1    4    4    0    0  0.70950202733E+00 -0.12841702506E+02 -0.27719047625E+02  0.30557459280E+02  0.00000000000E+00 0.  1.
</event>
<event>
 8    1  0.1254059E-006  0.9118800E+02  0.7816164E-02  0.1184000E+00
        -11   -1    0    0    0    0  0.00000000000E+00  0.00000000000E+00  0.45593999997E+02  0.45594000000E+02  0.51100000000E-03 0.  1.
         11   -1    0    0    0    0 -0.00000000000E+00 -0.00000000000E+00 -0.45593999997E+02  0.45594000000E+02  0.51100000000E-03 0. -1.
         23    2    1    2    0    0 -0.35527136788E-14  0.00000000000E+00  0.00000000000E+00  0.91188000000E+02  0.91188000000E+02 0.  0.
    9900012    2    3    3    0    0  0.27768820513E+02 -0.76015177180E+01 -0.22954076839E+02  0.54367080568E+02  0.39999991770E+02 0.  0.
        -12    1    3    3    0    0 -0.27768820513E+02  0.76015177180E+01  0.22954076839E+02  0.36820919432E+02  0.00000000000E+00 0.  1.
         11    1    4    4    0    0  0.18037458490E+02 -0.76662984449E+01 -0.17588013465E+02  0.26333633599E+02  0.51100000000E-03 0. -1.
        -11    1    4    4    0    0  0.17021642876E+02  0.72619146225E+00 -0.96214728156E+01  0.19566206061E+02  0.51100000000E-03 0.  1.
        -12    1    4    4    0    0 -0.72902808529E+01 -0.66141073536E+00  0.42554094412E+01  0.84672409076E+01  0.00000000000E+00 0.  1.
</event>
<event>
 8    1  0.1254059E-006  0.9118800E+02  0.7816164E-02  0.1184000E+00
        -11   -1    0    0    0    0  0.00000000000E+00  0.00000000000E+00  0.45593999997E+02  0.45594000000E+02  0.51100000000E-03 0.  1.
         11   -1    0    0    0    0 -0.00000000000E+00 -0.00000000000E+00 -0.45593999997E+02  0.45594000000E+02  0.51100000000E-03 0. -1.
         23    2    1    2    0    0  0.00000000000E+00 -0.17763568394E-14  0.35527136788E-14  0.91188000000E+02  0.91188000000E+02 0.  0.
    9900012    2    3    3    0    0 -0.19917141421E+02 -0.12998032343E+02  0.28109396904E+02  0.54367087987E+02  0.40000008684E+02 0.  0.
         12    1    3    3    0    0  0.19917141421E+02  0.12998032343E+02 -0.28109396904E+02  0.36820912013E+02  0.00000000000E+00 0. -1.
         11    1    4    4    0    0 -0.39269250152E+01 -0.17671851779E+02  0.63889759546E+01  0.19197241974E+02  0.51100000000E-03 0. -1.
        -11    1    4    4    0    0 -0.37145724076E+01  0.12541730252E+02  0.10350361265E+02  0.16680018719E+02  0.51100000000E-03 0.  1.
        -12    1    4    4    0    0 -0.12275643998E+02 -0.78679108149E+01  0.11370059684E+02  0.18489827294E+02  0.00000000000E+00 0.  1.
</event>
<event>
 8    1  0.1254059E-006  0.9118800E+02  0.7816164E-02  0.1184000E+00
        -11   -1    0    0    0    0  0.00000000000E+00  0.00000000000E+00  0.45593999997E+02  0.45594000000E+02  0.51100000000E-03 0.  1.
         11   -1    0    0    0    0 -0.00000000000E+00 -0.00000000000E+00 -0.45593999997E+02  0.45594000000E+02  0.51100000000E-03 0. -1.
         23    2    1    2    0    0  0.35527136788E-14 -0.35527136788E-14  0.00000000000E+00  0.91188000000E+02  0.91188000000E+02 0.  0.
    9900012    2    3    3    0    0  0.29459486756E+02 -0.20603017462E+02 -0.79644436641E+01  0.54367108494E+02  0.40000055433E+02 0.  0.
         12    1    3    3    0    0 -0.29459486756E+02  0.20603017462E+02  0.79644436641E+01  0.36820891506E+02  0.00000000000E+00 0. -1.
         11    1    4    4    0    0  0.51178816595E+01  0.75053626777E+01  0.14115074897E+00  0.90853236266E+01  0.51100000000E-03 0. -1.
        -11    1    4    4    0    0  0.48996255702E+01  0.35691455019E+01  0.26103180911E+01  0.65999159949E+01  0.51100000000E-03 0.  1.
        -12    1    4    4    0    0  0.19441979526E+02 -0.31677525641E+02 -0.10715912504E+02  0.38681868872E+02  0.00000000000E+00 0.  1.
</event>
<event>
 8    1  0.1254059E-006  0.9118800E+02  0.7816164E-02  0.1184000E+00
        -11   -1    0    0    0    0  0.00000000000E+00  0.00000000000E+00  0.45593999997E+02  0.45594000000E+02  0.51100000000E-03 0.  1.
         11   -1    0    0    0    0 -0.00000000000E+00 -0.00000000000E+00 -0.45593999997E+02  0.45594000000E+02  0.51100000000E-03 0. -1.
         23    2    1    2    0    0  0.00000000000E+00  0.00000000000E+00  0.00000000000E+00  0.91188000000E+02  0.91188000000E+02 0.  0.
    9900012    2    3    3    0    0 -0.25041646813E+02 -0.49152834248E+01  0.26543097881E+02  0.54367080248E+02  0.39999991042E+02 0.  0.
         12    1    3    3    0    0  0.25041646813E+02  0.49152834248E+01 -0.26543097881E+02  0.36820919752E+02  0.00000000000E+00 0. -1.
         11    1    4    4    0    0  0.11150701016E+01  0.19280255507E+01 -0.63798318751E+01  0.67574343409E+01  0.51100000000E-03 0. -1.
        -11    1    4    4    0    0  0.23492266482E+01  0.28399506328E+00  0.10183960513E+02  0.10455265230E+02  0.51100000000E-03 0.  1.
        -12    1    4    4    0    0 -0.28505943563E+02 -0.71273040388E+01  0.22738969243E+02  0.37154380677E+02  0.00000000000E+00 0.  1.
</event>
<event>
 8    1  0.1254059E-006  0.9118800E+02  0.7816164E-02  0.1184000E+00
        -11   -1    0    0    0    0  0.00000000000E+00  0.00000000000E+00  0.45593999997E+02  0.45594000000E+02  0.51100000000E-03 0.  1.
         11   -1    0    0    0    0 -0.00000000000E+00 -0.00000000000E+00 -0.45593999997E+02  0.45594000000E+02  0.51100000000E-03 0. -1.
         23    2    1    2    0    0  0.00000000000E+00 -0.71054273576E-14  0.00000000000E+00  0.91188000000E+02  0.91188000000E+02 0.  0.
    9900012    2    3    3    0    0 -0.81441587842E+01 -0.32185259021E+02  0.15923539948E+02  0.54367118085E+02  0.40000077298E+02 0.  0.
         12    1    3    3    0    0  0.81441587842E+01  0.32185259021E+02 -0.15923539948E+02  0.36820881915E+02  0.00000000000E+00 0. -1.
         11    1    4    4    0    0 -0.33774164053E+01 -0.19482970561E+02  0.16061877666E+01  0.19838672406E+02  0.51100000000E-03 0. -1.
        -11    1    4    4    0    0  0.58107238381E+01  0.31004738935E+01  0.14042630294E+02  0.15510413138E+02  0.51100000000E-03 0.  1.
        -12    1    4    4    0    0 -0.10577466217E+02 -0.15802762354E+02  0.27472188757E+00  0.19018032540E+02  0.00000000000E+00 0.  1.
</event>
<event>
 8    1  0.1254059E-006  0.9118800E+02  0.7816164E-02  0.1184000E+00
        -11   -1    0    0    0    0  0.00000000000E+00  0.00000000000E+00  0.45593999997E+02  0.45594000000E+02  0.51100000000E-03 0. -1.
         11   -1    0    0    0    0 -0.00000000000E+00 -0.00000000000E+00 -0.45593999997E+02  0.45594000000E+02  0.51100000000E-03 0.  1.
         23    2    1    2    0    0  0.00000000000E+00  0.00000000000E+00  0.17763568394E-14  0.91188000000E+02  0.91188000000E+02 0.  0.
    9900012    2    3    3    0    0 -0.21649166068E+02  0.27045231914E+02 -0.12475901994E+02  0.54367094372E+02  0.40000023239E+02 0.  0.
         12    1    3    3    0    0  0.21649166068E+02 -0.27045231914E+02  0.12475901994E+02  0.36820905628E+02  0.00000000000E+00 0. -1.
         11    1    4    4    0    0 -0.29940043959E+02  0.18302304661E+02 -0.83480374259E+01  0.36070352331E+02  0.51100000000E-03 0. -1.
        -11    1    4    4    0    0  0.20847709423E+01  0.10224209990E+02 -0.54629233870E+01  0.11778126845E+02  0.51100000000E-03 0.  1.
         12    1    4    4    0    0  0.62061069491E+01 -0.14812827364E+01  0.13350588191E+01  0.65186151949E+01  0.00000000000E+00 0. -1.
</event>
<event>
 8    1  0.1254059E-006  0.9118800E+02  0.7816164E-02  0.1184000E+00
        -11   -1    0    0    0    0  0.00000000000E+00  0.00000000000E+00  0.45593999997E+02  0.45594000000E+02  0.51100000000E-03 0. -1.
         11   -1    0    0    0    0 -0.00000000000E+00 -0.00000000000E+00 -0.45593999997E+02  0.45594000000E+02  0.51100000000E-03 0.  1.
         23    2    1    2    0    0  0.00000000000E+00  0.00000000000E+00  0.00000000000E+00  0.91188000000E+02  0.91188000000E+02 0.  0.
    9900012    2    3    3    0    0 -0.25237094030E+02 -0.84285291656E+01  0.25452468238E+02  0.54367093460E+02  0.40000021162E+02 0.  0.
        -12    1    3    3    0    0  0.25237094030E+02  0.84285291656E+01 -0.25452468238E+02  0.36820906540E+02  0.00000000000E+00 0.  1.
         11    1    4    4    0    0 -0.94226263909E+01  0.23088003320E+01  0.76252058294E+00  0.97312838298E+01  0.51100000000E-03 0. -1.
        -11    1    4    4    0    0  0.47959921063E+01 -0.15081046412E+02  0.78328744981E+01  0.17657673242E+02  0.51100000000E-03 0.  1.
        -12    1    4    4    0    0 -0.20610459745E+02  0.43437169146E+01  0.16857073157E+02  0.26978136388E+02  0.00000000000E+00 0.  1.
</event>
<event>
 8    1  0.1254059E-006  0.9118800E+02  0.7816164E-02  0.1184000E+00
        -11   -1    0    0    0    0  0.00000000000E+00  0.00000000000E+00  0.45593999997E+02  0.45594000000E+02  0.51100000000E-03 0.  1.
         11   -1    0    0    0    0 -0.00000000000E+00 -0.00000000000E+00 -0.45593999997E+02  0.45594000000E+02  0.51100000000E-03 0. -1.
         23    2    1    2    0    0  0.00000000000E+00  0.00000000000E+00  0.88817841970E-15  0.91188000000E+02  0.91188000000E+02 0.  0.
    9900012    2    3    3    0    0  0.28950616065E+02 -0.22177696935E+02  0.50786547953E+01  0.54367066465E+02  0.39999959620E+02 0.  0.
        -12    1    3    3    0    0 -0.28950616065E+02  0.22177696935E+02 -0.50786547953E+01  0.36820933535E+02  0.00000000000E+00 0.  1.
         11    1    4    4    0    0 -0.23180162857E+01  0.28332411875E+01  0.97263445638E+01  0.10392412326E+02  0.51100000000E-03 0.  1.
        -11    1    4    4    0    0  0.15445651736E+02 -0.23102464187E+02 -0.28470763966E+01  0.27935601897E+02  0.51100000000E-03 0. -1.
        -12    1    4    4    0    0  0.15822980615E+02 -0.19084739355E+01 -0.18006133719E+01  0.16039052242E+02  0.00000000000E+00 0.  1.
</event>
<event>
 8    1  0.1254059E-006  0.9118800E+02  0.7816164E-02  0.1184000E+00
        -11   -1    0    0    0    0  0.00000000000E+00  0.00000000000E+00  0.45593999997E+02  0.45594000000E+02  0.51100000000E-03 0. -1.
         11   -1    0    0    0    0 -0.00000000000E+00 -0.00000000000E+00 -0.45593999997E+02  0.45594000000E+02  0.51100000000E-03 0.  1.
         23    2    1    2    0    0  0.71054273576E-14  0.00000000000E+00 -0.61062266354E-15  0.91188000000E+02  0.91188000000E+02 0.  0.
    9900012    2    3    3    0    0  0.36584977010E+02  0.41562267663E+01  0.20617960652E+00  0.54367119052E+02  0.40000079503E+02 0.  0.
        -12    1    3    3    0    0 -0.36584977010E+02 -0.41562267663E+01 -0.20617960652E+00  0.36820880948E+02  0.00000000000E+00 0.  1.
         11    1    4    4    0    0  0.15679690638E+02 -0.98918040325E+00 -0.13836342512E+02  0.20935031664E+02  0.51100000000E-03 0. -1.
        -11    1    4    4    0    0  0.89315393228E+01 -0.67611529679E+01  0.12011440282E+02  0.16424380720E+02  0.51100000000E-03 0.  1.
         12    1    4    4    0    0  0.11973747049E+02  0.11906560137E+02  0.20310818369E+01  0.17007706669E+02  0.00000000000E+00 0. -1.
</event>
<event>
 8    1  0.1254059E-006  0.9118800E+02  0.7816164E-02  0.1184000E+00
        -11   -1    0    0    0    0  0.00000000000E+00  0.00000000000E+00  0.45593999997E+02  0.45594000000E+02  0.51100000000E-03 0.  1.
         11   -1    0    0    0    0 -0.00000000000E+00 -0.00000000000E+00 -0.45593999997E+02  0.45594000000E+02  0.51100000000E-03 0. -1.
         23    2    1    2    0    0 -0.35527136788E-14  0.17763568394E-14  0.35527136788E-14  0.91188000000E+02  0.91188000000E+02 0.  0.
    9900012    2    3    3    0    0  0.27484819248E+02  0.97323114155E+01  0.22486590992E+02  0.54367082724E+02  0.39999996687E+02 0.  0.
         12    1    3    3    0    0 -0.27484819248E+02 -0.97323114155E+01 -0.22486590992E+02  0.36820917276E+02  0.00000000000E+00 0. -1.
         11    1    4    4    0    0 -0.43750519172E+00  0.10655255393E+02  0.18759325906E+02  0.21578651186E+02  0.51100000000E-03 0.  1.
        -11    1    4    4    0    0  0.88013593474E+00 -0.49935328133E+01 -0.58331368283E+00  0.51039459573E+01  0.51100000000E-03 0. -1.
         12    1    4    4    0    0  0.27042188505E+02  0.40705888357E+01  0.43105787690E+01  0.27684485582E+02  0.00000000000E+00 0. -1.
</event>
<event>
 8    1  0.1254059E-006  0.9118800E+02  0.7816164E-02  0.1184000E+00
        -11   -1    0    0    0    0  0.00000000000E+00  0.00000000000E+00  0.45593999997E+02  0.45594000000E+02  0.51100000000E-03 0. -1.
         11   -1    0    0    0    0 -0.00000000000E+00 -0.00000000000E+00 -0.45593999997E+02  0.45594000000E+02  0.51100000000E-03 0.  1.
         23    2    1    2    0    0  0.53290705182E-14 -0.35527136788E-14 -0.17763568394E-14  0.91188000000E+02  0.91188000000E+02 0.  0.
    9900012    2    3    3    0    0  0.15675277705E+02  0.31011185510E+02 -0.12180807544E+02  0.54367081621E+02  0.39999994172E+02 0.  0.
         12    1    3    3    0    0 -0.15675277705E+02 -0.31011185510E+02  0.12180807544E+02  0.36820918379E+02  0.00000000000E+00 0. -1.
         11    1    4    4    0    0  0.85593305573E+01  0.23002862503E+02 -0.10030892506E+02  0.26514385297E+02  0.51100000000E-03 0. -1.
        -11    1    4    4    0    0 -0.31479426688E+01 -0.71705450837E+01  0.36408331538E+01  0.86360828017E+01  0.51100000000E-03 0.  1.
        -12    1    4    4    0    0  0.10263889816E+02  0.15178868090E+02 -0.57907481915E+01  0.19216613522E+02  0.00000000000E+00 0.  1.
</event>
<event>
 8    1  0.1254059E-006  0.9118800E+02  0.7816164E-02  0.1184000E+00
        -11   -1    0    0    0    0  0.00000000000E+00  0.00000000000E+00  0.45593999997E+02  0.45594000000E+02  0.51100000000E-03 0. -1.
         11   -1    0    0    0    0 -0.00000000000E+00 -0.00000000000E+00 -0.45593999997E+02  0.45594000000E+02  0.51100000000E-03 0.  1.
         23    2    1    2    0    0  0.00000000000E+00 -0.17763568394E-14  0.00000000000E+00  0.91188000000E+02  0.91188000000E+02 0.  0.
    9900012    2    3    3    0    0  0.87331336186E+01 -0.12235828449E+02 -0.33612446545E+02  0.54367086332E+02  0.40000004911E+02 0.  0.
         12    1    3    3    0    0 -0.87331336186E+01  0.12235828449E+02  0.33612446545E+02  0.36820913668E+02  0.00000000000E+00 0. -1.
         11    1    4    4    0    0  0.69524122733E+01 -0.28885491977E+01  0.40134363373E+01  0.85315546286E+01  0.51100000000E-03 0. -1.
        -11    1    4    4    0    0  0.11261993820E+02  0.17554727597E+01 -0.13879583509E+02  0.17959872718E+02  0.51100000000E-03 0.  1.
         12    1    4    4    0    0 -0.94812724749E+01 -0.11102752011E+02 -0.23746299373E+02  0.27875658985E+02  0.00000000000E+00 0. -1.
</event>
<event>
 8    1  0.1254059E-006  0.9118800E+02  0.7816164E-02  0.1184000E+00
        -11   -1    0    0    0    0  0.00000000000E+00  0.00000000000E+00  0.45593999997E+02  0.45594000000E+02  0.51100000000E-03 0.  1.
         11   -1    0    0    0    0 -0.00000000000E+00 -0.00000000000E+00 -0.45593999997E+02  0.45594000000E+02  0.51100000000E-03 0. -1.
         23    2    1    2    0    0 -0.35527136788E-14  0.00000000000E+00 -0.17763568394E-14  0.91188000000E+02  0.91188000000E+02 0.  0.
    9900012    2    3    3    0    0 -0.24253817540E+02 -0.27402612531E+02  0.40780559581E+01  0.54367063303E+02  0.39999952412E+02 0.  0.
         12    1    3    3    0    0  0.24253817540E+02  0.27402612531E+02 -0.40780559581E+01  0.36820936697E+02  0.00000000000E+00 0. -1.
         11    1    4    4    0    0 -0.11757682984E+02 -0.29493418772E+02  0.11836633952E+02  0.33885258795E+02  0.51100000000E-03 0. -1.
        -11    1    4    4    0    0 -0.49232167974E+01 -0.25840853043E+01  0.31602155902E+01  0.63955080589E+01  0.51100000000E-03 0.  1.
         12    1    4    4    0    0 -0.75729177591E+01  0.46748915448E+01 -0.10918793584E+02  0.14086296450E+02  0.00000000000E+00 0. -1.
</event>
<event>
 8    1  0.1254059E-006  0.9118800E+02  0.7816164E-02  0.1184000E+00
        -11   -1    0    0    0    0  0.00000000000E+00  0.00000000000E+00  0.45593999997E+02  0.45594000000E+02  0.51100000000E-03 0.  1.
         11   -1    0    0    0    0 -0.00000000000E+00 -0.00000000000E+00 -0.45593999997E+02  0.45594000000E+02  0.51100000000E-03 0. -1.
         23    2    1    2    0    0  0.00000000000E+00  0.00000000000E+00  0.00000000000E+00  0.91188000000E+02  0.91188000000E+02 0.  0.
    9900012    2    3    3    0    0  0.22894494058E+02  0.27604364061E+02 -0.83439017752E+01  0.54367089227E+02  0.40000011510E+02 0.  0.
        -12    1    3    3    0    0 -0.22894494058E+02 -0.27604364061E+02  0.83439017752E+01  0.36820910773E+02  0.00000000000E+00 0.  1.
         11    1    4    4    0    0  0.46321081972E+01  0.27548110242E+02 -0.92279037858E+01  0.29419534544E+02  0.51100000000E-03 0. -1.
        -11    1    4    4    0    0  0.18727714078E+02  0.40087482403E+01  0.43844126111E+01  0.19647402150E+02  0.51100000000E-03 0.  1.
         12    1    4    4    0    0 -0.46532821706E+00 -0.39524944214E+01 -0.35004106005E+01  0.53001525330E+01  0.00000000000E+00 0. -1.
</event>
<event>
 8    1  0.1254059E-006  0.9118800E+02  0.7816164E-02  0.1184000E+00
        -11   -1    0    0    0    0  0.00000000000E+00  0.00000000000E+00  0.45593999997E+02  0.45594000000E+02  0.51100000000E-03 0. -1.
         11   -1    0    0    0    0 -0.00000000000E+00 -0.00000000000E+00 -0.45593999997E+02  0.45594000000E+02  0.51100000000E-03 0.  1.
         23    2    1    2    0    0  0.71054273576E-14  0.00000000000E+00  0.17763568394E-14  0.91188000000E+02  0.91188000000E+02 0.  0.
    9900012    2    3    3    0    0  0.26924015970E+02 -0.23442142021E+02  0.90190105147E+01  0.54367092771E+02  0.40000019591E+02 0.  0.
        -12    1    3    3    0    0 -0.26924015970E+02  0.23442142021E+02 -0.90190105147E+01  0.36820907229E+02  0.00000000000E+00 0.  1.
         11    1    4    4    0    0  0.93459895387E+01 -0.13572098488E+02  0.35033783057E+00  0.16482479021E+02  0.51100000000E-03 0. -1.
        -11    1    4    4    0    0  0.18373057677E+02 -0.77339055880E+01 -0.76911983715E+01  0.21366728263E+02  0.51100000000E-03 0.  1.
         12    1    4    4    0    0 -0.79503124556E+00 -0.21361379458E+01  0.16359871056E+02  0.16517885487E+02  0.00000000000E+00 0. -1.
</event>
<event>
 8    1  0.1254059E-006  0.9118800E+02  0.7816164E-02  0.1184000E+00
        -11   -1    0    0    0    0  0.00000000000E+00  0.00000000000E+00  0.45593999997E+02  0.45594000000E+02  0.51100000000E-03 0. -1.
         11   -1    0    0    0    0 -0.00000000000E+00 -0.00000000000E+00 -0.45593999997E+02  0.45594000000E+02  0.51100000000E-03 0.  1.
         23    2    1    2    0    0 -0.66613381478E-15  0.00000000000E+00  0.35527136788E-14  0.91188000000E+02  0.91188000000E+02 0.  0.
    9900012    2    3    3    0    0  0.11918636292E+01 -0.29338135165E+02  0.22217837430E+02  0.54367095422E+02  0.40000025633E+02 0.  0.
        -12    1    3    3    0    0 -0.11918636292E+01  0.29338135165E+02 -0.22217837430E+02  0.36820904578E+02  0.00000000000E+00 0.  1.
         11    1    4    4    0    0 -0.10587713206E+01 -0.34628658626E+02  0.23115408991E+02  0.41648374855E+02  0.51100000000E-03 0. -1.
        -11    1    4    4    0    0 -0.25201447978E+01 -0.23924113422E+01  0.67368221136E+00  0.35395776323E+01  0.51100000000E-03 0.  1.
         12    1    4    4    0    0  0.47707797476E+01  0.76829348034E+01 -0.15712537722E+01  0.91791429344E+01  0.00000000000E+00 0. -1.
</event>
<event>
 8    1  0.1254059E-006  0.9118800E+02  0.7816164E-02  0.1184000E+00
        -11   -1    0    0    0    0  0.00000000000E+00  0.00000000000E+00  0.45593999997E+02  0.45594000000E+02  0.51100000000E-03 0. -1.
         11   -1    0    0    0    0 -0.00000000000E+00 -0.00000000000E+00 -0.45593999997E+02  0.45594000000E+02  0.51100000000E-03 0.  1.
         23    2    1    2    0    0  0.88817841970E-15 -0.88817841970E-15  0.00000000000E+00  0.91188000000E+02  0.91188000000E+02 0.  0.
    9900012    2    3    3    0    0  0.59173653310E+01  0.56678593893E+01  0.35897779748E+02  0.54366940355E+02  0.39999672126E+02 0.  0.
        -12    1    3    3    0    0 -0.59173653310E+01 -0.56678593893E+01 -0.35897779748E+02  0.36821059645E+02  0.00000000000E+00 0.  1.
         11    1    4    4    0    0  0.24038879506E+01  0.85670143473E+01  0.29553755530E+02  0.30864168194E+02  0.51100000000E-03 0. -1.
        -11    1    4    4    0    0  0.49392485605E+01  0.85996099723E+01  0.66009511643E+01  0.11913103061E+02  0.51100000000E-03 0.  1.
        -12    1    4    4    0    0 -0.14257711801E+01 -0.11498764930E+02 -0.25692694586E+00  0.11589669100E+02  0.00000000000E+00 0.  1.
</event>
<event>
 8    1  0.1254059E-006  0.9118800E+02  0.7816164E-02  0.1184000E+00
        -11   -1    0    0    0    0  0.00000000000E+00  0.00000000000E+00  0.45593999997E+02  0.45594000000E+02  0.51100000000E-03 0.  1.
         11   -1    0    0    0    0 -0.00000000000E+00 -0.00000000000E+00 -0.45593999997E+02  0.45594000000E+02  0.51100000000E-03 0. -1.
         23    2    1    2    0    0 -0.44408920985E-15  0.00000000000E+00  0.00000000000E+00  0.91188000000E+02  0.91188000000E+02 0.  0.
    9900012    2    3    3    0    0 -0.26211055605E+01  0.25239640709E+02 -0.26680896212E+02  0.54367083659E+02  0.39999998818E+02 0.  0.
        -12    1    3    3    0    0  0.26211055605E+01 -0.25239640709E+02  0.26680896212E+02  0.36820916341E+02  0.00000000000E+00 0.  1.
         11    1    4    4    0    0 -0.81571064767E+01  0.80818492517E+01 -0.26734267260E+02  0.29095974285E+02  0.51100000000E-03 0. -1.
        -11    1    4    4    0    0  0.76072192948E+01 -0.34512596202E+00 -0.55806903946E+00  0.76354658433E+01  0.51100000000E-03 0.  1.
         12    1    4    4    0    0 -0.20712183786E+01  0.17502917419E+02  0.61144008773E+00  0.17635643531E+02  0.00000000000E+00 0. -1.
</event>
<event>
 8    1  0.1254059E-006  0.9118800E+02  0.7816164E-02  0.1184000E+00
        -11   -1    0    0    0    0  0.00000000000E+00  0.00000000000E+00  0.45593999997E+02  0.45594000000E+02  0.51100000000E-03 0. -1.
         11   -1    0    0    0    0 -0.00000000000E+00 -0.00000000000E+00 -0.45593999997E+02  0.45594000000E+02  0.51100000000E-03 0.  1.
         23    2    1    2    0    0  0.17763568394E-14  0.00000000000E+00  0.00000000000E+00  0.91188000000E+02  0.91188000000E+02 0.  0.
    9900012    2    3    3    0    0  0.97620940436E+01 -0.63085369147E+01  0.34938283581E+02  0.54367085051E+02  0.40000001990E+02 0.  0.
        -12    1    3    3    0    0 -0.97620940436E+01  0.63085369147E+01 -0.34938283581E+02  0.36820914949E+02  0.00000000000E+00 0.  1.
         11    1    4    4    0    0 -0.42357052939E+01 -0.96413339994E+00  0.23457911238E+02  0.23856746476E+02  0.51100000000E-03 0. -1.
        -11    1    4    4    0    0  0.19410599354E+02 -0.65923775750E+01  0.35139824844E+01  0.20798530778E+02  0.51100000000E-03 0.  1.
        -12    1    4    4    0    0 -0.54128000166E+01  0.12479740603E+01  0.79663898591E+01  0.97118077958E+01  0.00000000000E+00 0.  1.
</event>
<event>
 8    1  0.1254059E-006  0.9118800E+02  0.7816164E-02  0.1184000E+00
        -11   -1    0    0    0    0  0.00000000000E+00  0.00000000000E+00  0.45593999997E+02  0.45594000000E+02  0.51100000000E-03 0. -1.
         11   -1    0    0    0    0 -0.00000000000E+00 -0.00000000000E+00 -0.45593999997E+02  0.45594000000E+02  0.51100000000E-03 0.  1.
         23    2    1    2    0    0  0.17763568394E-14 -0.35527136788E-14  0.35527136788E-14  0.91188000000E+02  0.91188000000E+02 0.  0.
    9900012    2    3    3    0    0  0.13441655716E+02 -0.17324165506E+02  0.29579967660E+02  0.54367091460E+02  0.40000016602E+02 0.  0.
        -12    1    3    3    0    0 -0.13441655716E+02  0.17324165506E+02 -0.29579967660E+02  0.36820908540E+02  0.00000000000E+00 0.  1.
         11    1    4    4    0    0  0.16330206334E+02 -0.13062541796E+02  0.79488958294E+01  0.22371646838E+02  0.51100000000E-03 0. -1.
        -11    1    4    4    0    0  0.34208443108E+01 -0.44925658933E+01  0.24440965676E+02  0.25084778802E+02  0.51100000000E-03 0.  1.
        -12    1    4    4    0    0 -0.63093949287E+01  0.23094218294E+00 -0.28098938450E+01  0.69106658202E+01  0.00000000000E+00 0.  1.
</event>
<event>
 8    1  0.1254059E-006  0.9118800E+02  0.7816164E-02  0.1184000E+00
        -11   -1    0    0    0    0  0.00000000000E+00  0.00000000000E+00  0.45593999997E+02  0.45594000000E+02  0.51100000000E-03 0. -1.
         11   -1    0    0    0    0 -0.00000000000E+00 -0.00000000000E+00 -0.45593999997E+02  0.45594000000E+02  0.51100000000E-03 0.  1.
         23    2    1    2    0    0  0.71054273576E-14  0.63837823916E-15 -0.44408920985E-15  0.91188000000E+02  0.91188000000E+02 0.  0.
    9900012    2    3    3    0    0 -0.36719496382E+02 -0.21990003526E+00  0.27220832533E+01  0.54367088716E+02  0.40000010345E+02 0.  0.
        -12    1    3    3    0    0  0.36719496382E+02  0.21990003526E+00 -0.27220832533E+01  0.36820911284E+02  0.00000000000E+00 0.  1.
         11    1    4    4    0    0 -0.14074890634E+01 -0.56334460491E+01  0.51864797490E+00  0.58297286245E+01  0.51100000000E-03 0. -1.
        -11    1    4    4    0    0 -0.33355220183E+01  0.98033964430E-01 -0.12503982828E+02  0.12941595907E+02  0.51100000000E-03 0.  1.
         12    1    4    4    0    0 -0.31976485300E+02  0.53155120494E+01  0.14707418106E+02  0.35595764184E+02  0.00000000000E+00 0. -1.
</event>
<event>
 8    1  0.1254059E-006  0.9118800E+02  0.7816164E-02  0.1184000E+00
        -11   -1    0    0    0    0  0.00000000000E+00  0.00000000000E+00  0.45593999997E+02  0.45594000000E+02  0.51100000000E-03 0.  1.
         11   -1    0    0    0    0 -0.00000000000E+00 -0.00000000000E+00 -0.45593999997E+02  0.45594000000E+02  0.51100000000E-03 0. -1.
         23    2    1    2    0    0 -0.13322676296E-14  0.17763568394E-14  0.71054273576E-14  0.91188000000E+02  0.91188000000E+02 0.  0.
    9900012    2    3    3    0    0  0.21289480039E+01  0.48978608095E+01  0.36431594763E+02  0.54367047309E+02  0.39999915950E+02 0.  0.
         12    1    3    3    0    0 -0.21289480039E+01 -0.48978608095E+01 -0.36431594763E+02  0.36820952691E+02  0.00000000000E+00 0. -1.
         11    1    4    4    0    0 -0.70258205076E+01  0.87858939075E+01  0.13808283095E+02  0.17810748661E+02  0.51100000000E-03 0. -1.
        -11    1    4    4    0    0  0.17576629731E+02  0.27868779604E+01  0.12132911975E+02  0.21538620074E+02  0.51100000000E-03 0.  1.
         12    1    4    4    0    0 -0.84218612191E+01 -0.66749110584E+01  0.10490399693E+02  0.15017678574E+02  0.00000000000E+00 0. -1.
</event>
<event>
 8    1  0.1254059E-006  0.9118800E+02  0.7816164E-02  0.1184000E+00
        -11   -1    0    0    0    0  0.00000000000E+00  0.00000000000E+00  0.45593999997E+02  0.45594000000E+02  0.51100000000E-03 0. -1.
         11   -1    0    0    0    0 -0.00000000000E+00 -0.00000000000E+00 -0.45593999997E+02  0.45594000000E+02  0.51100000000E-03 0.  1.
         23    2    1    2    0    0 -0.17763568394E-14  0.71054273576E-14  0.00000000000E+00  0.91188000000E+02  0.91188000000E+02 0.  0.
    9900012    2    3    3    0    0  0.73112084721E+01 -0.32308083248E+02 -0.16078375724E+02  0.54367079609E+02  0.39999989586E+02 0.  0.
         12    1    3    3    0    0 -0.73112084721E+01  0.32308083248E+02  0.16078375724E+02  0.36820920391E+02  0.00000000000E+00 0. -1.
         11    1    4    4    0    0 -0.48199835749E+01 -0.29093925371E+02 -0.84897677769E+01  0.30688188157E+02  0.51100000000E-03 0. -1.
        -11    1    4    4    0    0 -0.31628683316E+01 -0.55882661900E+01  0.45263868793E-01  0.64214098275E+01  0.51100000000E-03 0.  1.
        -12    1    4    4    0    0  0.15294060379E+02  0.23741083132E+01 -0.76338718158E+01  0.17257481625E+02  0.00000000000E+00 0.  1.
</event>
<event>
 8    1  0.1254059E-006  0.9118800E+02  0.7816164E-02  0.1184000E+00
        -11   -1    0    0    0    0  0.00000000000E+00  0.00000000000E+00  0.45593999997E+02  0.45594000000E+02  0.51100000000E-03 0. -1.
         11   -1    0    0    0    0 -0.00000000000E+00 -0.00000000000E+00 -0.45593999997E+02  0.45594000000E+02  0.51100000000E-03 0.  1.
         23    2    1    2    0    0  0.35527136788E-14 -0.35527136788E-14  0.00000000000E+00  0.91188000000E+02  0.91188000000E+02 0.  0.
    9900012    2    3    3    0    0 -0.16273788037E+02  0.28597194529E+02 -0.16527095754E+02  0.54367073802E+02  0.39999976346E+02 0.  0.
         12    1    3    3    0    0  0.16273788037E+02 -0.28597194529E+02  0.16527095754E+02  0.36820926198E+02  0.00000000000E+00 0. -1.
         11    1    4    4    0    0  0.71591790575E+01  0.16694841273E+02  0.61821394717E+01  0.19188288579E+02  0.51100000000E-03 0. -1.
        -11    1    4    4    0    0 -0.21397561578E+02  0.11635188453E+02 -0.18817317352E+02  0.30778640068E+02  0.51100000000E-03 0.  1.
         12    1    4    4    0    0 -0.20354055166E+01  0.26716480347E+00 -0.38919178736E+01  0.44001451549E+01  0.00000000000E+00 0. -1.
</event>
<event>
 8    1  0.1254059E-006  0.9118800E+02  0.7816164E-02  0.1184000E+00
        -11   -1    0    0    0    0  0.00000000000E+00  0.00000000000E+00  0.45593999997E+02  0.45594000000E+02  0.51100000000E-03 0.  1.
         11   -1    0    0    0    0 -0.00000000000E+00 -0.00000000000E+00 -0.45593999997E+02  0.45594000000E+02  0.51100000000E-03 0. -1.
         23    2    1    2    0    0  0.17763568394E-14  0.00000000000E+00  0.00000000000E+00  0.91188000000E+02  0.91188000000E+02 0.  0.
    9900012    2    3    3    0    0  0.43320554211E+01 -0.34166105977E+02 -0.13026729162E+02  0.54367011767E+02  0.39999834925E+02 0.  0.
        -12    1    3    3    0    0 -0.43320554211E+01  0.34166105977E+02  0.13026729162E+02  0.36820988233E+02  0.00000000000E+00 0.  1.
         11    1    4    4    0    0  0.20444193219E+02 -0.23541027373E+02 -0.55568659410E+01  0.31670550445E+02  0.51100000000E-03 0. -1.
        -11    1    4    4    0    0 -0.56350766310E+01  0.55623943327E+00 -0.41438369198E+01  0.70167567738E+01  0.51100000000E-03 0.  1.
         12    1    4    4    0    0 -0.10477061167E+02 -0.11181318037E+02 -0.33260263009E+01  0.15679704548E+02  0.00000000000E+00 0. -1.
</event>
<event>
 8    1  0.1254059E-006  0.9118800E+02  0.7816164E-02  0.1184000E+00
        -11   -1    0    0    0    0  0.00000000000E+00  0.00000000000E+00  0.45593999997E+02  0.45594000000E+02  0.51100000000E-03 0.  1.
         11   -1    0    0    0    0 -0.00000000000E+00 -0.00000000000E+00 -0.45593999997E+02  0.45594000000E+02  0.51100000000E-03 0. -1.
         23    2    1    2    0    0 -0.17763568394E-14  0.35527136788E-14  0.00000000000E+00  0.91188000000E+02  0.91188000000E+02 0.  0.
    9900012    2    3    3    0    0 -0.13557620629E+02  0.19380925950E+02 -0.28219680264E+02  0.54367085807E+02  0.40000003715E+02 0.  0.
        -12    1    3    3    0    0  0.13557620629E+02 -0.19380925950E+02  0.28219680264E+02  0.36820914193E+02  0.00000000000E+00 0.  1.
         11    1    4    4    0    0 -0.96700569033E+01  0.27768928375E+02 -0.17303612063E+02  0.34118006599E+02  0.51100000000E-03 0. -1.
        -11    1    4    4    0    0  0.23982225654E+01 -0.91834358146E+01 -0.10101530692E+02  0.13861020432E+02  0.51100000000E-03 0.  1.
        -12    1    4    4    0    0 -0.62857862911E+01  0.79543339033E+00 -0.81453750847E+00  0.63880587762E+01  0.00000000000E+00 0.  1.
</event>
<event>
 8    1  0.1254059E-006  0.9118800E+02  0.7816164E-02  0.1184000E+00
        -11   -1    0    0    0    0  0.00000000000E+00  0.00000000000E+00  0.45593999997E+02  0.45594000000E+02  0.51100000000E-03 0. -1.
         11   -1    0    0    0    0 -0.00000000000E+00 -0.00000000000E+00 -0.45593999997E+02  0.45594000000E+02  0.51100000000E-03 0.  1.
         23    2    1    2    0    0  0.00000000000E+00  0.88817841970E-15  0.00000000000E+00  0.91188000000E+02  0.91188000000E+02 0.  0.
    9900012    2    3    3    0    0  0.68652612036E+01  0.43517803375E+01  0.35912538829E+02  0.54367078656E+02  0.39999987411E+02 0.  0.
        -12    1    3    3    0    0 -0.68652612036E+01 -0.43517803375E+01 -0.35912538829E+02  0.36820921344E+02  0.00000000000E+00 0.  1.
         11    1    4    4    0    0  0.69856946197E+01  0.33688336737E+01  0.25522411555E+02  0.26674753260E+02  0.51100000000E-03 0.  1.
        -11    1    4    4    0    0 -0.10061061888E+02  0.80277725143E+01  0.23213411351E+01  0.13078941960E+02  0.51100000000E-03 0. -1.
        -12    1    4    4    0    0  0.99406284724E+01 -0.70448258504E+01  0.80687861389E+01  0.14613383436E+02  0.00000000000E+00 0.  1.
</event>
<event>
 8    1  0.1254059E-006  0.9118800E+02  0.7816164E-02  0.1184000E+00
        -11   -1    0    0    0    0  0.00000000000E+00  0.00000000000E+00  0.45593999997E+02  0.45594000000E+02  0.51100000000E-03 0. -1.
         11   -1    0    0    0    0 -0.00000000000E+00 -0.00000000000E+00 -0.45593999997E+02  0.45594000000E+02  0.51100000000E-03 0.  1.
         23    2    1    2    0    0  0.00000000000E+00 -0.71054273576E-14  0.00000000000E+00  0.91188000000E+02  0.91188000000E+02 0.  0.
    9900012    2    3    3    0    0 -0.26551226531E+02  0.23349194005E+02 -0.10277518063E+02  0.54367083818E+02  0.39999999179E+02 0.  0.
         12    1    3    3    0    0  0.26551226531E+02 -0.23349194005E+02  0.10277518063E+02  0.36820916182E+02  0.00000000000E+00 0. -1.
         11    1    4    4    0    0  0.35230384407E+01 -0.21155935854E+01  0.55968619822E+01  0.69435149875E+01  0.51100000000E-03 0. -1.
        -11    1    4    4    0    0 -0.10815379854E+02 -0.16768502684E+01 -0.10625451555E+01  0.10996057051E+02  0.51100000000E-03 0.  1.
        -12    1    4    4    0    0 -0.19258885118E+02  0.27141637858E+02 -0.14811834889E+02  0.36427511779E+02  0.00000000000E+00 0.  1.
</event>
<event>
 8    1  0.1254059E-006  0.9118800E+02  0.7816164E-02  0.1184000E+00
        -11   -1    0    0    0    0  0.00000000000E+00  0.00000000000E+00  0.45593999997E+02  0.45594000000E+02  0.51100000000E-03 0.  1.
         11   -1    0    0    0    0 -0.00000000000E+00 -0.00000000000E+00 -0.45593999997E+02  0.45594000000E+02  0.51100000000E-03 0. -1.
         23    2    1    2    0    0  0.00000000000E+00  0.00000000000E+00  0.00000000000E+00  0.91188000000E+02  0.91188000000E+02 0.  0.
    9900012    2    3    3    0    0  0.25278992433E+02 -0.89826695300E+01  0.25220309161E+02  0.54367084687E+02  0.40000001161E+02 0.  0.
         12    1    3    3    0    0 -0.25278992433E+02  0.89826695300E+01 -0.25220309161E+02  0.36820915313E+02  0.00000000000E+00 0. -1.
         11    1    4    4    0    0 -0.21775345553E+01  0.88544829031E+01  0.17748270891E+02  0.19953562191E+02  0.51100000000E-03 0. -1.
        -11    1    4    4    0    0  0.42904703267E+01  0.95701795537E-01  0.11547069001E+01  0.44441695225E+01  0.51100000000E-03 0.  1.
         12    1    4    4    0    0  0.23166056662E+02 -0.17932854229E+02  0.63173313696E+01  0.29969352974E+02  0.00000000000E+00 0. -1.
</event>
<event>
 8    1  0.1254059E-006  0.9118800E+02  0.7816164E-02  0.1184000E+00
        -11   -1    0    0    0    0  0.00000000000E+00  0.00000000000E+00  0.45593999997E+02  0.45594000000E+02  0.51100000000E-03 0. -1.
         11   -1    0    0    0    0 -0.00000000000E+00 -0.00000000000E+00 -0.45593999997E+02  0.45594000000E+02  0.51100000000E-03 0.  1.
         23    2    1    2    0    0  0.00000000000E+00  0.35527136788E-14  0.00000000000E+00  0.91188000000E+02  0.91188000000E+02 0.  0.
    9900012    2    3    3    0    0  0.98884996490E+01  0.27060463485E+02  0.22928761462E+02  0.54367092740E+02  0.40000019518E+02 0.  0.
        -12    1    3    3    0    0 -0.98884996490E+01 -0.27060463485E+02 -0.22928761462E+02  0.36820907260E+02  0.00000000000E+00 0.  1.
         11    1    4    4    0    0  0.39168785894E+01 -0.34459720134E+01  0.63561310260E+01  0.82229594965E+01  0.51100000000E-03 0.  1.
        -11    1    4    4    0    0 -0.93198690629E+00  0.28890779923E+02  0.22715297858E+02  0.36763167997E+02  0.51100000000E-03 0. -1.
        -12    1    4    4    0    0  0.69036079659E+01  0.16156555755E+01 -0.61426674224E+01  0.93809652461E+01  0.00000000000E+00 0.  1.
</event>
<event>
 8    1  0.1254059E-006  0.9118800E+02  0.7816164E-02  0.1184000E+00
        -11   -1    0    0    0    0  0.00000000000E+00  0.00000000000E+00  0.45593999997E+02  0.45594000000E+02  0.51100000000E-03 0. -1.
         11   -1    0    0    0    0 -0.00000000000E+00 -0.00000000000E+00 -0.45593999997E+02  0.45594000000E+02  0.51100000000E-03 0.  1.
         23    2    1    2    0    0 -0.35527136788E-14  0.17763568394E-14  0.00000000000E+00  0.91188000000E+02  0.91188000000E+02 0.  0.
    9900012    2    3    3    0    0  0.26168041882E+02 -0.44412165958E+01 -0.25520376001E+02  0.54367076437E+02  0.39999982354E+02 0.  0.
         12    1    3    3    0    0 -0.26168041882E+02  0.44412165958E+01  0.25520376001E+02  0.36820923563E+02  0.00000000000E+00 0. -1.
         11    1    4    4    0    0  0.22906606848E+02  0.22140005741E+01 -0.23960019784E+01  0.23137745386E+02  0.51100000000E-03 0. -1.
        -11    1    4    4    0    0  0.29989129190E+01 -0.13071663726E+02 -0.20018977796E+02  0.24096085647E+02  0.51100000000E-03 0.  1.
        -12    1    4    4    0    0  0.26252211577E+00  0.64164465563E+01 -0.31053962264E+01  0.71332454040E+01  0.00000000000E+00 0.  1.
</event>
<event>
 8    1  0.1254059E-006  0.9118800E+02  0.7816164E-02  0.1184000E+00
        -11   -1    0    0    0    0  0.00000000000E+00  0.00000000000E+00  0.45593999997E+02  0.45594000000E+02  0.51100000000E-03 0. -1.
         11   -1    0    0    0    0 -0.00000000000E+00 -0.00000000000E+00 -0.45593999997E+02  0.45594000000E+02  0.51100000000E-03 0.  1.
         23    2    1    2    0    0  0.00000000000E+00  0.00000000000E+00  0.00000000000E+00  0.91188000000E+02  0.91188000000E+02 0.  0.
    9900012    2    3    3    0    0  0.84963506830E+01  0.16528706352E+02 -0.31786688069E+02  0.54367086825E+02  0.40000006036E+02 0.  0.
         12    1    3    3    0    0 -0.84963506830E+01 -0.16528706352E+02  0.31786688069E+02  0.36820913175E+02  0.00000000000E+00 0. -1.
         11    1    4    4    0    0  0.76692254945E+01 -0.92311715660E+01 -0.98465756055E+01  0.15523743092E+02  0.51100000000E-03 0. -1.
        -11    1    4    4    0    0 -0.25291998014E+01  0.22595018429E+02 -0.24616716035E+02  0.33509915220E+02  0.51100000000E-03 0.  1.
         12    1    4    4    0    0  0.33563249900E+01  0.31648594893E+01  0.26766035719E+01  0.53334285133E+01  0.00000000000E+00 0. -1.
</event>
<event>
 8    1  0.1254059E-006  0.9118800E+02  0.7816164E-02  0.1184000E+00
        -11   -1    0    0    0    0  0.00000000000E+00  0.00000000000E+00  0.45593999997E+02  0.45594000000E+02  0.51100000000E-03 0.  1.
         11   -1    0    0    0    0 -0.00000000000E+00 -0.00000000000E+00 -0.45593999997E+02  0.45594000000E+02  0.51100000000E-03 0. -1.
         23    2    1    2    0    0  0.00000000000E+00  0.00000000000E+00  0.00000000000E+00  0.91188000000E+02  0.91188000000E+02 0.  0.
    9900012    2    3    3    0    0 -0.71076535374E+01 -0.98637174505E+01  0.34755836183E+02  0.54367084618E+02  0.40000001004E+02 0.  0.
         12    1    3    3    0    0  0.71076535374E+01  0.98637174505E+01 -0.34755836183E+02  0.36820915382E+02  0.00000000000E+00 0. -1.
         11    1    4    4    0    0 -0.38703878817E+01  0.28037556287E+01  0.15699886414E+01  0.50304883039E+01  0.51100000000E-03 0. -1.
        -11    1    4    4    0    0 -0.11491662902E+02  0.79653594616E+01  0.97914455529E+01  0.17069788338E+02  0.51100000000E-03 0.  1.
         12    1    4    4    0    0  0.82543972467E+01 -0.20632832541E+02  0.23394401989E+02  0.32266807977E+02  0.00000000000E+00 0. -1.
</event>
<event>
 8    1  0.1254059E-006  0.9118800E+02  0.7816164E-02  0.1184000E+00
        -11   -1    0    0    0    0  0.00000000000E+00  0.00000000000E+00  0.45593999997E+02  0.45594000000E+02  0.51100000000E-03 0.  1.
         11   -1    0    0    0    0 -0.00000000000E+00 -0.00000000000E+00 -0.45593999997E+02  0.45594000000E+02  0.51100000000E-03 0. -1.
         23    2    1    2    0    0  0.00000000000E+00 -0.71054273576E-14 -0.88817841970E-15  0.91188000000E+02  0.91188000000E+02 0.  0.
    9900012    2    3    3    0    0 -0.16546023772E+02 -0.32716849174E+02  0.34081512236E+01  0.54367100808E+02  0.40000037912E+02 0.  0.
        -12    1    3    3    0    0  0.16546023772E+02  0.32716849174E+02 -0.34081512236E+01  0.36820899192E+02  0.00000000000E+00 0.  1.
         11    1    4    4    0    0 -0.14745469407E+02 -0.16236352154E+02 -0.83261542276E+01  0.23460026509E+02  0.51100000000E-03 0. -1.
        -11    1    4    4    0    0 -0.12185366760E+02 -0.51819681571E+01  0.57347854468E+01  0.14429959163E+02  0.51100000000E-03 0.  1.
         12    1    4    4    0    0  0.10384812395E+02 -0.11298528863E+02  0.59995200044E+01  0.16477115137E+02  0.00000000000E+00 0. -1.
</event>
<event>
 8    1  0.1254059E-006  0.9118800E+02  0.7816164E-02  0.1184000E+00
        -11   -1    0    0    0    0  0.00000000000E+00  0.00000000000E+00  0.45593999997E+02  0.45594000000E+02  0.51100000000E-03 0.  1.
         11   -1    0    0    0    0 -0.00000000000E+00 -0.00000000000E+00 -0.45593999997E+02  0.45594000000E+02  0.51100000000E-03 0. -1.
         23    2    1    2    0    0  0.00000000000E+00  0.35527136788E-14  0.00000000000E+00  0.91188000000E+02  0.91188000000E+02 0.  0.
    9900012    2    3    3    0    0 -0.19100110047E+02  0.19451233439E+02  0.24751047204E+02  0.54367095288E+02  0.40000025328E+02 0.  0.
         12    1    3    3    0    0  0.19100110047E+02 -0.19451233439E+02 -0.24751047204E+02  0.36820904712E+02  0.00000000000E+00 0. -1.
         11    1    4    4    0    0 -0.14677728380E+01  0.53794759931E+01  0.15382453868E+02  0.16361937732E+02  0.51100000000E-03 0.  1.
        -11    1    4    4    0    0  0.36326302293E+01  0.13712912305E+02 -0.12365639669E+01  0.14239700031E+02  0.51100000000E-03 0. -1.
         12    1    4    4    0    0 -0.21264967438E+02  0.35884514130E+00  0.10605157303E+02  0.23765457525E+02  0.00000000000E+00 0. -1.
</event>
<event>
 8    1  0.1254059E-006  0.9118800E+02  0.7816164E-02  0.1184000E+00
        -11   -1    0    0    0    0  0.00000000000E+00  0.00000000000E+00  0.45593999997E+02  0.45594000000E+02  0.51100000000E-03 0.  1.
         11   -1    0    0    0    0 -0.00000000000E+00 -0.00000000000E+00 -0.45593999997E+02  0.45594000000E+02  0.51100000000E-03 0. -1.
         23    2    1    2    0    0  0.00000000000E+00  0.00000000000E+00  0.00000000000E+00  0.91188000000E+02  0.91188000000E+02 0.  0.
    9900012    2    3    3    0    0  0.26226163134E+02 -0.12277818788E+02  0.22742556610E+02  0.54367077306E+02  0.39999984334E+02 0.  0.
         12    1    3    3    0    0 -0.26226163134E+02  0.12277818788E+02 -0.22742556610E+02  0.36820922694E+02  0.00000000000E+00 0. -1.
         11    1    4    4    0    0  0.20470084867E+01 -0.84681288823E+01  0.59188608272E+01  0.10532443414E+02  0.51100000000E-03 0. -1.
        -11    1    4    4    0    0  0.21635029456E+02  0.69870749011E+01  0.21961442042E+02  0.31610103639E+02  0.51100000000E-03 0.  1.
        -12    1    4    4    0    0  0.25441251904E+01 -0.10796764806E+02 -0.51377462593E+01  0.12224530252E+02  0.00000000000E+00 0.  1.
</event>
<event>
 8    1  0.1254059E-006  0.9118800E+02  0.7816164E-02  0.1184000E+00
        -11   -1    0    0    0    0  0.00000000000E+00  0.00000000000E+00  0.45593999997E+02  0.45594000000E+02  0.51100000000E-03 0. -1.
         11   -1    0    0    0    0 -0.00000000000E+00 -0.00000000000E+00 -0.45593999997E+02  0.45594000000E+02  0.51100000000E-03 0.  1.
         23    2    1    2    0    0 -0.35527136788E-14  0.35527136788E-14  0.35527136788E-14  0.91188000000E+02  0.91188000000E+02 0.  0.
    9900012    2    3    3    0    0 -0.28139134807E+02 -0.16758901061E+02 -0.16825824308E+02  0.54367081542E+02  0.39999993992E+02 0.  0.
         12    1    3    3    0    0  0.28139134807E+02  0.16758901061E+02  0.16825824308E+02  0.36820918458E+02  0.00000000000E+00 0. -1.
         11    1    4    4    0    0 -0.18301621231E+02 -0.10773533334E+02  0.15273636543E+01  0.21292045467E+02  0.51100000000E-03 0. -1.
        -11    1    4    4    0    0 -0.63843902539E+01  0.20155304313E+00  0.53521555494E+01  0.83334645754E+01  0.51100000000E-03 0.  1.
        -12    1    4    4    0    0 -0.34531233220E+01 -0.61869207702E+01 -0.23705343511E+02  0.24741571500E+02  0.00000000000E+00 0.  1.
</event>
<event>
 8    1  0.1254059E-006  0.9118800E+02  0.7816164E-02  0.1184000E+00
        -11   -1    0    0    0    0  0.00000000000E+00  0.00000000000E+00  0.45593999997E+02  0.45594000000E+02  0.51100000000E-03 0. -1.
         11   -1    0    0    0    0 -0.00000000000E+00 -0.00000000000E+00 -0.45593999997E+02  0.45594000000E+02  0.51100000000E-03 0.  1.
         23    2    1    2    0    0 -0.88817841970E-15  0.00000000000E+00  0.00000000000E+00  0.91188000000E+02  0.91188000000E+02 0.  0.
    9900012    2    3    3    0    0  0.54992088238E+01 -0.12894961057E+02  0.34047883573E+02  0.54367086185E+02  0.40000004576E+02 0.  0.
        -12    1    3    3    0    0 -0.54992088238E+01  0.12894961057E+02 -0.34047883573E+02  0.36820913815E+02  0.00000000000E+00 0.  1.
         11    1    4    4    0    0 -0.19962853864E+01 -0.98199575728E+01  0.25331286766E+02  0.27241343791E+02  0.51100000000E-03 0. -1.
        -11    1    4    4    0    0 -0.21607964289E+01 -0.12156021773E+02  0.31028358628E+01  0.12730494775E+02  0.51100000000E-03 0.  1.
         12    1    4    4    0    0  0.96562906391E+01  0.90810182891E+01  0.56137609443E+01  0.14395247619E+02  0.00000000000E+00 0. -1.
</event>
<event>
 8    1  0.1254059E-006  0.9118800E+02  0.7816164E-02  0.1184000E+00
        -11   -1    0    0    0    0  0.00000000000E+00  0.00000000000E+00  0.45593999997E+02  0.45594000000E+02  0.51100000000E-03 0.  1.
         11   -1    0    0    0    0 -0.00000000000E+00 -0.00000000000E+00 -0.45593999997E+02  0.45594000000E+02  0.51100000000E-03 0. -1.
         23    2    1    2    0    0  0.63837823916E-15  0.00000000000E+00  0.00000000000E+00  0.91188000000E+02  0.91188000000E+02 0.  0.
    9900012    2    3    3    0    0  0.94771829558E-01 -0.32385377345E+02  0.17520307296E+02  0.54367043804E+02  0.39999907959E+02 0.  0.
         12    1    3    3    0    0 -0.94771829558E-01  0.32385377345E+02 -0.17520307296E+02  0.36820956196E+02  0.00000000000E+00 0. -1.
         11    1    4    4    0    0 -0.69009713066E+01 -0.12776705191E+02  0.15044998886E+02  0.20909796562E+02  0.51100000000E-03 0. -1.
        -11    1    4    4    0    0  0.47359988177E+01 -0.62362120837E+01  0.13748156508E+02  0.15821878321E+02  0.51100000000E-03 0.  1.
         12    1    4    4    0    0  0.22597443185E+01 -0.13372460070E+02 -0.11272848099E+02  0.17635368921E+02  0.00000000000E+00 0. -1.
</event>
<event>
 8    1  0.1254059E-006  0.9118800E+02  0.7816164E-02  0.1184000E+00
        -11   -1    0    0    0    0  0.00000000000E+00  0.00000000000E+00  0.45593999997E+02  0.45594000000E+02  0.51100000000E-03 0. -1.
         11   -1    0    0    0    0 -0.00000000000E+00 -0.00000000000E+00 -0.45593999997E+02  0.45594000000E+02  0.51100000000E-03 0.  1.
         23    2    1    2    0    0  0.00000000000E+00  0.71054273576E-14 -0.17763568394E-14  0.91188000000E+02  0.91188000000E+02 0.  0.
    9900012    2    3    3    0    0  0.14757547427E+02 -0.33164022019E+02  0.61761742381E+01  0.54367045493E+02  0.39999911811E+02 0.  0.
         12    1    3    3    0    0 -0.14757547427E+02  0.33164022019E+02 -0.61761742381E+01  0.36820954507E+02  0.00000000000E+00 0. -1.
         11    1    4    4    0    0  0.51198037257E+01 -0.15799773962E+01  0.81690357707E+01  0.97694352163E+01  0.51100000000E-03 0. -1.
        -11    1    4    4    0    0  0.13572716924E+02 -0.25136177854E+01 -0.58837233098E+01  0.15005169753E+02  0.51100000000E-03 0.  1.
        -12    1    4    4    0    0 -0.39349732230E+01 -0.29070426838E+02  0.38908617773E+01  0.29592440524E+02  0.00000000000E+00 0.  1.
</event>
<event>
 8    1  0.1254059E-006  0.9118800E+02  0.7816164E-02  0.1184000E+00
        -11   -1    0    0    0    0  0.00000000000E+00  0.00000000000E+00  0.45593999997E+02  0.45594000000E+02  0.51100000000E-03 0.  1.
         11   -1    0    0    0    0 -0.00000000000E+00 -0.00000000000E+00 -0.45593999997E+02  0.45594000000E+02  0.51100000000E-03 0. -1.
         23    2    1    2    0    0  0.00000000000E+00  0.00000000000E+00  0.00000000000E+00  0.91188000000E+02  0.91188000000E+02 0.  0.
    9900012    2    3    3    0    0  0.18819569715E+02 -0.29639529401E+02 -0.11095100160E+02  0.54367093507E+02  0.40000021268E+02 0.  0.
        -12    1    3    3    0    0 -0.18819569715E+02  0.29639529401E+02  0.11095100160E+02  0.36820906493E+02  0.00000000000E+00 0.  1.
         11    1    4    4    0    0  0.27082049341E+00 -0.13990544276E+02 -0.39010589973E+01  0.14526766139E+02  0.51100000000E-03 0. -1.
        -11    1    4    4    0    0  0.15311546697E+02 -0.21263553481E+02 -0.14602686857E+02  0.29997010394E+02  0.51100000000E-03 0.  1.
        -12    1    4    4    0    0  0.32372025251E+01  0.56145683562E+01  0.74086456950E+01  0.98433169739E+01  0.00000000000E+00 0.  1.
</event>
<event>
 8    1  0.1254059E-006  0.9118800E+02  0.7816164E-02  0.1184000E+00
        -11   -1    0    0    0    0  0.00000000000E+00  0.00000000000E+00  0.45593999997E+02  0.45594000000E+02  0.51100000000E-03 0.  1.
         11   -1    0    0    0    0 -0.00000000000E+00 -0.00000000000E+00 -0.45593999997E+02  0.45594000000E+02  0.51100000000E-03 0. -1.
         23    2    1    2    0    0  0.17763568394E-14  0.00000000000E+00 -0.88817841970E-15  0.91188000000E+02  0.91188000000E+02 0.  0.
    9900012    2    3    3    0    0  0.14934205314E+02  0.33572199842E+02  0.23784009089E+01  0.54367083641E+02  0.39999998777E+02 0.  0.
        -12    1    3    3    0    0 -0.14934205314E+02 -0.33572199842E+02 -0.23784009089E+01  0.36820916359E+02  0.00000000000E+00 0.  1.
         11    1    4    4    0    0  0.76399870860E+00  0.20815312905E+02 -0.37167077617E+01  0.21158328436E+02  0.51100000000E-03 0. -1.
        -11    1    4    4    0    0  0.19966452400E+02  0.10798040244E+02  0.11133759245E+02  0.25282750834E+02  0.51100000000E-03 0.  1.
         12    1    4    4    0    0 -0.57962457947E+01  0.19588466932E+01 -0.50386505742E+01  0.79260043710E+01  0.00000000000E+00 0. -1.
</event>
<event>
 8    1  0.1254059E-006  0.9118800E+02  0.7816164E-02  0.1184000E+00
        -11   -1    0    0    0    0  0.00000000000E+00  0.00000000000E+00  0.45593999997E+02  0.45594000000E+02  0.51100000000E-03 0. -1.
         11   -1    0    0    0    0 -0.00000000000E+00 -0.00000000000E+00 -0.45593999997E+02  0.45594000000E+02  0.51100000000E-03 0.  1.
         23    2    1    2    0    0  0.00000000000E+00  0.00000000000E+00 -0.17763568394E-14  0.91188000000E+02  0.91188000000E+02 0.  0.
    9900012    2    3    3    0    0  0.34638793670E+02 -0.53456143416E+01  0.11285283040E+02  0.54367092449E+02  0.40000018855E+02 0.  0.
         12    1    3    3    0    0 -0.34638793670E+02  0.53456143416E+01 -0.11285283040E+02  0.36820907551E+02  0.00000000000E+00 0. -1.
         11    1    4    4    0    0  0.14690928773E+02  0.71759644836E+01 -0.24236648494E+01  0.16528520988E+02  0.51100000000E-03 0. -1.
        -11    1    4    4    0    0  0.19912263567E+02 -0.86999513124E+01 -0.18581768531E+01  0.21809177304E+02  0.51100000000E-03 0.  1.
        -12    1    4    4    0    0  0.35601330143E-01 -0.38216275128E+01  0.15567124742E+02  0.16029394157E+02  0.00000000000E+00 0.  1.
</event>
<event>
 8    1  0.1254059E-006  0.9118800E+02  0.7816164E-02  0.1184000E+00
        -11   -1    0    0    0    0  0.00000000000E+00  0.00000000000E+00  0.45593999997E+02  0.45594000000E+02  0.51100000000E-03 0.  1.
         11   -1    0    0    0    0 -0.00000000000E+00 -0.00000000000E+00 -0.45593999997E+02  0.45594000000E+02  0.51100000000E-03 0. -1.
         23    2    1    2    0    0  0.00000000000E+00  0.22204460493E-14  0.00000000000E+00  0.91188000000E+02  0.91188000000E+02 0.  0.
    9900012    2    3    3    0    0 -0.73322597187E+01  0.39381185107E+01 -0.35867931325E+02  0.54367091436E+02  0.40000016546E+02 0.  0.
        -12    1    3    3    0    0  0.73322597187E+01 -0.39381185107E+01  0.35867931325E+02  0.36820908564E+02  0.00000000000E+00 0.  1.
         11    1    4    4    0    0 -0.14411506183E+01  0.12007698582E+02 -0.87404896729E+01  0.14921725782E+02  0.51100000000E-03 0. -1.
        -11    1    4    4    0    0 -0.13993343060E+02  0.32511922643E+01 -0.10703107505E+02  0.17914809841E+02  0.51100000000E-03 0.  1.
         12    1    4    4    0    0  0.81022339594E+01 -0.11320772336E+02 -0.16424334147E+02  0.21530555812E+02  0.00000000000E+00 0. -1.
</event>
<event>
 8    1  0.1254059E-006  0.9118800E+02  0.7816164E-02  0.1184000E+00
        -11   -1    0    0    0    0  0.00000000000E+00  0.00000000000E+00  0.45593999997E+02  0.45594000000E+02  0.51100000000E-03 0.  1.
         11   -1    0    0    0    0 -0.00000000000E+00 -0.00000000000E+00 -0.45593999997E+02  0.45594000000E+02  0.51100000000E-03 0. -1.
         23    2    1    2    0    0  0.00000000000E+00  0.00000000000E+00 -0.17763568394E-14  0.91188000000E+02  0.91188000000E+02 0.  0.
    9900012    2    3    3    0    0 -0.35878718382E+02 -0.49611202976E+01  0.66245459645E+01  0.54367085337E+02  0.40000002643E+02 0.  0.
         12    1    3    3    0    0  0.35878718382E+02  0.49611202976E+01 -0.66245459645E+01  0.36820914663E+02  0.00000000000E+00 0. -1.
         11    1    4    4    0    0 -0.15760000116E+02 -0.18186646196E+01  0.12892819600E+02  0.20442845745E+02  0.51100000000E-03 0. -1.
        -11    1    4    4    0    0 -0.79277085456E+01 -0.99930024728E+01  0.70828478312E+01  0.14590249993E+02  0.51100000000E-03 0.  1.
         12    1    4    4    0    0 -0.12191009721E+02  0.68505467948E+01 -0.13351121466E+02  0.19333989599E+02  0.00000000000E+00 0. -1.
</event>
<event>
 8    1  0.1254059E-006  0.9118800E+02  0.7816164E-02  0.1184000E+00
        -11   -1    0    0    0    0  0.00000000000E+00  0.00000000000E+00  0.45593999997E+02  0.45594000000E+02  0.51100000000E-03 0.  1.
         11   -1    0    0    0    0 -0.00000000000E+00 -0.00000000000E+00 -0.45593999997E+02  0.45594000000E+02  0.51100000000E-03 0. -1.
         23    2    1    2    0    0  0.00000000000E+00 -0.17763568394E-14 -0.35527136788E-14  0.91188000000E+02  0.91188000000E+02 0.  0.
    9900012    2    3    3    0    0 -0.17608609678E+02 -0.15122770146E+02  0.28583509735E+02  0.54367104568E+02  0.40000046483E+02 0.  0.
         12    1    3    3    0    0  0.17608609678E+02  0.15122770146E+02 -0.28583509735E+02  0.36820895432E+02  0.00000000000E+00 0. -1.
         11    1    4    4    0    0  0.21500376868E+01 -0.79657525636E+01  0.45622786719E+01  0.94281632835E+01  0.51100000000E-03 0. -1.
        -11    1    4    4    0    0 -0.58202334901E+01 -0.93810353066E+01  0.28146138663E+02  0.30233823165E+02  0.51100000000E-03 0.  1.
         12    1    4    4    0    0 -0.13938413875E+02  0.22240177247E+01 -0.41249075996E+01  0.14705118119E+02  0.00000000000E+00 0. -1.
</event>
<event>
 8    1  0.1254059E-006  0.9118800E+02  0.7816164E-02  0.1184000E+00
        -11   -1    0    0    0    0  0.00000000000E+00  0.00000000000E+00  0.45593999997E+02  0.45594000000E+02  0.51100000000E-03 0. -1.
         11   -1    0    0    0    0 -0.00000000000E+00 -0.00000000000E+00 -0.45593999997E+02  0.45594000000E+02  0.51100000000E-03 0.  1.
         23    2    1    2    0    0  0.00000000000E+00 -0.35527136788E-14  0.35527136788E-14  0.91188000000E+02  0.91188000000E+02 0.  0.
    9900012    2    3    3    0    0  0.26918339350E+02  0.21648641527E+02 -0.12748314774E+02  0.54367079277E+02  0.39999988827E+02 0.  0.
         12    1    3    3    0    0 -0.26918339350E+02 -0.21648641527E+02  0.12748314774E+02  0.36820920723E+02  0.00000000000E+00 0. -1.
         11    1    4    4    0    0  0.61575035076E+01  0.53659282209E+01 -0.19172750569E+02  0.20839923219E+02  0.51100000000E-03 0. -1.
        -11    1    4    4    0    0 -0.25401173855E+01  0.16262336285E+01 -0.31702304602E+01  0.43757506303E+01  0.51100000000E-03 0.  1.
        -12    1    4    4    0    0  0.23300953228E+02  0.14656479678E+02  0.95946662548E+01  0.29151405428E+02  0.00000000000E+00 0.  1.
</event>
<event>
 8    1  0.1254059E-006  0.9118800E+02  0.7816164E-02  0.1184000E+00
        -11   -1    0    0    0    0  0.00000000000E+00  0.00000000000E+00  0.45593999997E+02  0.45594000000E+02  0.51100000000E-03 0.  1.
         11   -1    0    0    0    0 -0.00000000000E+00 -0.00000000000E+00 -0.45593999997E+02  0.45594000000E+02  0.51100000000E-03 0. -1.
         23    2    1    2    0    0  0.00000000000E+00  0.88817841970E-15  0.35527136788E-14  0.91188000000E+02  0.91188000000E+02 0.  0.
    9900012    2    3    3    0    0  0.17467738639E+02 -0.69455743987E+01 -0.31660954971E+02  0.54367096066E+02  0.40000027101E+02 0.  0.
        -12    1    3    3    0    0 -0.17467738639E+02  0.69455743987E+01  0.31660954971E+02  0.36820903934E+02  0.00000000000E+00 0.  1.
         11    1    4    4    0    0  0.19012732014E+02  0.25562673211E+01 -0.17304879745E+02  0.25835582914E+02  0.51100000000E-03 0. -1.
        -11    1    4    4    0    0 -0.38979165807E+01 -0.14442588832E+02 -0.16837361212E+02  0.22522851922E+02  0.51100000000E-03 0.  1.
        -12    1    4    4    0    0  0.23529232055E+01  0.49407471119E+01  0.24812859860E+01  0.60086612302E+01  0.00000000000E+00 0.  1.
</event>
<event>
 8    1  0.1254059E-006  0.9118800E+02  0.7816164E-02  0.1184000E+00
        -11   -1    0    0    0    0  0.00000000000E+00  0.00000000000E+00  0.45593999997E+02  0.45594000000E+02  0.51100000000E-03 0. -1.
         11   -1    0    0    0    0 -0.00000000000E+00 -0.00000000000E+00 -0.45593999997E+02  0.45594000000E+02  0.51100000000E-03 0.  1.
         23    2    1    2    0    0  0.35527136788E-14  0.00000000000E+00  0.00000000000E+00  0.91188000000E+02  0.91188000000E+02 0.  0.
    9900012    2    3    3    0    0  0.21139760798E+02  0.29052290959E+02 -0.80538219885E+01  0.54366957848E+02  0.39999712004E+02 0.  0.
        -12    1    3    3    0    0 -0.21139760798E+02 -0.29052290959E+02  0.80538219885E+01  0.36821042152E+02  0.00000000000E+00 0.  1.
         11    1    4    4    0    0  0.14658226959E+02  0.19534686141E+02  0.11205584696E+02  0.26870666327E+02  0.51100000000E-03 0. -1.
        -11    1    4    4    0    0  0.10268867659E+02  0.97423722463E+01 -0.95590280193E+01  0.17080353536E+02  0.51100000000E-03 0.  1.
         12    1    4    4    0    0 -0.37873338198E+01 -0.22476742826E+00 -0.97003786651E+01  0.10415937985E+02  0.00000000000E+00 0. -1.
</event>
<event>
 8    1  0.1254059E-006  0.9118800E+02  0.7816164E-02  0.1184000E+00
        -11   -1    0    0    0    0  0.00000000000E+00  0.00000000000E+00  0.45593999997E+02  0.45594000000E+02  0.51100000000E-03 0. -1.
         11   -1    0    0    0    0 -0.00000000000E+00 -0.00000000000E+00 -0.45593999997E+02  0.45594000000E+02  0.51100000000E-03 0.  1.
         23    2    1    2    0    0  0.00000000000E+00  0.17763568394E-14  0.35527136788E-14  0.91188000000E+02  0.91188000000E+02 0.  0.
    9900012    2    3    3    0    0 -0.96376096417E+01 -0.15521915653E+02 -0.31968206717E+02  0.54367087113E+02  0.40000006691E+02 0.  0.
         12    1    3    3    0    0  0.96376096417E+01  0.15521915653E+02  0.31968206717E+02  0.36820912887E+02  0.00000000000E+00 0. -1.
         11    1    4    4    0    0 -0.16454137615E+02  0.11628387012E+01 -0.13906871848E+02  0.21575261837E+02  0.51100000000E-03 0. -1.
        -11    1    4    4    0    0  0.32457841842E+01 -0.11984124023E+02 -0.22300825096E+02  0.25524128659E+02  0.51100000000E-03 0.  1.
        -12    1    4    4    0    0  0.35707437890E+01 -0.47006303313E+01  0.42394902271E+01  0.72676966161E+01  0.00000000000E+00 0.  1.
</event>
<event>
 8    1  0.1254059E-006  0.9118800E+02  0.7816164E-02  0.1184000E+00
        -11   -1    0    0    0    0  0.00000000000E+00  0.00000000000E+00  0.45593999997E+02  0.45594000000E+02  0.51100000000E-03 0.  1.
         11   -1    0    0    0    0 -0.00000000000E+00 -0.00000000000E+00 -0.45593999997E+02  0.45594000000E+02  0.51100000000E-03 0. -1.
         23    2    1    2    0    0  0.00000000000E+00 -0.35527136788E-14  0.00000000000E+00  0.91188000000E+02  0.91188000000E+02 0.  0.
    9900012    2    3    3    0    0 -0.11359654157E+02 -0.17025162492E+02 -0.30608520343E+02  0.54367089934E+02  0.40000013123E+02 0.  0.
        -12    1    3    3    0    0  0.11359654157E+02  0.17025162492E+02  0.30608520343E+02  0.36820910066E+02  0.00000000000E+00 0.  1.
         11    1    4    4    0    0 -0.14687934100E+01 -0.22092580204E+02 -0.16863113959E+02  0.27831709735E+02  0.51100000000E-03 0. -1.
        -11    1    4    4    0    0  0.59881602134E+00  0.10406795556E+02 -0.37002025189E+01  0.11061260024E+02  0.51100000000E-03 0.  1.
         12    1    4    4    0    0 -0.10489676769E+02 -0.53393778446E+01 -0.10045203866E+02  0.15474120175E+02  0.00000000000E+00 0. -1.
</event>
<event>
 8    1  0.1254059E-006  0.9118800E+02  0.7816164E-02  0.1184000E+00
        -11   -1    0    0    0    0  0.00000000000E+00  0.00000000000E+00  0.45593999997E+02  0.45594000000E+02  0.51100000000E-03 0.  1.
         11   -1    0    0    0    0 -0.00000000000E+00 -0.00000000000E+00 -0.45593999997E+02  0.45594000000E+02  0.51100000000E-03 0. -1.
         23    2    1    2    0    0 -0.35527136788E-14  0.44408920985E-15  0.00000000000E+00  0.91188000000E+02  0.91188000000E+02 0.  0.
    9900012    2    3    3    0    0 -0.29043099042E+02  0.26870554587E+01 -0.22473494255E+02  0.54367084571E+02  0.40000000896E+02 0.  0.
        -12    1    3    3    0    0  0.29043099042E+02 -0.26870554587E+01  0.22473494255E+02  0.36820915429E+02  0.00000000000E+00 0.  1.
         11    1    4    4    0    0 -0.18307543212E+01  0.39027627000E+01  0.37037709837E+01  0.56834089979E+01  0.51100000000E-03 0. -1.
        -11    1    4    4    0    0 -0.11159315368E+02 -0.30328959951E+01  0.57402005293E+01  0.12910409753E+02  0.51100000000E-03 0.  1.
         12    1    4    4    0    0 -0.16053029352E+02  0.18171887538E+01 -0.31917465768E+02  0.35773265820E+02  0.00000000000E+00 0. -1.
</event>
<event>
 8    1  0.1254059E-006  0.9118800E+02  0.7816164E-02  0.1184000E+00
        -11   -1    0    0    0    0  0.00000000000E+00  0.00000000000E+00  0.45593999997E+02  0.45594000000E+02  0.51100000000E-03 0. -1.
         11   -1    0    0    0    0 -0.00000000000E+00 -0.00000000000E+00 -0.45593999997E+02  0.45594000000E+02  0.51100000000E-03 0.  1.
         23    2    1    2    0    0  0.22204460493E-15  0.00000000000E+00  0.00000000000E+00  0.91188000000E+02  0.91188000000E+02 0.  0.
    9900012    2    3    3    0    0  0.88315954018E+00 -0.10691904290E+02  0.35223197762E+02  0.54367211731E+02  0.40000290782E+02 0.  0.
        -12    1    3    3    0    0 -0.88315954018E+00  0.10691904290E+02 -0.35223197762E+02  0.36820788269E+02  0.00000000000E+00 0.  1.
         11    1    4    4    0    0  0.10086676369E+02 -0.13770597125E+01  0.22687400286E+02  0.24866754223E+02  0.51100000000E-03 0. -1.
        -11    1    4    4    0    0  0.53459774850E+01 -0.10576396408E+02  0.76293628191E+01  0.14094212058E+02  0.51100000000E-03 0.  1.
        -12    1    4    4    0    0 -0.14549494314E+02  0.12615518300E+01  0.49064346579E+01  0.15406245450E+02  0.00000000000E+00 0.  1.
</event>
<event>
 8    1  0.1254059E-006  0.9118800E+02  0.7816164E-02  0.1184000E+00
        -11   -1    0    0    0    0  0.00000000000E+00  0.00000000000E+00  0.45593999997E+02  0.45594000000E+02  0.51100000000E-03 0.  1.
         11   -1    0    0    0    0 -0.00000000000E+00 -0.00000000000E+00 -0.45593999997E+02  0.45594000000E+02  0.51100000000E-03 0. -1.
         23    2    1    2    0    0  0.00000000000E+00  0.22204460493E-15  0.00000000000E+00  0.91188000000E+02  0.91188000000E+02 0.  0.
    9900012    2    3    3    0    0  0.56761953794E+01 -0.11574857526E+01  0.36362421496E+02  0.54367018694E+02  0.39999850716E+02 0.  0.
         12    1    3    3    0    0 -0.56761953794E+01  0.11574857526E+01 -0.36362421496E+02  0.36820981306E+02  0.00000000000E+00 0. -1.
         11    1    4    4    0    0  0.98336528682E+01  0.18414707919E+01 -0.24157557962E+01  0.10292114444E+02  0.51100000000E-03 0. -1.
        -11    1    4    4    0    0  0.56924997272E+01  0.54754179674E+00  0.29615317539E+02  0.30162416819E+02  0.51100000000E-03 0.  1.
         12    1    4    4    0    0 -0.98499572159E+01 -0.35464983412E+01  0.91628597533E+01  0.13912487430E+02  0.00000000000E+00 0. -1.
</event>
<event>
 8    1  0.1254059E-006  0.9118800E+02  0.7816164E-02  0.1184000E+00
        -11   -1    0    0    0    0  0.00000000000E+00  0.00000000000E+00  0.45593999997E+02  0.45594000000E+02  0.51100000000E-03 0.  1.
         11   -1    0    0    0    0 -0.00000000000E+00 -0.00000000000E+00 -0.45593999997E+02  0.45594000000E+02  0.51100000000E-03 0. -1.
         23    2    1    2    0    0 -0.17763568394E-14  0.22204460493E-15  0.71054273576E-14  0.91188000000E+02  0.91188000000E+02 0.  0.
    9900012    2    3    3    0    0 -0.14097716355E+02  0.57924025844E+00  0.34010272990E+02  0.54367084822E+02  0.40000001468E+02 0.  0.
         12    1    3    3    0    0  0.14097716355E+02 -0.57924025844E+00 -0.34010272990E+02  0.36820915178E+02  0.00000000000E+00 0. -1.
         11    1    4    4    0    0 -0.45597661368E+01  0.30238894258E+01  0.19259155491E+00  0.54747115221E+01  0.51100000000E-03 0. -1.
        -11    1    4    4    0    0  0.10736540662E+02  0.71194693759E+01  0.12926242145E+02  0.18249599607E+02  0.51100000000E-03 0.  1.
         12    1    4    4    0    0 -0.20274490880E+02 -0.95641185433E+01  0.20891439290E+02  0.30642773692E+02  0.00000000000E+00 0. -1.
</event>
<event>
 8    1  0.1254059E-006  0.9118800E+02  0.7816164E-02  0.1184000E+00
        -11   -1    0    0    0    0  0.00000000000E+00  0.00000000000E+00  0.45593999997E+02  0.45594000000E+02  0.51100000000E-03 0. -1.
         11   -1    0    0    0    0 -0.00000000000E+00 -0.00000000000E+00 -0.45593999997E+02  0.45594000000E+02  0.51100000000E-03 0.  1.
         23    2    1    2    0    0  0.00000000000E+00  0.00000000000E+00  0.88817841970E-15  0.91188000000E+02  0.91188000000E+02 0.  0.
    9900012    2    3    3    0    0 -0.10479384017E+02  0.34799951769E+02 -0.59096938261E+01  0.54367100858E+02  0.40000038026E+02 0.  0.
         12    1    3    3    0    0  0.10479384017E+02 -0.34799951769E+02  0.59096938261E+01  0.36820899142E+02  0.00000000000E+00 0. -1.
         11    1    4    4    0    0 -0.11461688757E+02  0.17240764135E+02 -0.23146828358E+01  0.20831994960E+02  0.51100000000E-03 0. -1.
        -11    1    4    4    0    0 -0.72725373921E+01 -0.53189331729E+01 -0.60760387451E+00  0.90305056861E+01  0.51100000000E-03 0.  1.
        -12    1    4    4    0    0  0.82548421322E+01  0.22878120807E+02 -0.29874071159E+01  0.24504600212E+02  0.00000000000E+00 0.  1.
</event>
<event>
 8    1  0.1254059E-006  0.9118800E+02  0.7816164E-02  0.1184000E+00
        -11   -1    0    0    0    0  0.00000000000E+00  0.00000000000E+00  0.45593999997E+02  0.45594000000E+02  0.51100000000E-03 0. -1.
         11   -1    0    0    0    0 -0.00000000000E+00 -0.00000000000E+00 -0.45593999997E+02  0.45594000000E+02  0.51100000000E-03 0.  1.
         23    2    1    2    0    0  0.22204460493E-14  0.00000000000E+00  0.71054273576E-14  0.91188000000E+02  0.91188000000E+02 0.  0.
    9900012    2    3    3    0    0  0.21951865872E+01 -0.23968350736E+02  0.27865410826E+02  0.54367057567E+02  0.39999939335E+02 0.  0.
        -12    1    3    3    0    0 -0.21951865872E+01  0.23968350736E+02 -0.27865410826E+02  0.36820942433E+02  0.00000000000E+00 0.  1.
         11    1    4    4    0    0  0.66706196957E+01 -0.14389904636E+02  0.20321032401E+02  0.25778108554E+02  0.51100000000E-03 0. -1.
        -11    1    4    4    0    0 -0.12047183456E+02  0.22538739937E+01  0.78203139852E+01  0.14538634334E+02  0.51100000000E-03 0.  1.
        -12    1    4    4    0    0  0.75717503474E+01 -0.11832320094E+02 -0.27593555952E+00  0.14050314679E+02  0.00000000000E+00 0.  1.
</event>
<event>
 8    1  0.1254059E-006  0.9118800E+02  0.7816164E-02  0.1184000E+00
        -11   -1    0    0    0    0  0.00000000000E+00  0.00000000000E+00  0.45593999997E+02  0.45594000000E+02  0.51100000000E-03 0.  1.
         11   -1    0    0    0    0 -0.00000000000E+00 -0.00000000000E+00 -0.45593999997E+02  0.45594000000E+02  0.51100000000E-03 0. -1.
         23    2    1    2    0    0  0.35527136788E-14 -0.17763568394E-14  0.00000000000E+00  0.91188000000E+02  0.91188000000E+02 0.  0.
    9900012    2    3    3    0    0  0.18272965997E+02 -0.12490462496E+02  0.29425616093E+02  0.54367084447E+02  0.40000000614E+02 0.  0.
         12    1    3    3    0    0 -0.18272965997E+02  0.12490462496E+02 -0.29425616093E+02  0.36820915553E+02  0.00000000000E+00 0. -1.
         11    1    4    4    0    0 -0.11094339701E+02 -0.51584262873E+01  0.57756110042E+01  0.13529649585E+02  0.51100000000E-03 0. -1.
        -11    1    4    4    0    0  0.35845633099E+01 -0.48727298087E+01  0.96681228315E+01  0.11404612631E+02  0.51100000000E-03 0.  1.
         12    1    4    4    0    0  0.25782742389E+02 -0.24593063996E+01  0.13981882257E+02  0.29432822231E+02  0.00000000000E+00 0. -1.
</event>
<event>
 8    1  0.1254059E-006  0.9118800E+02  0.7816164E-02  0.1184000E+00
        -11   -1    0    0    0    0  0.00000000000E+00  0.00000000000E+00  0.45593999997E+02  0.45594000000E+02  0.51100000000E-03 0.  1.
         11   -1    0    0    0    0 -0.00000000000E+00 -0.00000000000E+00 -0.45593999997E+02  0.45594000000E+02  0.51100000000E-03 0. -1.
         23    2    1    2    0    0  0.00000000000E+00  0.35527136788E-14 -0.44408920985E-14  0.91188000000E+02  0.91188000000E+02 0.  0.
    9900012    2    3    3    0    0 -0.23843082342E+02  0.27281662764E+02 -0.65573154644E+01  0.54367080880E+02  0.39999992483E+02 0.  0.
         12    1    3    3    0    0  0.23843082342E+02 -0.27281662764E+02  0.65573154644E+01  0.36820919120E+02  0.00000000000E+00 0. -1.
         11    1    4    4    0    0 -0.13330149147E+02  0.40222192039E+01 -0.13096835864E+02  0.19115392581E+02  0.51100000000E-03 0. -1.
        -11    1    4    4    0    0  0.25250124527E+00  0.13701674724E+02  0.13521605783E+02  0.19251843297E+02  0.51100000000E-03 0.  1.
        -12    1    4    4    0    0 -0.10765434440E+02  0.95577688361E+01 -0.69820853833E+01  0.15999845003E+02  0.00000000000E+00 0.  1.
</event>
<event>
 8    1  0.1254059E-006  0.9118800E+02  0.7816164E-02  0.1184000E+00
        -11   -1    0    0    0    0  0.00000000000E+00  0.00000000000E+00  0.45593999997E+02  0.45594000000E+02  0.51100000000E-03 0. -1.
         11   -1    0    0    0    0 -0.00000000000E+00 -0.00000000000E+00 -0.45593999997E+02  0.45594000000E+02  0.51100000000E-03 0.  1.
         23    2    1    2    0    0  0.00000000000E+00  0.00000000000E+00  0.00000000000E+00  0.91188000000E+02  0.91188000000E+02 0.  0.
    9900012    2    3    3    0    0  0.20264584447E+02 -0.12492178274E+01  0.30717534103E+02  0.54367070770E+02  0.39999969434E+02 0.  0.
        -12    1    3    3    0    0 -0.20264584447E+02  0.12492178274E+01 -0.30717534103E+02  0.36820929230E+02  0.00000000000E+00 0.  1.
         11    1    4    4    0    0 -0.63538678622E+01 -0.61259189456E+00  0.10521909704E+02  0.12306806641E+02  0.51100000000E-03 0. -1.
        -11    1    4    4    0    0 -0.37018865113E+01  0.15909559934E+01 -0.19218532437E+01  0.44641488402E+01  0.51100000000E-03 0.  1.
        -12    1    4    4    0    0  0.30320338821E+02 -0.22275819263E+01  0.22117477643E+02  0.37596115288E+02  0.00000000000E+00 0.  1.
</event>
<event>
 8    1  0.1254059E-006  0.9118800E+02  0.7816164E-02  0.1184000E+00
        -11   -1    0    0    0    0  0.00000000000E+00  0.00000000000E+00  0.45593999997E+02  0.45594000000E+02  0.51100000000E-03 0.  1.
         11   -1    0    0    0    0 -0.00000000000E+00 -0.00000000000E+00 -0.45593999997E+02  0.45594000000E+02  0.51100000000E-03 0. -1.
         23    2    1    2    0    0  0.35527136788E-14 -0.88817841970E-15  0.00000000000E+00  0.91188000000E+02  0.91188000000E+02 0.  0.
    9900012    2    3    3    0    0  0.16158952965E+02  0.65190922081E+01 -0.32437170316E+02  0.54367077385E+02  0.39999984514E+02 0.  0.
        -12    1    3    3    0    0 -0.16158952965E+02 -0.65190922081E+01  0.32437170316E+02  0.36820922615E+02  0.00000000000E+00 0.  1.
         11    1    4    4    0    0 -0.32169205901E+01  0.35936052422E+01 -0.18993717583E+02  0.19596527361E+02  0.51100000000E-03 0. -1.
        -11    1    4    4    0    0  0.16479290704E+02 -0.41156938428E+00 -0.20585328576E+02  0.26372185429E+02  0.51100000000E-03 0.  1.
        -12    1    4    4    0    0  0.28965828509E+01  0.33370563502E+01  0.71418758434E+01  0.83983645943E+01  0.00000000000E+00 0.  1.
</event>
<event>
 8    1  0.1254059E-006  0.9118800E+02  0.7816164E-02  0.1184000E+00
        -11   -1    0    0    0    0  0.00000000000E+00  0.00000000000E+00  0.45593999997E+02  0.45594000000E+02  0.51100000000E-03 0.  1.
         11   -1    0    0    0    0 -0.00000000000E+00 -0.00000000000E+00 -0.45593999997E+02  0.45594000000E+02  0.51100000000E-03 0. -1.
         23    2    1    2    0    0  0.00000000000E+00 -0.17763568394E-14  0.35527136788E-14  0.91188000000E+02  0.91188000000E+02 0.  0.
    9900012    2    3    3    0    0 -0.23099332578E+02  0.10817483723E+02 -0.26555286571E+02  0.54367077082E+02  0.39999983824E+02 0.  0.
        -12    1    3    3    0    0  0.23099332578E+02 -0.10817483723E+02  0.26555286571E+02  0.36820922918E+02  0.00000000000E+00 0.  1.
         11    1    4    4    0    0 -0.87178380422E+01  0.14159565520E+01  0.36841176274E+01  0.95696580943E+01  0.51100000000E-03 0. -1.
        -11    1    4    4    0    0 -0.67347735680E+01 -0.16103312631E+01  0.40209556763E+01  0.80073982416E+01  0.51100000000E-03 0.  1.
         12    1    4    4    0    0 -0.76467209681E+01  0.11011858434E+02 -0.34260359875E+02  0.36790020746E+02  0.00000000000E+00 0. -1.
</event>
<event>
 8    1  0.1254059E-006  0.9118800E+02  0.7816164E-02  0.1184000E+00
        -11   -1    0    0    0    0  0.00000000000E+00  0.00000000000E+00  0.45593999997E+02  0.45594000000E+02  0.51100000000E-03 0.  1.
         11   -1    0    0    0    0 -0.00000000000E+00 -0.00000000000E+00 -0.45593999997E+02  0.45594000000E+02  0.51100000000E-03 0. -1.
         23    2    1    2    0    0 -0.24424906542E-14  0.00000000000E+00  0.00000000000E+00  0.91188000000E+02  0.91188000000E+02 0.  0.
    9900012    2    3    3    0    0 -0.18216781044E+01  0.25291897037E+02  0.26697937660E+02  0.54367103186E+02  0.40000043334E+02 0.  0.
         12    1    3    3    0    0  0.18216781044E+01 -0.25291897037E+02 -0.26697937660E+02  0.36820896814E+02  0.00000000000E+00 0. -1.
         11    1    4    4    0    0  0.14698630560E+02  0.10718106589E+02 -0.27855860228E+00  0.18193546777E+02  0.51100000000E-03 0. -1.
        -11    1    4    4    0    0 -0.12834583940E+02  0.12393480482E+02  0.26384225104E+02  0.31850466840E+02  0.51100000000E-03 0.  1.
         12    1    4    4    0    0 -0.36857247243E+01  0.21803099669E+01  0.59227115850E+00  0.43230895688E+01  0.00000000000E+00 0. -1.
</event>
<event>
 8    1  0.1254059E-006  0.9118800E+02  0.7816164E-02  0.1184000E+00
        -11   -1    0    0    0    0  0.00000000000E+00  0.00000000000E+00  0.45593999997E+02  0.45594000000E+02  0.51100000000E-03 0.  1.
         11   -1    0    0    0    0 -0.00000000000E+00 -0.00000000000E+00 -0.45593999997E+02  0.45594000000E+02  0.51100000000E-03 0. -1.
         23    2    1    2    0    0  0.00000000000E+00 -0.13322676296E-14  0.00000000000E+00  0.91188000000E+02  0.91188000000E+02 0.  0.
    9900012    2    3    3    0    0 -0.20440722001E+02 -0.30822392970E+01  0.30470746279E+02  0.54366950398E+02  0.39999695021E+02 0.  0.
         12    1    3    3    0    0  0.20440722001E+02  0.30822392970E+01 -0.30470746279E+02  0.36821049602E+02  0.00000000000E+00 0. -1.
         11    1    4    4    0    0 -0.10872276836E+01  0.85910185883E+01 -0.44785250857E+00  0.86711150696E+01  0.51100000000E-03 0. -1.
        -11    1    4    4    0    0 -0.17861522537E+02 -0.52065286873E+01  0.54645065562E+01  0.19390790610E+02  0.51100000000E-03 0.  1.
        -12    1    4    4    0    0 -0.14919717806E+01 -0.64667291980E+01  0.25454092232E+02  0.26305044719E+02  0.00000000000E+00 0.  1.
</event>
<event>
 8    1  0.1254059E-006  0.9118800E+02  0.7816164E-02  0.1184000E+00
        -11   -1    0    0    0    0  0.00000000000E+00  0.00000000000E+00  0.45593999997E+02  0.45594000000E+02  0.51100000000E-03 0.  1.
         11   -1    0    0    0    0 -0.00000000000E+00 -0.00000000000E+00 -0.45593999997E+02  0.45594000000E+02  0.51100000000E-03 0. -1.
         23    2    1    2    0    0  0.00000000000E+00  0.88817841970E-15  0.71054273576E-14  0.91188000000E+02  0.91188000000E+02 0.  0.
    9900012    2    3    3    0    0  0.16917692162E+02 -0.37304661424E+01 -0.32490847007E+02  0.54367084409E+02  0.40000000527E+02 0.  0.
        -12    1    3    3    0    0 -0.16917692162E+02  0.37304661424E+01  0.32490847007E+02  0.36820915591E+02  0.00000000000E+00 0.  1.
         11    1    4    4    0    0  0.11858221094E+02  0.19724047372E+01 -0.34640193980E+02  0.36666753704E+02  0.51100000000E-03 0. -1.
        -11    1    4    4    0    0  0.57265819678E+00  0.19185004545E+01 -0.55964952486E+01  0.59438489830E+01  0.51100000000E-03 0.  1.
        -12    1    4    4    0    0  0.44868128710E+01 -0.76213713341E+01  0.77458422213E+01  0.11756481722E+02  0.00000000000E+00 0.  1.
</event>
<event>
 8    1  0.1254059E-006  0.9118800E+02  0.7816164E-02  0.1184000E+00
        -11   -1    0    0    0    0  0.00000000000E+00  0.00000000000E+00  0.45593999997E+02  0.45594000000E+02  0.51100000000E-03 0.  1.
         11   -1    0    0    0    0 -0.00000000000E+00 -0.00000000000E+00 -0.45593999997E+02  0.45594000000E+02  0.51100000000E-03 0. -1.
         23    2    1    2    0    0 -0.71054273576E-14  0.00000000000E+00  0.88817841970E-15  0.91188000000E+02  0.91188000000E+02 0.  0.
    9900012    2    3    3    0    0  0.34354682738E+02  0.11381524351E+02  0.67820713216E+01  0.54367084558E+02  0.40000000867E+02 0.  0.
        -12    1    3    3    0    0 -0.34354682738E+02 -0.11381524351E+02 -0.67820713216E+01  0.36820915442E+02  0.00000000000E+00 0.  1.
         11    1    4    4    0    0  0.17592616791E+02 -0.17012339797E+01 -0.78330475541E+01  0.19332640711E+02  0.51100000000E-03 0. -1.
        -11    1    4    4    0    0 -0.60952885095E+01  0.34078224397E+01  0.39132848471E+01  0.80049731011E+01  0.51100000000E-03 0.  1.
        -12    1    4    4    0    0  0.22857354456E+02  0.96749358912E+01  0.10701834029E+02  0.27029470746E+02  0.00000000000E+00 0.  1.
</event>
<event>
 8    1  0.1254059E-006  0.9118800E+02  0.7816164E-02  0.1184000E+00
        -11   -1    0    0    0    0  0.00000000000E+00  0.00000000000E+00  0.45593999997E+02  0.45594000000E+02  0.51100000000E-03 0.  1.
         11   -1    0    0    0    0 -0.00000000000E+00 -0.00000000000E+00 -0.45593999997E+02  0.45594000000E+02  0.51100000000E-03 0. -1.
         23    2    1    2    0    0  0.00000000000E+00 -0.88817841970E-15  0.00000000000E+00  0.91188000000E+02  0.91188000000E+02 0.  0.
    9900012    2    3    3    0    0 -0.30780879678E+02 -0.59049853611E+01 -0.19325180242E+02  0.54366891961E+02  0.39999561800E+02 0.  0.
        -12    1    3    3    0    0  0.30780879678E+02  0.59049853611E+01  0.19325180242E+02  0.36821108039E+02  0.00000000000E+00 0.  1.
         11    1    4    4    0    0 -0.25785734626E+02 -0.10929340594E+02 -0.27273630130E+02  0.39092269015E+02  0.51100000000E-03 0. -1.
        -11    1    4    4    0    0 -0.45341220236E+01  0.50613304449E+01 -0.49991544209E+00  0.68136072757E+01  0.51100000000E-03 0.  1.
         12    1    4    4    0    0 -0.46102302819E+00 -0.36975212117E-01  0.84483653306E+01  0.84610156694E+01  0.00000000000E+00 0. -1.
</event>
<event>
 8    1  0.1254059E-006  0.9118800E+02  0.7816164E-02  0.1184000E+00
        -11   -1    0    0    0    0  0.00000000000E+00  0.00000000000E+00  0.45593999997E+02  0.45594000000E+02  0.51100000000E-03 0. -1.
         11   -1    0    0    0    0 -0.00000000000E+00 -0.00000000000E+00 -0.45593999997E+02  0.45594000000E+02  0.51100000000E-03 0.  1.
         23    2    1    2    0    0 -0.35527136788E-14  0.00000000000E+00  0.00000000000E+00  0.91188000000E+02  0.91188000000E+02 0.  0.
    9900012    2    3    3    0    0 -0.30466756109E+02  0.86196515982E+01 -0.18795175027E+02  0.54367078966E+02  0.39999988118E+02 0.  0.
         12    1    3    3    0    0  0.30466756109E+02 -0.86196515982E+01  0.18795175027E+02  0.36820921034E+02  0.00000000000E+00 0. -1.
         11    1    4    4    0    0  0.39453039550E+01 -0.30797562999E+00 -0.13675377214E+01  0.41869358684E+01  0.51100000000E-03 0. -1.
        -11    1    4    4    0    0 -0.49318894458E+01  0.13061243342E+02  0.27340535504E+01  0.14226547727E+02  0.51100000000E-03 0.  1.
        -12    1    4    4    0    0 -0.29480170618E+02 -0.41336161139E+01 -0.20161690856E+02  0.35953595370E+02  0.00000000000E+00 0.  1.
</event>
<event>
 8    1  0.1254059E-006  0.9118800E+02  0.7816164E-02  0.1184000E+00
        -11   -1    0    0    0    0  0.00000000000E+00  0.00000000000E+00  0.45593999997E+02  0.45594000000E+02  0.51100000000E-03 0.  1.
         11   -1    0    0    0    0 -0.00000000000E+00 -0.00000000000E+00 -0.45593999997E+02  0.45594000000E+02  0.51100000000E-03 0. -1.
         23    2    1    2    0    0  0.88817841970E-15  0.00000000000E+00  0.00000000000E+00  0.91188000000E+02  0.91188000000E+02 0.  0.
    9900012    2    3    3    0    0  0.54220418981E+01 -0.21792085091E+02 -0.29180252736E+02  0.54367073060E+02  0.39999974655E+02 0.  0.
        -12    1    3    3    0    0 -0.54220418981E+01  0.21792085091E+02  0.29180252736E+02  0.36820926940E+02  0.00000000000E+00 0.  1.
         11    1    4    4    0    0  0.26806070850E+01 -0.36456282573E+01 -0.55466975367E+00  0.45589383119E+01  0.51100000000E-03 0. -1.
        -11    1    4    4    0    0  0.11120524957E+02 -0.11645210550E+02  0.30639923972E+01  0.16391005269E+02  0.51100000000E-03 0.  1.
         12    1    4    4    0    0 -0.83790901436E+01 -0.65012462835E+01 -0.31689575380E+02  0.33417129479E+02  0.00000000000E+00 0. -1.
</event>
<event>
 8    1  0.1254059E-006  0.9118800E+02  0.7816164E-02  0.1184000E+00
        -11   -1    0    0    0    0  0.00000000000E+00  0.00000000000E+00  0.45593999997E+02  0.45594000000E+02  0.51100000000E-03 0.  1.
         11   -1    0    0    0    0 -0.00000000000E+00 -0.00000000000E+00 -0.45593999997E+02  0.45594000000E+02  0.51100000000E-03 0. -1.
         23    2    1    2    0    0  0.00000000000E+00  0.00000000000E+00  0.35527136788E-14  0.91188000000E+02  0.91188000000E+02 0.  0.
    9900012    2    3    3    0    0  0.11992006254E+02 -0.18096753563E+02 -0.29740207668E+02  0.54367073129E+02  0.39999974811E+02 0.  0.
        -12    1    3    3    0    0 -0.11992006254E+02  0.18096753563E+02  0.29740207668E+02  0.36820926871E+02  0.00000000000E+00 0.  1.
         11    1    4    4    0    0  0.45700654673E+01 -0.53017085930E+01 -0.31262195339E+02  0.32036205612E+02  0.51100000000E-03 0. -1.
        -11    1    4    4    0    0  0.12578532072E+01  0.36692086089E+01 -0.20561582060E+01  0.43901108569E+01  0.51100000000E-03 0.  1.
         12    1    4    4    0    0  0.61640875794E+01 -0.16464253579E+02  0.35781458764E+01  0.17940756659E+02  0.00000000000E+00 0. -1.
</event>
<event>
 8    1  0.1254059E-006  0.9118800E+02  0.7816164E-02  0.1184000E+00
        -11   -1    0    0    0    0  0.00000000000E+00  0.00000000000E+00  0.45593999997E+02  0.45594000000E+02  0.51100000000E-03 0.  1.
         11   -1    0    0    0    0 -0.00000000000E+00 -0.00000000000E+00 -0.45593999997E+02  0.45594000000E+02  0.51100000000E-03 0. -1.
         23    2    1    2    0    0 -0.35527136788E-14  0.17763568394E-14  0.00000000000E+00  0.91188000000E+02  0.91188000000E+02 0.  0.
    9900012    2    3    3    0    0 -0.30493584353E+02  0.48380102107E+01  0.20062758361E+02  0.54367091503E+02  0.40000016699E+02 0.  0.
         12    1    3    3    0    0  0.30493584353E+02 -0.48380102107E+01 -0.20062758361E+02  0.36820908497E+02  0.00000000000E+00 0. -1.
         11    1    4    4    0    0 -0.75877174844E+01 -0.10670938201E+02  0.11035811399E+02  0.17124003977E+02  0.51100000000E-03 0. -1.
        -11    1    4    4    0    0 -0.22298884255E+02  0.17596596593E+01  0.57623807611E+01  0.23098521023E+02  0.51100000000E-03 0.  1.
         12    1    4    4    0    0 -0.60698261393E+00  0.13749288752E+02  0.32645662009E+01  0.14144566503E+02  0.00000000000E+00 0. -1.
</event>
<event>
 8    1  0.1254059E-006  0.9118800E+02  0.7816164E-02  0.1184000E+00
        -11   -1    0    0    0    0  0.00000000000E+00  0.00000000000E+00  0.45593999997E+02  0.45594000000E+02  0.51100000000E-03 0.  1.
         11   -1    0    0    0    0 -0.00000000000E+00 -0.00000000000E+00 -0.45593999997E+02  0.45594000000E+02  0.51100000000E-03 0. -1.
         23    2    1    2    0    0  0.17763568394E-14 -0.17763568394E-14  0.00000000000E+00  0.91188000000E+02  0.91188000000E+02 0.  0.
    9900012    2    3    3    0    0  0.44081237514E+01  0.15439989921E+02  0.33135433925E+02  0.54367057248E+02  0.39999938608E+02 0.  0.
         12    1    3    3    0    0 -0.44081237514E+01 -0.15439989921E+02 -0.33135433925E+02  0.36820942752E+02  0.00000000000E+00 0. -1.
         11    1    4    4    0    0 -0.40138562613E+01  0.80665113108E+01  0.23661890479E+02  0.25319255679E+02  0.51100000000E-03 0. -1.
        -11    1    4    4    0    0  0.14457009388E+02  0.14280580657E+01  0.13351360549E+02  0.19730770362E+02  0.51100000000E-03 0.  1.
        -12    1    4    4    0    0 -0.60350293757E+01  0.59454205448E+01 -0.38778171040E+01  0.93170312070E+01  0.00000000000E+00 0.  1.
</event>
<event>
 8    1  0.1254059E-006  0.9118800E+02  0.7816164E-02  0.1184000E+00
        -11   -1    0    0    0    0  0.00000000000E+00  0.00000000000E+00  0.45593999997E+02  0.45594000000E+02  0.51100000000E-03 0.  1.
         11   -1    0    0    0    0 -0.00000000000E+00 -0.00000000000E+00 -0.45593999997E+02  0.45594000000E+02  0.51100000000E-03 0. -1.
         23    2    1    2    0    0  0.00000000000E+00  0.44408920985E-15  0.00000000000E+00  0.91188000000E+02  0.91188000000E+02 0.  0.
    9900012    2    3    3    0    0 -0.19787579909E+02  0.32114612695E+01 -0.30885557015E+02  0.54367089714E+02  0.40000012621E+02 0.  0.
         12    1    3    3    0    0  0.19787579909E+02 -0.32114612695E+01  0.30885557015E+02  0.36820910286E+02  0.00000000000E+00 0. -1.
         11    1    4    4    0    0 -0.21164511216E+01  0.12361752829E+01 -0.16897150978E+02  0.17073992096E+02  0.51100000000E-03 0. -1.
        -11    1    4    4    0    0  0.97985742725E+00 -0.88705567104E+01  0.34332780284E+01  0.95621281738E+01  0.51100000000E-03 0.  1.
        -12    1    4    4    0    0 -0.18650986215E+02  0.10845842697E+02 -0.17421684066E+02  0.27730969444E+02  0.00000000000E+00 0.  1.
</event>
<event>
 8    1  0.1254059E-006  0.9118800E+02  0.7816164E-02  0.1184000E+00
        -11   -1    0    0    0    0  0.00000000000E+00  0.00000000000E+00  0.45593999997E+02  0.45594000000E+02  0.51100000000E-03 0. -1.
         11   -1    0    0    0    0 -0.00000000000E+00 -0.00000000000E+00 -0.45593999997E+02  0.45594000000E+02  0.51100000000E-03 0.  1.
         23    2    1    2    0    0  0.00000000000E+00  0.35527136788E-14 -0.17763568394E-14  0.91188000000E+02  0.91188000000E+02 0.  0.
    9900012    2    3    3    0    0  0.28169821429E+02  0.21209774162E+02 -0.10601265112E+02  0.54367079570E+02  0.39999989496E+02 0.  0.
         12    1    3    3    0    0 -0.28169821429E+02 -0.21209774162E+02  0.10601265112E+02  0.36820920430E+02  0.00000000000E+00 0. -1.
         11    1    4    4    0    0  0.86964963505E+01  0.32334041296E+01 -0.17751824546E+02  0.20030257762E+02  0.51100000000E-03 0. -1.
        -11    1    4    4    0    0  0.11076743775E+02  0.74907227059E+01 -0.67732258731E+01  0.14989388524E+02  0.51100000000E-03 0.  1.
        -12    1    4    4    0    0  0.83965813029E+01  0.10485647327E+02  0.13923785307E+02  0.19347433285E+02  0.00000000000E+00 0.  1.
</event>
<event>
 8    1  0.1254059E-006  0.9118800E+02  0.7816164E-02  0.1184000E+00
        -11   -1    0    0    0    0  0.00000000000E+00  0.00000000000E+00  0.45593999997E+02  0.45594000000E+02  0.51100000000E-03 0. -1.
         11   -1    0    0    0    0 -0.00000000000E+00 -0.00000000000E+00 -0.45593999997E+02  0.45594000000E+02  0.51100000000E-03 0.  1.
         23    2    1    2    0    0 -0.17763568394E-14  0.00000000000E+00  0.00000000000E+00  0.91188000000E+02  0.91188000000E+02 0.  0.
    9900012    2    3    3    0    0 -0.11085375795E+02 -0.27933445497E+02  0.21274794840E+02  0.54367084350E+02  0.40000000392E+02 0.  0.
        -12    1    3    3    0    0  0.11085375795E+02  0.27933445497E+02 -0.21274794840E+02  0.36820915650E+02  0.00000000000E+00 0.  1.
         11    1    4    4    0    0  0.13658814214E+01  0.70289382304E+01  0.20089792686E+01  0.74369081389E+01  0.51100000000E-03 0. -1.
        -11    1    4    4    0    0 -0.20527255816E+01 -0.89157327294E+01 -0.44755121584E+01  0.10184997877E+02  0.51100000000E-03 0.  1.
         12    1    4    4    0    0 -0.10398531635E+02 -0.26046650998E+02  0.23741327730E+02  0.36745178333E+02  0.00000000000E+00 0. -1.
</event>
<event>
 8    1  0.1254059E-006  0.9118800E+02  0.7816164E-02  0.1184000E+00
        -11   -1    0    0    0    0  0.00000000000E+00  0.00000000000E+00  0.45593999997E+02  0.45594000000E+02  0.51100000000E-03 0.  1.
         11   -1    0    0    0    0 -0.00000000000E+00 -0.00000000000E+00 -0.45593999997E+02  0.45594000000E+02  0.51100000000E-03 0. -1.
         23    2    1    2    0    0  0.00000000000E+00  0.71054273576E-14 -0.61062266354E-15  0.91188000000E+02  0.91188000000E+02 0.  0.
    9900012    2    3    3    0    0 -0.48330205239E+01 -0.36500858233E+02 -0.32739881828E+00  0.54367110153E+02  0.40000059215E+02 0.  0.
        -12    1    3    3    0    0  0.48330205239E+01  0.36500858233E+02  0.32739881828E+00  0.36820889847E+02  0.00000000000E+00 0.  1.
         11    1    4    4    0    0  0.47075782654E+01 -0.89125689371E+01  0.29930827644E+01  0.10514453047E+02  0.51100000000E-03 0. -1.
        -11    1    4    4    0    0 -0.55990653518E+00  0.53719050691E+01 -0.77062699246E+01  0.94104971076E+01  0.51100000000E-03 0.  1.
        -12    1    4    4    0    0 -0.89806922541E+01 -0.32960194365E+02  0.43857883420E+01  0.34442159998E+02  0.00000000000E+00 0.  1.
</event>
<event>
 8    1  0.1254059E-006  0.9118800E+02  0.7816164E-02  0.1184000E+00
        -11   -1    0    0    0    0  0.00000000000E+00  0.00000000000E+00  0.45593999997E+02  0.45594000000E+02  0.51100000000E-03 0.  1.
         11   -1    0    0    0    0 -0.00000000000E+00 -0.00000000000E+00 -0.45593999997E+02  0.45594000000E+02  0.51100000000E-03 0. -1.
         23    2    1    2    0    0  0.00000000000E+00  0.00000000000E+00  0.16653345369E-14  0.91188000000E+02  0.91188000000E+02 0.  0.
    9900012    2    3    3    0    0  0.54825206198E+01  0.36410090341E+02  0.16423465527E+00  0.54367086323E+02  0.40000004890E+02 0.  0.
         12    1    3    3    0    0 -0.54825206198E+01 -0.36410090341E+02 -0.16423465527E+00  0.36820913677E+02  0.00000000000E+00 0. -1.
         11    1    4    4    0    0  0.92478123488E+01  0.57446864293E+01 -0.94826493915E+01  0.14437593122E+02  0.51100000000E-03 0. -1.
        -11    1    4    4    0    0 -0.40021108768E+01  0.11394678696E+02 -0.74303453995E+01  0.14179761178E+02  0.51100000000E-03 0.  1.
         12    1    4    4    0    0  0.23681914783E+00  0.19270725216E+02  0.17077229446E+02  0.25749732022E+02  0.00000000000E+00 0. -1.
</event>
<event>
 8    1  0.1254059E-006  0.9118800E+02  0.7816164E-02  0.1184000E+00
        -11   -1    0    0    0    0  0.00000000000E+00  0.00000000000E+00  0.45593999997E+02  0.45594000000E+02  0.51100000000E-03 0.  1.
         11   -1    0    0    0    0 -0.00000000000E+00 -0.00000000000E+00 -0.45593999997E+02  0.45594000000E+02  0.51100000000E-03 0. -1.
         23    2    1    2    0    0  0.00000000000E+00  0.00000000000E+00  0.00000000000E+00  0.91188000000E+02  0.91188000000E+02 0.  0.
    9900012    2    3    3    0    0 -0.25537558869E+02 -0.18289307035E+02  0.19212337276E+02  0.54367087893E+02  0.40000008469E+02 0.  0.
         12    1    3    3    0    0  0.25537558869E+02  0.18289307035E+02 -0.19212337276E+02  0.36820912107E+02  0.00000000000E+00 0. -1.
         11    1    4    4    0    0 -0.75105624354E+00  0.13081484428E+01 -0.65497502758E+00  0.16444848364E+01  0.51100000000E-03 0. -1.
        -11    1    4    4    0    0 -0.14452143734E+02 -0.19025477835E+02 -0.61933929082E+01  0.24681802635E+02  0.51100000000E-03 0.  1.
        -12    1    4    4    0    0 -0.10334358892E+02 -0.57197764279E+00  0.26060705212E+02  0.28040800421E+02  0.00000000000E+00 0.  1.
</event>
<event>
 8    1  0.1254059E-006  0.9118800E+02  0.7816164E-02  0.1184000E+00
        -11   -1    0    0    0    0  0.00000000000E+00  0.00000000000E+00  0.45593999997E+02  0.45594000000E+02  0.51100000000E-03 0. -1.
         11   -1    0    0    0    0 -0.00000000000E+00 -0.00000000000E+00 -0.45593999997E+02  0.45594000000E+02  0.51100000000E-03 0.  1.
         23    2    1    2    0    0  0.22204460493E-15  0.00000000000E+00  0.17763568394E-14  0.91188000000E+02  0.91188000000E+02 0.  0.
    9900012    2    3    3    0    0 -0.15896719428E+01 -0.34734199048E+02  0.12115596321E+02  0.54367091339E+02  0.40000016326E+02 0.  0.
         12    1    3    3    0    0  0.15896719428E+01  0.34734199048E+02 -0.12115596321E+02  0.36820908661E+02  0.00000000000E+00 0. -1.
         11    1    4    4    0    0 -0.77375238175E+01 -0.20877991866E+02  0.17429236393E+02  0.28276104765E+02  0.51100000000E-03 0. -1.
        -11    1    4    4    0    0 -0.14041308363E+01 -0.92496168575E+01 -0.11845670858E+02  0.15094598827E+02  0.51100000000E-03 0.  1.
         12    1    4    4    0    0  0.75519827109E+01 -0.46065903246E+01  0.65320307862E+01  0.10996387747E+02  0.00000000000E+00 0. -1.
</event>
<event>
 8    1  0.1254059E-006  0.9118800E+02  0.7816164E-02  0.1184000E+00
        -11   -1    0    0    0    0  0.00000000000E+00  0.00000000000E+00  0.45593999997E+02  0.45594000000E+02  0.51100000000E-03 0.  1.
         11   -1    0    0    0    0 -0.00000000000E+00 -0.00000000000E+00 -0.45593999997E+02  0.45594000000E+02  0.51100000000E-03 0. -1.
         23    2    1    2    0    0  0.26645352591E-14  0.00000000000E+00  0.88817841970E-15  0.91188000000E+02  0.91188000000E+02 0.  0.
    9900012    2    3    3    0    0  0.31704037159E+01  0.36079941110E+02  0.66307076780E+01  0.54367083464E+02  0.39999998372E+02 0.  0.
        -12    1    3    3    0    0 -0.31704037159E+01 -0.36079941110E+02 -0.66307076780E+01  0.36820916536E+02  0.00000000000E+00 0.  1.
         11    1    4    4    0    0 -0.12887125367E+02  0.16327755019E+02 -0.90607414141E+01  0.22688557015E+02  0.51100000000E-03 0.  1.
        -11    1    4    4    0    0  0.12459179920E+02  0.84664597000E+01  0.54488149339E+01  0.16018791732E+02  0.51100000000E-03 0. -1.
        -12    1    4    4    0    0  0.35983491636E+01  0.11285726392E+02  0.10242634158E+02  0.15659734717E+02  0.00000000000E+00 0.  1.
</event>
<event>
 8    1  0.1254059E-006  0.9118800E+02  0.7816164E-02  0.1184000E+00
        -11   -1    0    0    0    0  0.00000000000E+00  0.00000000000E+00  0.45593999997E+02  0.45594000000E+02  0.51100000000E-03 0. -1.
         11   -1    0    0    0    0 -0.00000000000E+00 -0.00000000000E+00 -0.45593999997E+02  0.45594000000E+02  0.51100000000E-03 0.  1.
         23    2    1    2    0    0 -0.71054273576E-14  0.00000000000E+00  0.00000000000E+00  0.91188000000E+02  0.91188000000E+02 0.  0.
    9900012    2    3    3    0    0  0.14996633983E+02 -0.23326057805E+02  0.24223441551E+02  0.54367093926E+02  0.40000022223E+02 0.  0.
        -12    1    3    3    0    0 -0.14996633983E+02  0.23326057805E+02 -0.24223441551E+02  0.36820906074E+02  0.00000000000E+00 0.  1.
         11    1    4    4    0    0  0.13801193717E+02 -0.21644253223E+02  0.22264877068E+02  0.33980456099E+02  0.51100000000E-03 0. -1.
        -11    1    4    4    0    0 -0.79571558018E+01 -0.47182924319E+01  0.46793474819E+01  0.10367010420E+02  0.51100000000E-03 0.  1.
        -12    1    4    4    0    0  0.91525960683E+01  0.30364878494E+01 -0.27207829990E+01  0.10019627407E+02  0.00000000000E+00 0.  1.
</event>
<event>
 8    1  0.1254059E-006  0.9118800E+02  0.7816164E-02  0.1184000E+00
        -11   -1    0    0    0    0  0.00000000000E+00  0.00000000000E+00  0.45593999997E+02  0.45594000000E+02  0.51100000000E-03 0.  1.
         11   -1    0    0    0    0 -0.00000000000E+00 -0.00000000000E+00 -0.45593999997E+02  0.45594000000E+02  0.51100000000E-03 0. -1.
         23    2    1    2    0    0  0.00000000000E+00  0.71054273576E-14  0.35527136788E-14  0.91188000000E+02  0.91188000000E+02 0.  0.
    9900012    2    3    3    0    0  0.13873073293E+02 -0.31615256020E+02 -0.12798112875E+02  0.54367105538E+02  0.40000048695E+02 0.  0.
        -12    1    3    3    0    0 -0.13873073293E+02  0.31615256020E+02  0.12798112875E+02  0.36820894462E+02  0.00000000000E+00 0.  1.
         11    1    4    4    0    0  0.11738968183E+02 -0.36006955762E+02 -0.10984530515E+02  0.39433033717E+02  0.51100000000E-03 0. -1.
        -11    1    4    4    0    0 -0.25618815151E+01  0.96407075788E+00  0.51683496670E+01  0.58484620085E+01  0.51100000000E-03 0.  1.
         12    1    4    4    0    0  0.46959866253E+01  0.34276289837E+01 -0.69819320269E+01  0.90856098125E+01  0.00000000000E+00 0. -1.
</event>
<event>
 8    1  0.1254059E-006  0.9118800E+02  0.7816164E-02  0.1184000E+00
        -11   -1    0    0    0    0  0.00000000000E+00  0.00000000000E+00  0.45593999997E+02  0.45594000000E+02  0.51100000000E-03 0.  1.
         11   -1    0    0    0    0 -0.00000000000E+00 -0.00000000000E+00 -0.45593999997E+02  0.45594000000E+02  0.51100000000E-03 0. -1.
         23    2    1    2    0    0  0.00000000000E+00  0.00000000000E+00  0.00000000000E+00  0.91188000000E+02  0.91188000000E+02 0.  0.
    9900012    2    3    3    0    0  0.27843443396E+02  0.15487434252E+02  0.18457063201E+02  0.54367066527E+02  0.39999959761E+02 0.  0.
         12    1    3    3    0    0 -0.27843443396E+02 -0.15487434252E+02 -0.18457063201E+02  0.36820933473E+02  0.00000000000E+00 0. -1.
         11    1    4    4    0    0  0.97402476905E+01  0.16396988505E+02  0.43407933845E+01  0.19559553793E+02  0.51100000000E-03 0. -1.
        -11    1    4    4    0    0  0.23997290369E+02 -0.46695552144E+01  0.86486268426E+01  0.25932092810E+02  0.51100000000E-03 0.  1.
         12    1    4    4    0    0 -0.58940946641E+01  0.37600009615E+01  0.54676429739E+01  0.88754199241E+01  0.00000000000E+00 0. -1.
</event>
<event>
 8    1  0.1254059E-006  0.9118800E+02  0.7816164E-02  0.1184000E+00
        -11   -1    0    0    0    0  0.00000000000E+00  0.00000000000E+00  0.45593999997E+02  0.45594000000E+02  0.51100000000E-03 0.  1.
         11   -1    0    0    0    0 -0.00000000000E+00 -0.00000000000E+00 -0.45593999997E+02  0.45594000000E+02  0.51100000000E-03 0. -1.
         23    2    1    2    0    0  0.00000000000E+00  0.35527136788E-14  0.88817841970E-15  0.91188000000E+02  0.91188000000E+02 0.  0.
    9900012    2    3    3    0    0 -0.22108742002E+02  0.28425924724E+02  0.76778934121E+01  0.54367085881E+02  0.40000003883E+02 0.  0.
         12    1    3    3    0    0  0.22108742002E+02 -0.28425924724E+02 -0.76778934121E+01  0.36820914119E+02  0.00000000000E+00 0. -1.
         11    1    4    4    0    0 -0.47552671761E+01  0.63536092465E+01 -0.89268591187E+01  0.11944443493E+02  0.51100000000E-03 0. -1.
        -11    1    4    4    0    0 -0.16988453499E+02  0.35403369390E+01  0.16413513121E+02  0.23886082793E+02  0.51100000000E-03 0.  1.
        -12    1    4    4    0    0 -0.36502132625E+00  0.18531978538E+02  0.19123940944E+00  0.18536559595E+02  0.00000000000E+00 0.  1.
</event>
<event>
 8    1  0.1254059E-006  0.9118800E+02  0.7816164E-02  0.1184000E+00
        -11   -1    0    0    0    0  0.00000000000E+00  0.00000000000E+00  0.45593999997E+02  0.45594000000E+02  0.51100000000E-03 0.  1.
         11   -1    0    0    0    0 -0.00000000000E+00 -0.00000000000E+00 -0.45593999997E+02  0.45594000000E+02  0.51100000000E-03 0. -1.
         23    2    1    2    0    0  0.00000000000E+00 -0.17763568394E-14 -0.88817841970E-15  0.91188000000E+02  0.91188000000E+02 0.  0.
    9900012    2    3    3    0    0  0.33380460130E+02  0.14811235014E+02 -0.47066359318E+01  0.54367079005E+02  0.39999988208E+02 0.  0.
        -12    1    3    3    0    0 -0.33380460130E+02 -0.14811235014E+02  0.47066359318E+01  0.36820920995E+02  0.00000000000E+00 0.  1.
         11    1    4    4    0    0 -0.49627632461E+01  0.91293003790E+01  0.16445838476E+01  0.10520351740E+02  0.51100000000E-03 0. -1.
        -11    1    4    4    0    0  0.17443367046E+01  0.26848122554E+00  0.48744277868E+01  0.51840948311E+01  0.51100000000E-03 0.  1.
        -12    1    4    4    0    0  0.36598886672E+02  0.54134534094E+01 -0.11225647566E+02  0.38662632434E+02  0.00000000000E+00 0.  1.
</event>
<event>
 8    1  0.1254059E-006  0.9118800E+02  0.7816164E-02  0.1184000E+00
        -11   -1    0    0    0    0  0.00000000000E+00  0.00000000000E+00  0.45593999997E+02  0.45594000000E+02  0.51100000000E-03 0.  1.
         11   -1    0    0    0    0 -0.00000000000E+00 -0.00000000000E+00 -0.45593999997E+02  0.45594000000E+02  0.51100000000E-03 0. -1.
         23    2    1    2    0    0  0.00000000000E+00 -0.35527136788E-14  0.17763568394E-14  0.91188000000E+02  0.91188000000E+02 0.  0.
    9900012    2    3    3    0    0 -0.18598996481E+02 -0.30091882592E+02 -0.10214523935E+02  0.54367074329E+02  0.39999977548E+02 0.  0.
        -12    1    3    3    0    0  0.18598996481E+02  0.30091882592E+02  0.10214523935E+02  0.36820925671E+02  0.00000000000E+00 0.  1.
         11    1    4    4    0    0  0.26968502044E+01 -0.15192896563E+02 -0.11479848144E+02  0.19232369086E+02  0.51100000000E-03 0. -1.
        -11    1    4    4    0    0 -0.17431637759E+02 -0.19526159706E+02  0.66991379306E+01  0.27018722344E+02  0.51100000000E-03 0.  1.
        -12    1    4    4    0    0 -0.38642089258E+01  0.46271736766E+01 -0.54338137220E+01  0.81159828993E+01  0.00000000000E+00 0.  1.
</event>
<event>
 8    1  0.1254059E-006  0.9118800E+02  0.7816164E-02  0.1184000E+00
        -11   -1    0    0    0    0  0.00000000000E+00  0.00000000000E+00  0.45593999997E+02  0.45594000000E+02  0.51100000000E-03 0.  1.
         11   -1    0    0    0    0 -0.00000000000E+00 -0.00000000000E+00 -0.45593999997E+02  0.45594000000E+02  0.51100000000E-03 0. -1.
         23    2    1    2    0    0 -0.35527136788E-14  0.17763568394E-14  0.00000000000E+00  0.91188000000E+02  0.91188000000E+02 0.  0.
    9900012    2    3    3    0    0  0.18542075172E+02 -0.14371651330E+02  0.28380050035E+02  0.54367079946E+02  0.39999990352E+02 0.  0.
         12    1    3    3    0    0 -0.18542075172E+02  0.14371651330E+02 -0.28380050035E+02  0.36820920054E+02  0.00000000000E+00 0. -1.
         11    1    4    4    0    0  0.14219723445E+02  0.24952387842E+01  0.18221305246E+00  0.14438142308E+02  0.51100000000E-03 0. -1.
        -11    1    4    4    0    0  0.79994140483E+01 -0.41223507996E+01  0.24586567734E+02  0.26181743915E+02  0.51100000000E-03 0.  1.
         12    1    4    4    0    0 -0.36770623216E+01 -0.12744539315E+02  0.36112692488E+01  0.13747193723E+02  0.00000000000E+00 0. -1.
</event>
<event>
 8    1  0.1254059E-006  0.9118800E+02  0.7816164E-02  0.1184000E+00
        -11   -1    0    0    0    0  0.00000000000E+00  0.00000000000E+00  0.45593999997E+02  0.45594000000E+02  0.51100000000E-03 0. -1.
         11   -1    0    0    0    0 -0.00000000000E+00 -0.00000000000E+00 -0.45593999997E+02  0.45594000000E+02  0.51100000000E-03 0.  1.
         23    2    1    2    0    0  0.35527136788E-14  0.00000000000E+00 -0.17763568394E-14  0.91188000000E+02  0.91188000000E+02 0.  0.
    9900012    2    3    3    0    0 -0.22620026722E+02 -0.25504745607E+02 -0.13914901515E+02  0.54367052951E+02  0.39999928812E+02 0.  0.
         12    1    3    3    0    0  0.22620026722E+02  0.25504745607E+02  0.13914901515E+02  0.36820947049E+02  0.00000000000E+00 0. -1.
         11    1    4    4    0    0 -0.13970313406E+01  0.54516996732E+01  0.44747587617E+01  0.71900064068E+01  0.51100000000E-03 0. -1.
        -11    1    4    4    0    0 -0.51679760521E+01 -0.69625545655E+01 -0.16012464602E+02  0.18209452640E+02  0.51100000000E-03 0.  1.
        -12    1    4    4    0    0 -0.16055019330E+02 -0.23993890715E+02 -0.23771956753E+01  0.28967593904E+02  0.00000000000E+00 0.  1.
</event>
<event>
 8    1  0.1254059E-006  0.9118800E+02  0.7816164E-02  0.1184000E+00
        -11   -1    0    0    0    0  0.00000000000E+00  0.00000000000E+00  0.45593999997E+02  0.45594000000E+02  0.51100000000E-03 0. -1.
         11   -1    0    0    0    0 -0.00000000000E+00 -0.00000000000E+00 -0.45593999997E+02  0.45594000000E+02  0.51100000000E-03 0.  1.
         23    2    1    2    0    0 -0.71054273576E-14  0.17763568394E-14 -0.88817841970E-15  0.91188000000E+02  0.91188000000E+02 0.  0.
    9900012    2    3    3    0    0 -0.34291441056E+02  0.13225393635E+02 -0.22284760387E+01  0.54367081055E+02  0.39999992881E+02 0.  0.
        -12    1    3    3    0    0  0.34291441056E+02 -0.13225393635E+02  0.22284760387E+01  0.36820918945E+02  0.00000000000E+00 0.  1.
         11    1    4    4    0    0 -0.58607266807E+01  0.84977449262E+01  0.41222143843E+01  0.11115414421E+02  0.51100000000E-03 0. -1.
        -11    1    4    4    0    0 -0.53981756600E+01 -0.11136221739E+02 -0.87881610113E+01  0.15178521315E+02  0.51100000000E-03 0.  1.
        -12    1    4    4    0    0 -0.23032538715E+02  0.15863870448E+02  0.24374705883E+01  0.28073145319E+02  0.00000000000E+00 0.  1.
</event>
<event>
 8    1  0.1254059E-006  0.9118800E+02  0.7816164E-02  0.1184000E+00
        -11   -1    0    0    0    0  0.00000000000E+00  0.00000000000E+00  0.45593999997E+02  0.45594000000E+02  0.51100000000E-03 0. -1.
         11   -1    0    0    0    0 -0.00000000000E+00 -0.00000000000E+00 -0.45593999997E+02  0.45594000000E+02  0.51100000000E-03 0.  1.
         23    2    1    2    0    0 -0.35527136788E-14  0.35527136788E-14  0.00000000000E+00  0.91188000000E+02  0.91188000000E+02 0.  0.
    9900012    2    3    3    0    0  0.16070460916E+02 -0.28178073561E+02  0.17421671383E+02  0.54367106781E+02  0.40000051528E+02 0.  0.
        -12    1    3    3    0    0 -0.16070460916E+02  0.28178073561E+02 -0.17421671383E+02  0.36820893219E+02  0.00000000000E+00 0.  1.
         11    1    4    4    0    0  0.15687554369E+02 -0.14416213104E+02  0.26284102734E+01  0.21467070204E+02  0.51100000000E-03 0. -1.
        -11    1    4    4    0    0 -0.28963761790E+01  0.27420918168E+01  0.15553031178E+02  0.16056302239E+02  0.51100000000E-03 0.  1.
        -12    1    4    4    0    0  0.32792827263E+01 -0.16503952274E+02 -0.75977006887E+00  0.16843734337E+02  0.00000000000E+00 0.  1.
</event>
<event>
 8    1  0.1254059E-006  0.9118800E+02  0.7816164E-02  0.1184000E+00
        -11   -1    0    0    0    0  0.00000000000E+00  0.00000000000E+00  0.45593999997E+02  0.45594000000E+02  0.51100000000E-03 0.  1.
         11   -1    0    0    0    0 -0.00000000000E+00 -0.00000000000E+00 -0.45593999997E+02  0.45594000000E+02  0.51100000000E-03 0. -1.
         23    2    1    2    0    0  0.88817841970E-15  0.00000000000E+00  0.35527136788E-14  0.91188000000E+02  0.91188000000E+02 0.  0.
    9900012    2    3    3    0    0 -0.69514785172E+01 -0.20644874679E+02  0.29685784266E+02  0.54367086220E+02  0.40000004656E+02 0.  0.
         12    1    3    3    0    0  0.69514785172E+01  0.20644874679E+02 -0.29685784266E+02  0.36820913780E+02  0.00000000000E+00 0. -1.
         11    1    4    4    0    0  0.84302955523E+01 -0.14976225941E+02  0.16856744584E+02  0.24072952971E+02  0.51100000000E-03 0. -1.
        -11    1    4    4    0    0  0.17111167894E+01  0.46407297189E+01 -0.20941694330E+01  0.53712046010E+01  0.51100000000E-03 0.  1.
        -12    1    4    4    0    0 -0.17092890859E+02 -0.10309378457E+02  0.14923209115E+02  0.24922928648E+02  0.00000000000E+00 0.  1.
</event>
<event>
 8    1  0.1254059E-006  0.9118800E+02  0.7816164E-02  0.1184000E+00
        -11   -1    0    0    0    0  0.00000000000E+00  0.00000000000E+00  0.45593999997E+02  0.45594000000E+02  0.51100000000E-03 0.  1.
         11   -1    0    0    0    0 -0.00000000000E+00 -0.00000000000E+00 -0.45593999997E+02  0.45594000000E+02  0.51100000000E-03 0. -1.
         23    2    1    2    0    0  0.00000000000E+00  0.17763568394E-14  0.00000000000E+00  0.91188000000E+02  0.91188000000E+02 0.  0.
    9900012    2    3    3    0    0 -0.32621028008E+02  0.97380202498E+01 -0.14029216288E+02  0.54367089958E+02  0.40000013177E+02 0.  0.
        -12    1    3    3    0    0  0.32621028008E+02 -0.97380202498E+01  0.14029216288E+02  0.36820910042E+02  0.00000000000E+00 0.  1.
         11    1    4    4    0    0 -0.17465414471E+01  0.30654908657E+01 -0.12524558809E+02  0.13012002724E+02  0.51100000000E-03 0. -1.
        -11    1    4    4    0    0 -0.34056312135E+02  0.61311889685E+01  0.41422816632E+01  0.34850858986E+02  0.51100000000E-03 0.  1.
        -12    1    4    4    0    0  0.31818255741E+01  0.54134041558E+00 -0.56469391419E+01  0.65042282480E+01  0.00000000000E+00 0.  1.
</event>
<event>
 8    1  0.1254059E-006  0.9118800E+02  0.7816164E-02  0.1184000E+00
        -11   -1    0    0    0    0  0.00000000000E+00  0.00000000000E+00  0.45593999997E+02  0.45594000000E+02  0.51100000000E-03 0. -1.
         11   -1    0    0    0    0 -0.00000000000E+00 -0.00000000000E+00 -0.45593999997E+02  0.45594000000E+02  0.51100000000E-03 0.  1.
         23    2    1    2    0    0 -0.88817841970E-15  0.00000000000E+00  0.35527136788E-14  0.91188000000E+02  0.91188000000E+02 0.  0.
    9900012    2    3    3    0    0 -0.54233527803E+01 -0.22860469300E+02 -0.28350774086E+02  0.54367079272E+02  0.39999988817E+02 0.  0.
         12    1    3    3    0    0  0.54233527803E+01  0.22860469300E+02  0.28350774086E+02  0.36820920728E+02  0.00000000000E+00 0. -1.
         11    1    4    4    0    0 -0.19849939070E+02 -0.16748914232E+02 -0.12714271523E+02  0.28917104103E+02  0.51100000000E-03 0. -1.
        -11    1    4    4    0    0  0.92983751554E+01  0.21449830032E+00 -0.14501273865E+02  0.17227673494E+02  0.51100000000E-03 0.  1.
         12    1    4    4    0    0  0.51282111347E+01 -0.63260533675E+01 -0.11352286984E+01  0.82223016758E+01  0.00000000000E+00 0. -1.
</event>
<event>
 8    1  0.1254059E-006  0.9118800E+02  0.7816164E-02  0.1184000E+00
        -11   -1    0    0    0    0  0.00000000000E+00  0.00000000000E+00  0.45593999997E+02  0.45594000000E+02  0.51100000000E-03 0.  1.
         11   -1    0    0    0    0 -0.00000000000E+00 -0.00000000000E+00 -0.45593999997E+02  0.45594000000E+02  0.51100000000E-03 0. -1.
         23    2    1    2    0    0 -0.35527136788E-14  0.17763568394E-14 -0.35527136788E-14  0.91188000000E+02  0.91188000000E+02 0.  0.
    9900012    2    3    3    0    0 -0.26438931610E+02 -0.40717225272E+01  0.25301886201E+02  0.54367062012E+02  0.39999949468E+02 0.  0.
         12    1    3    3    0    0  0.26438931610E+02  0.40717225272E+01 -0.25301886201E+02  0.36820937988E+02  0.00000000000E+00 0. -1.
         11    1    4    4    0    0  0.57971485716E+01 -0.29050305853E+01  0.41205496389E+01  0.76827770923E+01  0.51100000000E-03 0. -1.
        -11    1    4    4    0    0 -0.13171710828E+02 -0.13210912000E+02  0.64058519605E+01  0.19724530453E+02  0.51100000000E-03 0.  1.
        -12    1    4    4    0    0 -0.19064369353E+02  0.12044220058E+02  0.14775484602E+02  0.26959754466E+02  0.00000000000E+00 0.  1.
</event>
<event>
 8    1  0.1254059E-006  0.9118800E+02  0.7816164E-02  0.1184000E+00
        -11   -1    0    0    0    0  0.00000000000E+00  0.00000000000E+00  0.45593999997E+02  0.45594000000E+02  0.51100000000E-03 0.  1.
         11   -1    0    0    0    0 -0.00000000000E+00 -0.00000000000E+00 -0.45593999997E+02  0.45594000000E+02  0.51100000000E-03 0. -1.
         23    2    1    2    0    0  0.00000000000E+00 -0.35527136788E-14  0.00000000000E+00  0.91188000000E+02  0.91188000000E+02 0.  0.
    9900012    2    3    3    0    0 -0.32290404306E+02  0.16906468307E+02  0.52232792126E+01  0.54367061302E+02  0.39999947851E+02 0.  0.
        -12    1    3    3    0    0  0.32290404306E+02 -0.16906468307E+02 -0.52232792126E+01  0.36820938698E+02  0.00000000000E+00 0.  1.
         11    1    4    4    0    0 -0.13194731399E+02  0.21511716801E+02 -0.45262741517E+01  0.25638682774E+02  0.51100000000E-03 0. -1.
        -11    1    4    4    0    0  0.47420332234E+00  0.25846097929E+01  0.72727740206E+01  0.77329372678E+01  0.51100000000E-03 0.  1.
        -12    1    4    4    0    0 -0.19569876229E+02 -0.71898582872E+01  0.24767793438E+01  0.20995441261E+02  0.00000000000E+00 0.  1.
</event>
<event>
 8    1  0.1254059E-006  0.9118800E+02  0.7816164E-02  0.1184000E+00
        -11   -1    0    0    0    0  0.00000000000E+00  0.00000000000E+00  0.45593999997E+02  0.45594000000E+02  0.51100000000E-03 0. -1.
         11   -1    0    0    0    0 -0.00000000000E+00 -0.00000000000E+00 -0.45593999997E+02  0.45594000000E+02  0.51100000000E-03 0.  1.
         23    2    1    2    0    0 -0.88817841970E-15  0.35527136788E-14  0.00000000000E+00  0.91188000000E+02  0.91188000000E+02 0.  0.
    9900012    2    3    3    0    0 -0.62000905678E+01  0.25699649325E+02 -0.25629377736E+02  0.54367107811E+02  0.40000053877E+02 0.  0.
         12    1    3    3    0    0  0.62000905678E+01 -0.25699649325E+02  0.25629377736E+02  0.36820892189E+02  0.00000000000E+00 0. -1.
         11    1    4    4    0    0  0.65806180735E+01  0.56037842443E+01 -0.14370033302E+02  0.16769161859E+02  0.51100000000E-03 0. -1.
        -11    1    4    4    0    0 -0.13978655158E+02 -0.63374953091E+00 -0.91674998289E+01  0.16728642858E+02  0.51100000000E-03 0.  1.
         12    1    4    4    0    0  0.11979465170E+01  0.20729614611E+02 -0.20918446050E+01  0.20869303094E+02  0.00000000000E+00 0. -1.
</event>
<event>
 8    1  0.1254059E-006  0.9118800E+02  0.7816164E-02  0.1184000E+00
        -11   -1    0    0    0    0  0.00000000000E+00  0.00000000000E+00  0.45593999997E+02  0.45594000000E+02  0.51100000000E-03 0. -1.
         11   -1    0    0    0    0 -0.00000000000E+00 -0.00000000000E+00 -0.45593999997E+02  0.45594000000E+02  0.51100000000E-03 0.  1.
         23    2    1    2    0    0  0.00000000000E+00  0.00000000000E+00  0.00000000000E+00  0.91188000000E+02  0.91188000000E+02 0.  0.
    9900012    2    3    3    0    0 -0.15240012516E+02  0.29571770354E+02  0.15780760574E+02  0.54367082200E+02  0.39999995491E+02 0.  0.
         12    1    3    3    0    0  0.15240012516E+02 -0.29571770354E+02 -0.15780760574E+02  0.36820917800E+02  0.00000000000E+00 0. -1.
         11    1    4    4    0    0 -0.10750712835E+02 -0.63082760224E+01  0.78021635328E+01  0.14705302747E+02  0.51100000000E-03 0. -1.
        -11    1    4    4    0    0 -0.81917369066E+01  0.11443105639E+02  0.18197912256E+01  0.14190167743E+02  0.51100000000E-03 0.  1.
         12    1    4    4    0    0  0.37024372254E+01  0.24436940737E+02  0.61588058154E+01  0.25471611710E+02  0.00000000000E+00 0. -1.
</event>
<event>
 8    1  0.1254059E-006  0.9118800E+02  0.7816164E-02  0.1184000E+00
        -11   -1    0    0    0    0  0.00000000000E+00  0.00000000000E+00  0.45593999997E+02  0.45594000000E+02  0.51100000000E-03 0.  1.
         11   -1    0    0    0    0 -0.00000000000E+00 -0.00000000000E+00 -0.45593999997E+02  0.45594000000E+02  0.51100000000E-03 0. -1.
         23    2    1    2    0    0  0.00000000000E+00  0.00000000000E+00  0.00000000000E+00  0.91188000000E+02  0.91188000000E+02 0.  0.
    9900012    2    3    3    0    0 -0.20815748260E+01  0.68184098952E+01 -0.36124375180E+02  0.54366889895E+02  0.39999557091E+02 0.  0.
        -12    1    3    3    0    0  0.20815748260E+01 -0.68184098952E+01  0.36124375180E+02  0.36821110105E+02  0.00000000000E+00 0.  1.
         11    1    4    4    0    0  0.50873129264E+00  0.11291876804E+02 -0.20438128079E+02  0.23355563983E+02  0.51100000000E-03 0. -1.
        -11    1    4    4    0    0 -0.96864456704E+01  0.73366980931E+01 -0.35733627367E+01  0.12665831601E+02  0.51100000000E-03 0.  1.
         12    1    4    4    0    0  0.70961395517E+01 -0.11810165002E+02 -0.12112884364E+02  0.18345494311E+02  0.00000000000E+00 0. -1.
</event>
<event>
 8    1  0.1254059E-006  0.9118800E+02  0.7816164E-02  0.1184000E+00
        -11   -1    0    0    0    0  0.00000000000E+00  0.00000000000E+00  0.45593999997E+02  0.45594000000E+02  0.51100000000E-03 0. -1.
         11   -1    0    0    0    0 -0.00000000000E+00 -0.00000000000E+00 -0.45593999997E+02  0.45594000000E+02  0.51100000000E-03 0.  1.
         23    2    1    2    0    0  0.17763568394E-14  0.00000000000E+00  0.00000000000E+00  0.91188000000E+02  0.91188000000E+02 0.  0.
    9900012    2    3    3    0    0 -0.68579692231E+01  0.16843923248E+02 -0.32016089278E+02  0.54367089298E+02  0.40000011673E+02 0.  0.
         12    1    3    3    0    0  0.68579692231E+01 -0.16843923248E+02  0.32016089278E+02  0.36820910702E+02  0.00000000000E+00 0. -1.
         11    1    4    4    0    0 -0.66277436696E+01  0.41552095235E+01 -0.29351749820E+01  0.83551184774E+01  0.51100000000E-03 0. -1.
        -11    1    4    4    0    0  0.82130499753E+01  0.16727075648E+02 -0.37512240371E+01  0.19008443694E+02  0.51100000000E-03 0.  1.
        -12    1    4    4    0    0 -0.84432755289E+01 -0.40383619236E+01 -0.25329690259E+02  0.27003527127E+02  0.00000000000E+00 0.  1.
</event>
<event>
 8    1  0.1254059E-006  0.9118800E+02  0.7816164E-02  0.1184000E+00
        -11   -1    0    0    0    0  0.00000000000E+00  0.00000000000E+00  0.45593999997E+02  0.45594000000E+02  0.51100000000E-03 0.  1.
         11   -1    0    0    0    0 -0.00000000000E+00 -0.00000000000E+00 -0.45593999997E+02  0.45594000000E+02  0.51100000000E-03 0. -1.
         23    2    1    2    0    0  0.00000000000E+00  0.00000000000E+00 -0.88817841970E-15  0.91188000000E+02  0.91188000000E+02 0.  0.
    9900012    2    3    3    0    0  0.95061692377E+01 -0.35379460283E+02 -0.37023139698E+01  0.54367073990E+02  0.39999976776E+02 0.  0.
         12    1    3    3    0    0 -0.95061692377E+01  0.35379460283E+02  0.37023139698E+01  0.36820926010E+02  0.00000000000E+00 0. -1.
         11    1    4    4    0    0  0.50057150788E+01  0.65197611436E+00 -0.85155588072E+01  0.98993433299E+01  0.51100000000E-03 0. -1.
        -11    1    4    4    0    0  0.76586450198E+01 -0.10087665043E+01  0.51804267147E+01  0.93010362115E+01  0.51100000000E-03 0.  1.
         12    1    4    4    0    0 -0.31581908609E+01 -0.35022669893E+02 -0.36718187732E+00  0.35166694449E+02  0.00000000000E+00 0. -1.
</event>
<event>
 8    1  0.1254059E-006  0.9118800E+02  0.7816164E-02  0.1184000E+00
        -11   -1    0    0    0    0  0.00000000000E+00  0.00000000000E+00  0.45593999997E+02  0.45594000000E+02  0.51100000000E-03 0. -1.
         11   -1    0    0    0    0 -0.00000000000E+00 -0.00000000000E+00 -0.45593999997E+02  0.45594000000E+02  0.51100000000E-03 0.  1.
         23    2    1    2    0    0 -0.35527136788E-14  0.00000000000E+00  0.00000000000E+00  0.91188000000E+02  0.91188000000E+02 0.  0.
    9900012    2    3    3    0    0  0.19390040619E+02 -0.23155196287E+02  0.21062870485E+02  0.54367064334E+02  0.39999954762E+02 0.  0.
         12    1    3    3    0    0 -0.19390040619E+02  0.23155196287E+02 -0.21062870485E+02  0.36820935666E+02  0.00000000000E+00 0. -1.
         11    1    4    4    0    0 -0.56217325149E+00 -0.17692214409E+02  0.22348686951E+02  0.28509547491E+02  0.51100000000E-03 0. -1.
        -11    1    4    4    0    0  0.23085937093E+01 -0.53723719077E+01 -0.51540247458E+01  0.77946107132E+01  0.51100000000E-03 0.  1.
         12    1    4    4    0    0  0.17643620161E+02 -0.90609969860E-01  0.38682082795E+01  0.18062906129E+02  0.00000000000E+00 0. -1.
</event>
<event>
 8    1  0.1254059E-006  0.9118800E+02  0.7816164E-02  0.1184000E+00
        -11   -1    0    0    0    0  0.00000000000E+00  0.00000000000E+00  0.45593999997E+02  0.45594000000E+02  0.51100000000E-03 0.  1.
         11   -1    0    0    0    0 -0.00000000000E+00 -0.00000000000E+00 -0.45593999997E+02  0.45594000000E+02  0.51100000000E-03 0. -1.
         23    2    1    2    0    0  0.00000000000E+00  0.17763568394E-14  0.17763568394E-14  0.91188000000E+02  0.91188000000E+02 0.  0.
    9900012    2    3    3    0    0 -0.34308496017E+02  0.13199029051E+02  0.21196440015E+01  0.54367079893E+02  0.39999990232E+02 0.  0.
         12    1    3    3    0    0  0.34308496017E+02 -0.13199029051E+02 -0.21196440015E+01  0.36820920107E+02  0.00000000000E+00 0. -1.
         11    1    4    4    0    0 -0.10251929504E+02 -0.75269616920E+01  0.14114989213E+02  0.18999740304E+02  0.51100000000E-03 0.  1.
        -11    1    4    4    0    0 -0.20661941387E+02  0.12367820180E+02 -0.10286463150E+02  0.26185685446E+02  0.51100000000E-03 0. -1.
         12    1    4    4    0    0 -0.33946251254E+01  0.83581705625E+01 -0.17088820617E+01  0.91816541427E+01  0.00000000000E+00 0. -1.
</event>
<event>
 8    1  0.1254059E-006  0.9118800E+02  0.7816164E-02  0.1184000E+00
        -11   -1    0    0    0    0  0.00000000000E+00  0.00000000000E+00  0.45593999997E+02  0.45594000000E+02  0.51100000000E-03 0.  1.
         11   -1    0    0    0    0 -0.00000000000E+00 -0.00000000000E+00 -0.45593999997E+02  0.45594000000E+02  0.51100000000E-03 0. -1.
         23    2    1    2    0    0  0.17763568394E-14  0.00000000000E+00  0.00000000000E+00  0.91188000000E+02  0.91188000000E+02 0.  0.
    9900012    2    3    3    0    0  0.99638767745E+01  0.27033741239E+02 -0.22927615997E+02  0.54367114880E+02  0.40000069991E+02 0.  0.
         12    1    3    3    0    0 -0.99638767745E+01 -0.27033741239E+02  0.22927615997E+02  0.36820885120E+02  0.00000000000E+00 0. -1.
         11    1    4    4    0    0  0.11259164306E+02  0.10068231280E+02 -0.12178404279E+02  0.19402360502E+02  0.51100000000E-03 0. -1.
        -11    1    4    4    0    0 -0.24637657143E+01  0.20316438949E+02  0.30725755142E+01  0.20694650362E+02  0.51100000000E-03 0.  1.
        -12    1    4    4    0    0  0.11684781823E+01 -0.33509289898E+01 -0.13821787232E+02  0.14270104016E+02  0.00000000000E+00 0.  1.
</event>
<event>
 8    1  0.1254059E-006  0.9118800E+02  0.7816164E-02  0.1184000E+00
        -11   -1    0    0    0    0  0.00000000000E+00  0.00000000000E+00  0.45593999997E+02  0.45594000000E+02  0.51100000000E-03 0.  1.
         11   -1    0    0    0    0 -0.00000000000E+00 -0.00000000000E+00 -0.45593999997E+02  0.45594000000E+02  0.51100000000E-03 0. -1.
         23    2    1    2    0    0  0.00000000000E+00  0.00000000000E+00  0.00000000000E+00  0.91188000000E+02  0.91188000000E+02 0.  0.
    9900012    2    3    3    0    0 -0.42477647238E+01 -0.87952508188E+01  0.35501856806E+02  0.54367057878E+02  0.39999940044E+02 0.  0.
         12    1    3    3    0    0  0.42477647238E+01  0.87952508188E+01 -0.35501856806E+02  0.36820942122E+02  0.00000000000E+00 0. -1.
         11    1    4    4    0    0  0.55570822789E+01 -0.72659690455E+01 -0.25776832033E+01  0.95036793182E+01  0.51100000000E-03 0. -1.
        -11    1    4    4    0    0 -0.13129027539E+02 -0.62093939974E+01  0.14230193617E+02  0.20332888348E+02  0.51100000000E-03 0.  1.
         12    1    4    4    0    0  0.33241805367E+01  0.46801122241E+01  0.23849346392E+02  0.24530490212E+02  0.00000000000E+00 0. -1.
</event>
<event>
 8    1  0.1254059E-006  0.9118800E+02  0.7816164E-02  0.1184000E+00
        -11   -1    0    0    0    0  0.00000000000E+00  0.00000000000E+00  0.45593999997E+02  0.45594000000E+02  0.51100000000E-03 0.  1.
         11   -1    0    0    0    0 -0.00000000000E+00 -0.00000000000E+00 -0.45593999997E+02  0.45594000000E+02  0.51100000000E-03 0. -1.
         23    2    1    2    0    0  0.00000000000E+00  0.15820678101E-14  0.00000000000E+00  0.91188000000E+02  0.91188000000E+02 0.  0.
    9900012    2    3    3    0    0 -0.20344437406E+02  0.85395099929E-01  0.30690007539E+02  0.54367082189E+02  0.39999995466E+02 0.  0.
         12    1    3    3    0    0  0.20344437406E+02 -0.85395099929E-01 -0.30690007539E+02  0.36820917811E+02  0.00000000000E+00 0. -1.
         11    1    4    4    0    0 -0.14822546759E+02 -0.10521367941E+02  0.10563754700E+02  0.21023795790E+02  0.51100000000E-03 0.  1.
        -11    1    4    4    0    0 -0.28261115202E+01  0.13569010412E+02  0.24036149704E+02  0.27746016701E+02  0.51100000000E-03 0. -1.
         12    1    4    4    0    0 -0.26957791266E+01 -0.29622473713E+01 -0.39098968644E+01  0.55972696985E+01  0.00000000000E+00 0. -1.
</event>
<event>
 8    1  0.1254059E-006  0.9118800E+02  0.7816164E-02  0.1184000E+00
        -11   -1    0    0    0    0  0.00000000000E+00  0.00000000000E+00  0.45593999997E+02  0.45594000000E+02  0.51100000000E-03 0.  1.
         11   -1    0    0    0    0 -0.00000000000E+00 -0.00000000000E+00 -0.45593999997E+02  0.45594000000E+02  0.51100000000E-03 0. -1.
         23    2    1    2    0    0  0.00000000000E+00 -0.88817841970E-15  0.35527136788E-14  0.91188000000E+02  0.91188000000E+02 0.  0.
    9900012    2    3    3    0    0 -0.30220977388E+02 -0.53482191827E+01  0.20343771523E+02  0.54367082541E+02  0.39999996269E+02 0.  0.
         12    1    3    3    0    0  0.30220977388E+02  0.53482191827E+01 -0.20343771523E+02  0.36820917459E+02  0.00000000000E+00 0. -1.
         11    1    4    4    0    0 -0.12179535709E+02  0.56743752339E+00  0.16306865606E+02  0.20361162579E+02  0.51100000000E-03 0. -1.
        -11    1    4    4    0    0  0.98200128433E+00 -0.78417062044E+01 -0.81333998797E+01  0.11340585372E+02  0.51100000000E-03 0.  1.
        -12    1    4    4    0    0 -0.19023442964E+02  0.19260494983E+01  0.12170305797E+02  0.22665334590E+02  0.00000000000E+00 0.  1.
</event>
<event>
 8    1  0.1254059E-006  0.9118800E+02  0.7816164E-02  0.1184000E+00
        -11   -1    0    0    0    0  0.00000000000E+00  0.00000000000E+00  0.45593999997E+02  0.45594000000E+02  0.51100000000E-03 0.  1.
         11   -1    0    0    0    0 -0.00000000000E+00 -0.00000000000E+00 -0.45593999997E+02  0.45594000000E+02  0.51100000000E-03 0. -1.
         23    2    1    2    0    0 -0.35527136788E-14 -0.35527136788E-14  0.00000000000E+00  0.91188000000E+02  0.91188000000E+02 0.  0.
    9900012    2    3    3    0    0 -0.21168041362E+02  0.26456721460E+02  0.14413046017E+02  0.54367082290E+02  0.39999995696E+02 0.  0.
         12    1    3    3    0    0  0.21168041362E+02 -0.26456721460E+02 -0.14413046017E+02  0.36820917710E+02  0.00000000000E+00 0. -1.
         11    1    4    4    0    0  0.11187574354E+00  0.12355212728E+02  0.43794189299E+00  0.12363478115E+02  0.51100000000E-03 0. -1.
        -11    1    4    4    0    0  0.78877411080E+00  0.10169467500E+02 -0.61230573442E+01  0.11896724983E+02  0.51100000000E-03 0.  1.
         12    1    4    4    0    0 -0.22068691216E+02  0.39320412323E+01  0.20098161469E+02  0.30106879192E+02  0.00000000000E+00 0. -1.
</event>
<event>
 8    1  0.1254059E-006  0.9118800E+02  0.7816164E-02  0.1184000E+00
        -11   -1    0    0    0    0  0.00000000000E+00  0.00000000000E+00  0.45593999997E+02  0.45594000000E+02  0.51100000000E-03 0.  1.
         11   -1    0    0    0    0 -0.00000000000E+00 -0.00000000000E+00 -0.45593999997E+02  0.45594000000E+02  0.51100000000E-03 0. -1.
         23    2    1    2    0    0 -0.17763568394E-14 -0.71054273576E-14  0.00000000000E+00  0.91188000000E+02  0.91188000000E+02 0.  0.
    9900012    2    3    3    0    0  0.10275537487E+02 -0.32912357519E+02  0.12921701404E+02  0.54367077751E+02  0.39999985348E+02 0.  0.
         12    1    3    3    0    0 -0.10275537487E+02  0.32912357519E+02 -0.12921701404E+02  0.36820922249E+02  0.00000000000E+00 0. -1.
         11    1    4    4    0    0  0.15761428437E+02 -0.54521319334E+00 -0.96139564563E+00  0.15800131824E+02  0.51100000000E-03 0. -1.
        -11    1    4    4    0    0 -0.87944133235E+01 -0.23378873403E+02  0.49381689790E+01  0.25461715190E+02  0.51100000000E-03 0.  1.
        -12    1    4    4    0    0  0.33085223739E+01 -0.89882709228E+01  0.89449280703E+01  0.13105230737E+02  0.00000000000E+00 0.  1.
</event>
<event>
 8    1  0.1254059E-006  0.9118800E+02  0.7816164E-02  0.1184000E+00
        -11   -1    0    0    0    0  0.00000000000E+00  0.00000000000E+00  0.45593999997E+02  0.45594000000E+02  0.51100000000E-03 0.  1.
         11   -1    0    0    0    0 -0.00000000000E+00 -0.00000000000E+00 -0.45593999997E+02  0.45594000000E+02  0.51100000000E-03 0. -1.
         23    2    1    2    0    0  0.00000000000E+00  0.00000000000E+00  0.00000000000E+00  0.91188000000E+02  0.91188000000E+02 0.  0.
    9900012    2    3    3    0    0 -0.13699162649E+02 -0.22407764807E+02 -0.25806995404E+02  0.54367136448E+02  0.40000119159E+02 0.  0.
        -12    1    3    3    0    0  0.13699162649E+02  0.22407764807E+02  0.25806995404E+02  0.36820863552E+02  0.00000000000E+00 0.  1.
         11    1    4    4    0    0  0.97895715270E+01 -0.71389384599E+01 -0.91575589308E+01  0.15187529057E+02  0.51100000000E-03 0. -1.
        -11    1    4    4    0    0 -0.16964388009E+02 -0.20512887626E+02 -0.98064264766E+01  0.28367851871E+02  0.51100000000E-03 0.  1.
        -12    1    4    4    0    0 -0.65243461675E+01  0.52440612786E+01 -0.68430099970E+01  0.10811755520E+02  0.00000000000E+00 0.  1.
</event>
<event>
 8    1  0.1254059E-006  0.9118800E+02  0.7816164E-02  0.1184000E+00
        -11   -1    0    0    0    0  0.00000000000E+00  0.00000000000E+00  0.45593999997E+02  0.45594000000E+02  0.51100000000E-03 0. -1.
         11   -1    0    0    0    0 -0.00000000000E+00 -0.00000000000E+00 -0.45593999997E+02  0.45594000000E+02  0.51100000000E-03 0.  1.
         23    2    1    2    0    0  0.00000000000E+00 -0.12385925618E-14  0.17763568394E-14  0.91188000000E+02  0.91188000000E+02 0.  0.
    9900012    2    3    3    0    0  0.34048406704E+02  0.29135021983E-01  0.14017242785E+02  0.54367109962E+02  0.40000058780E+02 0.  0.
        -12    1    3    3    0    0 -0.34048406704E+02 -0.29135021983E-01 -0.14017242785E+02  0.36820890038E+02  0.00000000000E+00 0.  1.
         11    1    4    4    0    0  0.90739287068E+01 -0.16160479093E+01  0.11063875412E+02  0.14399900431E+02  0.51100000000E-03 0. -1.
        -11    1    4    4    0    0  0.78164812784E+01 -0.79570881508E+01 -0.11148954161E+02  0.15770599562E+02  0.51100000000E-03 0.  1.
        -12    1    4    4    0    0  0.17157996718E+02  0.96022710821E+01  0.14102321534E+02  0.24196609968E+02  0.00000000000E+00 0.  1.
</event>
<event>
 8    1  0.1254059E-006  0.9118800E+02  0.7816164E-02  0.1184000E+00
        -11   -1    0    0    0    0  0.00000000000E+00  0.00000000000E+00  0.45593999997E+02  0.45594000000E+02  0.51100000000E-03 0. -1.
         11   -1    0    0    0    0 -0.00000000000E+00 -0.00000000000E+00 -0.45593999997E+02  0.45594000000E+02  0.51100000000E-03 0.  1.
         23    2    1    2    0    0  0.00000000000E+00  0.00000000000E+00 -0.35527136788E-14  0.91188000000E+02  0.91188000000E+02 0.  0.
    9900012    2    3    3    0    0  0.29636854881E+01  0.25650673928E+02 -0.26249561258E+02  0.54367082428E+02  0.39999996011E+02 0.  0.
         12    1    3    3    0    0 -0.29636854881E+01 -0.25650673928E+02  0.26249561258E+02  0.36820917572E+02  0.00000000000E+00 0. -1.
         11    1    4    4    0    0 -0.50347244109E+01 -0.28476529844E+01 -0.29200259456E+01  0.64795161238E+01  0.51100000000E-03 0. -1.
        -11    1    4    4    0    0 -0.29527378871E+01  0.29729341276E+02 -0.21277256187E+02  0.36677977382E+02  0.51100000000E-03 0.  1.
         12    1    4    4    0    0  0.10951147786E+02 -0.12310143635E+01 -0.20522791255E+01  0.11209588922E+02  0.00000000000E+00 0. -1.
</event>
<event>
 8    1  0.1254059E-006  0.9118800E+02  0.7816164E-02  0.1184000E+00
        -11   -1    0    0    0    0  0.00000000000E+00  0.00000000000E+00  0.45593999997E+02  0.45594000000E+02  0.51100000000E-03 0.  1.
         11   -1    0    0    0    0 -0.00000000000E+00 -0.00000000000E+00 -0.45593999997E+02  0.45594000000E+02  0.51100000000E-03 0. -1.
         23    2    1    2    0    0  0.00000000000E+00  0.00000000000E+00  0.00000000000E+00  0.91188000000E+02  0.91188000000E+02 0.  0.
    9900012    2    3    3    0    0  0.92472846797E+01  0.34212898765E+02 -0.99872710750E+01  0.54367077967E+02  0.39999985841E+02 0.  0.
        -12    1    3    3    0    0 -0.92472846797E+01 -0.34212898765E+02  0.99872710750E+01  0.36820922033E+02  0.00000000000E+00 0.  1.
         11    1    4    4    0    0 -0.12412816909E+02  0.15576328027E+02  0.28773905523E+01  0.20124099858E+02  0.51100000000E-03 0. -1.
        -11    1    4    4    0    0  0.94121399609E+01  0.15723691192E+02 -0.37627439921E+01  0.18707781428E+02  0.51100000000E-03 0.  1.
        -12    1    4    4    0    0  0.12247961628E+02  0.29128795455E+01 -0.91019176352E+01  0.15535196681E+02  0.00000000000E+00 0.  1.
</event>
<event>
 8    1  0.1254059E-006  0.9118800E+02  0.7816164E-02  0.1184000E+00
        -11   -1    0    0    0    0  0.00000000000E+00  0.00000000000E+00  0.45593999997E+02  0.45594000000E+02  0.51100000000E-03 0.  1.
         11   -1    0    0    0    0 -0.00000000000E+00 -0.00000000000E+00 -0.45593999997E+02  0.45594000000E+02  0.51100000000E-03 0. -1.
         23    2    1    2    0    0  0.00000000000E+00  0.35527136788E-14  0.00000000000E+00  0.91188000000E+02  0.91188000000E+02 0.  0.
    9900012    2    3    3    0    0 -0.24626322931E+02 -0.24445408803E+02 -0.12318587729E+02  0.54367063071E+02  0.39999951884E+02 0.  0.
        -12    1    3    3    0    0  0.24626322931E+02  0.24445408803E+02  0.12318587729E+02  0.36820936929E+02  0.00000000000E+00 0.  1.
         11    1    4    4    0    0 -0.57073922276E+01 -0.18665433968E+02 -0.16147705775E+02  0.25332215721E+02  0.51100000000E-03 0. -1.
        -11    1    4    4    0    0  0.34264870739E+01 -0.50268947783E+01 -0.98899477153E+00  0.61634889226E+01  0.51100000000E-03 0.  1.
        -12    1    4    4    0    0 -0.22345417777E+02 -0.75308005643E+00  0.48181128176E+01  0.22871358428E+02  0.00000000000E+00 0.  1.
</event>
<event>
 8    1  0.1254059E-006  0.9118800E+02  0.7816164E-02  0.1184000E+00
        -11   -1    0    0    0    0  0.00000000000E+00  0.00000000000E+00  0.45593999997E+02  0.45594000000E+02  0.51100000000E-03 0. -1.
         11   -1    0    0    0    0 -0.00000000000E+00 -0.00000000000E+00 -0.45593999997E+02  0.45594000000E+02  0.51100000000E-03 0.  1.
         23    2    1    2    0    0 -0.17763568394E-14  0.17763568394E-14  0.00000000000E+00  0.91188000000E+02  0.91188000000E+02 0.  0.
    9900012    2    3    3    0    0  0.93060583897E+01 -0.93180509907E+01  0.34385326112E+02  0.54367089516E+02  0.40000012170E+02 0.  0.
        -12    1    3    3    0    0 -0.93060583897E+01  0.93180509907E+01 -0.34385326112E+02  0.36820910484E+02  0.00000000000E+00 0.  1.
         11    1    4    4    0    0  0.28099486310E+01 -0.12196366680E+02  0.15638242768E+02  0.20030022682E+02  0.51100000000E-03 0. -1.
        -11    1    4    4    0    0  0.20549308592E+01  0.12041370755E+02 -0.85776690813E+00  0.12245534485E+02  0.51100000000E-03 0.  1.
        -12    1    4    4    0    0  0.44411788995E+01 -0.91630550657E+01  0.19604850252E+02  0.22091532350E+02  0.00000000000E+00 0.  1.
</event>
<event>
 8    1  0.1254059E-006  0.9118800E+02  0.7816164E-02  0.1184000E+00
        -11   -1    0    0    0    0  0.00000000000E+00  0.00000000000E+00  0.45593999997E+02  0.45594000000E+02  0.51100000000E-03 0. -1.
         11   -1    0    0    0    0 -0.00000000000E+00 -0.00000000000E+00 -0.45593999997E+02  0.45594000000E+02  0.51100000000E-03 0.  1.
         23    2    1    2    0    0  0.00000000000E+00 -0.17763568394E-14  0.71054273576E-14  0.91188000000E+02  0.91188000000E+02 0.  0.
    9900012    2    3    3    0    0 -0.92570708117E+01  0.11907505381E+02  0.33590155624E+02  0.54367073895E+02  0.39999976559E+02 0.  0.
        -12    1    3    3    0    0  0.92570708117E+01 -0.11907505381E+02 -0.33590155624E+02  0.36820926105E+02  0.00000000000E+00 0.  1.
         11    1    4    4    0    0  0.47058711996E+01 -0.60328003181E+01  0.15500836122E+02  0.17286290064E+02  0.51100000000E-03 0. -1.
        -11    1    4    4    0    0 -0.12881034670E+02  0.23421289751E+02  0.14142290441E+02  0.30240407520E+02  0.51100000000E-03 0.  1.
        -12    1    4    4    0    0 -0.10819073418E+01 -0.54809840524E+01  0.39470290604E+01  0.68403763115E+01  0.00000000000E+00 0.  1.
</event>
<event>
 8    1  0.1254059E-006  0.9118800E+02  0.7816164E-02  0.1184000E+00
        -11   -1    0    0    0    0  0.00000000000E+00  0.00000000000E+00  0.45593999997E+02  0.45594000000E+02  0.51100000000E-03 0.  1.
         11   -1    0    0    0    0 -0.00000000000E+00 -0.00000000000E+00 -0.45593999997E+02  0.45594000000E+02  0.51100000000E-03 0. -1.
         23    2    1    2    0    0 -0.17763568394E-14  0.00000000000E+00 -0.35527136788E-14  0.91188000000E+02  0.91188000000E+02 0.  0.
    9900012    2    3    3    0    0  0.11649526499E+02 -0.30954497159E+02 -0.16182951735E+02  0.54367078109E+02  0.39999986166E+02 0.  0.
        -12    1    3    3    0    0 -0.11649526499E+02  0.30954497159E+02  0.16182951735E+02  0.36820921891E+02  0.00000000000E+00 0.  1.
         11    1    4    4    0    0 -0.60789482394E+01 -0.80168330510E+01 -0.70484636838E+01  0.12284301544E+02  0.51100000000E-03 0. -1.
        -11    1    4    4    0    0 -0.41925430363E+01  0.14000341311E+01 -0.81994658221E+01  0.93149746488E+01  0.51100000000E-03 0.  1.
         12    1    4    4    0    0  0.21921017774E+02 -0.24337698239E+02 -0.93502222866E+00  0.32767801916E+02  0.00000000000E+00 0. -1.
</event>
<event>
 8    1  0.1254059E-006  0.9118800E+02  0.7816164E-02  0.1184000E+00
        -11   -1    0    0    0    0  0.00000000000E+00  0.00000000000E+00  0.45593999997E+02  0.45594000000E+02  0.51100000000E-03 0.  1.
         11   -1    0    0    0    0 -0.00000000000E+00 -0.00000000000E+00 -0.45593999997E+02  0.45594000000E+02  0.51100000000E-03 0. -1.
         23    2    1    2    0    0  0.00000000000E+00 -0.17763568394E-14 -0.88817841970E-15  0.91188000000E+02  0.91188000000E+02 0.  0.
    9900012    2    3    3    0    0 -0.34024018834E+02 -0.13850790386E+02 -0.25102289207E+01  0.54367088806E+02  0.40000010551E+02 0.  0.
         12    1    3    3    0    0  0.34024018834E+02  0.13850790386E+02  0.25102289207E+01  0.36820911194E+02  0.00000000000E+00 0. -1.
         11    1    4    4    0    0 -0.10078922942E+02  0.54649731211E+01  0.44817374286E+00  0.11473947832E+02  0.51100000000E-03 0. -1.
        -11    1    4    4    0    0 -0.28696662068E+02 -0.81388722093E+01 -0.58780565146E+01  0.30402157873E+02  0.51100000000E-03 0.  1.
         12    1    4    4    0    0  0.47515661770E+01 -0.11176891297E+02  0.29196538510E+01  0.12490983101E+02  0.00000000000E+00 0. -1.
</event>
<event>
 8    1  0.1254059E-006  0.9118800E+02  0.7816164E-02  0.1184000E+00
        -11   -1    0    0    0    0  0.00000000000E+00  0.00000000000E+00  0.45593999997E+02  0.45594000000E+02  0.51100000000E-03 0. -1.
         11   -1    0    0    0    0 -0.00000000000E+00 -0.00000000000E+00 -0.45593999997E+02  0.45594000000E+02  0.51100000000E-03 0.  1.
         23    2    1    2    0    0  0.00000000000E+00 -0.49960036108E-15  0.17763568394E-14  0.91188000000E+02  0.91188000000E+02 0.  0.
    9900012    2    3    3    0    0 -0.35832310706E+02 -0.29302661339E+00  0.84698948860E+01  0.54367089168E+02  0.40000011376E+02 0.  0.
        -12    1    3    3    0    0  0.35832310706E+02  0.29302661339E+00 -0.84698948860E+01  0.36820910832E+02  0.00000000000E+00 0.  1.
         11    1    4    4    0    0 -0.75832050837E+01  0.11187089188E+02 -0.50660150006E+01  0.14433311196E+02  0.51100000000E-03 0. -1.
        -11    1    4    4    0    0 -0.73524249107E+01 -0.13180072040E+02  0.21409265841E+00  0.15093650552E+02  0.51100000000E-03 0.  1.
         12    1    4    4    0    0 -0.20896680712E+02  0.16999562393E+01  0.13321817228E+02  0.24840127420E+02  0.00000000000E+00 0. -1.
</event>
<event>
 8    1  0.1254059E-006  0.9118800E+02  0.7816164E-02  0.1184000E+00
        -11   -1    0    0    0    0  0.00000000000E+00  0.00000000000E+00  0.45593999997E+02  0.45594000000E+02  0.51100000000E-03 0. -1.
         11   -1    0    0    0    0 -0.00000000000E+00 -0.00000000000E+00 -0.45593999997E+02  0.45594000000E+02  0.51100000000E-03 0.  1.
         23    2    1    2    0    0  0.88817841970E-15 -0.88817841970E-15  0.00000000000E+00  0.91188000000E+02  0.91188000000E+02 0.  0.
    9900012    2    3    3    0    0 -0.42494997110E+01  0.44540192932E+01  0.36302667329E+02  0.54367079440E+02  0.39999989200E+02 0.  0.
        -12    1    3    3    0    0  0.42494997110E+01 -0.44540192932E+01 -0.36302667329E+02  0.36820920560E+02  0.00000000000E+00 0.  1.
         11    1    4    4    0    0  0.68920636092E+00  0.45962895186E+01  0.12801754358E+02  0.13619317078E+02  0.51100000000E-03 0. -1.
        -11    1    4    4    0    0 -0.11904732162E+01 -0.10730518114E+02  0.26922068144E+02  0.29006188975E+02  0.51100000000E-03 0.  1.
        -12    1    4    4    0    0 -0.37482328557E+01  0.10588247888E+02 -0.34211551730E+01  0.11741573387E+02  0.00000000000E+00 0.  1.
</event>
<event>
 8    1  0.1254059E-006  0.9118800E+02  0.7816164E-02  0.1184000E+00
        -11   -1    0    0    0    0  0.00000000000E+00  0.00000000000E+00  0.45593999997E+02  0.45594000000E+02  0.51100000000E-03 0.  1.
         11   -1    0    0    0    0 -0.00000000000E+00 -0.00000000000E+00 -0.45593999997E+02  0.45594000000E+02  0.51100000000E-03 0. -1.
         23    2    1    2    0    0  0.00000000000E+00  0.00000000000E+00  0.17763568394E-14  0.91188000000E+02  0.91188000000E+02 0.  0.
    9900012    2    3    3    0    0  0.19576817408E+01  0.36543467457E+02 -0.40647476195E+01  0.54367086041E+02  0.40000004247E+02 0.  0.
        -12    1    3    3    0    0 -0.19576817408E+01 -0.36543467457E+02  0.40647476195E+01  0.36820913959E+02  0.00000000000E+00 0.  1.
         11    1    4    4    0    0 -0.72515748494E+00  0.34690958334E+01  0.44658895249E+01  0.57012848367E+01  0.51100000000E-03 0.  1.
        -11    1    4    4    0    0 -0.85934862981E+01  0.28430313473E+02 -0.16617077850E+02  0.34033189793E+02  0.51100000000E-03 0. -1.
         12    1    4    4    0    0  0.11276325524E+02  0.46440581509E+01  0.80864407059E+01  0.14632611412E+02  0.00000000000E+00 0. -1.
</event>
<event>
 8    1  0.1254059E-006  0.9118800E+02  0.7816164E-02  0.1184000E+00
        -11   -1    0    0    0    0  0.00000000000E+00  0.00000000000E+00  0.45593999997E+02  0.45594000000E+02  0.51100000000E-03 0. -1.
         11   -1    0    0    0    0 -0.00000000000E+00 -0.00000000000E+00 -0.45593999997E+02  0.45594000000E+02  0.51100000000E-03 0.  1.
         23    2    1    2    0    0  0.44408920985E-15  0.00000000000E+00  0.00000000000E+00  0.91188000000E+02  0.91188000000E+02 0.  0.
    9900012    2    3    3    0    0  0.13617630321E+01  0.29762936078E+02 -0.21635492505E+02  0.54367064400E+02  0.39999954913E+02 0.  0.
         12    1    3    3    0    0 -0.13617630321E+01 -0.29762936078E+02  0.21635492505E+02  0.36820935600E+02  0.00000000000E+00 0. -1.
         11    1    4    4    0    0 -0.44675788032E+01  0.14845948859E+02 -0.16834322269E+02  0.22885713107E+02  0.51100000000E-03 0.  1.
        -11    1    4    4    0    0  0.39442641884E+01  0.22309950022E+02 -0.37115625565E+00  0.22658968361E+02  0.51100000000E-03 0. -1.
         12    1    4    4    0    0  0.18850776469E+01 -0.73929628031E+01 -0.44300139796E+01  0.88223829322E+01  0.00000000000E+00 0. -1.
</event>
<event>
 8    1  0.1254059E-006  0.9118800E+02  0.7816164E-02  0.1184000E+00
        -11   -1    0    0    0    0  0.00000000000E+00  0.00000000000E+00  0.45593999997E+02  0.45594000000E+02  0.51100000000E-03 0.  1.
         11   -1    0    0    0    0 -0.00000000000E+00 -0.00000000000E+00 -0.45593999997E+02  0.45594000000E+02  0.51100000000E-03 0. -1.
         23    2    1    2    0    0  0.00000000000E+00  0.00000000000E+00  0.00000000000E+00  0.91188000000E+02  0.91188000000E+02 0.  0.
    9900012    2    3    3    0    0 -0.18514688047E+02 -0.18763293593E+02  0.25708461295E+02  0.54367084177E+02  0.39999999997E+02 0.  0.
         12    1    3    3    0    0  0.18514688047E+02  0.18763293593E+02 -0.25708461295E+02  0.36820915823E+02  0.00000000000E+00 0. -1.
         11    1    4    4    0    0  0.14499189555E+01 -0.97563057734E+01  0.57746757899E+01  0.11429551525E+02  0.51100000000E-03 0. -1.
        -11    1    4    4    0    0  0.39778566460E+01 -0.75709483162E+01  0.16663598396E+02  0.18730139179E+02  0.51100000000E-03 0.  1.
        -12    1    4    4    0    0 -0.23942463648E+02 -0.14360395029E+01  0.32701871091E+01  0.24207393472E+02  0.00000000000E+00 0.  1.
</event>
<event>
 8    1  0.1254059E-006  0.9118800E+02  0.7816164E-02  0.1184000E+00
        -11   -1    0    0    0    0  0.00000000000E+00  0.00000000000E+00  0.45593999997E+02  0.45594000000E+02  0.51100000000E-03 0. -1.
         11   -1    0    0    0    0 -0.00000000000E+00 -0.00000000000E+00 -0.45593999997E+02  0.45594000000E+02  0.51100000000E-03 0.  1.
         23    2    1    2    0    0  0.00000000000E+00 -0.17763568394E-14  0.00000000000E+00  0.91188000000E+02  0.91188000000E+02 0.  0.
    9900012    2    3    3    0    0  0.25888676035E+02  0.10450947425E+02  0.24006962519E+02  0.54367080697E+02  0.39999992065E+02 0.  0.
        -12    1    3    3    0    0 -0.25888676035E+02 -0.10450947425E+02 -0.24006962519E+02  0.36820919303E+02  0.00000000000E+00 0.  1.
         11    1    4    4    0    0 -0.60344698843E+00 -0.25509781011E+01  0.85112944001E+01  0.89058278765E+01  0.51100000000E-03 0.  1.
        -11    1    4    4    0    0  0.18939211370E+02 -0.78398238679E+01  0.87727474993E+01  0.22296135642E+02  0.51100000000E-03 0. -1.
        -12    1    4    4    0    0  0.75529116533E+01  0.20841749394E+02  0.67229206191E+01  0.23165117179E+02  0.00000000000E+00 0.  1.
</event>
<event>
 8    1  0.1254059E-006  0.9118800E+02  0.7816164E-02  0.1184000E+00
        -11   -1    0    0    0    0  0.00000000000E+00  0.00000000000E+00  0.45593999997E+02  0.45594000000E+02  0.51100000000E-03 0.  1.
         11   -1    0    0    0    0 -0.00000000000E+00 -0.00000000000E+00 -0.45593999997E+02  0.45594000000E+02  0.51100000000E-03 0. -1.
         23    2    1    2    0    0  0.00000000000E+00  0.00000000000E+00 -0.17763568394E-14  0.91188000000E+02  0.91188000000E+02 0.  0.
    9900012    2    3    3    0    0  0.24823648756E+02 -0.24806182573E+02 -0.11145828333E+02  0.54366950034E+02  0.39999694191E+02 0.  0.
        -12    1    3    3    0    0 -0.24823648756E+02  0.24806182573E+02  0.11145828333E+02  0.36821049966E+02  0.00000000000E+00 0.  1.
         11    1    4    4    0    0  0.20896339992E+02 -0.18366121513E+02  0.20669744069E+01  0.27897021847E+02  0.51100000000E-03 0. -1.
        -11    1    4    4    0    0 -0.31155153982E+01  0.31564956727E+01  0.37084265773E+01  0.57812048112E+01  0.51100000000E-03 0.  1.
         12    1    4    4    0    0  0.70428241623E+01 -0.95965567326E+01 -0.16921229317E+02  0.20688723375E+02  0.00000000000E+00 0. -1.
</event>
<event>
 8    1  0.1254059E-006  0.9118800E+02  0.7816164E-02  0.1184000E+00
        -11   -1    0    0    0    0  0.00000000000E+00  0.00000000000E+00  0.45593999997E+02  0.45594000000E+02  0.51100000000E-03 0. -1.
         11   -1    0    0    0    0 -0.00000000000E+00 -0.00000000000E+00 -0.45593999997E+02  0.45594000000E+02  0.51100000000E-03 0.  1.
         23    2    1    2    0    0  0.00000000000E+00 -0.35527136788E-14  0.17763568394E-14  0.91188000000E+02  0.91188000000E+02 0.  0.
    9900012    2    3    3    0    0  0.29655869044E+02  0.18690167448E+02  0.11268786682E+02  0.54367102655E+02  0.40000042122E+02 0.  0.
        -12    1    3    3    0    0 -0.29655869044E+02 -0.18690167448E+02 -0.11268786682E+02  0.36820897345E+02  0.00000000000E+00 0.  1.
         11    1    4    4    0    0  0.38295305058E+01  0.10080923722E+02  0.10673941839E+02  0.15173113116E+02  0.51100000000E-03 0. -1.
        -11    1    4    4    0    0  0.15666403370E+02 -0.76952407741E+01 -0.66275975271E+01  0.18670243019E+02  0.51100000000E-03 0.  1.
         12    1    4    4    0    0  0.10159935168E+02  0.16304484501E+02  0.72224423706E+01  0.20523746521E+02  0.00000000000E+00 0. -1.
</event>
<event>
 8    1  0.1254059E-006  0.9118800E+02  0.7816164E-02  0.1184000E+00
        -11   -1    0    0    0    0  0.00000000000E+00  0.00000000000E+00  0.45593999997E+02  0.45594000000E+02  0.51100000000E-03 0. -1.
         11   -1    0    0    0    0 -0.00000000000E+00 -0.00000000000E+00 -0.45593999997E+02  0.45594000000E+02  0.51100000000E-03 0.  1.
         23    2    1    2    0    0 -0.88817841970E-15  0.00000000000E+00  0.00000000000E+00  0.91188000000E+02  0.91188000000E+02 0.  0.
    9900012    2    3    3    0    0  0.61956986973E+01 -0.21675573842E+02  0.29112861515E+02  0.54367137852E+02  0.40000122362E+02 0.  0.
        -12    1    3    3    0    0 -0.61956986973E+01  0.21675573842E+02 -0.29112861515E+02  0.36820862148E+02  0.00000000000E+00 0.  1.
         11    1    4    4    0    0 -0.37641719433E+01  0.27989579672E+01 -0.28755988417E+01  0.55020200908E+01  0.51100000000E-03 0. -1.
        -11    1    4    4    0    0  0.26868522917E+01 -0.64183736191E+01 -0.39444334886E+01  0.79983280102E+01  0.51100000000E-03 0.  1.
         12    1    4    4    0    0  0.72730183489E+01 -0.18056158190E+02  0.35932893845E+02  0.40866789751E+02  0.00000000000E+00 0. -1.
</event>
<event>
 8    1  0.1254059E-006  0.9118800E+02  0.7816164E-02  0.1184000E+00
        -11   -1    0    0    0    0  0.00000000000E+00  0.00000000000E+00  0.45593999997E+02  0.45594000000E+02  0.51100000000E-03 0. -1.
         11   -1    0    0    0    0 -0.00000000000E+00 -0.00000000000E+00 -0.45593999997E+02  0.45594000000E+02  0.51100000000E-03 0.  1.
         23    2    1    2    0    0  0.00000000000E+00 -0.17763568394E-14  0.00000000000E+00  0.91188000000E+02  0.91188000000E+02 0.  0.
    9900012    2    3    3    0    0 -0.33018279934E+02 -0.15659009051E+02 -0.45141115369E+01  0.54366965560E+02  0.39999729586E+02 0.  0.
        -12    1    3    3    0    0  0.33018279934E+02  0.15659009051E+02  0.45141115369E+01  0.36821034440E+02  0.00000000000E+00 0.  1.
         11    1    4    4    0    0 -0.17855430863E+02  0.63732321515E+01 -0.55757560698E+01  0.19761668841E+02  0.51100000000E-03 0. -1.
        -11    1    4    4    0    0  0.10851025629E+01  0.23995859615E+01  0.43450985291E+01  0.50808800269E+01  0.51100000000E-03 0.  1.
         12    1    4    4    0    0 -0.16247951634E+02 -0.24431827164E+02 -0.32834539962E+01  0.29524416693E+02  0.00000000000E+00 0. -1.
</event>
<event>
 8    1  0.1254059E-006  0.9118800E+02  0.7816164E-02  0.1184000E+00
        -11   -1    0    0    0    0  0.00000000000E+00  0.00000000000E+00  0.45593999997E+02  0.45594000000E+02  0.51100000000E-03 0.  1.
         11   -1    0    0    0    0 -0.00000000000E+00 -0.00000000000E+00 -0.45593999997E+02  0.45594000000E+02  0.51100000000E-03 0. -1.
         23    2    1    2    0    0  0.17763568394E-14  0.00000000000E+00 -0.35527136788E-14  0.91188000000E+02  0.91188000000E+02 0.  0.
    9900012    2    3    3    0    0 -0.10571675050E+02  0.23271729764E+02  0.26503725421E+02  0.54367065998E+02  0.39999958556E+02 0.  0.
         12    1    3    3    0    0  0.10571675050E+02 -0.23271729764E+02 -0.26503725421E+02  0.36820934002E+02  0.00000000000E+00 0. -1.
         11    1    4    4    0    0 -0.11869602385E+02  0.11791802425E+01 -0.26865788723E+01  0.12226840684E+02  0.51100000000E-03 0. -1.
        -11    1    4    4    0    0  0.64951635838E+01  0.53507033317E+01  0.21327337874E+02  0.22927549306E+02  0.51100000000E-03 0.  1.
         12    1    4    4    0    0 -0.51972362487E+01  0.16741846190E+02  0.78629664193E+01  0.19212676008E+02  0.00000000000E+00 0. -1.
</event>
<event>
 8    1  0.1254059E-006  0.9118800E+02  0.7816164E-02  0.1184000E+00
        -11   -1    0    0    0    0  0.00000000000E+00  0.00000000000E+00  0.45593999997E+02  0.45594000000E+02  0.51100000000E-03 0.  1.
         11   -1    0    0    0    0 -0.00000000000E+00 -0.00000000000E+00 -0.45593999997E+02  0.45594000000E+02  0.51100000000E-03 0. -1.
         23    2    1    2    0    0 -0.71054273576E-14  0.00000000000E+00  0.44408920985E-15  0.91188000000E+02  0.91188000000E+02 0.  0.
    9900012    2    3    3    0    0  0.35646729053E+02 -0.88161716629E+01 -0.27138671173E+01  0.54367092220E+02  0.40000018335E+02 0.  0.
        -12    1    3    3    0    0 -0.35646729053E+02  0.88161716629E+01  0.27138671173E+01  0.36820907780E+02  0.00000000000E+00 0.  1.
         11    1    4    4    0    0  0.25694592228E+02  0.37386366061E+01 -0.30564731250E+01  0.26144435386E+02  0.51100000000E-03 0. -1.
        -11    1    4    4    0    0  0.13903026522E+02 -0.26609110093E+01 -0.64837926829E+01  0.15569655156E+02  0.51100000000E-03 0.  1.
        -12    1    4    4    0    0 -0.39508896967E+01 -0.98938972597E+01  0.68263986906E+01  0.12653001678E+02  0.00000000000E+00 0.  1.
</event>
<event>
 8    1  0.1254059E-006  0.9118800E+02  0.7816164E-02  0.1184000E+00
        -11   -1    0    0    0    0  0.00000000000E+00  0.00000000000E+00  0.45593999997E+02  0.45594000000E+02  0.51100000000E-03 0.  1.
         11   -1    0    0    0    0 -0.00000000000E+00 -0.00000000000E+00 -0.45593999997E+02  0.45594000000E+02  0.51100000000E-03 0. -1.
         23    2    1    2    0    0  0.00000000000E+00  0.00000000000E+00  0.00000000000E+00  0.91188000000E+02  0.91188000000E+02 0.  0.
    9900012    2    3    3    0    0  0.16400933730E+02 -0.22843646445E+02 -0.23768792585E+02  0.54367104966E+02  0.40000047392E+02 0.  0.
        -12    1    3    3    0    0 -0.16400933730E+02  0.22843646445E+02  0.23768792585E+02  0.36820895034E+02  0.00000000000E+00 0.  1.
         11    1    4    4    0    0  0.13358057920E+02  0.29605323391E+00 -0.20054632941E+00  0.13362843185E+02  0.51100000000E-03 0. -1.
        -11    1    4    4    0    0  0.29742693379E+01  0.39471220212E+01  0.23047542923E+00  0.49476428256E+01  0.51100000000E-03 0.  1.
         12    1    4    4    0    0  0.68606472550E-01 -0.27086821700E+02 -0.23798721685E+02  0.36056618956E+02  0.00000000000E+00 0. -1.
</event>
<event>
 8    1  0.1254059E-006  0.9118800E+02  0.7816164E-02  0.1184000E+00
        -11   -1    0    0    0    0  0.00000000000E+00  0.00000000000E+00  0.45593999997E+02  0.45594000000E+02  0.51100000000E-03 0. -1.
         11   -1    0    0    0    0 -0.00000000000E+00 -0.00000000000E+00 -0.45593999997E+02  0.45594000000E+02  0.51100000000E-03 0.  1.
         23    2    1    2    0    0  0.00000000000E+00  0.00000000000E+00  0.00000000000E+00  0.91188000000E+02  0.91188000000E+02 0.  0.
    9900012    2    3    3    0    0  0.14604819106E+02  0.25678008904E+02  0.21979941645E+02  0.54367099453E+02  0.40000034822E+02 0.  0.
         12    1    3    3    0    0 -0.14604819106E+02 -0.25678008904E+02 -0.21979941645E+02  0.36820900547E+02  0.00000000000E+00 0. -1.
         11    1    4    4    0    0 -0.36958251258E+00  0.13425509157E+02  0.22248021106E+01  0.13613619359E+02  0.51100000000E-03 0. -1.
        -11    1    4    4    0    0  0.11445974487E+02  0.63543530593E+01 -0.57791522053E+01  0.14310371596E+02  0.51100000000E-03 0.  1.
         12    1    4    4    0    0  0.35284271317E+01  0.58981466881E+01  0.25534291739E+02  0.26443108498E+02  0.00000000000E+00 0. -1.
</event>
<event>
 8    1  0.1254059E-006  0.9118800E+02  0.7816164E-02  0.1184000E+00
        -11   -1    0    0    0    0  0.00000000000E+00  0.00000000000E+00  0.45593999997E+02  0.45594000000E+02  0.51100000000E-03 0. -1.
         11   -1    0    0    0    0 -0.00000000000E+00 -0.00000000000E+00 -0.45593999997E+02  0.45594000000E+02  0.51100000000E-03 0.  1.
         23    2    1    2    0    0 -0.71054273576E-14  0.00000000000E+00  0.35527136788E-14  0.91188000000E+02  0.91188000000E+02 0.  0.
    9900012    2    3    3    0    0  0.28299850417E+02  0.20524980601E+02 -0.11559517860E+02  0.54367098117E+02  0.40000031777E+02 0.  0.
         12    1    3    3    0    0 -0.28299850417E+02 -0.20524980601E+02  0.11559517860E+02  0.36820901883E+02  0.00000000000E+00 0. -1.
         11    1    4    4    0    0  0.13058070930E+02  0.66069765505E+01  0.47174930363E+01  0.15375958389E+02  0.51100000000E-03 0. -1.
        -11    1    4    4    0    0  0.14155242531E+02  0.18056844845E+02 -0.22038933256E+02  0.31814071040E+02  0.51100000000E-03 0.  1.
         12    1    4    4    0    0  0.10865369564E+01 -0.41388407939E+01  0.57619223595E+01  0.71770686879E+01  0.00000000000E+00 0. -1.
</event>
<event>
 8    1  0.1254059E-006  0.9118800E+02  0.7816164E-02  0.1184000E+00
        -11   -1    0    0    0    0  0.00000000000E+00  0.00000000000E+00  0.45593999997E+02  0.45594000000E+02  0.51100000000E-03 0.  1.
         11   -1    0    0    0    0 -0.00000000000E+00 -0.00000000000E+00 -0.45593999997E+02  0.45594000000E+02  0.51100000000E-03 0. -1.
         23    2    1    2    0    0  0.35527136788E-14 -0.35527136788E-14  0.88817841970E-15  0.91188000000E+02  0.91188000000E+02 0.  0.
    9900012    2    3    3    0    0  0.26535518334E+02 -0.25384870780E+02 -0.26934137771E+01  0.54367083721E+02  0.39999998960E+02 0.  0.
        -12    1    3    3    0    0 -0.26535518334E+02  0.25384870780E+02  0.26934137771E+01  0.36820916279E+02  0.00000000000E+00 0.  1.
         11    1    4    4    0    0  0.15976516577E+02 -0.19276424791E+02  0.46931882105E+01  0.25472645142E+02  0.51100000000E-03 0. -1.
        -11    1    4    4    0    0 -0.16783649980E+01  0.62435722625E+01 -0.93808305198E+01  0.11392940146E+02  0.51100000000E-03 0.  1.
        -12    1    4    4    0    0  0.12237366755E+02 -0.12352018252E+02  0.19942285321E+01  0.17501498434E+02  0.00000000000E+00 0.  1.
</event>
<event>
 8    1  0.1254059E-006  0.9118800E+02  0.7816164E-02  0.1184000E+00
        -11   -1    0    0    0    0  0.00000000000E+00  0.00000000000E+00  0.45593999997E+02  0.45594000000E+02  0.51100000000E-03 0. -1.
         11   -1    0    0    0    0 -0.00000000000E+00 -0.00000000000E+00 -0.45593999997E+02  0.45594000000E+02  0.51100000000E-03 0.  1.
         23    2    1    2    0    0  0.00000000000E+00  0.00000000000E+00  0.00000000000E+00  0.91188000000E+02  0.91188000000E+02 0.  0.
    9900012    2    3    3    0    0  0.49185824501E+01 -0.13342322365E+02  0.33964245973E+02  0.54367081707E+02  0.39999994368E+02 0.  0.
        -12    1    3    3    0    0 -0.49185824501E+01  0.13342322365E+02 -0.33964245973E+02  0.36820918293E+02  0.00000000000E+00 0.  1.
         11    1    4    4    0    0 -0.42439363451E+01 -0.36934638190E+01  0.14930582406E+02  0.15955405414E+02  0.51100000000E-03 0. -1.
        -11    1    4    4    0    0  0.48745921493E+01 -0.14386479115E+02 -0.29886059163E+01  0.15481091548E+02  0.51100000000E-03 0.  1.
        -12    1    4    4    0    0  0.42879266460E+01  0.47376205688E+01  0.22022269483E+02  0.22930584745E+02  0.00000000000E+00 0.  1.
</event>
<event>
 8    1  0.1254059E-006  0.9118800E+02  0.7816164E-02  0.1184000E+00
        -11   -1    0    0    0    0  0.00000000000E+00  0.00000000000E+00  0.45593999997E+02  0.45594000000E+02  0.51100000000E-03 0.  1.
         11   -1    0    0    0    0 -0.00000000000E+00 -0.00000000000E+00 -0.45593999997E+02  0.45594000000E+02  0.51100000000E-03 0. -1.
         23    2    1    2    0    0  0.71054273576E-14  0.00000000000E+00  0.17763568394E-14  0.91188000000E+02  0.91188000000E+02 0.  0.
    9900012    2    3    3    0    0 -0.32317231688E+02  0.99582104205E+01 -0.14567436339E+02  0.54367087188E+02  0.40000006864E+02 0.  0.
         12    1    3    3    0    0  0.32317231688E+02 -0.99582104205E+01  0.14567436339E+02  0.36820912812E+02  0.00000000000E+00 0. -1.
         11    1    4    4    0    0 -0.61480105842E+01  0.87718476535E+00 -0.17979330903E+02  0.19021667310E+02  0.51100000000E-03 0. -1.
        -11    1    4    4    0    0  0.52069675037E+00  0.16755269452E+01  0.71806885645E+01  0.73919418403E+01  0.51100000000E-03 0.  1.
         12    1    4    4    0    0 -0.26689917854E+02  0.74054987100E+01 -0.37687940006E+01  0.27953478038E+02  0.00000000000E+00 0. -1.
</event>
<event>
 8    1  0.1254059E-006  0.9118800E+02  0.7816164E-02  0.1184000E+00
        -11   -1    0    0    0    0  0.00000000000E+00  0.00000000000E+00  0.45593999997E+02  0.45594000000E+02  0.51100000000E-03 0. -1.
         11   -1    0    0    0    0 -0.00000000000E+00 -0.00000000000E+00 -0.45593999997E+02  0.45594000000E+02  0.51100000000E-03 0.  1.
         23    2    1    2    0    0  0.00000000000E+00 -0.44408920985E-15  0.35527136788E-14  0.91188000000E+02  0.91188000000E+02 0.  0.
    9900012    2    3    3    0    0 -0.27628925802E+02 -0.20758908146E+01 -0.24251056699E+02  0.54367073686E+02  0.39999976081E+02 0.  0.
         12    1    3    3    0    0  0.27628925802E+02  0.20758908146E+01  0.24251056699E+02  0.36820926314E+02  0.00000000000E+00 0. -1.
         11    1    4    4    0    0 -0.24748833520E+02 -0.15441112238E+00 -0.23288015420E+02  0.33983235070E+02  0.51100000000E-03 0. -1.
        -11    1    4    4    0    0 -0.32553996903E+01  0.87734601488E+01 -0.21941377809E+01  0.96117361069E+01  0.51100000000E-03 0.  1.
         12    1    4    4    0    0  0.37530740781E+00 -0.10694939841E+02  0.12310965022E+01  0.10772102508E+02  0.00000000000E+00 0. -1.
</event>
<event>
 8    1  0.1254059E-006  0.9118800E+02  0.7816164E-02  0.1184000E+00
        -11   -1    0    0    0    0  0.00000000000E+00  0.00000000000E+00  0.45593999997E+02  0.45594000000E+02  0.51100000000E-03 0.  1.
         11   -1    0    0    0    0 -0.00000000000E+00 -0.00000000000E+00 -0.45593999997E+02  0.45594000000E+02  0.51100000000E-03 0. -1.
         23    2    1    2    0    0  0.00000000000E+00  0.00000000000E+00  0.44408920985E-15  0.91188000000E+02  0.91188000000E+02 0.  0.
    9900012    2    3    3    0    0 -0.35391386790E+02 -0.95360315188E+01 -0.35062722088E+01  0.54367080662E+02  0.39999991986E+02 0.  0.
        -12    1    3    3    0    0  0.35391386790E+02  0.95360315188E+01  0.35062722088E+01  0.36820919338E+02  0.00000000000E+00 0.  1.
         11    1    4    4    0    0 -0.34879225546E+02  0.14466919832E+01 -0.68032652767E+01  0.35565962817E+02  0.51100000000E-03 0. -1.
        -11    1    4    4    0    0  0.66178087152E+01 -0.17768774321E+01  0.15689930973E+01  0.70295394728E+01  0.51100000000E-03 0.  1.
         12    1    4    4    0    0 -0.71299699591E+01 -0.92058460699E+01  0.17279999706E+01  0.11771578372E+02  0.00000000000E+00 0. -1.
</event>
<event>
 8    1  0.1254059E-006  0.9118800E+02  0.7816164E-02  0.1184000E+00
        -11   -1    0    0    0    0  0.00000000000E+00  0.00000000000E+00  0.45593999997E+02  0.45594000000E+02  0.51100000000E-03 0. -1.
         11   -1    0    0    0    0 -0.00000000000E+00 -0.00000000000E+00 -0.45593999997E+02  0.45594000000E+02  0.51100000000E-03 0.  1.
         23    2    1    2    0    0  0.88817841970E-15  0.71054273576E-14 -0.88817841970E-15  0.91188000000E+02  0.91188000000E+02 0.  0.
    9900012    2    3    3    0    0 -0.26566103595E+01 -0.36403464264E+02 -0.48487143237E+01  0.54367084482E+02  0.40000000694E+02 0.  0.
        -12    1    3    3    0    0  0.26566103595E+01  0.36403464264E+02  0.48487143237E+01  0.36820915518E+02  0.00000000000E+00 0.  1.
         11    1    4    4    0    0  0.10395562834E+02 -0.18273001575E+02  0.42163587000E+01  0.21441734868E+02  0.51100000000E-03 0. -1.
        -11    1    4    4    0    0 -0.40502737737E+01 -0.21618714348E+02 -0.65367377494E+01  0.22945641599E+02  0.51100000000E-03 0.  1.
        -12    1    4    4    0    0 -0.90018994201E+01  0.34882516597E+01 -0.25283352743E+01  0.99797080153E+01  0.00000000000E+00 0.  1.
</event>
<event>
 8    1  0.1254059E-006  0.9118800E+02  0.7816164E-02  0.1184000E+00
        -11   -1    0    0    0    0  0.00000000000E+00  0.00000000000E+00  0.45593999997E+02  0.45594000000E+02  0.51100000000E-03 0.  1.
         11   -1    0    0    0    0 -0.00000000000E+00 -0.00000000000E+00 -0.45593999997E+02  0.45594000000E+02  0.51100000000E-03 0. -1.
         23    2    1    2    0    0  0.00000000000E+00  0.00000000000E+00 -0.35527136788E-14  0.91188000000E+02  0.91188000000E+02 0.  0.
    9900012    2    3    3    0    0 -0.10908207552E+02 -0.20392837863E+02  0.28651868455E+02  0.54366995205E+02  0.39999797169E+02 0.  0.
         12    1    3    3    0    0  0.10908207552E+02  0.20392837863E+02 -0.28651868455E+02  0.36821004795E+02  0.00000000000E+00 0. -1.
         11    1    4    4    0    0 -0.60901663888E+01  0.27372218511E-01  0.64267414462E+01  0.88540319493E+01  0.51100000000E-03 0. -1.
        -11    1    4    4    0    0 -0.10865406063E+02 -0.16334132653E+02  0.29356986831E+02  0.35308548746E+02  0.51100000000E-03 0.  1.
        -12    1    4    4    0    0  0.60473648999E+01 -0.40860774281E+01 -0.71318598221E+01  0.10204414511E+02  0.00000000000E+00 0.  1.
</event>
<event>
 8    1  0.1254059E-006  0.9118800E+02  0.7816164E-02  0.1184000E+00
        -11   -1    0    0    0    0  0.00000000000E+00  0.00000000000E+00  0.45593999997E+02  0.45594000000E+02  0.51100000000E-03 0.  1.
         11   -1    0    0    0    0 -0.00000000000E+00 -0.00000000000E+00 -0.45593999997E+02  0.45594000000E+02  0.51100000000E-03 0. -1.
         23    2    1    2    0    0  0.00000000000E+00 -0.35527136788E-14 -0.35527136788E-14  0.91188000000E+02  0.91188000000E+02 0.  0.
    9900012    2    3    3    0    0 -0.10796285175E+02  0.26447006047E+02  0.23233077471E+02  0.54367084867E+02  0.40000001572E+02 0.  0.
         12    1    3    3    0    0  0.10796285175E+02 -0.26447006047E+02 -0.23233077471E+02  0.36820915133E+02  0.00000000000E+00 0. -1.
         11    1    4    4    0    0 -0.35856462072E+01  0.19996255738E+02  0.19804742966E+01  0.20411501194E+02  0.51100000000E-03 0. -1.
        -11    1    4    4    0    0  0.26145874219E+01  0.13869202661E+02  0.10233101842E+02  0.17432935020E+02  0.51100000000E-03 0.  1.
        -12    1    4    4    0    0 -0.98252263899E+01 -0.74184523526E+01  0.11019501332E+02  0.16522648654E+02  0.00000000000E+00 0.  1.
</event>
<event>
 8    1  0.1254059E-006  0.9118800E+02  0.7816164E-02  0.1184000E+00
        -11   -1    0    0    0    0  0.00000000000E+00  0.00000000000E+00  0.45593999997E+02  0.45594000000E+02  0.51100000000E-03 0. -1.
         11   -1    0    0    0    0 -0.00000000000E+00 -0.00000000000E+00 -0.45593999997E+02  0.45594000000E+02  0.51100000000E-03 0.  1.
         23    2    1    2    0    0 -0.44408920985E-15  0.00000000000E+00  0.17763568394E-14  0.91188000000E+02  0.91188000000E+02 0.  0.
    9900012    2    3    3    0    0  0.35702049029E+01 -0.33535172527E+02  0.14779235237E+02  0.54367082662E+02  0.39999996544E+02 0.  0.
        -12    1    3    3    0    0 -0.35702049029E+01  0.33535172527E+02 -0.14779235237E+02  0.36820917338E+02  0.00000000000E+00 0.  1.
         11    1    4    4    0    0  0.47457720013E+01  0.17986419812E+01 -0.62516720259E+01  0.80523827682E+01  0.51100000000E-03 0. -1.
        -11    1    4    4    0    0 -0.53863674284E+01 -0.43095244871E+01 -0.22972178299E+01  0.72706372072E+01  0.51100000000E-03 0.  1.
         12    1    4    4    0    0  0.42108003300E+01 -0.31024290021E+02  0.23328125093E+02  0.39044062686E+02  0.00000000000E+00 0. -1.
</event>
<event>
 8    1  0.1254059E-006  0.9118800E+02  0.7816164E-02  0.1184000E+00
        -11   -1    0    0    0    0  0.00000000000E+00  0.00000000000E+00  0.45593999997E+02  0.45594000000E+02  0.51100000000E-03 0.  1.
         11   -1    0    0    0    0 -0.00000000000E+00 -0.00000000000E+00 -0.45593999997E+02  0.45594000000E+02  0.51100000000E-03 0. -1.
         23    2    1    2    0    0 -0.16653345369E-15  0.00000000000E+00  0.00000000000E+00  0.91188000000E+02  0.91188000000E+02 0.  0.
    9900012    2    3    3    0    0 -0.42310398497E+00 -0.36679791573E+02 -0.31926201843E+01  0.54367096284E+02  0.40000027598E+02 0.  0.
        -12    1    3    3    0    0  0.42310398497E+00  0.36679791573E+02  0.31926201843E+01  0.36820903716E+02  0.00000000000E+00 0.  1.
         11    1    4    4    0    0 -0.17070934452E+01 -0.24063035323E+02 -0.30072598068E+01  0.24310233417E+02  0.51100000000E-03 0. -1.
        -11    1    4    4    0    0  0.12124811466E+02 -0.35428616383E+01  0.67367992991E+01  0.14315983610E+02  0.51100000000E-03 0.  1.
        -12    1    4    4    0    0 -0.10840822006E+02 -0.90738946121E+01 -0.69221596766E+01  0.15740879257E+02  0.00000000000E+00 0.  1.
</event>
<event>
 8    1  0.1254059E-006  0.9118800E+02  0.7816164E-02  0.1184000E+00
        -11   -1    0    0    0    0  0.00000000000E+00  0.00000000000E+00  0.45593999997E+02  0.45594000000E+02  0.51100000000E-03 0.  1.
         11   -1    0    0    0    0 -0.00000000000E+00 -0.00000000000E+00 -0.45593999997E+02  0.45594000000E+02  0.51100000000E-03 0. -1.
         23    2    1    2    0    0  0.17763568394E-14  0.35527136788E-14  0.00000000000E+00  0.91188000000E+02  0.91188000000E+02 0.  0.
    9900012    2    3    3    0    0  0.82750016896E+01  0.21276030911E+02 -0.28890028264E+02  0.54367097276E+02  0.40000029860E+02 0.  0.
        -12    1    3    3    0    0 -0.82750016896E+01 -0.21276030911E+02  0.28890028264E+02  0.36820902724E+02  0.00000000000E+00 0.  1.
         11    1    4    4    0    0 -0.72909356351E+01  0.33229611353E+01 -0.36246148844E+01  0.87941825353E+01  0.51100000000E-03 0.  1.
        -11    1    4    4    0    0 -0.23119766248E+01  0.11404377663E+02 -0.23781337547E+02  0.26475594074E+02  0.51100000000E-03 0. -1.
         12    1    4    4    0    0  0.17877913949E+02  0.65486921125E+01 -0.14840758330E+01  0.19097320667E+02  0.00000000000E+00 0. -1.
</event>
<event>
 8    1  0.1254059E-006  0.9118800E+02  0.7816164E-02  0.1184000E+00
        -11   -1    0    0    0    0  0.00000000000E+00  0.00000000000E+00  0.45593999997E+02  0.45594000000E+02  0.51100000000E-03 0.  1.
         11   -1    0    0    0    0 -0.00000000000E+00 -0.00000000000E+00 -0.45593999997E+02  0.45594000000E+02  0.51100000000E-03 0. -1.
         23    2    1    2    0    0  0.00000000000E+00  0.35527136788E-14  0.17763568394E-14  0.91188000000E+02  0.91188000000E+02 0.  0.
    9900012    2    3    3    0    0 -0.24728064544E+02  0.24115602651E+02  0.12756994727E+02  0.54367076848E+02  0.39999983290E+02 0.  0.
        -12    1    3    3    0    0  0.24728064544E+02 -0.24115602651E+02 -0.12756994727E+02  0.36820923152E+02  0.00000000000E+00 0.  1.
         11    1    4    4    0    0 -0.10999872211E+02  0.16232995440E+02 -0.11700016259E+02  0.22834134762E+02  0.51100000000E-03 0. -1.
        -11    1    4    4    0    0 -0.13413508024E+02  0.10005202120E+02  0.17332735511E+02  0.24092529704E+02  0.51100000000E-03 0.  1.
        -12    1    4    4    0    0 -0.31468430891E+00 -0.21225949090E+01  0.71242754755E+01  0.74404123819E+01  0.00000000000E+00 0.  1.
</event>
<event>
 8    1  0.1254059E-006  0.9118800E+02  0.7816164E-02  0.1184000E+00
        -11   -1    0    0    0    0  0.00000000000E+00  0.00000000000E+00  0.45593999997E+02  0.45594000000E+02  0.51100000000E-03 0.  1.
         11   -1    0    0    0    0 -0.00000000000E+00 -0.00000000000E+00 -0.45593999997E+02  0.45594000000E+02  0.51100000000E-03 0. -1.
         23    2    1    2    0    0  0.00000000000E+00  0.00000000000E+00  0.88817841970E-15  0.91188000000E+02  0.91188000000E+02 0.  0.
    9900012    2    3    3    0    0  0.16142428245E+02 -0.32822098472E+02  0.42321418012E+01  0.54367093412E+02  0.40000021051E+02 0.  0.
         12    1    3    3    0    0 -0.16142428245E+02  0.32822098472E+02 -0.42321418012E+01  0.36820906588E+02  0.00000000000E+00 0. -1.
         11    1    4    4    0    0  0.81643372087E+01 -0.10463073606E+02 -0.47374569983E+01  0.14091692957E+02  0.51100000000E-03 0. -1.
        -11    1    4    4    0    0 -0.60646464879E+01 -0.16476294923E+02 -0.63565297423E+01  0.18672270939E+02  0.51100000000E-03 0.  1.
         12    1    4    4    0    0  0.14042737524E+02 -0.58827299437E+01  0.15326128542E+02  0.21603129515E+02  0.00000000000E+00 0. -1.
</event>
<event>
 8    1  0.1254059E-006  0.9118800E+02  0.7816164E-02  0.1184000E+00
        -11   -1    0    0    0    0  0.00000000000E+00  0.00000000000E+00  0.45593999997E+02  0.45594000000E+02  0.51100000000E-03 0. -1.
         11   -1    0    0    0    0 -0.00000000000E+00 -0.00000000000E+00 -0.45593999997E+02  0.45594000000E+02  0.51100000000E-03 0.  1.
         23    2    1    2    0    0  0.00000000000E+00  0.88817841970E-15  0.00000000000E+00  0.91188000000E+02  0.91188000000E+02 0.  0.
    9900012    2    3    3    0    0 -0.32203607167E+02  0.23991100716E+01  0.17690978253E+02  0.54366827351E+02  0.39999414507E+02 0.  0.
         12    1    3    3    0    0  0.32203607167E+02 -0.23991100716E+01 -0.17690978253E+02  0.36821172649E+02  0.00000000000E+00 0. -1.
         11    1    4    4    0    0  0.15866524434E+01  0.53279283610E+01  0.10515362493E+02  0.11894416136E+02  0.51100000000E-03 0. -1.
        -11    1    4    4    0    0 -0.80215579644E+01  0.88847170581E+01  0.74950826737E+01  0.14123025665E+02  0.51100000000E-03 0.  1.
         12    1    4    4    0    0 -0.25768701646E+02 -0.11813535348E+02 -0.31946691370E+00  0.28349385550E+02  0.00000000000E+00 0. -1.
</event>
<event>
 8    1  0.1254059E-006  0.9118800E+02  0.7816164E-02  0.1184000E+00
        -11   -1    0    0    0    0  0.00000000000E+00  0.00000000000E+00  0.45593999997E+02  0.45594000000E+02  0.51100000000E-03 0.  1.
         11   -1    0    0    0    0 -0.00000000000E+00 -0.00000000000E+00 -0.45593999997E+02  0.45594000000E+02  0.51100000000E-03 0. -1.
         23    2    1    2    0    0  0.00000000000E+00  0.00000000000E+00  0.35527136788E-14  0.91188000000E+02  0.91188000000E+02 0.  0.
    9900012    2    3    3    0    0  0.22537787162E+02 -0.44216605975E+01 -0.28779791582E+02  0.54367091047E+02  0.40000015660E+02 0.  0.
        -12    1    3    3    0    0 -0.22537787162E+02  0.44216605975E+01  0.28779791582E+02  0.36820908953E+02  0.00000000000E+00 0.  1.
         11    1    4    4    0    0  0.20070598659E+02  0.73032127531E+01 -0.27395413588E+02  0.34737221146E+02  0.51100000000E-03 0. -1.
        -11    1    4    4    0    0  0.73565845671E+01 -0.11167817901E+02 -0.41279772866E+01  0.13995702551E+02  0.51100000000E-03 0.  1.
        -12    1    4    4    0    0 -0.48893960639E+01 -0.55705544937E+00  0.27435992926E+01  0.56341673495E+01  0.00000000000E+00 0.  1.
</event>
<event>
 8    1  0.1254059E-006  0.9118800E+02  0.7816164E-02  0.1184000E+00
        -11   -1    0    0    0    0  0.00000000000E+00  0.00000000000E+00  0.45593999997E+02  0.45594000000E+02  0.51100000000E-03 0. -1.
         11   -1    0    0    0    0 -0.00000000000E+00 -0.00000000000E+00 -0.45593999997E+02  0.45594000000E+02  0.51100000000E-03 0.  1.
         23    2    1    2    0    0  0.00000000000E+00  0.35527136788E-14 -0.35527136788E-14  0.91188000000E+02  0.91188000000E+02 0.  0.
    9900012    2    3    3    0    0 -0.98033706454E+01 -0.30620496742E+02  0.17946008697E+02  0.54367080336E+02  0.39999991242E+02 0.  0.
        -12    1    3    3    0    0  0.98033706454E+01  0.30620496742E+02 -0.17946008697E+02  0.36820919664E+02  0.00000000000E+00 0.  1.
         11    1    4    4    0    0 -0.87454790052E+01 -0.55888325927E+01  0.20450446208E+02  0.22933364410E+02  0.51100000000E-03 0. -1.
        -11    1    4    4    0    0 -0.78577883967E+01 -0.83257836137E+01  0.41953684949E+01  0.12192810518E+02  0.51100000000E-03 0.  1.
        -12    1    4    4    0    0  0.67998967566E+01 -0.16705880536E+02 -0.66998060065E+01  0.19240905408E+02  0.00000000000E+00 0.  1.
</event>
<event>
 8    1  0.1254059E-006  0.9118800E+02  0.7816164E-02  0.1184000E+00
        -11   -1    0    0    0    0  0.00000000000E+00  0.00000000000E+00  0.45593999997E+02  0.45594000000E+02  0.51100000000E-03 0. -1.
         11   -1    0    0    0    0 -0.00000000000E+00 -0.00000000000E+00 -0.45593999997E+02  0.45594000000E+02  0.51100000000E-03 0.  1.
         23    2    1    2    0    0  0.17763568394E-14  0.71054273576E-14  0.88817841970E-15  0.91188000000E+02  0.91188000000E+02 0.  0.
    9900012    2    3    3    0    0 -0.97798569815E+01 -0.35195943430E+02  0.46235785343E+01  0.54367115777E+02  0.40000072036E+02 0.  0.
        -12    1    3    3    0    0  0.97798569815E+01  0.35195943430E+02 -0.46235785343E+01  0.36820884223E+02  0.00000000000E+00 0.  1.
         11    1    4    4    0    0 -0.56435541256E+01 -0.25271923802E+02  0.12648023029E+02  0.28818263699E+02  0.51100000000E-03 0. -1.
        -11    1    4    4    0    0 -0.32886576220E+01  0.27932229164E+01  0.54831818385E+01  0.69772950741E+01  0.51100000000E-03 0.  1.
        -12    1    4    4    0    0 -0.84764523384E+00 -0.12717242544E+02 -0.13507626333E+02  0.18571557004E+02  0.00000000000E+00 0.  1.
</event>
<event>
 8    1  0.1254059E-006  0.9118800E+02  0.7816164E-02  0.1184000E+00
        -11   -1    0    0    0    0  0.00000000000E+00  0.00000000000E+00  0.45593999997E+02  0.45594000000E+02  0.51100000000E-03 0.  1.
         11   -1    0    0    0    0 -0.00000000000E+00 -0.00000000000E+00 -0.45593999997E+02  0.45594000000E+02  0.51100000000E-03 0. -1.
         23    2    1    2    0    0  0.00000000000E+00  0.00000000000E+00  0.71054273576E-14  0.91188000000E+02  0.91188000000E+02 0.  0.
    9900012    2    3    3    0    0  0.94337834619E+01 -0.12161573484E+02 -0.33449661770E+02  0.54367081861E+02  0.39999994719E+02 0.  0.
        -12    1    3    3    0    0 -0.94337834619E+01  0.12161573484E+02  0.33449661770E+02  0.36820918139E+02  0.00000000000E+00 0.  1.
         11    1    4    4    0    0  0.43335431123E+01 -0.88265327298E+01  0.44488081539E+00  0.98430277424E+01  0.51100000000E-03 0. -1.
        -11    1    4    4    0    0 -0.45573972786E+01  0.25351084026E+01  0.29455369890E+01  0.59893933735E+01  0.51100000000E-03 0.  1.
         12    1    4    4    0    0  0.96576376283E+01 -0.58701491569E+01 -0.36840079575E+02  0.38534660745E+02  0.00000000000E+00 0. -1.
</event>
<event>
 8    1  0.1254059E-006  0.9118800E+02  0.7816164E-02  0.1184000E+00
        -11   -1    0    0    0    0  0.00000000000E+00  0.00000000000E+00  0.45593999997E+02  0.45594000000E+02  0.51100000000E-03 0. -1.
         11   -1    0    0    0    0 -0.00000000000E+00 -0.00000000000E+00 -0.45593999997E+02  0.45594000000E+02  0.51100000000E-03 0.  1.
         23    2    1    2    0    0  0.00000000000E+00  0.88817841970E-15  0.35527136788E-14  0.91188000000E+02  0.91188000000E+02 0.  0.
    9900012    2    3    3    0    0 -0.24210566270E+02 -0.26481284552E+01 -0.27615528466E+02  0.54367061447E+02  0.39999948182E+02 0.  0.
         12    1    3    3    0    0  0.24210566270E+02  0.26481284552E+01  0.27615528466E+02  0.36820938553E+02  0.00000000000E+00 0. -1.
         11    1    4    4    0    0 -0.16930490960E+02 -0.81259000011E+01 -0.17725296185E+01  0.18863022994E+02  0.51100000000E-03 0. -1.
        -11    1    4    4    0    0 -0.75869919173E+01 -0.35949053640E+01 -0.25017570898E+02  0.26388721925E+02  0.51100000000E-03 0.  1.
        -12    1    4    4    0    0  0.30691660651E+00  0.90726769100E+01 -0.82542794937E+00  0.91153165286E+01  0.00000000000E+00 0.  1.
</event>
<event>
 8    1  0.1254059E-006  0.9118800E+02  0.7816164E-02  0.1184000E+00
        -11   -1    0    0    0    0  0.00000000000E+00  0.00000000000E+00  0.45593999997E+02  0.45594000000E+02  0.51100000000E-03 0. -1.
         11   -1    0    0    0    0 -0.00000000000E+00 -0.00000000000E+00 -0.45593999997E+02  0.45594000000E+02  0.51100000000E-03 0.  1.
         23    2    1    2    0    0  0.35527136788E-14 -0.88817841970E-15  0.35527136788E-14  0.91188000000E+02  0.91188000000E+02 0.  0.
    9900012    2    3    3    0    0  0.28177293684E+02 -0.73514157102E+01  0.22533900286E+02  0.54367084009E+02  0.39999999616E+02 0.  0.
        -12    1    3    3    0    0 -0.28177293684E+02  0.73514157102E+01 -0.22533900286E+02  0.36820915991E+02  0.00000000000E+00 0.  1.
         11    1    4    4    0    0  0.21130563267E+02 -0.11271742695E+02  0.20925397593E+02  0.31802911063E+02  0.51100000000E-03 0. -1.
        -11    1    4    4    0    0  0.66676306375E+01 -0.46152483545E+01  0.83807927918E+01  0.11661711014E+02  0.51100000000E-03 0.  1.
        -12    1    4    4    0    0  0.37909977942E+00  0.85355753395E+01 -0.67722900987E+01  0.10902461933E+02  0.00000000000E+00 0.  1.
</event>
<event>
 8    1  0.1254059E-006  0.9118800E+02  0.7816164E-02  0.1184000E+00
        -11   -1    0    0    0    0  0.00000000000E+00  0.00000000000E+00  0.45593999997E+02  0.45594000000E+02  0.51100000000E-03 0.  1.
         11   -1    0    0    0    0 -0.00000000000E+00 -0.00000000000E+00 -0.45593999997E+02  0.45594000000E+02  0.51100000000E-03 0. -1.
         23    2    1    2    0    0  0.00000000000E+00 -0.11102230246E-14  0.00000000000E+00  0.91188000000E+02  0.91188000000E+02 0.  0.
    9900012    2    3    3    0    0  0.12427030998E+02 -0.18229124721E+01 -0.34612583363E+02  0.54367013643E+02  0.39999839201E+02 0.  0.
        -12    1    3    3    0    0 -0.12427030998E+02  0.18229124721E+01  0.34612583363E+02  0.36820986357E+02  0.00000000000E+00 0.  1.
         11    1    4    4    0    0  0.58273723213E+01 -0.34878288936E-01 -0.21984018212E+02  0.22743274647E+02  0.51100000000E-03 0. -1.
        -11    1    4    4    0    0  0.16113531789E+02  0.22141674846E+01 -0.13280628265E+01  0.16319074590E+02  0.51100000000E-03 0.  1.
        -12    1    4    4    0    0 -0.95138731121E+01 -0.40022016678E+01 -0.11300502324E+02  0.15304664406E+02  0.00000000000E+00 0.  1.
</event>
<event>
 8    1  0.1254059E-006  0.9118800E+02  0.7816164E-02  0.1184000E+00
        -11   -1    0    0    0    0  0.00000000000E+00  0.00000000000E+00  0.45593999997E+02  0.45594000000E+02  0.51100000000E-03 0. -1.
         11   -1    0    0    0    0 -0.00000000000E+00 -0.00000000000E+00 -0.45593999997E+02  0.45594000000E+02  0.51100000000E-03 0.  1.
         23    2    1    2    0    0 -0.26645352591E-14  0.00000000000E+00  0.00000000000E+00  0.91188000000E+02  0.91188000000E+02 0.  0.
    9900012    2    3    3    0    0  0.22214714538E+01  0.26192942150E+02  0.25783226491E+02  0.54367083089E+02  0.39999997518E+02 0.  0.
        -12    1    3    3    0    0 -0.22214714538E+01 -0.26192942150E+02 -0.25783226491E+02  0.36820916911E+02  0.00000000000E+00 0.  1.
         11    1    4    4    0    0  0.57067992176E+01  0.52383525838E+01  0.11335415150E+02  0.13729513174E+02  0.51100000000E-03 0. -1.
        -11    1    4    4    0    0 -0.12649905171E+02  0.12805992862E+02  0.20230468291E+02  0.27079243001E+02  0.51100000000E-03 0.  1.
        -12    1    4    4    0    0  0.91645774073E+01  0.81485967043E+01 -0.57826569496E+01  0.13558326914E+02  0.00000000000E+00 0.  1.
</event>
<event>
 8    1  0.1254059E-006  0.9118800E+02  0.7816164E-02  0.1184000E+00
        -11   -1    0    0    0    0  0.00000000000E+00  0.00000000000E+00  0.45593999997E+02  0.45594000000E+02  0.51100000000E-03 0.  1.
         11   -1    0    0    0    0 -0.00000000000E+00 -0.00000000000E+00 -0.45593999997E+02  0.45594000000E+02  0.51100000000E-03 0. -1.
         23    2    1    2    0    0  0.00000000000E+00  0.44408920985E-15  0.00000000000E+00  0.91188000000E+02  0.91188000000E+02 0.  0.
    9900012    2    3    3    0    0 -0.11419502368E+02 -0.39310379630E+01  0.34783932329E+02  0.54367081461E+02  0.39999993807E+02 0.  0.
         12    1    3    3    0    0  0.11419502368E+02  0.39310379630E+01 -0.34783932329E+02  0.36820918539E+02  0.00000000000E+00 0. -1.
         11    1    4    4    0    0  0.67622273133E+01  0.27661905268E+01  0.10007176222E+02  0.12390444079E+02  0.51100000000E-03 0. -1.
        -11    1    4    4    0    0 -0.17905625203E+02  0.12526719531E+01  0.28109883640E+02  0.33351853913E+02  0.51100000000E-03 0.  1.
        -12    1    4    4    0    0 -0.27610447861E+00 -0.79499004430E+01 -0.33331275334E+01  0.86247834692E+01  0.00000000000E+00 0.  1.
</event>
<event>
 8    1  0.1254059E-006  0.9118800E+02  0.7816164E-02  0.1184000E+00
        -11   -1    0    0    0    0  0.00000000000E+00  0.00000000000E+00  0.45593999997E+02  0.45594000000E+02  0.51100000000E-03 0. -1.
         11   -1    0    0    0    0 -0.00000000000E+00 -0.00000000000E+00 -0.45593999997E+02  0.45594000000E+02  0.51100000000E-03 0.  1.
         23    2    1    2    0    0  0.00000000000E+00  0.00000000000E+00  0.35527136788E-14  0.91188000000E+02  0.91188000000E+02 0.  0.
    9900012    2    3    3    0    0  0.21486229445E+02  0.23439114489E+02  0.18566928052E+02  0.54367068982E+02  0.39999965358E+02 0.  0.
        -12    1    3    3    0    0 -0.21486229445E+02 -0.23439114489E+02 -0.18566928052E+02  0.36820931018E+02  0.00000000000E+00 0.  1.
         11    1    4    4    0    0  0.17380430155E+02  0.16581130271E+01 -0.22952947447E+01  0.17609573232E+02  0.51100000000E-03 0. -1.
        -11    1    4    4    0    0  0.97305350252E+01  0.24397457859E+01  0.56269847162E+01  0.11502114094E+02  0.51100000000E-03 0.  1.
        -12    1    4    4    0    0 -0.56247357354E+01  0.19341255676E+02  0.15235238080E+02  0.25255381656E+02  0.00000000000E+00 0.  1.
</event>
<event>
 8    1  0.1254059E-006  0.9118800E+02  0.7816164E-02  0.1184000E+00
        -11   -1    0    0    0    0  0.00000000000E+00  0.00000000000E+00  0.45593999997E+02  0.45594000000E+02  0.51100000000E-03 0.  1.
         11   -1    0    0    0    0 -0.00000000000E+00 -0.00000000000E+00 -0.45593999997E+02  0.45594000000E+02  0.51100000000E-03 0. -1.
         23    2    1    2    0    0  0.00000000000E+00  0.00000000000E+00  0.44408920985E-15  0.91188000000E+02  0.91188000000E+02 0.  0.
    9900012    2    3    3    0    0 -0.33877508675E+02  0.14071046954E+02 -0.31778774344E+01  0.54367097494E+02  0.40000030356E+02 0.  0.
        -12    1    3    3    0    0  0.33877508675E+02 -0.14071046954E+02  0.31778774344E+01  0.36820902506E+02  0.00000000000E+00 0.  1.
         11    1    4    4    0    0 -0.18796568426E+02 -0.45695599206E+01 -0.11036545978E+02  0.22270994811E+02  0.51100000000E-03 0. -1.
        -11    1    4    4    0    0 -0.88605095157E+01  0.11866282644E+02  0.14520083947E+02  0.20740061011E+02  0.51100000000E-03 0.  1.
         12    1    4    4    0    0 -0.62204307330E+01  0.67743242306E+01 -0.66614154029E+01  0.11356041672E+02  0.00000000000E+00 0. -1.
</event>
<event>
 8    1  0.1254059E-006  0.9118800E+02  0.7816164E-02  0.1184000E+00
        -11   -1    0    0    0    0  0.00000000000E+00  0.00000000000E+00  0.45593999997E+02  0.45594000000E+02  0.51100000000E-03 0.  1.
         11   -1    0    0    0    0 -0.00000000000E+00 -0.00000000000E+00 -0.45593999997E+02  0.45594000000E+02  0.51100000000E-03 0. -1.
         23    2    1    2    0    0 -0.71054273576E-14  0.00000000000E+00  0.17763568394E-14  0.91188000000E+02  0.91188000000E+02 0.  0.
    9900012    2    3    3    0    0 -0.33252308539E+02 -0.44908033800E+01 -0.15162363259E+02  0.54367073915E+02  0.39999976605E+02 0.  0.
        -12    1    3    3    0    0  0.33252308539E+02  0.44908033800E+01  0.15162363259E+02  0.36820926085E+02  0.00000000000E+00 0.  1.
         11    1    4    4    0    0 -0.10252367041E+02  0.29715138938E+00 -0.17106004994E+02  0.19945293581E+02  0.51100000000E-03 0. -1.
        -11    1    4    4    0    0 -0.24665451630E+02 -0.11583278122E+02  0.37910905467E+00  0.27252533095E+02  0.51100000000E-03 0.  1.
         12    1    4    4    0    0  0.16655101328E+01  0.67953233528E+01  0.15645326806E+01  0.71692472394E+01  0.00000000000E+00 0. -1.
</event>
<event>
 8    1  0.1254059E-006  0.9118800E+02  0.7816164E-02  0.1184000E+00
        -11   -1    0    0    0    0  0.00000000000E+00  0.00000000000E+00  0.45593999997E+02  0.45594000000E+02  0.51100000000E-03 0.  1.
         11   -1    0    0    0    0 -0.00000000000E+00 -0.00000000000E+00 -0.45593999997E+02  0.45594000000E+02  0.51100000000E-03 0. -1.
         23    2    1    2    0    0 -0.17763568394E-14  0.00000000000E+00 -0.13322676296E-14  0.91188000000E+02  0.91188000000E+02 0.  0.
    9900012    2    3    3    0    0 -0.14658969830E+02  0.33732378044E+02  0.17382215860E+01  0.54367080141E+02  0.39999990798E+02 0.  0.
        -12    1    3    3    0    0  0.14658969830E+02 -0.33732378044E+02 -0.17382215860E+01  0.36820919859E+02  0.00000000000E+00 0.  1.
         11    1    4    4    0    0 -0.15721591546E+02  0.11213784786E+02  0.36386136170E+01  0.19650875790E+02  0.51100000000E-03 0. -1.
        -11    1    4    4    0    0 -0.78917252155E+01  0.11168119107E+01  0.62479303217E+01  0.10127350556E+02  0.51100000000E-03 0.  1.
        -12    1    4    4    0    0  0.89543469323E+01  0.21401781347E+02 -0.81483223527E+01  0.24588853795E+02  0.00000000000E+00 0.  1.
</event>
<event>
 8    1  0.1254059E-006  0.9118800E+02  0.7816164E-02  0.1184000E+00
        -11   -1    0    0    0    0  0.00000000000E+00  0.00000000000E+00  0.45593999997E+02  0.45594000000E+02  0.51100000000E-03 0.  1.
         11   -1    0    0    0    0 -0.00000000000E+00 -0.00000000000E+00 -0.45593999997E+02  0.45594000000E+02  0.51100000000E-03 0. -1.
         23    2    1    2    0    0  0.00000000000E+00 -0.17763568394E-14  0.00000000000E+00  0.91188000000E+02  0.91188000000E+02 0.  0.
    9900012    2    3    3    0    0  0.13553201714E+02 -0.13538566619E+02  0.31445129156E+02  0.54367106333E+02  0.40000050507E+02 0.  0.
         12    1    3    3    0    0 -0.13553201714E+02  0.13538566619E+02 -0.31445129156E+02  0.36820893667E+02  0.00000000000E+00 0. -1.
         11    1    4    4    0    0 -0.29422856951E+00  0.58844898970E+01  0.92189139951E+01  0.10940848564E+02  0.51100000000E-03 0. -1.
        -11    1    4    4    0    0  0.11987353118E+01 -0.18278000546E+02  0.57661444754E+00  0.18326340464E+02  0.51100000000E-03 0.  1.
        -12    1    4    4    0    0  0.12648694971E+02 -0.11450559701E+01  0.21649600713E+02  0.25099917305E+02  0.00000000000E+00 0.  1.
</event>
<event>
 8    1  0.1254059E-006  0.9118800E+02  0.7816164E-02  0.1184000E+00
        -11   -1    0    0    0    0  0.00000000000E+00  0.00000000000E+00  0.45593999997E+02  0.45594000000E+02  0.51100000000E-03 0. -1.
         11   -1    0    0    0    0 -0.00000000000E+00 -0.00000000000E+00 -0.45593999997E+02  0.45594000000E+02  0.51100000000E-03 0.  1.
         23    2    1    2    0    0  0.00000000000E+00 -0.22204460493E-15  0.35527136788E-14  0.91188000000E+02  0.91188000000E+02 0.  0.
    9900012    2    3    3    0    0  0.19060041167E+02  0.10605009392E+01 -0.31486015668E+02  0.54367095418E+02  0.40000025625E+02 0.  0.
         12    1    3    3    0    0 -0.19060041167E+02 -0.10605009392E+01  0.31486015668E+02  0.36820904582E+02  0.00000000000E+00 0. -1.
         11    1    4    4    0    0  0.29984844301E+02 -0.13331505828E+01 -0.17143725313E+02  0.34565524676E+02  0.51100000000E-03 0. -1.
        -11    1    4    4    0    0 -0.40370131403E+01  0.47270038740E+01 -0.50963148785E+01  0.80383124051E+01  0.51100000000E-03 0.  1.
         12    1    4    4    0    0 -0.68877899934E+01 -0.23333523521E+01 -0.92459754766E+01  0.11763258337E+02  0.00000000000E+00 0. -1.
</event>
<event>
 8    1  0.1254059E-006  0.9118800E+02  0.7816164E-02  0.1184000E+00
        -11   -1    0    0    0    0  0.00000000000E+00  0.00000000000E+00  0.45593999997E+02  0.45594000000E+02  0.51100000000E-03 0. -1.
         11   -1    0    0    0    0 -0.00000000000E+00 -0.00000000000E+00 -0.45593999997E+02  0.45594000000E+02  0.51100000000E-03 0.  1.
         23    2    1    2    0    0  0.35527136788E-14  0.35527136788E-14  0.71054273576E-14  0.91188000000E+02  0.91188000000E+02 0.  0.
    9900012    2    3    3    0    0  0.13608941709E+02  0.21289275662E+02  0.26783476600E+02  0.54366930333E+02  0.39999649279E+02 0.  0.
        -12    1    3    3    0    0 -0.13608941709E+02 -0.21289275662E+02 -0.26783476600E+02  0.36821069667E+02  0.00000000000E+00 0.  1.
         11    1    4    4    0    0  0.15447514850E+01 -0.21083792312E+01  0.45073982849E+00  0.26522983971E+01  0.51100000000E-03 0. -1.
        -11    1    4    4    0    0  0.57927357416E+01  0.50138095022E+01 -0.87399090715E+01  0.11622395792E+02  0.51100000000E-03 0.  1.
         12    1    4    4    0    0  0.62714544824E+01  0.18383845391E+02  0.35072645843E+02  0.40092236145E+02  0.00000000000E+00 0. -1.
</event>
<event>
 8    1  0.1254059E-006  0.9118800E+02  0.7816164E-02  0.1184000E+00
        -11   -1    0    0    0    0  0.00000000000E+00  0.00000000000E+00  0.45593999997E+02  0.45594000000E+02  0.51100000000E-03 0.  1.
         11   -1    0    0    0    0 -0.00000000000E+00 -0.00000000000E+00 -0.45593999997E+02  0.45594000000E+02  0.51100000000E-03 0. -1.
         23    2    1    2    0    0  0.88817841970E-15 -0.17763568394E-14  0.00000000000E+00  0.91188000000E+02  0.91188000000E+02 0.  0.
    9900012    2    3    3    0    0 -0.39463256676E+01  0.10908406717E+02 -0.34945854827E+02  0.54367087559E+02  0.40000007708E+02 0.  0.
        -12    1    3    3    0    0  0.39463256676E+01 -0.10908406717E+02  0.34945854827E+02  0.36820912441E+02  0.00000000000E+00 0.  1.
         11    1    4    4    0    0  0.77650552010E+01  0.10710591574E+02 -0.36110706171E+02  0.38457716451E+02  0.51100000000E-03 0. -1.
        -11    1    4    4    0    0  0.12940399936E+01  0.12350759646E+01 -0.17917259153E+01  0.25318440236E+01  0.51100000000E-03 0.  1.
        -12    1    4    4    0    0 -0.13005420862E+02 -0.10372608224E+01  0.29565772592E+01  0.13377527085E+02  0.00000000000E+00 0.  1.
</event>
<event>
 8    1  0.1254059E-006  0.9118800E+02  0.7816164E-02  0.1184000E+00
        -11   -1    0    0    0    0  0.00000000000E+00  0.00000000000E+00  0.45593999997E+02  0.45594000000E+02  0.51100000000E-03 0. -1.
         11   -1    0    0    0    0 -0.00000000000E+00 -0.00000000000E+00 -0.45593999997E+02  0.45594000000E+02  0.51100000000E-03 0.  1.
         23    2    1    2    0    0  0.88817841970E-15  0.00000000000E+00  0.00000000000E+00  0.91188000000E+02  0.91188000000E+02 0.  0.
    9900012    2    3    3    0    0 -0.74002298041E+01 -0.53910370123E+01  0.35664523404E+02  0.54367015347E+02  0.39999843086E+02 0.  0.
        -12    1    3    3    0    0  0.74002298041E+01  0.53910370123E+01 -0.35664523404E+02  0.36820984653E+02  0.00000000000E+00 0.  1.
         11    1    4    4    0    0  0.13941102364E+01 -0.59422589503E+01  0.33942140567E+01  0.69838867479E+01  0.51100000000E-03 0. -1.
        -11    1    4    4    0    0 -0.64376654274E+01  0.49868514552E+01 -0.51448518993E+01  0.96323270770E+01  0.51100000000E-03 0.  1.
        -12    1    4    4    0    0 -0.23566746131E+01 -0.44356295171E+01  0.37415161246E+02  0.37750801522E+02  0.00000000000E+00 0.  1.
</event>
<event>
 8    1  0.1254059E-006  0.9118800E+02  0.7816164E-02  0.1184000E+00
        -11   -1    0    0    0    0  0.00000000000E+00  0.00000000000E+00  0.45593999997E+02  0.45594000000E+02  0.51100000000E-03 0.  1.
         11   -1    0    0    0    0 -0.00000000000E+00 -0.00000000000E+00 -0.45593999997E+02  0.45594000000E+02  0.51100000000E-03 0. -1.
         23    2    1    2    0    0  0.00000000000E+00 -0.71054273576E-14  0.17763568394E-14  0.91188000000E+02  0.91188000000E+02 0.  0.
    9900012    2    3    3    0    0 -0.21096602890E+02 -0.27114333188E+02  0.13248640340E+02  0.54367079471E+02  0.39999989271E+02 0.  0.
         12    1    3    3    0    0  0.21096602890E+02  0.27114333188E+02 -0.13248640340E+02  0.36820920529E+02  0.00000000000E+00 0. -1.
         11    1    4    4    0    0 -0.10022271094E+02 -0.51279085897E+01  0.28037380552E+00  0.11261437480E+02  0.51100000000E-03 0. -1.
        -11    1    4    4    0    0 -0.17886391893E+02  0.14872309432E+00  0.68271464189E+01  0.19145627751E+02  0.51100000000E-03 0.  1.
         12    1    4    4    0    0  0.68120600968E+01 -0.22135147692E+02  0.61411201158E+01  0.23960014241E+02  0.00000000000E+00 0. -1.
</event>
<event>
 8    1  0.1254059E-006  0.9118800E+02  0.7816164E-02  0.1184000E+00
        -11   -1    0    0    0    0  0.00000000000E+00  0.00000000000E+00  0.45593999997E+02  0.45594000000E+02  0.51100000000E-03 0. -1.
         11   -1    0    0    0    0 -0.00000000000E+00 -0.00000000000E+00 -0.45593999997E+02  0.45594000000E+02  0.51100000000E-03 0.  1.
         23    2    1    2    0    0  0.00000000000E+00  0.00000000000E+00  0.00000000000E+00  0.91188000000E+02  0.91188000000E+02 0.  0.
    9900012    2    3    3    0    0 -0.18168742096E+02  0.25204346585E+02  0.19758990230E+02  0.54367082426E+02  0.39999996006E+02 0.  0.
        -12    1    3    3    0    0  0.18168742096E+02 -0.25204346585E+02 -0.19758990230E+02  0.36820917574E+02  0.00000000000E+00 0.  1.
         11    1    4    4    0    0  0.51400395836E+01  0.94127867033E+01 -0.41147072784E+00  0.10732654325E+02  0.51100000000E-03 0. -1.
        -11    1    4    4    0    0 -0.27461398889E+02  0.18307047435E+02  0.14174424789E+02  0.35919225118E+02  0.51100000000E-03 0.  1.
        -12    1    4    4    0    0  0.41526172100E+01 -0.25154875533E+01  0.59960361687E+01  0.77152029824E+01  0.00000000000E+00 0.  1.
</event>
<event>
 8    1  0.1254059E-006  0.9118800E+02  0.7816164E-02  0.1184000E+00
        -11   -1    0    0    0    0  0.00000000000E+00  0.00000000000E+00  0.45593999997E+02  0.45594000000E+02  0.51100000000E-03 0.  1.
         11   -1    0    0    0    0 -0.00000000000E+00 -0.00000000000E+00 -0.45593999997E+02  0.45594000000E+02  0.51100000000E-03 0. -1.
         23    2    1    2    0    0  0.88817841970E-15 -0.44408920985E-15 -0.71054273576E-14  0.91188000000E+02  0.91188000000E+02 0.  0.
    9900012    2    3    3    0    0 -0.59160830120E+01 -0.23349849156E+01  0.36267428974E+02  0.54367101082E+02  0.40000038536E+02 0.  0.
         12    1    3    3    0    0  0.59160830120E+01  0.23349849156E+01 -0.36267428974E+02  0.36820898918E+02  0.00000000000E+00 0. -1.
         11    1    4    4    0    0 -0.51759190854E+01 -0.78777464286E+01 -0.10091789967E+01  0.94798454460E+01  0.51100000000E-03 0. -1.
        -11    1    4    4    0    0  0.71781505124E+01 -0.35202992848E+01  0.29486476143E+02  0.30551114995E+02  0.51100000000E-03 0.  1.
        -12    1    4    4    0    0 -0.79183144390E+01  0.90630607978E+01  0.77901318276E+01  0.14336140641E+02  0.00000000000E+00 0.  1.
</event>
<event>
 8    1  0.1254059E-006  0.9118800E+02  0.7816164E-02  0.1184000E+00
        -11   -1    0    0    0    0  0.00000000000E+00  0.00000000000E+00  0.45593999997E+02  0.45594000000E+02  0.51100000000E-03 0. -1.
         11   -1    0    0    0    0 -0.00000000000E+00 -0.00000000000E+00 -0.45593999997E+02  0.45594000000E+02  0.51100000000E-03 0.  1.
         23    2    1    2    0    0  0.88817841970E-15  0.00000000000E+00  0.00000000000E+00  0.91188000000E+02  0.91188000000E+02 0.  0.
    9900012    2    3    3    0    0 -0.79365914681E+01  0.20009527151E+02 -0.29873216910E+02  0.54367085434E+02  0.40000002864E+02 0.  0.
         12    1    3    3    0    0  0.79365914681E+01 -0.20009527151E+02  0.29873216910E+02  0.36820914566E+02  0.00000000000E+00 0. -1.
         11    1    4    4    0    0  0.10808253667E+02 -0.20784614172E+01 -0.11426253032E+02  0.15864980549E+02  0.51100000000E-03 0. -1.
        -11    1    4    4    0    0 -0.12369404739E+02  0.17923105254E+01 -0.61410584671E+01  0.13925772868E+02  0.51100000000E-03 0.  1.
         12    1    4    4    0    0 -0.63754403964E+01  0.20295678043E+02 -0.12305905410E+02  0.24576332018E+02  0.00000000000E+00 0. -1.
</event>
<event>
 8    1  0.1254059E-006  0.9118800E+02  0.7816164E-02  0.1184000E+00
        -11   -1    0    0    0    0  0.00000000000E+00  0.00000000000E+00  0.45593999997E+02  0.45594000000E+02  0.51100000000E-03 0. -1.
         11   -1    0    0    0    0 -0.00000000000E+00 -0.00000000000E+00 -0.45593999997E+02  0.45594000000E+02  0.51100000000E-03 0.  1.
         23    2    1    2    0    0 -0.35527136788E-14 -0.17763568394E-14 -0.35527136788E-14  0.91188000000E+02  0.91188000000E+02 0.  0.
    9900012    2    3    3    0    0 -0.22234659444E+02  0.97826251088E+01 -0.27671261582E+02  0.54367101692E+02  0.40000039928E+02 0.  0.
         12    1    3    3    0    0  0.22234659444E+02 -0.97826251088E+01  0.27671261582E+02  0.36820898308E+02  0.00000000000E+00 0. -1.
         11    1    4    4    0    0 -0.11540754305E+02  0.16253303095E+02 -0.16683341835E+01  0.20003554950E+02  0.51100000000E-03 0. -1.
        -11    1    4    4    0    0 -0.23117117561E+01  0.33595163650E+01 -0.19459409511E+02  0.19882127156E+02  0.51100000000E-03 0.  1.
         12    1    4    4    0    0 -0.83821933836E+01 -0.98301943514E+01 -0.65435178875E+01  0.14481419587E+02  0.00000000000E+00 0. -1.
</event>
<event>
 8    1  0.1254059E-006  0.9118800E+02  0.7816164E-02  0.1184000E+00
        -11   -1    0    0    0    0  0.00000000000E+00  0.00000000000E+00  0.45593999997E+02  0.45594000000E+02  0.51100000000E-03 0.  1.
         11   -1    0    0    0    0 -0.00000000000E+00 -0.00000000000E+00 -0.45593999997E+02  0.45594000000E+02  0.51100000000E-03 0. -1.
         23    2    1    2    0    0  0.17763568394E-14  0.00000000000E+00 -0.71054273576E-14  0.91188000000E+02  0.91188000000E+02 0.  0.
    9900012    2    3    3    0    0  0.14331955099E+02  0.84850177194E+01  0.32838723495E+02  0.54367051840E+02  0.39999926279E+02 0.  0.
         12    1    3    3    0    0 -0.14331955099E+02 -0.84850177194E+01 -0.32838723495E+02  0.36820948160E+02  0.00000000000E+00 0. -1.
         11    1    4    4    0    0  0.21509984623E+02 -0.32320304613E+01  0.13564683898E+02  0.25634471107E+02  0.51100000000E-03 0. -1.
        -11    1    4    4    0    0 -0.27791288632E+01 -0.31141264704E+01  0.96486679228E+01  0.10512760525E+02  0.51100000000E-03 0.  1.
         12    1    4    4    0    0 -0.43989006613E+01  0.14831174651E+02  0.96253716738E+01  0.18219820208E+02  0.00000000000E+00 0. -1.
</event>
<event>
 8    1  0.1254059E-006  0.9118800E+02  0.7816164E-02  0.1184000E+00
        -11   -1    0    0    0    0  0.00000000000E+00  0.00000000000E+00  0.45593999997E+02  0.45594000000E+02  0.51100000000E-03 0.  1.
         11   -1    0    0    0    0 -0.00000000000E+00 -0.00000000000E+00 -0.45593999997E+02  0.45594000000E+02  0.51100000000E-03 0. -1.
         23    2    1    2    0    0 -0.22204460493E-14  0.35527136788E-14 -0.35527136788E-14  0.91188000000E+02  0.91188000000E+02 0.  0.
    9900012    2    3    3    0    0 -0.15417027042E+01 -0.29695796872E+02  0.21715505698E+02  0.54367076779E+02  0.39999983133E+02 0.  0.
        -12    1    3    3    0    0  0.15417027042E+01  0.29695796872E+02 -0.21715505698E+02  0.36820923221E+02  0.00000000000E+00 0.  1.
         11    1    4    4    0    0  0.54708759259E+01 -0.54809545523E+01  0.73252657857E+01  0.10659777920E+02  0.51100000000E-03 0. -1.
        -11    1    4    4    0    0  0.64778126779E+01 -0.13945288064E+02  0.20552353676E+02  0.25667729899E+02  0.51100000000E-03 0.  1.
        -12    1    4    4    0    0 -0.13490391308E+02 -0.10269554256E+02 -0.61621137634E+01  0.18039568961E+02  0.00000000000E+00 0.  1.
</event>
<event>
 8    1  0.1254059E-006  0.9118800E+02  0.7816164E-02  0.1184000E+00
        -11   -1    0    0    0    0  0.00000000000E+00  0.00000000000E+00  0.45593999997E+02  0.45594000000E+02  0.51100000000E-03 0.  1.
         11   -1    0    0    0    0 -0.00000000000E+00 -0.00000000000E+00 -0.45593999997E+02  0.45594000000E+02  0.51100000000E-03 0. -1.
         23    2    1    2    0    0  0.35527136788E-14  0.00000000000E+00  0.00000000000E+00  0.91188000000E+02  0.91188000000E+02 0.  0.
    9900012    2    3    3    0    0  0.21186830678E+02  0.24342096506E+02 -0.17730223429E+02  0.54367078239E+02  0.39999986461E+02 0.  0.
         12    1    3    3    0    0 -0.21186830678E+02 -0.24342096506E+02  0.17730223429E+02  0.36820921761E+02  0.00000000000E+00 0. -1.
         11    1    4    4    0    0 -0.27454439695E+01  0.19836803323E+02  0.34335821545E+01  0.20318112986E+02  0.51100000000E-03 0.  1.
        -11    1    4    4    0    0  0.14274837113E+02 -0.27020763808E+01 -0.12982080957E+02  0.19483496031E+02  0.51100000000E-03 0. -1.
         12    1    4    4    0    0  0.96574375349E+01  0.72073695640E+01 -0.81817246265E+01  0.14565469221E+02  0.00000000000E+00 0. -1.
</event>
<event>
 8    1  0.1254059E-006  0.9118800E+02  0.7816164E-02  0.1184000E+00
        -11   -1    0    0    0    0  0.00000000000E+00  0.00000000000E+00  0.45593999997E+02  0.45594000000E+02  0.51100000000E-03 0. -1.
         11   -1    0    0    0    0 -0.00000000000E+00 -0.00000000000E+00 -0.45593999997E+02  0.45594000000E+02  0.51100000000E-03 0.  1.
         23    2    1    2    0    0 -0.35527136788E-14  0.00000000000E+00 -0.35527136788E-14  0.91188000000E+02  0.91188000000E+02 0.  0.
    9900012    2    3    3    0    0  0.24725383953E+02 -0.21839652720E+02 -0.16354329434E+02  0.54367093795E+02  0.40000021924E+02 0.  0.
         12    1    3    3    0    0 -0.24725383953E+02  0.21839652720E+02  0.16354329434E+02  0.36820906205E+02  0.00000000000E+00 0. -1.
         11    1    4    4    0    0 -0.53090010571E+01 -0.66426780168E+00  0.44782508103E+01  0.69772110845E+01  0.51100000000E-03 0. -1.
        -11    1    4    4    0    0 -0.74115903656E+00 -0.67698168257E+01  0.11673952801E+01  0.69095982931E+01  0.51100000000E-03 0.  1.
         12    1    4    4    0    0  0.30775544046E+02 -0.14405568093E+02 -0.21999975524E+02  0.40480284417E+02  0.00000000000E+00 0. -1.
</event>
<event>
 8    1  0.1254059E-006  0.9118800E+02  0.7816164E-02  0.1184000E+00
        -11   -1    0    0    0    0  0.00000000000E+00  0.00000000000E+00  0.45593999997E+02  0.45594000000E+02  0.51100000000E-03 0.  1.
         11   -1    0    0    0    0 -0.00000000000E+00 -0.00000000000E+00 -0.45593999997E+02  0.45594000000E+02  0.51100000000E-03 0. -1.
         23    2    1    2    0    0  0.44408920985E-15  0.00000000000E+00  0.00000000000E+00  0.91188000000E+02  0.91188000000E+02 0.  0.
    9900012    2    3    3    0    0 -0.18926960488E+01 -0.35513973292E+02 -0.95370421880E+01  0.54367085141E+02  0.40000002196E+02 0.  0.
        -12    1    3    3    0    0  0.18926960488E+01  0.35513973292E+02  0.95370421880E+01  0.36820914859E+02  0.00000000000E+00 0.  1.
         11    1    4    4    0    0  0.47878777548E+01 -0.67267790490E+01  0.94394288135E+01  0.12540978684E+02  0.51100000000E-03 0. -1.
        -11    1    4    4    0    0 -0.57349030259E+01 -0.12232339476E+02  0.34420607095E+01  0.13941557444E+02  0.51100000000E-03 0.  1.
         12    1    4    4    0    0 -0.94567077773E+00 -0.16554854767E+02 -0.22418531711E+02  0.27884549013E+02  0.00000000000E+00 0. -1.
</event>
<event>
 8    1  0.1254059E-006  0.9118800E+02  0.7816164E-02  0.1184000E+00
        -11   -1    0    0    0    0  0.00000000000E+00  0.00000000000E+00  0.45593999997E+02  0.45594000000E+02  0.51100000000E-03 0. -1.
         11   -1    0    0    0    0 -0.00000000000E+00 -0.00000000000E+00 -0.45593999997E+02  0.45594000000E+02  0.51100000000E-03 0.  1.
         23    2    1    2    0    0  0.00000000000E+00 -0.71054273576E-14 -0.53290705182E-14  0.91188000000E+02  0.91188000000E+02 0.  0.
    9900012    2    3    3    0    0  0.85286708678E+01 -0.33064728953E+02 -0.13775517683E+02  0.54367089977E+02  0.40000013220E+02 0.  0.
         12    1    3    3    0    0 -0.85286708678E+01  0.33064728953E+02  0.13775517683E+02  0.36820910023E+02  0.00000000000E+00 0. -1.
         11    1    4    4    0    0 -0.92985927044E+00 -0.86965451055E+01  0.80125431668E+01  0.11861508475E+02  0.51100000000E-03 0. -1.
        -11    1    4    4    0    0 -0.42535230830E+01 -0.17475382469E+02 -0.20246392781E+02  0.27081319613E+02  0.51100000000E-03 0.  1.
         12    1    4    4    0    0  0.13712053221E+02 -0.68928013783E+01 -0.15416680684E+01  0.15424261889E+02  0.00000000000E+00 0. -1.
</event>
<event>
 8    1  0.1254059E-006  0.9118800E+02  0.7816164E-02  0.1184000E+00
        -11   -1    0    0    0    0  0.00000000000E+00  0.00000000000E+00  0.45593999997E+02  0.45594000000E+02  0.51100000000E-03 0.  1.
         11   -1    0    0    0    0 -0.00000000000E+00 -0.00000000000E+00 -0.45593999997E+02  0.45594000000E+02  0.51100000000E-03 0. -1.
         23    2    1    2    0    0  0.00000000000E+00  0.00000000000E+00  0.00000000000E+00  0.91188000000E+02  0.91188000000E+02 0.  0.
    9900012    2    3    3    0    0 -0.12066726268E+02  0.19625271039E+02 -0.28723210034E+02  0.54367082835E+02  0.39999996939E+02 0.  0.
        -12    1    3    3    0    0  0.12066726268E+02 -0.19625271039E+02  0.28723210034E+02  0.36820917165E+02  0.00000000000E+00 0.  1.
         11    1    4    4    0    0 -0.10974024212E+02  0.68290843108E+01 -0.16205994909E+02  0.20729203342E+02  0.51100000000E-03 0. -1.
        -11    1    4    4    0    0  0.92080528334E+01  0.13651518568E+02  0.11447396745E+01  0.16506441936E+02  0.51100000000E-03 0.  1.
         12    1    4    4    0    0 -0.10300754889E+02 -0.85533183948E+00 -0.13661954800E+02  0.17131437558E+02  0.00000000000E+00 0. -1.
</event>
<event>
 8    1  0.1254059E-006  0.9118800E+02  0.7816164E-02  0.1184000E+00
        -11   -1    0    0    0    0  0.00000000000E+00  0.00000000000E+00  0.45593999997E+02  0.45594000000E+02  0.51100000000E-03 0. -1.
         11   -1    0    0    0    0 -0.00000000000E+00 -0.00000000000E+00 -0.45593999997E+02  0.45594000000E+02  0.51100000000E-03 0.  1.
         23    2    1    2    0    0  0.00000000000E+00  0.35527136788E-14  0.00000000000E+00  0.91188000000E+02  0.91188000000E+02 0.  0.
    9900012    2    3    3    0    0 -0.17051740302E+02  0.26554143474E+02 -0.18970935159E+02  0.54367071661E+02  0.39999971465E+02 0.  0.
        -12    1    3    3    0    0  0.17051740302E+02 -0.26554143474E+02  0.18970935159E+02  0.36820928339E+02  0.00000000000E+00 0.  1.
         11    1    4    4    0    0 -0.15498193675E+01  0.33471958199E+02 -0.13209405482E+02  0.36017527944E+02  0.51100000000E-03 0. -1.
        -11    1    4    4    0    0 -0.58238109594E+01 -0.29326133936E+01 -0.26108296319E+00  0.65257306090E+01  0.51100000000E-03 0.  1.
         12    1    4    4    0    0 -0.96781099750E+01 -0.39852013319E+01 -0.55004467143E+01  0.11823813107E+02  0.00000000000E+00 0. -1.
</event>
<event>
 8    1  0.1254059E-006  0.9118800E+02  0.7816164E-02  0.1184000E+00
        -11   -1    0    0    0    0  0.00000000000E+00  0.00000000000E+00  0.45593999997E+02  0.45594000000E+02  0.51100000000E-03 0. -1.
         11   -1    0    0    0    0 -0.00000000000E+00 -0.00000000000E+00 -0.45593999997E+02  0.45594000000E+02  0.51100000000E-03 0.  1.
         23    2    1    2    0    0 -0.17763568394E-14  0.00000000000E+00 -0.35527136788E-14  0.91188000000E+02  0.91188000000E+02 0.  0.
    9900012    2    3    3    0    0 -0.14927078083E+02  0.20023245394E+02  0.27056122684E+02  0.54367057713E+02  0.39999939668E+02 0.  0.
         12    1    3    3    0    0  0.14927078083E+02 -0.20023245394E+02 -0.27056122684E+02  0.36820942287E+02  0.00000000000E+00 0. -1.
         11    1    4    4    0    0 -0.40139717485E+01  0.10854230436E+01  0.14202104903E+02  0.14798307211E+02  0.51100000000E-03 0. -1.
        -11    1    4    4    0    0 -0.20670432551E+02  0.70177097151E+01  0.94819168916E+01  0.23799617217E+02  0.51100000000E-03 0.  1.
        -12    1    4    4    0    0  0.97573262162E+01  0.11920112635E+02  0.33721008900E+01  0.15769133284E+02  0.00000000000E+00 0.  1.
</event>
<event>
 8    1  0.1254059E-006  0.9118800E+02  0.7816164E-02  0.1184000E+00
        -11   -1    0    0    0    0  0.00000000000E+00  0.00000000000E+00  0.45593999997E+02  0.45594000000E+02  0.51100000000E-03 0. -1.
         11   -1    0    0    0    0 -0.00000000000E+00 -0.00000000000E+00 -0.45593999997E+02  0.45594000000E+02  0.51100000000E-03 0.  1.
         23    2    1    2    0    0  0.71054273576E-14  0.17763568394E-14  0.00000000000E+00  0.91188000000E+02  0.91188000000E+02 0.  0.
    9900012    2    3    3    0    0  0.32116662817E+02  0.14488219346E+02  0.10695330281E+02  0.54367100770E+02  0.40000037825E+02 0.  0.
        -12    1    3    3    0    0 -0.32116662817E+02 -0.14488219346E+02 -0.10695330281E+02  0.36820899230E+02  0.00000000000E+00 0.  1.
         11    1    4    4    0    0  0.16624465973E+02 -0.20951020922E+01  0.11715885387E+02  0.20445642380E+02  0.51100000000E-03 0. -1.
        -11    1    4    4    0    0  0.11034701563E+02  0.63875746432E+00  0.92718469787E+01  0.14427050854E+02  0.51100000000E-03 0.  1.
        -12    1    4    4    0    0  0.44574952803E+01  0.15944563974E+02 -0.10292402085E+02  0.19494407536E+02  0.00000000000E+00 0.  1.
</event>
<event>
 8    1  0.1254059E-006  0.9118800E+02  0.7816164E-02  0.1184000E+00
        -11   -1    0    0    0    0  0.00000000000E+00  0.00000000000E+00  0.45593999997E+02  0.45594000000E+02  0.51100000000E-03 0.  1.
         11   -1    0    0    0    0 -0.00000000000E+00 -0.00000000000E+00 -0.45593999997E+02  0.45594000000E+02  0.51100000000E-03 0. -1.
         23    2    1    2    0    0 -0.44408920985E-15  0.00000000000E+00  0.00000000000E+00  0.91188000000E+02  0.91188000000E+02 0.  0.
    9900012    2    3    3    0    0 -0.36664904505E+01 -0.36516177240E+02  0.29846368497E+01  0.54367049312E+02  0.39999920517E+02 0.  0.
         12    1    3    3    0    0  0.36664904505E+01  0.36516177240E+02 -0.29846368497E+01  0.36820950688E+02  0.00000000000E+00 0. -1.
         11    1    4    4    0    0 -0.66117889174E+01 -0.51909054297E+01  0.80779543057E+01  0.11658241630E+02  0.51100000000E-03 0. -1.
        -11    1    4    4    0    0  0.82556350052E+01 -0.34379601232E+02 -0.10573098643E+01  0.35372735188E+02  0.51100000000E-03 0.  1.
        -12    1    4    4    0    0 -0.53103365383E+01  0.30543294225E+01 -0.40360075917E+01  0.73360724950E+01  0.00000000000E+00 0.  1.
</event>
<event>
 8    1  0.1254059E-006  0.9118800E+02  0.7816164E-02  0.1184000E+00
        -11   -1    0    0    0    0  0.00000000000E+00  0.00000000000E+00  0.45593999997E+02  0.45594000000E+02  0.51100000000E-03 0. -1.
         11   -1    0    0    0    0 -0.00000000000E+00 -0.00000000000E+00 -0.45593999997E+02  0.45594000000E+02  0.51100000000E-03 0.  1.
         23    2    1    2    0    0  0.44408920985E-15 -0.71054273576E-14  0.88817841970E-15  0.91188000000E+02  0.91188000000E+02 0.  0.
    9900012    2    3    3    0    0 -0.28002447423E+01  0.36464397132E+02  0.42762247160E+01  0.54367085744E+02  0.40000003571E+02 0.  0.
        -12    1    3    3    0    0  0.28002447423E+01 -0.36464397132E+02 -0.42762247160E+01  0.36820914256E+02  0.00000000000E+00 0.  1.
         11    1    4    4    0    0  0.31594841592E+01  0.12353365893E+02  0.13838445320E+02  0.18817294124E+02  0.51100000000E-03 0. -1.
        -11    1    4    4    0    0  0.71530068279E+01  0.17025189312E+02 -0.92212925899E+01  0.20641095297E+02  0.51100000000E-03 0.  1.
        -12    1    4    4    0    0 -0.13112735729E+02  0.70858419273E+01 -0.34092801376E+00  0.14908696323E+02  0.00000000000E+00 0.  1.
</event>
<event>
 8    1  0.1254059E-006  0.9118800E+02  0.7816164E-02  0.1184000E+00
        -11   -1    0    0    0    0  0.00000000000E+00  0.00000000000E+00  0.45593999997E+02  0.45594000000E+02  0.51100000000E-03 0.  1.
         11   -1    0    0    0    0 -0.00000000000E+00 -0.00000000000E+00 -0.45593999997E+02  0.45594000000E+02  0.51100000000E-03 0. -1.
         23    2    1    2    0    0 -0.88817841970E-15  0.17763568394E-14 -0.71054273576E-14  0.91188000000E+02  0.91188000000E+02 0.  0.
    9900012    2    3    3    0    0  0.24332130964E+01 -0.92512086621E+01  0.35556634515E+02  0.54367086843E+02  0.40000006076E+02 0.  0.
         12    1    3    3    0    0 -0.24332130964E+01  0.92512086621E+01 -0.35556634515E+02  0.36820913157E+02  0.00000000000E+00 0. -1.
         11    1    4    4    0    0 -0.83352534174E+01  0.34363514869E+01 -0.20869007444E+01  0.92541945112E+01  0.51100000000E-03 0. -1.
        -11    1    4    4    0    0 -0.10004396232E+01  0.27261431826E+00 -0.17333495176E+01  0.20198264325E+01  0.51100000000E-03 0.  1.
        -12    1    4    4    0    0  0.11768906137E+02 -0.12960174467E+02  0.39376884777E+02  0.43093065899E+02  0.00000000000E+00 0.  1.
</event>
<event>
 8    1  0.1254059E-006  0.9118800E+02  0.7816164E-02  0.1184000E+00
        -11   -1    0    0    0    0  0.00000000000E+00  0.00000000000E+00  0.45593999997E+02  0.45594000000E+02  0.51100000000E-03 0.  1.
         11   -1    0    0    0    0 -0.00000000000E+00 -0.00000000000E+00 -0.45593999997E+02  0.45594000000E+02  0.51100000000E-03 0. -1.
         23    2    1    2    0    0  0.00000000000E+00  0.88817841970E-15 -0.55511151231E-15  0.91188000000E+02  0.91188000000E+02 0.  0.
    9900012    2    3    3    0    0  0.36657289008E+02  0.33599497332E+01 -0.85679077951E+00  0.54367079451E+02  0.39999989224E+02 0.  0.
        -12    1    3    3    0    0 -0.36657289008E+02 -0.33599497332E+01  0.85679077951E+00  0.36820920549E+02  0.00000000000E+00 0.  1.
         11    1    4    4    0    0  0.83616793756E+01 -0.15950922288E+01  0.87332373883E+01  0.12195549874E+02  0.51100000000E-03 0.  1.
        -11    1    4    4    0    0  0.29900251674E+02  0.80423856333E+01  0.10462124673E+01  0.30980632299E+02  0.51100000000E-03 0. -1.
        -12    1    4    4    0    0 -0.16046420418E+01 -0.30873436713E+01 -0.10636240635E+02  0.11190897277E+02  0.00000000000E+00 0.  1.
</event>
<event>
 8    1  0.1254059E-006  0.9118800E+02  0.7816164E-02  0.1184000E+00
        -11   -1    0    0    0    0  0.00000000000E+00  0.00000000000E+00  0.45593999997E+02  0.45594000000E+02  0.51100000000E-03 0. -1.
         11   -1    0    0    0    0 -0.00000000000E+00 -0.00000000000E+00 -0.45593999997E+02  0.45594000000E+02  0.51100000000E-03 0.  1.
         23    2    1    2    0    0  0.00000000000E+00  0.00000000000E+00  0.00000000000E+00  0.91188000000E+02  0.91188000000E+02 0.  0.
    9900012    2    3    3    0    0  0.39962660164E+01  0.87592359762E+01  0.35539912492E+02  0.54367085605E+02  0.40000003254E+02 0.  0.
        -12    1    3    3    0    0 -0.39962660164E+01 -0.87592359762E+01 -0.35539912492E+02  0.36820914395E+02  0.00000000000E+00 0.  1.
         11    1    4    4    0    0 -0.31299903112E+01  0.42677651202E+01  0.21614248998E+02  0.22252784511E+02  0.51100000000E-03 0. -1.
        -11    1    4    4    0    0  0.69850257293E+01  0.25212374705E+01  0.22303212615E+02  0.23507031204E+02  0.51100000000E-03 0.  1.
        -12    1    4    4    0    0  0.14123059832E+00  0.19702333856E+01 -0.83775491217E+01  0.86072698901E+01  0.00000000000E+00 0.  1.
</event>
<event>
 8    1  0.1254059E-006  0.9118800E+02  0.7816164E-02  0.1184000E+00
        -11   -1    0    0    0    0  0.00000000000E+00  0.00000000000E+00  0.45593999997E+02  0.45594000000E+02  0.51100000000E-03 0. -1.
         11   -1    0    0    0    0 -0.00000000000E+00 -0.00000000000E+00 -0.45593999997E+02  0.45594000000E+02  0.51100000000E-03 0.  1.
         23    2    1    2    0    0 -0.17763568394E-14 -0.35527136788E-14  0.00000000000E+00  0.91188000000E+02  0.91188000000E+02 0.  0.
    9900012    2    3    3    0    0  0.12384071658E+02 -0.21537098479E+02 -0.27176618367E+02  0.54367076225E+02  0.39999981871E+02 0.  0.
         12    1    3    3    0    0 -0.12384071658E+02  0.21537098479E+02  0.27176618367E+02  0.36820923775E+02  0.00000000000E+00 0. -1.
         11    1    4    4    0    0 -0.43823737869E+00  0.15177809045E+00 -0.12504897275E+02  0.12513494505E+02  0.51100000000E-03 0.  1.
        -11    1    4    4    0    0 -0.76340787298E+01 -0.65029958939E+01 -0.12866123887E+02  0.16312732995E+02  0.51100000000E-03 0. -1.
        -12    1    4    4    0    0  0.20456387766E+02 -0.15185880676E+02 -0.18055972050E+01  0.25540848725E+02  0.00000000000E+00 0.  1.
</event>
<event>
 8    1  0.1254059E-006  0.9118800E+02  0.7816164E-02  0.1184000E+00
        -11   -1    0    0    0    0  0.00000000000E+00  0.00000000000E+00  0.45593999997E+02  0.45594000000E+02  0.51100000000E-03 0. -1.
         11   -1    0    0    0    0 -0.00000000000E+00 -0.00000000000E+00 -0.45593999997E+02  0.45594000000E+02  0.51100000000E-03 0.  1.
         23    2    1    2    0    0  0.00000000000E+00  0.00000000000E+00  0.17763568394E-14  0.91188000000E+02  0.91188000000E+02 0.  0.
    9900012    2    3    3    0    0  0.34156997829E+02  0.55084450893E+01  0.12599206938E+02  0.54367034730E+02  0.39999887273E+02 0.  0.
         12    1    3    3    0    0 -0.34156997829E+02 -0.55084450893E+01 -0.12599206938E+02  0.36820965270E+02  0.00000000000E+00 0. -1.
         11    1    4    4    0    0  0.33455322727E+02  0.55657833242E+01  0.18093773650E+02  0.38439838812E+02  0.51100000000E-03 0.  1.
        -11    1    4    4    0    0 -0.18679157461E+01  0.40132800632E+01  0.35546670221E+01  0.56772514476E+01  0.51100000000E-03 0. -1.
        -12    1    4    4    0    0  0.25695908482E+01 -0.40706182982E+01 -0.90492337339E+01  0.10249944470E+02  0.00000000000E+00 0.  1.
</event>
<event>
 8    1  0.1254059E-006  0.9118800E+02  0.7816164E-02  0.1184000E+00
        -11   -1    0    0    0    0  0.00000000000E+00  0.00000000000E+00  0.45593999997E+02  0.45594000000E+02  0.51100000000E-03 0.  1.
         11   -1    0    0    0    0 -0.00000000000E+00 -0.00000000000E+00 -0.45593999997E+02  0.45594000000E+02  0.51100000000E-03 0. -1.
         23    2    1    2    0    0  0.00000000000E+00  0.00000000000E+00  0.17763568394E-14  0.91188000000E+02  0.91188000000E+02 0.  0.
    9900012    2    3    3    0    0  0.59798902422E+01 -0.35060618310E+02  0.95275259752E+01  0.54367084818E+02  0.40000001460E+02 0.  0.
         12    1    3    3    0    0 -0.59798902422E+01  0.35060618310E+02 -0.95275259752E+01  0.36820915182E+02  0.00000000000E+00 0. -1.
         11    1    4    4    0    0 -0.38166299105E+01 -0.40057902800E+01  0.11376000452E-01  0.55329150830E+01  0.51100000000E-03 0.  1.
        -11    1    4    4    0    0  0.11243003931E+02 -0.44815556860E+01 -0.10107602218E+02  0.15768738111E+02  0.51100000000E-03 0. -1.
        -12    1    4    4    0    0 -0.14464837779E+01 -0.26573272344E+02  0.19623752192E+02  0.33065431625E+02  0.00000000000E+00 0.  1.
</event>
<event>
 8    1  0.1254059E-006  0.9118800E+02  0.7816164E-02  0.1184000E+00
        -11   -1    0    0    0    0  0.00000000000E+00  0.00000000000E+00  0.45593999997E+02  0.45594000000E+02  0.51100000000E-03 0. -1.
         11   -1    0    0    0    0 -0.00000000000E+00 -0.00000000000E+00 -0.45593999997E+02  0.45594000000E+02  0.51100000000E-03 0.  1.
         23    2    1    2    0    0  0.00000000000E+00  0.00000000000E+00 -0.17763568394E-14  0.91188000000E+02  0.91188000000E+02 0.  0.
    9900012    2    3    3    0    0 -0.33057102748E+02  0.11056401994E+02 -0.11864495186E+02  0.54367050621E+02  0.39999923501E+02 0.  0.
         12    1    3    3    0    0  0.33057102748E+02 -0.11056401994E+02  0.11864495186E+02  0.36820949379E+02  0.00000000000E+00 0. -1.
         11    1    4    4    0    0  0.43165939654E+00  0.15099066663E+02 -0.10478161309E+02  0.18383688656E+02  0.51100000000E-03 0. -1.
        -11    1    4    4    0    0 -0.19121760429E+02  0.31776865291E+01  0.22015516211E+01  0.19508619720E+02  0.51100000000E-03 0.  1.
         12    1    4    4    0    0 -0.14367001716E+02 -0.72203511973E+01 -0.35878854981E+01  0.16474742246E+02  0.00000000000E+00 0. -1.
</event>
<event>
 8    1  0.1254059E-006  0.9118800E+02  0.7816164E-02  0.1184000E+00
        -11   -1    0    0    0    0  0.00000000000E+00  0.00000000000E+00  0.45593999997E+02  0.45594000000E+02  0.51100000000E-03 0. -1.
         11   -1    0    0    0    0 -0.00000000000E+00 -0.00000000000E+00 -0.45593999997E+02  0.45594000000E+02  0.51100000000E-03 0.  1.
         23    2    1    2    0    0 -0.22204460493E-15  0.00000000000E+00  0.33306690739E-15  0.91188000000E+02  0.91188000000E+02 0.  0.
    9900012    2    3    3    0    0  0.11346004285E+01 -0.36795008635E+02 -0.78734965911E+00  0.54367083416E+02  0.39999998263E+02 0.  0.
        -12    1    3    3    0    0 -0.11346004285E+01  0.36795008635E+02  0.78734965911E+00  0.36820916584E+02  0.00000000000E+00 0.  1.
         11    1    4    4    0    0 -0.25293973356E+01 -0.36768914944E+01  0.82495919404E+01  0.93794002680E+01  0.51100000000E-03 0. -1.
        -11    1    4    4    0    0 -0.59670372460E+01 -0.33868722510E+02 -0.76150818144E+01  0.35223363968E+02  0.51100000000E-03 0.  1.
        -12    1    4    4    0    0  0.96310350102E+01  0.75060536903E+00 -0.14218597852E+01  0.97643191793E+01  0.00000000000E+00 0.  1.
</event>
<event>
 8    1  0.1254059E-006  0.9118800E+02  0.7816164E-02  0.1184000E+00
        -11   -1    0    0    0    0  0.00000000000E+00  0.00000000000E+00  0.45593999997E+02  0.45594000000E+02  0.51100000000E-03 0.  1.
         11   -1    0    0    0    0 -0.00000000000E+00 -0.00000000000E+00 -0.45593999997E+02  0.45594000000E+02  0.51100000000E-03 0. -1.
         23    2    1    2    0    0  0.00000000000E+00  0.13322676296E-14  0.44408920985E-15  0.91188000000E+02  0.91188000000E+02 0.  0.
    9900012    2    3    3    0    0 -0.36680856911E+02 -0.31647592904E+01 -0.52838363343E+00  0.54367079936E+02  0.39999990331E+02 0.  0.
        -12    1    3    3    0    0  0.36680856911E+02  0.31647592904E+01  0.52838363343E+00  0.36820920064E+02  0.00000000000E+00 0.  1.
         11    1    4    4    0    0 -0.24519325360E+02 -0.16614060818E+02 -0.87409833432E+00  0.29630868720E+02  0.51100000000E-03 0. -1.
        -11    1    4    4    0    0 -0.13943798524E+01  0.12186702138E+02 -0.42217376939E+01  0.12972396601E+02  0.51100000000E-03 0.  1.
         12    1    4    4    0    0 -0.10767151699E+02  0.12625993898E+01  0.45674523948E+01  0.11763814615E+02  0.00000000000E+00 0. -1.
</event>
<event>
 8    1  0.1254059E-006  0.9118800E+02  0.7816164E-02  0.1184000E+00
        -11   -1    0    0    0    0  0.00000000000E+00  0.00000000000E+00  0.45593999997E+02  0.45594000000E+02  0.51100000000E-03 0.  1.
         11   -1    0    0    0    0 -0.00000000000E+00 -0.00000000000E+00 -0.45593999997E+02  0.45594000000E+02  0.51100000000E-03 0. -1.
         23    2    1    2    0    0  0.00000000000E+00  0.00000000000E+00 -0.35527136788E-14  0.91188000000E+02  0.91188000000E+02 0.  0.
    9900012    2    3    3    0    0  0.17976837058E+02 -0.28512780967E+02 -0.14819681071E+02  0.54367240962E+02  0.40000357420E+02 0.  0.
        -12    1    3    3    0    0 -0.17976837058E+02  0.28512780967E+02  0.14819681071E+02  0.36820759038E+02  0.00000000000E+00 0.  1.
         11    1    4    4    0    0 -0.43535288406E+01 -0.59531154856E+00 -0.77586285450E+01  0.89164974271E+01  0.51100000000E-03 0. -1.
        -11    1    4    4    0    0  0.26273575211E+01 -0.13093302066E+02  0.89276317685E+01  0.16063628973E+02  0.51100000000E-03 0.  1.
        -12    1    4    4    0    0  0.19703008377E+02 -0.14824167352E+02 -0.15988684295E+02  0.29387114562E+02  0.00000000000E+00 0.  1.
</event>
<event>
 8    1  0.1254059E-006  0.9118800E+02  0.7816164E-02  0.1184000E+00
        -11   -1    0    0    0    0  0.00000000000E+00  0.00000000000E+00  0.45593999997E+02  0.45594000000E+02  0.51100000000E-03 0.  1.
         11   -1    0    0    0    0 -0.00000000000E+00 -0.00000000000E+00 -0.45593999997E+02  0.45594000000E+02  0.51100000000E-03 0. -1.
         23    2    1    2    0    0  0.00000000000E+00  0.00000000000E+00 -0.71054273576E-14  0.91188000000E+02  0.91188000000E+02 0.  0.
    9900012    2    3    3    0    0 -0.92826178053E+01 -0.20819469552E+02 -0.28916476227E+02  0.54367083347E+02  0.39999998107E+02 0.  0.
        -12    1    3    3    0    0  0.92826178053E+01  0.20819469552E+02  0.28916476227E+02  0.36820916653E+02  0.00000000000E+00 0.  1.
         11    1    4    4    0    0 -0.55180386456E+01 -0.11796374170E+02 -0.24061768625E+02  0.27360042099E+02  0.51100000000E-03 0. -1.
        -11    1    4    4    0    0 -0.96961197792E+01 -0.24732254207E+00  0.63461521924E+01  0.11590925551E+02  0.51100000000E-03 0.  1.
        -12    1    4    4    0    0  0.59315406195E+01 -0.87757728408E+01 -0.11200859795E+02  0.15416115698E+02  0.00000000000E+00 0.  1.
</event>
<event>
 8    1  0.1254059E-006  0.9118800E+02  0.7816164E-02  0.1184000E+00
        -11   -1    0    0    0    0  0.00000000000E+00  0.00000000000E+00  0.45593999997E+02  0.45594000000E+02  0.51100000000E-03 0.  1.
         11   -1    0    0    0    0 -0.00000000000E+00 -0.00000000000E+00 -0.45593999997E+02  0.45594000000E+02  0.51100000000E-03 0. -1.
         23    2    1    2    0    0  0.35527136788E-14  0.00000000000E+00  0.00000000000E+00  0.91188000000E+02  0.91188000000E+02 0.  0.
    9900012    2    3    3    0    0 -0.25851737615E+02 -0.18402279134E+02 -0.18676832604E+02  0.54367078078E+02  0.39999986095E+02 0.  0.
        -12    1    3    3    0    0  0.25851737615E+02  0.18402279134E+02  0.18676832604E+02  0.36820921922E+02  0.00000000000E+00 0.  1.
         11    1    4    4    0    0 -0.13759732424E+02 -0.11670320860E+02  0.60342104968E+01  0.19024676658E+02  0.51100000000E-03 0. -1.
        -11    1    4    4    0    0 -0.24991319939E+00 -0.73716287322E+01  0.59041620191E+00  0.73994566237E+01  0.51100000000E-03 0.  1.
         12    1    4    4    0    0 -0.11842091992E+02  0.63967045876E+00 -0.25301459303E+02  0.27942944797E+02  0.00000000000E+00 0. -1.
</event>
<event>
 8    1  0.1254059E-006  0.9118800E+02  0.7816164E-02  0.1184000E+00
        -11   -1    0    0    0    0  0.00000000000E+00  0.00000000000E+00  0.45593999997E+02  0.45594000000E+02  0.51100000000E-03 0.  1.
         11   -1    0    0    0    0 -0.00000000000E+00 -0.00000000000E+00 -0.45593999997E+02  0.45594000000E+02  0.51100000000E-03 0. -1.
         23    2    1    2    0    0 -0.17763568394E-14 -0.13322676296E-14 -0.71054273576E-14  0.91188000000E+02  0.91188000000E+02 0.  0.
    9900012    2    3    3    0    0  0.80583756986E+01  0.32084771784E+01  0.35784749259E+02  0.54367081703E+02  0.39999994359E+02 0.  0.
         12    1    3    3    0    0 -0.80583756986E+01 -0.32084771784E+01 -0.35784749259E+02  0.36820918297E+02  0.00000000000E+00 0. -1.
         11    1    4    4    0    0  0.57036241214E+01 -0.37941422444E+01  0.46847944316E+00  0.68663175530E+01  0.51100000000E-03 0. -1.
        -11    1    4    4    0    0  0.10968694625E+02  0.12864470464E+02  0.32616359273E+02  0.36737361835E+02  0.51100000000E-03 0.  1.
        -12    1    4    4    0    0 -0.86139430482E+01 -0.58618510410E+01  0.26999105424E+01  0.10763402315E+02  0.00000000000E+00 0.  1.
</event>
<event>
 8    1  0.1254059E-006  0.9118800E+02  0.7816164E-02  0.1184000E+00
        -11   -1    0    0    0    0  0.00000000000E+00  0.00000000000E+00  0.45593999997E+02  0.45594000000E+02  0.51100000000E-03 0.  1.
         11   -1    0    0    0    0 -0.00000000000E+00 -0.00000000000E+00 -0.45593999997E+02  0.45594000000E+02  0.51100000000E-03 0. -1.
         23    2    1    2    0    0 -0.35527136788E-14  0.00000000000E+00  0.35527136788E-14  0.91188000000E+02  0.91188000000E+02 0.  0.
    9900012    2    3    3    0    0  0.24924251049E+02 -0.20376196232E+02 -0.17870823901E+02  0.54367163370E+02  0.40000180533E+02 0.  0.
        -12    1    3    3    0    0 -0.24924251049E+02  0.20376196232E+02  0.17870823901E+02  0.36820836630E+02  0.00000000000E+00 0.  1.
         11    1    4    4    0    0  0.86722907033E+01  0.87747126122E+00 -0.10163689979E+02  0.13389517396E+02  0.51100000000E-03 0.  1.
        -11    1    4    4    0    0  0.21041569207E+02 -0.29240875386E+01 -0.29799289831E+01  0.21451757495E+02  0.51100000000E-03 0. -1.
        -12    1    4    4    0    0 -0.47896088605E+01 -0.18329579954E+02 -0.47272049396E+01  0.19525888479E+02  0.00000000000E+00 0.  1.
</event>
<event>
 8    1  0.1254059E-006  0.9118800E+02  0.7816164E-02  0.1184000E+00
        -11   -1    0    0    0    0  0.00000000000E+00  0.00000000000E+00  0.45593999997E+02  0.45594000000E+02  0.51100000000E-03 0. -1.
         11   -1    0    0    0    0 -0.00000000000E+00 -0.00000000000E+00 -0.45593999997E+02  0.45594000000E+02  0.51100000000E-03 0.  1.
         23    2    1    2    0    0  0.35527136788E-14 -0.78409501114E-15  0.35527136788E-14  0.91188000000E+02  0.91188000000E+02 0.  0.
    9900012    2    3    3    0    0  0.21065386735E+02 -0.30107593357E-01 -0.30199773890E+02  0.54367112344E+02  0.40000064211E+02 0.  0.
         12    1    3    3    0    0 -0.21065386735E+02  0.30107593357E-01  0.30199773890E+02  0.36820887656E+02  0.00000000000E+00 0. -1.
         11    1    4    4    0    0 -0.39752474415E+01 -0.79254809506E+00  0.55909875866E+01  0.69057850502E+01  0.51100000000E-03 0. -1.
        -11    1    4    4    0    0  0.37883370587E+01 -0.74257532111E+01 -0.83272354967E+01  0.11782875697E+02  0.51100000000E-03 0.  1.
        -12    1    4    4    0    0  0.21252297118E+02  0.81881937128E+01 -0.27463525980E+02  0.35678451596E+02  0.00000000000E+00 0.  1.
</event>
<event>
 8    1  0.1254059E-006  0.9118800E+02  0.7816164E-02  0.1184000E+00
        -11   -1    0    0    0    0  0.00000000000E+00  0.00000000000E+00  0.45593999997E+02  0.45594000000E+02  0.51100000000E-03 0.  1.
         11   -1    0    0    0    0 -0.00000000000E+00 -0.00000000000E+00 -0.45593999997E+02  0.45594000000E+02  0.51100000000E-03 0. -1.
         23    2    1    2    0    0  0.71054273576E-14  0.17763568394E-14 -0.17763568394E-14  0.91188000000E+02  0.91188000000E+02 0.  0.
    9900012    2    3    3    0    0 -0.32262175584E+02 -0.13678113088E+02  0.11306665229E+02  0.54367089776E+02  0.40000012763E+02 0.  0.
         12    1    3    3    0    0  0.32262175584E+02  0.13678113088E+02 -0.11306665229E+02  0.36820910224E+02  0.00000000000E+00 0. -1.
         11    1    4    4    0    0  0.46772242609E+01 -0.79267869192E+01  0.52360979874E+01  0.10589008454E+02  0.51100000000E-03 0.  1.
        -11    1    4    4    0    0 -0.59228894635E+01 -0.14262912047E+01 -0.74872518707E+01  0.96526611374E+01  0.51100000000E-03 0. -1.
        -12    1    4    4    0    0 -0.31016510382E+02 -0.43250349643E+01  0.13557819113E+02  0.34125420185E+02  0.00000000000E+00 0.  1.
</event>
<event>
 8    1  0.1254059E-006  0.9118800E+02  0.7816164E-02  0.1184000E+00
        -11   -1    0    0    0    0  0.00000000000E+00  0.00000000000E+00  0.45593999997E+02  0.45594000000E+02  0.51100000000E-03 0.  1.
         11   -1    0    0    0    0 -0.00000000000E+00 -0.00000000000E+00 -0.45593999997E+02  0.45594000000E+02  0.51100000000E-03 0. -1.
         23    2    1    2    0    0  0.17763568394E-14  0.00000000000E+00  0.35527136788E-14  0.91188000000E+02  0.91188000000E+02 0.  0.
    9900012    2    3    3    0    0  0.15031972219E+02 -0.25790404924E+02  0.21556298390E+02  0.54367093232E+02  0.40000020641E+02 0.  0.
         12    1    3    3    0    0 -0.15031972219E+02  0.25790404924E+02 -0.21556298390E+02  0.36820906768E+02  0.00000000000E+00 0. -1.
         11    1    4    4    0    0 -0.56752005806E+01 -0.58092885862E-01  0.66403623681E+00  0.57142121765E+01  0.51100000000E-03 0. -1.
        -11    1    4    4    0    0  0.26395038006E+01 -0.19363779410E+02 -0.99221297655E+00  0.19568020344E+02  0.51100000000E-03 0.  1.
        -12    1    4    4    0    0  0.18067668999E+02 -0.63685326280E+01  0.21884475130E+02  0.29084860711E+02  0.00000000000E+00 0.  1.
</event>
<event>
 8    1  0.1254059E-006  0.9118800E+02  0.7816164E-02  0.1184000E+00
        -11   -1    0    0    0    0  0.00000000000E+00  0.00000000000E+00  0.45593999997E+02  0.45594000000E+02  0.51100000000E-03 0.  1.
         11   -1    0    0    0    0 -0.00000000000E+00 -0.00000000000E+00 -0.45593999997E+02  0.45594000000E+02  0.51100000000E-03 0. -1.
         23    2    1    2    0    0  0.00000000000E+00  0.00000000000E+00  0.00000000000E+00  0.91188000000E+02  0.91188000000E+02 0.  0.
    9900012    2    3    3    0    0 -0.16134588387E+02  0.16277596995E+02 -0.28818299338E+02  0.54367089051E+02  0.40000011110E+02 0.  0.
         12    1    3    3    0    0  0.16134588387E+02 -0.16277596995E+02  0.28818299338E+02  0.36820910949E+02  0.00000000000E+00 0. -1.
         11    1    4    4    0    0 -0.13412868008E+02  0.42491114876E+01 -0.79134740728E+01  0.16142584948E+02  0.51100000000E-03 0. -1.
        -11    1    4    4    0    0 -0.30725919721E+01  0.14416613783E+02  0.22788440410E+01  0.14915518925E+02  0.51100000000E-03 0.  1.
         12    1    4    4    0    0  0.35087159302E+00 -0.23881282750E+01 -0.23183669306E+02  0.23308985178E+02  0.00000000000E+00 0. -1.
</event>
<event>
 8    1  0.1254059E-006  0.9118800E+02  0.7816164E-02  0.1184000E+00
        -11   -1    0    0    0    0  0.00000000000E+00  0.00000000000E+00  0.45593999997E+02  0.45594000000E+02  0.51100000000E-03 0. -1.
         11   -1    0    0    0    0 -0.00000000000E+00 -0.00000000000E+00 -0.45593999997E+02  0.45594000000E+02  0.51100000000E-03 0.  1.
         23    2    1    2    0    0  0.00000000000E+00  0.00000000000E+00  0.35527136788E-14  0.91188000000E+02  0.91188000000E+02 0.  0.
    9900012    2    3    3    0    0 -0.26736063699E+02  0.91620515529E+01  0.23601285564E+02  0.54367068846E+02  0.39999965048E+02 0.  0.
        -12    1    3    3    0    0  0.26736063699E+02 -0.91620515529E+01 -0.23601285564E+02  0.36820931154E+02  0.00000000000E+00 0.  1.
         11    1    4    4    0    0 -0.26286104633E+02 -0.22717291754E+01  0.69973261048E+01  0.27296201624E+02  0.51100000000E-03 0. -1.
        -11    1    4    4    0    0 -0.49311987122E+01  0.16959575432E+01  0.15429959759E+02  0.16287315652E+02  0.51100000000E-03 0.  1.
        -12    1    4    4    0    0  0.44812396464E+01  0.97378231850E+01  0.11739997001E+01  0.10783551569E+02  0.00000000000E+00 0.  1.
</event>
<event>
 8    1  0.1254059E-006  0.9118800E+02  0.7816164E-02  0.1184000E+00
        -11   -1    0    0    0    0  0.00000000000E+00  0.00000000000E+00  0.45593999997E+02  0.45594000000E+02  0.51100000000E-03 0.  1.
         11   -1    0    0    0    0 -0.00000000000E+00 -0.00000000000E+00 -0.45593999997E+02  0.45594000000E+02  0.51100000000E-03 0. -1.
         23    2    1    2    0    0  0.11102230246E-15  0.35527136788E-14  0.00000000000E+00  0.91188000000E+02  0.91188000000E+02 0.  0.
    9900012    2    3    3    0    0  0.83909819014E+00  0.23783500876E+02 -0.28096895232E+02  0.54366884844E+02  0.39999545575E+02 0.  0.
        -12    1    3    3    0    0 -0.83909819014E+00 -0.23783500876E+02  0.28096895232E+02  0.36821115156E+02  0.00000000000E+00 0.  1.
         11    1    4    4    0    0 -0.61324442210E+01  0.10932462509E+02  0.21172238903E+01  0.12712523192E+02  0.51100000000E-03 0. -1.
        -11    1    4    4    0    0 -0.31684200352E+01 -0.25510706125E+01 -0.20328368815E+02  0.20731363335E+02  0.51100000000E-03 0.  1.
         12    1    4    4    0    0  0.10139962446E+02  0.15402108980E+02 -0.98857503073E+01  0.20922998317E+02  0.00000000000E+00 0. -1.
</event>
<event>
 8    1  0.1254059E-006  0.9118800E+02  0.7816164E-02  0.1184000E+00
        -11   -1    0    0    0    0  0.00000000000E+00  0.00000000000E+00  0.45593999997E+02  0.45594000000E+02  0.51100000000E-03 0.  1.
         11   -1    0    0    0    0 -0.00000000000E+00 -0.00000000000E+00 -0.45593999997E+02  0.45594000000E+02  0.51100000000E-03 0. -1.
         23    2    1    2    0    0  0.71054273576E-14  0.44408920985E-15 -0.22204460493E-15  0.91188000000E+02  0.91188000000E+02 0.  0.
    9900012    2    3    3    0    0  0.36679170002E+02  0.25469355745E+01 -0.19828094158E+01  0.54367083037E+02  0.39999997399E+02 0.  0.
        -12    1    3    3    0    0 -0.36679170002E+02 -0.25469355745E+01  0.19828094158E+01  0.36820916963E+02  0.00000000000E+00 0.  1.
         11    1    4    4    0    0  0.15730655947E+02 -0.17311992871E+00 -0.79480115471E+01  0.17625390630E+02  0.51100000000E-03 0. -1.
        -11    1    4    4    0    0  0.15777522319E+02 -0.87768133433E+01 -0.63303817238E+01  0.19132077671E+02  0.51100000000E-03 0.  1.
        -12    1    4    4    0    0  0.51709917355E+01  0.11496868846E+02  0.12295583855E+02  0.17609614736E+02  0.00000000000E+00 0.  1.
</event>
<event>
 8    1  0.1254059E-006  0.9118800E+02  0.7816164E-02  0.1184000E+00
        -11   -1    0    0    0    0  0.00000000000E+00  0.00000000000E+00  0.45593999997E+02  0.45594000000E+02  0.51100000000E-03 0.  1.
         11   -1    0    0    0    0 -0.00000000000E+00 -0.00000000000E+00 -0.45593999997E+02  0.45594000000E+02  0.51100000000E-03 0. -1.
         23    2    1    2    0    0  0.88817841970E-15  0.00000000000E+00  0.00000000000E+00  0.91188000000E+02  0.91188000000E+02 0.  0.
    9900012    2    3    3    0    0  0.61101052735E+01 -0.11767172900E+02 -0.34350849322E+02  0.54367073971E+02  0.39999976731E+02 0.  0.
        -12    1    3    3    0    0 -0.61101052735E+01  0.11767172900E+02  0.34350849322E+02  0.36820926029E+02  0.00000000000E+00 0.  1.
         11    1    4    4    0    0  0.40630266964E+01  0.21752778645E+01 -0.43443331373E+01  0.63335022217E+01  0.51100000000E-03 0. -1.
        -11    1    4    4    0    0 -0.13878967162E+02 -0.95111954761E+01 -0.26090285588E+02  0.31044992691E+02  0.51100000000E-03 0.  1.
        -12    1    4    4    0    0  0.15926045739E+02 -0.44312552888E+01 -0.39162305962E+01  0.16988579058E+02  0.00000000000E+00 0.  1.
</event>
<event>
 8    1  0.1254059E-006  0.9118800E+02  0.7816164E-02  0.1184000E+00
        -11   -1    0    0    0    0  0.00000000000E+00  0.00000000000E+00  0.45593999997E+02  0.45594000000E+02  0.51100000000E-03 0.  1.
         11   -1    0    0    0    0 -0.00000000000E+00 -0.00000000000E+00 -0.45593999997E+02  0.45594000000E+02  0.51100000000E-03 0. -1.
         23    2    1    2    0    0  0.00000000000E+00  0.35527136788E-14  0.35527136788E-14  0.91188000000E+02  0.91188000000E+02 0.  0.
    9900012    2    3    3    0    0 -0.21971529696E+02  0.25739755645E+02 -0.14508478081E+02  0.54367094605E+02  0.40000023771E+02 0.  0.
        -12    1    3    3    0    0  0.21971529696E+02 -0.25739755645E+02  0.14508478081E+02  0.36820905395E+02  0.00000000000E+00 0.  1.
         11    1    4    4    0    0 -0.43132045586E+01 -0.10162696407E+01  0.49506123645E+01  0.66441779471E+01  0.51100000000E-03 0. -1.
        -11    1    4    4    0    0 -0.33856211699E+01 -0.63309847564E+01 -0.56400220825E+01  0.91298219065E+01  0.51100000000E-03 0.  1.
         12    1    4    4    0    0 -0.14272703968E+02  0.33087010042E+02 -0.13819068363E+02  0.38593094752E+02  0.00000000000E+00 0. -1.
</event>
<event>
 8    1  0.1254059E-006  0.9118800E+02  0.7816164E-02  0.1184000E+00
        -11   -1    0    0    0    0  0.00000000000E+00  0.00000000000E+00  0.45593999997E+02  0.45594000000E+02  0.51100000000E-03 0.  1.
         11   -1    0    0    0    0 -0.00000000000E+00 -0.00000000000E+00 -0.45593999997E+02  0.45594000000E+02  0.51100000000E-03 0. -1.
         23    2    1    2    0    0 -0.71054273576E-14  0.49960036108E-15  0.00000000000E+00  0.91188000000E+02  0.91188000000E+02 0.  0.
    9900012    2    3    3    0    0 -0.36780329291E+02 -0.29975278536E-01  0.17285504420E+01  0.54367062914E+02  0.39999951525E+02 0.  0.
         12    1    3    3    0    0  0.36780329291E+02  0.29975278536E-01 -0.17285504420E+01  0.36820937086E+02  0.00000000000E+00 0. -1.
         11    1    4    4    0    0 -0.32777726231E+01  0.26136788370E+01  0.25406692477E+01  0.49020517051E+01  0.51100000000E-03 0. -1.
        -11    1    4    4    0    0 -0.19008248844E+02  0.10351579067E+02  0.13315411362E+02  0.25411983262E+02  0.51100000000E-03 0.  1.
         12    1    4    4    0    0 -0.14494307823E+02 -0.12995233183E+02 -0.14127530168E+02  0.24053027947E+02  0.00000000000E+00 0. -1.
</event>
<event>
 8    1  0.1254059E-006  0.9118800E+02  0.7816164E-02  0.1184000E+00
        -11   -1    0    0    0    0  0.00000000000E+00  0.00000000000E+00  0.45593999997E+02  0.45594000000E+02  0.51100000000E-03 0.  1.
         11   -1    0    0    0    0 -0.00000000000E+00 -0.00000000000E+00 -0.45593999997E+02  0.45594000000E+02  0.51100000000E-03 0. -1.
         23    2    1    2    0    0  0.35527136788E-14  0.00000000000E+00  0.00000000000E+00  0.91188000000E+02  0.91188000000E+02 0.  0.
    9900012    2    3    3    0    0 -0.30919447044E+02 -0.17096801149E+02  0.10366600094E+02  0.54367092725E+02  0.40000019485E+02 0.  0.
         12    1    3    3    0    0  0.30919447044E+02  0.17096801149E+02 -0.10366600094E+02  0.36820907275E+02  0.00000000000E+00 0. -1.
         11    1    4    4    0    0 -0.19074451227E+02 -0.14141290783E+02 -0.12834756886E+02  0.26991513096E+02  0.51100000000E-03 0. -1.
        -11    1    4    4    0    0 -0.56243342192E+01 -0.54448875147E+01  0.12698928244E+02  0.14917865607E+02  0.51100000000E-03 0.  1.
         12    1    4    4    0    0 -0.62206615979E+01  0.24893771489E+01  0.10502428736E+02  0.12457714022E+02  0.00000000000E+00 0. -1.
</event>
<event>
 8    1  0.1254059E-006  0.9118800E+02  0.7816164E-02  0.1184000E+00
        -11   -1    0    0    0    0  0.00000000000E+00  0.00000000000E+00  0.45593999997E+02  0.45594000000E+02  0.51100000000E-03 0.  1.
         11   -1    0    0    0    0 -0.00000000000E+00 -0.00000000000E+00 -0.45593999997E+02  0.45594000000E+02  0.51100000000E-03 0. -1.
         23    2    1    2    0    0  0.71054273576E-14 -0.17763568394E-14  0.35527136788E-14  0.91188000000E+02  0.91188000000E+02 0.  0.
    9900012    2    3    3    0    0 -0.32182674882E+02  0.10294822644E+02 -0.14631228868E+02  0.54367071250E+02  0.39999970529E+02 0.  0.
        -12    1    3    3    0    0  0.32182674882E+02 -0.10294822644E+02  0.14631228868E+02  0.36820928750E+02  0.00000000000E+00 0.  1.
         11    1    4    4    0    0 -0.15031304357E+02  0.62965067060E+01 -0.20339502292E+02  0.26063028625E+02  0.51100000000E-03 0. -1.
        -11    1    4    4    0    0 -0.41720946232E+01 -0.85669822203E+01  0.68467538887E+00  0.95534464230E+01  0.51100000000E-03 0.  1.
        -12    1    4    4    0    0 -0.12979275902E+02  0.12565298158E+02  0.50235980350E+01  0.18750596203E+02  0.00000000000E+00 0.  1.
</event>
<event>
 8    1  0.1254059E-006  0.9118800E+02  0.7816164E-02  0.1184000E+00
        -11   -1    0    0    0    0  0.00000000000E+00  0.00000000000E+00  0.45593999997E+02  0.45594000000E+02  0.51100000000E-03 0.  1.
         11   -1    0    0    0    0 -0.00000000000E+00 -0.00000000000E+00 -0.45593999997E+02  0.45594000000E+02  0.51100000000E-03 0. -1.
         23    2    1    2    0    0  0.17763568394E-14 -0.22204460493E-14  0.00000000000E+00  0.91188000000E+02  0.91188000000E+02 0.  0.
    9900012    2    3    3    0    0  0.12071291322E+02 -0.37381757140E+01 -0.34584532657E+02  0.54367082970E+02  0.39999997246E+02 0.  0.
        -12    1    3    3    0    0 -0.12071291322E+02  0.37381757140E+01  0.34584532657E+02  0.36820917030E+02  0.00000000000E+00 0.  1.
         11    1    4    4    0    0  0.68536737656E+01  0.10352737932E+02 -0.14694297606E+02  0.19237318138E+02  0.51100000000E-03 0. -1.
        -11    1    4    4    0    0  0.96898838804E+01 -0.19590094476E+02 -0.14566129366E+02  0.26264763013E+02  0.51100000000E-03 0.  1.
        -12    1    4    4    0    0 -0.44722663245E+01  0.54991808304E+01 -0.53241056858E+01  0.88650018181E+01  0.00000000000E+00 0.  1.
</event>
<event>
 8    1  0.1254059E-006  0.9118800E+02  0.7816164E-02  0.1184000E+00
        -11   -1    0    0    0    0  0.00000000000E+00  0.00000000000E+00  0.45593999997E+02  0.45594000000E+02  0.51100000000E-03 0. -1.
         11   -1    0    0    0    0 -0.00000000000E+00 -0.00000000000E+00 -0.45593999997E+02  0.45594000000E+02  0.51100000000E-03 0.  1.
         23    2    1    2    0    0  0.00000000000E+00  0.17763568394E-14  0.35527136788E-14  0.91188000000E+02  0.91188000000E+02 0.  0.
    9900012    2    3    3    0    0  0.24338557017E+02 -0.14426779243E+02 -0.23564429990E+02  0.54367086408E+02  0.40000005085E+02 0.  0.
         12    1    3    3    0    0 -0.24338557017E+02  0.14426779243E+02  0.23564429990E+02  0.36820913592E+02  0.00000000000E+00 0. -1.
         11    1    4    4    0    0  0.10540482120E+02 -0.68794633168E+00 -0.12684200177E+02  0.16506482602E+02  0.51100000000E-03 0. -1.
        -11    1    4    4    0    0  0.13660630351E+02 -0.10924210940E+02 -0.21014666025E+02  0.27341678710E+02  0.51100000000E-03 0.  1.
         12    1    4    4    0    0  0.13744454539E+00 -0.28146219710E+01  0.10134436213E+02  0.10518925097E+02  0.00000000000E+00 0. -1.
</event>
<event>
 8    1  0.1254059E-006  0.9118800E+02  0.7816164E-02  0.1184000E+00
        -11   -1    0    0    0    0  0.00000000000E+00  0.00000000000E+00  0.45593999997E+02  0.45594000000E+02  0.51100000000E-03 0.  1.
         11   -1    0    0    0    0 -0.00000000000E+00 -0.00000000000E+00 -0.45593999997E+02  0.45594000000E+02  0.51100000000E-03 0. -1.
         23    2    1    2    0    0  0.00000000000E+00  0.00000000000E+00  0.00000000000E+00  0.91188000000E+02  0.91188000000E+02 0.  0.
    9900012    2    3    3    0    0 -0.97145328970E+01  0.24394105352E+02  0.25813463855E+02  0.54367089616E+02  0.40000012398E+02 0.  0.
         12    1    3    3    0    0  0.97145328970E+01 -0.24394105352E+02 -0.25813463855E+02  0.36820910384E+02  0.00000000000E+00 0. -1.
         11    1    4    4    0    0  0.59538617876E+01  0.54552824759E+01  0.26682068849E+02  0.27877255521E+02  0.51100000000E-03 0.  1.
        -11    1    4    4    0    0 -0.14491975630E+02  0.17562916711E+02 -0.37601256582E+01  0.23078386995E+02  0.51100000000E-03 0. -1.
        -12    1    4    4    0    0 -0.11764190542E+01  0.13759061647E+01  0.28915206637E+01  0.34114470997E+01  0.00000000000E+00 0.  1.
</event>
<event>
 8    1  0.1254059E-006  0.9118800E+02  0.7816164E-02  0.1184000E+00
        -11   -1    0    0    0    0  0.00000000000E+00  0.00000000000E+00  0.45593999997E+02  0.45594000000E+02  0.51100000000E-03 0.  1.
         11   -1    0    0    0    0 -0.00000000000E+00 -0.00000000000E+00 -0.45593999997E+02  0.45594000000E+02  0.51100000000E-03 0. -1.
         23    2    1    2    0    0  0.35527136788E-14 -0.35527136788E-14  0.00000000000E+00  0.91188000000E+02  0.91188000000E+02 0.  0.
    9900012    2    3    3    0    0 -0.15176959357E+02 -0.17570587380E+02 -0.28578219600E+02  0.54367078343E+02  0.39999986698E+02 0.  0.
         12    1    3    3    0    0  0.15176959357E+02  0.17570587380E+02  0.28578219600E+02  0.36820921657E+02  0.00000000000E+00 0. -1.
         11    1    4    4    0    0 -0.14524507714E+01  0.46195482608E+01  0.37928056336E+01  0.61510335890E+01  0.51100000000E-03 0. -1.
        -11    1    4    4    0    0  0.34948312444E+01 -0.92852432739E+01 -0.72570626997E+00  0.99476750014E+01  0.51100000000E-03 0.  1.
         12    1    4    4    0    0 -0.17219339830E+02 -0.12904892367E+02 -0.31645318964E+02  0.38268369752E+02  0.00000000000E+00 0. -1.
</event>
<event>
 8    1  0.1254059E-006  0.9118800E+02  0.7816164E-02  0.1184000E+00
        -11   -1    0    0    0    0  0.00000000000E+00  0.00000000000E+00  0.45593999997E+02  0.45594000000E+02  0.51100000000E-03 0.  1.
         11   -1    0    0    0    0 -0.00000000000E+00 -0.00000000000E+00 -0.45593999997E+02  0.45594000000E+02  0.51100000000E-03 0. -1.
         23    2    1    2    0    0  0.35527136788E-14 -0.35527136788E-14 -0.71054273576E-14  0.91188000000E+02  0.91188000000E+02 0.  0.
    9900012    2    3    3    0    0  0.18496593100E+02 -0.21848698668E+02 -0.23157952360E+02  0.54367077316E+02  0.39999984357E+02 0.  0.
        -12    1    3    3    0    0 -0.18496593100E+02  0.21848698668E+02  0.23157952360E+02  0.36820922684E+02  0.00000000000E+00 0.  1.
         11    1    4    4    0    0  0.50832257435E+01 -0.22460605907E+02 -0.17128579024E+02  0.28700282599E+02  0.51100000000E-03 0. -1.
        -11    1    4    4    0    0  0.76104151133E+01 -0.81617112554E+01  0.32677845167E+01  0.11627999171E+02  0.51100000000E-03 0.  1.
         12    1    4    4    0    0  0.58029522436E+01  0.87736184939E+01 -0.92971578533E+01  0.14038795545E+02  0.00000000000E+00 0. -1.
</event>
<event>
 8    1  0.1254059E-006  0.9118800E+02  0.7816164E-02  0.1184000E+00
        -11   -1    0    0    0    0  0.00000000000E+00  0.00000000000E+00  0.45593999997E+02  0.45594000000E+02  0.51100000000E-03 0.  1.
         11   -1    0    0    0    0 -0.00000000000E+00 -0.00000000000E+00 -0.45593999997E+02  0.45594000000E+02  0.51100000000E-03 0. -1.
         23    2    1    2    0    0 -0.35527136788E-14  0.00000000000E+00  0.00000000000E+00  0.91188000000E+02  0.91188000000E+02 0.  0.
    9900012    2    3    3    0    0 -0.16336055936E+02 -0.22500187720E+02 -0.24138228759E+02  0.54367092099E+02  0.40000018059E+02 0.  0.
        -12    1    3    3    0    0  0.16336055936E+02  0.22500187720E+02  0.24138228759E+02  0.36820907901E+02  0.00000000000E+00 0.  1.
         11    1    4    4    0    0  0.81619232930E+01 -0.96898560531E+00 -0.75986779330E+01  0.11193562058E+02  0.51100000000E-03 0. -1.
        -11    1    4    4    0    0  0.22830672394E+00 -0.89821989063E+01 -0.12132054754E+02  0.15096978969E+02  0.51100000000E-03 0.  1.
        -12    1    4    4    0    0 -0.24726285953E+02 -0.12549003208E+02 -0.44074960719E+01  0.28076551073E+02  0.00000000000E+00 0.  1.
</event>
<event>
 8    1  0.1254059E-006  0.9118800E+02  0.7816164E-02  0.1184000E+00
        -11   -1    0    0    0    0  0.00000000000E+00  0.00000000000E+00  0.45593999997E+02  0.45594000000E+02  0.51100000000E-03 0. -1.
         11   -1    0    0    0    0 -0.00000000000E+00 -0.00000000000E+00 -0.45593999997E+02  0.45594000000E+02  0.51100000000E-03 0.  1.
         23    2    1    2    0    0  0.66613381478E-15  0.00000000000E+00  0.00000000000E+00  0.91188000000E+02  0.91188000000E+02 0.  0.
    9900012    2    3    3    0    0 -0.16770591176E+01 -0.26581959192E+02 -0.25423743333E+02  0.54367084655E+02  0.40000001089E+02 0.  0.
        -12    1    3    3    0    0  0.16770591176E+01  0.26581959192E+02  0.25423743333E+02  0.36820915345E+02  0.00000000000E+00 0.  1.
         11    1    4    4    0    0 -0.13180834608E+01 -0.53154672742E+01 -0.27077855435E+01  0.61093075846E+01  0.51100000000E-03 0. -1.
        -11    1    4    4    0    0  0.17345159248E+02 -0.16044388401E+02 -0.90949266267E+01  0.25317871931E+02  0.51100000000E-03 0.  1.
         12    1    4    4    0    0 -0.17704134905E+02 -0.52221035164E+01 -0.13621031163E+02  0.22939905140E+02  0.00000000000E+00 0. -1.
</event>
<event>
 8    1  0.1254059E-006  0.9118800E+02  0.7816164E-02  0.1184000E+00
        -11   -1    0    0    0    0  0.00000000000E+00  0.00000000000E+00  0.45593999997E+02  0.45594000000E+02  0.51100000000E-03 0.  1.
         11   -1    0    0    0    0 -0.00000000000E+00 -0.00000000000E+00 -0.45593999997E+02  0.45594000000E+02  0.51100000000E-03 0. -1.
         23    2    1    2    0    0  0.00000000000E+00 -0.35527136788E-14  0.35527136788E-14  0.91188000000E+02  0.91188000000E+02 0.  0.
    9900012    2    3    3    0    0 -0.12548927027E+02  0.19169864116E+02 -0.28823993256E+02  0.54367056951E+02  0.39999937932E+02 0.  0.
        -12    1    3    3    0    0  0.12548927027E+02 -0.19169864116E+02  0.28823993256E+02  0.36820943049E+02  0.00000000000E+00 0.  1.
         11    1    4    4    0    0 -0.58619279669E+01  0.11192507115E+02 -0.14631103053E+02  0.19331414636E+02  0.51100000000E-03 0. -1.
        -11    1    4    4    0    0 -0.52461190594E+00  0.69064858905E+01  0.88047544405E+01  0.11202609786E+02  0.51100000000E-03 0.  1.
         12    1    4    4    0    0 -0.61623871543E+01  0.10708711107E+01 -0.22997644643E+02  0.23833032529E+02  0.00000000000E+00 0. -1.
</event>
<event>
 8    1  0.1254059E-006  0.9118800E+02  0.7816164E-02  0.1184000E+00
        -11   -1    0    0    0    0  0.00000000000E+00  0.00000000000E+00  0.45593999997E+02  0.45594000000E+02  0.51100000000E-03 0.  1.
         11   -1    0    0    0    0 -0.00000000000E+00 -0.00000000000E+00 -0.45593999997E+02  0.45594000000E+02  0.51100000000E-03 0. -1.
         23    2    1    2    0    0  0.00000000000E+00  0.17763568394E-14  0.88817841970E-15  0.91188000000E+02  0.91188000000E+02 0.  0.
    9900012    2    3    3    0    0  0.35244442192E+02 -0.96056526754E+01 -0.46187892514E+01  0.54367184109E+02  0.40000227813E+02 0.  0.
        -12    1    3    3    0    0 -0.35244442192E+02  0.96056526754E+01  0.46187892514E+01  0.36820815891E+02  0.00000000000E+00 0.  1.
         11    1    4    4    0    0  0.16205823118E+01  0.63271448342E+00  0.21359080432E+01  0.27547627986E+01  0.51100000000E-03 0.  1.
        -11    1    4    4    0    0  0.39003646244E+02 -0.90192468275E+01  0.32742395642E+01  0.40166551740E+02  0.51100000000E-03 0. -1.
        -12    1    4    4    0    0 -0.53797863645E+01 -0.12191203313E+01 -0.10028936859E+02  0.11445869571E+02  0.00000000000E+00 0.  1.
</event>
<event>
 8    1  0.1254059E-006  0.9118800E+02  0.7816164E-02  0.1184000E+00
        -11   -1    0    0    0    0  0.00000000000E+00  0.00000000000E+00  0.45593999997E+02  0.45594000000E+02  0.51100000000E-03 0.  1.
         11   -1    0    0    0    0 -0.00000000000E+00 -0.00000000000E+00 -0.45593999997E+02  0.45594000000E+02  0.51100000000E-03 0. -1.
         23    2    1    2    0    0  0.00000000000E+00  0.00000000000E+00  0.83266726847E-16  0.91188000000E+02  0.91188000000E+02 0.  0.
    9900012    2    3    3    0    0  0.31939646924E+02 -0.18320477027E+02  0.92057919537E-02  0.54367068333E+02  0.39999963878E+02 0.  0.
         12    1    3    3    0    0 -0.31939646924E+02  0.18320477027E+02 -0.92057919537E-02  0.36820931667E+02  0.00000000000E+00 0. -1.
         11    1    4    4    0    0  0.15280359739E+02 -0.80016208228E+01 -0.40501486262E+01  0.17717760403E+02  0.51100000000E-03 0. -1.
        -11    1    4    4    0    0  0.24594451847E+02 -0.13282241535E+02  0.32567145372E+01  0.28140916682E+02  0.51100000000E-03 0.  1.
        -12    1    4    4    0    0 -0.79351646627E+01  0.29633853311E+01  0.80263988090E+00  0.85083912476E+01  0.00000000000E+00 0.  1.
</event>
<event>
 8    1  0.1254059E-006  0.9118800E+02  0.7816164E-02  0.1184000E+00
        -11   -1    0    0    0    0  0.00000000000E+00  0.00000000000E+00  0.45593999997E+02  0.45594000000E+02  0.51100000000E-03 0.  1.
         11   -1    0    0    0    0 -0.00000000000E+00 -0.00000000000E+00 -0.45593999997E+02  0.45594000000E+02  0.51100000000E-03 0. -1.
         23    2    1    2    0    0  0.00000000000E+00  0.00000000000E+00 -0.35527136788E-14  0.91188000000E+02  0.91188000000E+02 0.  0.
    9900012    2    3    3    0    0  0.21398970368E+02  0.10573834400E+02 -0.28036720963E+02  0.54367087069E+02  0.40000006591E+02 0.  0.
        -12    1    3    3    0    0 -0.21398970368E+02 -0.10573834400E+02  0.28036720963E+02  0.36820912931E+02  0.00000000000E+00 0.  1.
         11    1    4    4    0    0  0.44911288859E+01  0.12310316770E+02 -0.60094282460E+01  0.14416218844E+02  0.51100000000E-03 0. -1.
        -11    1    4    4    0    0  0.13657483083E+02 -0.26089498152E+01  0.33900111762E+01  0.14311730830E+02  0.51100000000E-03 0.  1.
        -12    1    4    4    0    0  0.32503583987E+01  0.87246744471E+00 -0.25417303894E+02  0.25639137395E+02  0.00000000000E+00 0.  1.
</event>
<event>
 8    1  0.1254059E-006  0.9118800E+02  0.7816164E-02  0.1184000E+00
        -11   -1    0    0    0    0  0.00000000000E+00  0.00000000000E+00  0.45593999997E+02  0.45594000000E+02  0.51100000000E-03 0.  1.
         11   -1    0    0    0    0 -0.00000000000E+00 -0.00000000000E+00 -0.45593999997E+02  0.45594000000E+02  0.51100000000E-03 0. -1.
         23    2    1    2    0    0  0.35527136788E-14  0.35527136788E-14  0.00000000000E+00  0.91188000000E+02  0.91188000000E+02 0.  0.
    9900012    2    3    3    0    0  0.19852180260E+02  0.21884726087E+02 -0.21971084847E+02  0.54367097427E+02  0.40000030204E+02 0.  0.
         12    1    3    3    0    0 -0.19852180260E+02 -0.21884726087E+02  0.21971084847E+02  0.36820902573E+02  0.00000000000E+00 0. -1.
         11    1    4    4    0    0  0.10965301790E+02  0.13975507918E+02 -0.21733387063E+02  0.28069427824E+02  0.51100000000E-03 0. -1.
        -11    1    4    4    0    0  0.85626645727E+01  0.35021829657E+01 -0.11171463504E+02  0.14504692592E+02  0.51100000000E-03 0.  1.
        -12    1    4    4    0    0  0.32421389763E+00  0.44070352031E+01  0.10933765720E+02  0.11792977010E+02  0.00000000000E+00 0.  1.
</event>
<event>
 8    1  0.1254059E-006  0.9118800E+02  0.7816164E-02  0.1184000E+00
        -11   -1    0    0    0    0  0.00000000000E+00  0.00000000000E+00  0.45593999997E+02  0.45594000000E+02  0.51100000000E-03 0.  1.
         11   -1    0    0    0    0 -0.00000000000E+00 -0.00000000000E+00 -0.45593999997E+02  0.45594000000E+02  0.51100000000E-03 0. -1.
         23    2    1    2    0    0  0.00000000000E+00 -0.17763568394E-14  0.35527136788E-14  0.91188000000E+02  0.91188000000E+02 0.  0.
    9900012    2    3    3    0    0  0.19112048040E+02 -0.94118969460E+01  0.30032060093E+02  0.54367098085E+02  0.40000031704E+02 0.  0.
         12    1    3    3    0    0 -0.19112048040E+02  0.94118969460E+01 -0.30032060093E+02  0.36820901915E+02  0.00000000000E+00 0. -1.
         11    1    4    4    0    0 -0.19873148858E+01  0.33303272558E+01  0.18112943742E+00  0.38824358617E+01  0.51100000000E-03 0. -1.
        -11    1    4    4    0    0  0.25153269784E+02 -0.20103300184E+02  0.22117146001E+02  0.39064021895E+02  0.51100000000E-03 0.  1.
        -12    1    4    4    0    0 -0.40539068577E+01  0.73610759824E+01  0.77337846546E+01  0.11420640329E+02  0.00000000000E+00 0.  1.
</event>
<event>
 8    1  0.1254059E-006  0.9118800E+02  0.7816164E-02  0.1184000E+00
        -11   -1    0    0    0    0  0.00000000000E+00  0.00000000000E+00  0.45593999997E+02  0.45594000000E+02  0.51100000000E-03 0. -1.
         11   -1    0    0    0    0 -0.00000000000E+00 -0.00000000000E+00 -0.45593999997E+02  0.45594000000E+02  0.51100000000E-03 0.  1.
         23    2    1    2    0    0  0.00000000000E+00  0.00000000000E+00  0.17763568394E-14  0.91188000000E+02  0.91188000000E+02 0.  0.
    9900012    2    3    3    0    0 -0.58295202540E+01 -0.35055397566E+02 -0.96393213153E+01  0.54367072251E+02  0.39999972811E+02 0.  0.
        -12    1    3    3    0    0  0.58295202540E+01  0.35055397566E+02  0.96393213153E+01  0.36820927749E+02  0.00000000000E+00 0.  1.
         11    1    4    4    0    0 -0.27489031846E+01 -0.15213378278E+02 -0.51411873197E+01  0.16292180783E+02  0.51100000000E-03 0. -1.
        -11    1    4    4    0    0  0.48936881544E+01 -0.24309804310E+02 -0.10722334328E+02  0.27016351031E+02  0.51100000000E-03 0.  1.
         12    1    4    4    0    0 -0.79743052238E+01  0.44677850225E+01  0.62242003326E+01  0.11058540437E+02  0.00000000000E+00 0. -1.
</event>
<event>
 8    1  0.1254059E-006  0.9118800E+02  0.7816164E-02  0.1184000E+00
        -11   -1    0    0    0    0  0.00000000000E+00  0.00000000000E+00  0.45593999997E+02  0.45594000000E+02  0.51100000000E-03 0.  1.
         11   -1    0    0    0    0 -0.00000000000E+00 -0.00000000000E+00 -0.45593999997E+02  0.45594000000E+02  0.51100000000E-03 0. -1.
         23    2    1    2    0    0  0.35527136788E-14  0.35527136788E-14 -0.35527136788E-14  0.91188000000E+02  0.91188000000E+02 0.  0.
    9900012    2    3    3    0    0  0.17220534321E+02 -0.27734156224E+02  0.17030837033E+02  0.54367087004E+02  0.40000006444E+02 0.  0.
         12    1    3    3    0    0 -0.17220534321E+02  0.27734156224E+02 -0.17030837033E+02  0.36820912996E+02  0.00000000000E+00 0. -1.
         11    1    4    4    0    0 -0.53746621559E+01 -0.13429721694E+02 -0.88486832035E+01  0.16957110979E+02  0.51100000000E-03 0. -1.
        -11    1    4    4    0    0  0.45964899366E+01 -0.15785423746E+01  0.60488681346E+01  0.77594021507E+01  0.51100000000E-03 0.  1.
         12    1    4    4    0    0  0.17998706540E+02 -0.12725892156E+02  0.19830652102E+02  0.29650573874E+02  0.00000000000E+00 0. -1.
</event>
<event>
 8    1  0.1254059E-006  0.9118800E+02  0.7816164E-02  0.1184000E+00
        -11   -1    0    0    0    0  0.00000000000E+00  0.00000000000E+00  0.45593999997E+02  0.45594000000E+02  0.51100000000E-03 0. -1.
         11   -1    0    0    0    0 -0.00000000000E+00 -0.00000000000E+00 -0.45593999997E+02  0.45594000000E+02  0.51100000000E-03 0.  1.
         23    2    1    2    0    0  0.35527136788E-14  0.00000000000E+00 -0.35527136788E-14  0.91188000000E+02  0.91188000000E+02 0.  0.
    9900012    2    3    3    0    0 -0.24129017216E+02  0.11908774196E+02 -0.25134672689E+02  0.54367080051E+02  0.39999990593E+02 0.  0.
         12    1    3    3    0    0  0.24129017216E+02 -0.11908774196E+02  0.25134672689E+02  0.36820919949E+02  0.00000000000E+00 0. -1.
         11    1    4    4    0    0 -0.17812588103E+02 -0.88149216982E+01 -0.12406454902E+01  0.19913069602E+02  0.51100000000E-03 0. -1.
        -11    1    4    4    0    0 -0.89538391470E+01  0.18960008648E+02 -0.17481023593E+02  0.27299072320E+02  0.51100000000E-03 0.  1.
         12    1    4    4    0    0  0.26374100342E+01  0.17636872469E+01 -0.64130036060E+01  0.71549381300E+01  0.00000000000E+00 0. -1.
</event>
<event>
 8    1  0.1254059E-006  0.9118800E+02  0.7816164E-02  0.1184000E+00
        -11   -1    0    0    0    0  0.00000000000E+00  0.00000000000E+00  0.45593999997E+02  0.45594000000E+02  0.51100000000E-03 0.  1.
         11   -1    0    0    0    0 -0.00000000000E+00 -0.00000000000E+00 -0.45593999997E+02  0.45594000000E+02  0.51100000000E-03 0. -1.
         23    2    1    2    0    0  0.88817841970E-15  0.71054273576E-14 -0.88817841970E-15  0.91188000000E+02  0.91188000000E+02 0.  0.
    9900012    2    3    3    0    0  0.44844877246E+01  0.36403166106E+02 -0.32371258748E+01  0.54367080448E+02  0.39999991498E+02 0.  0.
        -12    1    3    3    0    0 -0.44844877246E+01 -0.36403166106E+02  0.32371258748E+01  0.36820919552E+02  0.00000000000E+00 0.  1.
         11    1    4    4    0    0 -0.31217951400E+01  0.13797480435E+01 -0.18591231531E+01  0.38865986053E+01  0.51100000000E-03 0. -1.
        -11    1    4    4    0    0 -0.13095018893E+01  0.29419952662E+02  0.13383720441E+02  0.32347679715E+02  0.51100000000E-03 0.  1.
        -12    1    4    4    0    0  0.89157847538E+01  0.56034654002E+01 -0.14761723163E+02  0.18132802128E+02  0.00000000000E+00 0.  1.
</event>
<event>
 8    1  0.1254059E-006  0.9118800E+02  0.7816164E-02  0.1184000E+00
        -11   -1    0    0    0    0  0.00000000000E+00  0.00000000000E+00  0.45593999997E+02  0.45594000000E+02  0.51100000000E-03 0. -1.
         11   -1    0    0    0    0 -0.00000000000E+00 -0.00000000000E+00 -0.45593999997E+02  0.45594000000E+02  0.51100000000E-03 0.  1.
         23    2    1    2    0    0 -0.35527136788E-14  0.35527136788E-14  0.00000000000E+00  0.91188000000E+02  0.91188000000E+02 0.  0.
    9900012    2    3    3    0    0  0.24526247965E+02  0.21058090138E+02  0.17629497124E+02  0.54367093325E+02  0.40000020854E+02 0.  0.
        -12    1    3    3    0    0 -0.24526247965E+02 -0.21058090138E+02 -0.17629497124E+02  0.36820906675E+02  0.00000000000E+00 0.  1.
         11    1    4    4    0    0  0.62316587817E+01 -0.61002658420E+01  0.49471241748E+01  0.10026008796E+02  0.51100000000E-03 0.  1.
        -11    1    4    4    0    0  0.21140954545E+02  0.28569012061E+02  0.48259105608E+01  0.35866667286E+02  0.51100000000E-03 0. -1.
         12    1    4    4    0    0 -0.28463653619E+01 -0.14106560807E+01  0.78564623889E+01  0.84744172437E+01  0.00000000000E+00 0. -1.
</event>
<event>
 8    1  0.1254059E-006  0.9118800E+02  0.7816164E-02  0.1184000E+00
        -11   -1    0    0    0    0  0.00000000000E+00  0.00000000000E+00  0.45593999997E+02  0.45594000000E+02  0.51100000000E-03 0.  1.
         11   -1    0    0    0    0 -0.00000000000E+00 -0.00000000000E+00 -0.45593999997E+02  0.45594000000E+02  0.51100000000E-03 0. -1.
         23    2    1    2    0    0  0.17763568394E-14  0.00000000000E+00  0.00000000000E+00  0.91188000000E+02  0.91188000000E+02 0.  0.
    9900012    2    3    3    0    0 -0.11583010709E+02 -0.22970553596E+02 -0.26343272905E+02  0.54367075284E+02  0.39999979724E+02 0.  0.
        -12    1    3    3    0    0  0.11583010709E+02  0.22970553596E+02  0.26343272905E+02  0.36820924716E+02  0.00000000000E+00 0.  1.
         11    1    4    4    0    0 -0.21965845044E+02 -0.26096829845E+02 -0.23784931730E+02  0.41584442453E+02  0.51100000000E-03 0. -1.
        -11    1    4    4    0    0  0.21865571909E+01 -0.19072892584E+01 -0.45741374869E+00  0.29373478280E+01  0.51100000000E-03 0.  1.
         12    1    4    4    0    0  0.81962771442E+01  0.50335655067E+01 -0.21009274266E+01  0.98452850029E+01  0.00000000000E+00 0. -1.
</event>
<event>
 8    1  0.1254059E-006  0.9118800E+02  0.7816164E-02  0.1184000E+00
        -11   -1    0    0    0    0  0.00000000000E+00  0.00000000000E+00  0.45593999997E+02  0.45594000000E+02  0.51100000000E-03 0. -1.
         11   -1    0    0    0    0 -0.00000000000E+00 -0.00000000000E+00 -0.45593999997E+02  0.45594000000E+02  0.51100000000E-03 0.  1.
         23    2    1    2    0    0  0.00000000000E+00  0.00000000000E+00  0.00000000000E+00  0.91188000000E+02  0.91188000000E+02 0.  0.
    9900012    2    3    3    0    0  0.31761096953E+02  0.80915126809E+01  0.16779126437E+02  0.54367096411E+02  0.40000027888E+02 0.  0.
        -12    1    3    3    0    0 -0.31761096953E+02 -0.80915126809E+01 -0.16779126437E+02  0.36820903589E+02  0.00000000000E+00 0.  1.
         11    1    4    4    0    0  0.16566983813E+02  0.66421492040E+01 -0.43992374376E+01  0.18383046238E+02  0.51100000000E-03 0. -1.
        -11    1    4    4    0    0  0.13913305527E+02 -0.48242612105E+01  0.24640064593E+02  0.28705162433E+02  0.51100000000E-03 0.  1.
        -12    1    4    4    0    0  0.12808076129E+01  0.62736246874E+01 -0.34617007185E+01  0.72788877395E+01  0.00000000000E+00 0.  1.
</event>
<event>
 8    1  0.1254059E-006  0.9118800E+02  0.7816164E-02  0.1184000E+00
        -11   -1    0    0    0    0  0.00000000000E+00  0.00000000000E+00  0.45593999997E+02  0.45594000000E+02  0.51100000000E-03 0. -1.
         11   -1    0    0    0    0 -0.00000000000E+00 -0.00000000000E+00 -0.45593999997E+02  0.45594000000E+02  0.51100000000E-03 0.  1.
         23    2    1    2    0    0  0.00000000000E+00 -0.35527136788E-14  0.00000000000E+00  0.91188000000E+02  0.91188000000E+02 0.  0.
    9900012    2    3    3    0    0 -0.26776653466E+02 -0.18100235159E+02  0.17640106335E+02  0.54367067975E+02  0.39999963063E+02 0.  0.
        -12    1    3    3    0    0  0.26776653466E+02  0.18100235159E+02 -0.17640106335E+02  0.36820932025E+02  0.00000000000E+00 0.  1.
         11    1    4    4    0    0  0.25968853311E+01 -0.71475607319E+01 -0.36240289077E+01  0.84240740515E+01  0.51100000000E-03 0. -1.
        -11    1    4    4    0    0 -0.14223457401E+01  0.71872734338E+01  0.49499475726E+01  0.88420556462E+01  0.51100000000E-03 0.  1.
         12    1    4    4    0    0 -0.27951193057E+02 -0.18139947861E+02  0.16314187670E+02  0.37100938277E+02  0.00000000000E+00 0. -1.
</event>
<event>
 8    1  0.1254059E-006  0.9118800E+02  0.7816164E-02  0.1184000E+00
        -11   -1    0    0    0    0  0.00000000000E+00  0.00000000000E+00  0.45593999997E+02  0.45594000000E+02  0.51100000000E-03 0.  1.
         11   -1    0    0    0    0 -0.00000000000E+00 -0.00000000000E+00 -0.45593999997E+02  0.45594000000E+02  0.51100000000E-03 0. -1.
         23    2    1    2    0    0  0.00000000000E+00 -0.88817841970E-15  0.00000000000E+00  0.91188000000E+02  0.91188000000E+02 0.  0.
    9900012    2    3    3    0    0  0.31000599916E+02 -0.57244479605E+01  0.19025579141E+02  0.54367093421E+02  0.40000021073E+02 0.  0.
         12    1    3    3    0    0 -0.31000599916E+02  0.57244479605E+01 -0.19025579141E+02  0.36820906579E+02  0.00000000000E+00 0. -1.
         11    1    4    4    0    0  0.13971802627E+01 -0.11844526759E+01 -0.22870978915E+01  0.29301634518E+01  0.51100000000E-03 0. -1.
        -11    1    4    4    0    0  0.20569459364E+02 -0.19797193370E+02  0.16858724155E+02  0.33154910711E+02  0.51100000000E-03 0.  1.
        -12    1    4    4    0    0  0.90339602899E+01  0.15257198086E+02  0.44539528781E+01  0.18282019259E+02  0.00000000000E+00 0.  1.
</event>
<event>
 8    1  0.1254059E-006  0.9118800E+02  0.7816164E-02  0.1184000E+00
        -11   -1    0    0    0    0  0.00000000000E+00  0.00000000000E+00  0.45593999997E+02  0.45594000000E+02  0.51100000000E-03 0.  1.
         11   -1    0    0    0    0 -0.00000000000E+00 -0.00000000000E+00 -0.45593999997E+02  0.45594000000E+02  0.51100000000E-03 0. -1.
         23    2    1    2    0    0  0.88817841970E-15 -0.17763568394E-14  0.00000000000E+00  0.91188000000E+02  0.91188000000E+02 0.  0.
    9900012    2    3    3    0    0 -0.66338712157E+01 -0.12887285958E+02  0.33848037322E+02  0.54367081798E+02  0.39999994576E+02 0.  0.
         12    1    3    3    0    0  0.66338712157E+01  0.12887285958E+02 -0.33848037322E+02  0.36820918202E+02  0.00000000000E+00 0. -1.
         11    1    4    4    0    0  0.11239278083E+02 -0.16917939722E+02  0.28058883811E+02  0.34638692488E+02  0.51100000000E-03 0. -1.
        -11    1    4    4    0    0 -0.14663157644E+02  0.18389365287E+01  0.57039109749E+01  0.15840595959E+02  0.51100000000E-03 0.  1.
         12    1    4    4    0    0 -0.32099916542E+01  0.21917172349E+01  0.85242535587E-01  0.38877933520E+01  0.00000000000E+00 0. -1.
</event>
<event>
 8    1  0.1254059E-006  0.9118800E+02  0.7816164E-02  0.1184000E+00
        -11   -1    0    0    0    0  0.00000000000E+00  0.00000000000E+00  0.45593999997E+02  0.45594000000E+02  0.51100000000E-03 0. -1.
         11   -1    0    0    0    0 -0.00000000000E+00 -0.00000000000E+00 -0.45593999997E+02  0.45594000000E+02  0.51100000000E-03 0.  1.
         23    2    1    2    0    0  0.00000000000E+00  0.88817841970E-15  0.88817841970E-15  0.91188000000E+02  0.91188000000E+02 0.  0.
    9900012    2    3    3    0    0  0.36272434162E+02  0.28533317830E+01 -0.56522885920E+01  0.54367090877E+02  0.40000015273E+02 0.  0.
         12    1    3    3    0    0 -0.36272434162E+02 -0.28533317830E+01  0.56522885920E+01  0.36820909123E+02  0.00000000000E+00 0. -1.
         11    1    4    4    0    0  0.13094762430E+02 -0.68043724423E+01  0.84911188668E+01  0.17025609748E+02  0.51100000000E-03 0. -1.
        -11    1    4    4    0    0  0.17727323895E+02  0.13580049396E+02 -0.73214675622E+00  0.22343047984E+02  0.51100000000E-03 0.  1.
         12    1    4    4    0    0  0.54503478374E+01 -0.39223451707E+01 -0.13411260703E+02  0.14998433145E+02  0.00000000000E+00 0. -1.
</event>
<event>
 8    1  0.1254059E-006  0.9118800E+02  0.7816164E-02  0.1184000E+00
        -11   -1    0    0    0    0  0.00000000000E+00  0.00000000000E+00  0.45593999997E+02  0.45594000000E+02  0.51100000000E-03 0.  1.
         11   -1    0    0    0    0 -0.00000000000E+00 -0.00000000000E+00 -0.45593999997E+02  0.45594000000E+02  0.51100000000E-03 0. -1.
         23    2    1    2    0    0  0.00000000000E+00 -0.17763568394E-14  0.00000000000E+00  0.91188000000E+02  0.91188000000E+02 0.  0.
    9900012    2    3    3    0    0 -0.87395207064E+01  0.15819793699E+02 -0.32080123600E+02  0.54367089840E+02  0.40000012908E+02 0.  0.
        -12    1    3    3    0    0  0.87395207064E+01 -0.15819793699E+02  0.32080123600E+02  0.36820910160E+02  0.00000000000E+00 0.  1.
         11    1    4    4    0    0 -0.26415577291E+01  0.14504711888E+02 -0.10927710599E+00  0.14743691395E+02  0.51100000000E-03 0.  1.
        -11    1    4    4    0    0 -0.10414811434E+02  0.64158344618E+01 -0.30385976471E+02  0.32755744464E+02  0.51100000000E-03 0. -1.
        -12    1    4    4    0    0  0.43168484570E+01 -0.51007526515E+01 -0.15848700230E+01  0.68676539810E+01  0.00000000000E+00 0.  1.
</event>
<event>
 8    1  0.1254059E-006  0.9118800E+02  0.7816164E-02  0.1184000E+00
        -11   -1    0    0    0    0  0.00000000000E+00  0.00000000000E+00  0.45593999997E+02  0.45594000000E+02  0.51100000000E-03 0. -1.
         11   -1    0    0    0    0 -0.00000000000E+00 -0.00000000000E+00 -0.45593999997E+02  0.45594000000E+02  0.51100000000E-03 0.  1.
         23    2    1    2    0    0  0.00000000000E+00  0.35527136788E-14 -0.35527136788E-14  0.91188000000E+02  0.91188000000E+02 0.  0.
    9900012    2    3    3    0    0 -0.28073534134E+01 -0.28558199381E+02 -0.23072208676E+02  0.54367098351E+02  0.40000032310E+02 0.  0.
         12    1    3    3    0    0  0.28073534134E+01  0.28558199381E+02  0.23072208676E+02  0.36820901649E+02  0.00000000000E+00 0. -1.
         11    1    4    4    0    0  0.18925354939E+01 -0.18694548335E+01  0.39700876333E+01  0.47789274997E+01  0.51100000000E-03 0. -1.
        -11    1    4    4    0    0  0.36801718024E+01 -0.85350419477E+01 -0.28068393439E+02  0.29567301467E+02  0.51100000000E-03 0.  1.
        -12    1    4    4    0    0 -0.83800607097E+01 -0.18153702600E+02  0.10260971292E+01  0.20020869384E+02  0.00000000000E+00 0.  1.
</event>
<event>
 8    1  0.1254059E-006  0.9118800E+02  0.7816164E-02  0.1184000E+00
        -11   -1    0    0    0    0  0.00000000000E+00  0.00000000000E+00  0.45593999997E+02  0.45594000000E+02  0.51100000000E-03 0. -1.
         11   -1    0    0    0    0 -0.00000000000E+00 -0.00000000000E+00 -0.45593999997E+02  0.45594000000E+02  0.51100000000E-03 0.  1.
         23    2    1    2    0    0  0.00000000000E+00  0.00000000000E+00  0.00000000000E+00  0.91188000000E+02  0.91188000000E+02 0.  0.
    9900012    2    3    3    0    0 -0.23274068250E+02  0.95040628894E+01 -0.26903004160E+02  0.54367067133E+02  0.39999961144E+02 0.  0.
         12    1    3    3    0    0  0.23274068250E+02 -0.95040628894E+01  0.26903004160E+02  0.36820932867E+02  0.00000000000E+00 0. -1.
         11    1    4    4    0    0 -0.28374368982E+02  0.99842983915E+01 -0.76754525098E+01  0.31043575841E+02  0.51100000000E-03 0.  1.
        -11    1    4    4    0    0  0.34313351294E+01  0.56685565636E+01 -0.11839765267E+02  0.13567853041E+02  0.51100000000E-03 0. -1.
         12    1    4    4    0    0  0.16689656029E+01 -0.61487920657E+01 -0.73877863833E+01  0.97556382516E+01  0.00000000000E+00 0. -1.
</event>
<event>
 8    1  0.1254059E-006  0.9118800E+02  0.7816164E-02  0.1184000E+00
        -11   -1    0    0    0    0  0.00000000000E+00  0.00000000000E+00  0.45593999997E+02  0.45594000000E+02  0.51100000000E-03 0. -1.
         11   -1    0    0    0    0 -0.00000000000E+00 -0.00000000000E+00 -0.45593999997E+02  0.45594000000E+02  0.51100000000E-03 0.  1.
         23    2    1    2    0    0  0.00000000000E+00  0.35527136788E-14  0.35527136788E-14  0.91188000000E+02  0.91188000000E+02 0.  0.
    9900012    2    3    3    0    0 -0.16192318281E+02  0.20226244084E+02  0.26162632967E+02  0.54367143345E+02  0.40000134883E+02 0.  0.
        -12    1    3    3    0    0  0.16192318281E+02 -0.20226244084E+02 -0.26162632967E+02  0.36820856655E+02  0.00000000000E+00 0.  1.
         11    1    4    4    0    0 -0.18840037984E+01  0.14948110609E+02 -0.32187259242E+01  0.15406351870E+02  0.51100000000E-03 0. -1.
        -11    1    4    4    0    0 -0.55502960615E+00  0.57141773035E+01 -0.79438898547E+00  0.57957686497E+01  0.51100000000E-03 0.  1.
         12    1    4    4    0    0 -0.13753284876E+02 -0.43604382893E+00  0.30175747877E+02  0.33165022826E+02  0.00000000000E+00 0. -1.
</event>
<event>
 8    1  0.1254059E-006  0.9118800E+02  0.7816164E-02  0.1184000E+00
        -11   -1    0    0    0    0  0.00000000000E+00  0.00000000000E+00  0.45593999997E+02  0.45594000000E+02  0.51100000000E-03 0.  1.
         11   -1    0    0    0    0 -0.00000000000E+00 -0.00000000000E+00 -0.45593999997E+02  0.45594000000E+02  0.51100000000E-03 0. -1.
         23    2    1    2    0    0  0.00000000000E+00 -0.17763568394E-14  0.88817841970E-15  0.91188000000E+02  0.91188000000E+02 0.  0.
    9900012    2    3    3    0    0  0.33242990419E+02 -0.14281134335E+02 -0.68364192131E+01  0.54367029921E+02  0.39999876311E+02 0.  0.
        -12    1    3    3    0    0 -0.33242990419E+02  0.14281134335E+02  0.68364192131E+01  0.36820970079E+02  0.00000000000E+00 0.  1.
         11    1    4    4    0    0  0.10360789898E+02 -0.78634047637E+00 -0.14409978020E+02  0.17765465529E+02  0.51100000000E-03 0. -1.
        -11    1    4    4    0    0  0.16312211516E+02 -0.20409897565E+02  0.40845262265E+01  0.26444952598E+02  0.51100000000E-03 0.  1.
        -12    1    4    4    0    0  0.65699890053E+01  0.69151037055E+01  0.34890325809E+01  0.10156611794E+02  0.00000000000E+00 0.  1.
</event>
<event>
 8    1  0.1254059E-006  0.9118800E+02  0.7816164E-02  0.1184000E+00
        -11   -1    0    0    0    0  0.00000000000E+00  0.00000000000E+00  0.45593999997E+02  0.45594000000E+02  0.51100000000E-03 0. -1.
         11   -1    0    0    0    0 -0.00000000000E+00 -0.00000000000E+00 -0.45593999997E+02  0.45594000000E+02  0.51100000000E-03 0.  1.
         23    2    1    2    0    0 -0.71054273576E-14  0.71054273576E-14  0.00000000000E+00  0.91188000000E+02  0.91188000000E+02 0.  0.
    9900012    2    3    3    0    0  0.28111799869E+02 -0.21211077553E+02  0.10751684895E+02  0.54367057170E+02  0.39999938430E+02 0.  0.
         12    1    3    3    0    0 -0.28111799869E+02  0.21211077553E+02 -0.10751684895E+02  0.36820942830E+02  0.00000000000E+00 0. -1.
         11    1    4    4    0    0 -0.45202194988E+01 -0.17079993715E+02 -0.19114822446E+01  0.17771109540E+02  0.51100000000E-03 0. -1.
        -11    1    4    4    0    0  0.14982057296E+01 -0.17044283649E+01  0.32799741124E+01  0.39884742569E+01  0.51100000000E-03 0.  1.
        -12    1    4    4    0    0  0.31133813638E+02 -0.24266554728E+01  0.93831930267E+01  0.32607473373E+02  0.00000000000E+00 0.  1.
</event>
<event>
 8    1  0.1254059E-006  0.9118800E+02  0.7816164E-02  0.1184000E+00
        -11   -1    0    0    0    0  0.00000000000E+00  0.00000000000E+00  0.45593999997E+02  0.45594000000E+02  0.51100000000E-03 0.  1.
         11   -1    0    0    0    0 -0.00000000000E+00 -0.00000000000E+00 -0.45593999997E+02  0.45594000000E+02  0.51100000000E-03 0. -1.
         23    2    1    2    0    0  0.00000000000E+00  0.00000000000E+00  0.00000000000E+00  0.91188000000E+02  0.91188000000E+02 0.  0.
    9900012    2    3    3    0    0  0.32084277451E+02  0.15917997398E+02  0.85438938803E+01  0.54367059988E+02  0.39999944854E+02 0.  0.
        -12    1    3    3    0    0 -0.32084277451E+02 -0.15917997398E+02 -0.85438938803E+01  0.36820940012E+02  0.00000000000E+00 0.  1.
         11    1    4    4    0    0  0.18625104642E+02  0.13864393496E+01 -0.53141212286E+01  0.19417945867E+02  0.51100000000E-03 0. -1.
        -11    1    4    4    0    0  0.19081651090E+02  0.31491843110E+01  0.74160688246E+01  0.20712914986E+02  0.51100000000E-03 0.  1.
        -12    1    4    4    0    0 -0.56224782798E+01  0.11382373737E+02  0.64419462844E+01  0.14236199136E+02  0.00000000000E+00 0.  1.
</event>
<event>
 8    1  0.1254059E-006  0.9118800E+02  0.7816164E-02  0.1184000E+00
        -11   -1    0    0    0    0  0.00000000000E+00  0.00000000000E+00  0.45593999997E+02  0.45594000000E+02  0.51100000000E-03 0. -1.
         11   -1    0    0    0    0 -0.00000000000E+00 -0.00000000000E+00 -0.45593999997E+02  0.45594000000E+02  0.51100000000E-03 0.  1.
         23    2    1    2    0    0  0.00000000000E+00 -0.13322676296E-14  0.00000000000E+00  0.91188000000E+02  0.91188000000E+02 0.  0.
    9900012    2    3    3    0    0  0.25182161022E+02  0.34463503659E+01  0.26641342796E+02  0.54367085963E+02  0.40000004069E+02 0.  0.
        -12    1    3    3    0    0 -0.25182161022E+02 -0.34463503659E+01 -0.26641342796E+02  0.36820914037E+02  0.00000000000E+00 0.  1.
         11    1    4    4    0    0  0.40746594503E+00  0.10342476875E+02  0.68415207291E+01  0.12407226223E+02  0.51100000000E-03 0. -1.
        -11    1    4    4    0    0  0.80123981431E+01  0.52629958804E+01  0.18947325566E+02  0.21234377693E+02  0.51100000000E-03 0.  1.
        -12    1    4    4    0    0  0.16762296934E+02 -0.12159122389E+02  0.85249650081E+00  0.20725482047E+02  0.00000000000E+00 0.  1.
</event>
<event>
 8    1  0.1254059E-006  0.9118800E+02  0.7816164E-02  0.1184000E+00
        -11   -1    0    0    0    0  0.00000000000E+00  0.00000000000E+00  0.45593999997E+02  0.45594000000E+02  0.51100000000E-03 0.  1.
         11   -1    0    0    0    0 -0.00000000000E+00 -0.00000000000E+00 -0.45593999997E+02  0.45594000000E+02  0.51100000000E-03 0. -1.
         23    2    1    2    0    0  0.00000000000E+00 -0.88817841970E-15  0.00000000000E+00  0.91188000000E+02  0.91188000000E+02 0.  0.
    9900012    2    3    3    0    0  0.31661795419E+02 -0.53210011568E+01 -0.18027690104E+02  0.54367082671E+02  0.39999996564E+02 0.  0.
        -12    1    3    3    0    0 -0.31661795419E+02  0.53210011568E+01  0.18027690104E+02  0.36820917329E+02  0.00000000000E+00 0.  1.
         11    1    4    4    0    0  0.17396519186E+02  0.14581516284E+02 -0.85945494686E+00  0.22715592882E+02  0.51100000000E-03 0. -1.
        -11    1    4    4    0    0  0.74926550987E+01 -0.99687037252E+01 -0.25576887564E+01  0.12730149505E+02  0.51100000000E-03 0.  1.
         12    1    4    4    0    0  0.67726211348E+01 -0.99338137158E+01 -0.14610546401E+02  0.18921340283E+02  0.00000000000E+00 0. -1.
</event>
<event>
 8    1  0.1254059E-006  0.9118800E+02  0.7816164E-02  0.1184000E+00
        -11   -1    0    0    0    0  0.00000000000E+00  0.00000000000E+00  0.45593999997E+02  0.45594000000E+02  0.51100000000E-03 0. -1.
         11   -1    0    0    0    0 -0.00000000000E+00 -0.00000000000E+00 -0.45593999997E+02  0.45594000000E+02  0.51100000000E-03 0.  1.
         23    2    1    2    0    0  0.00000000000E+00  0.88817841970E-15  0.17763568394E-14  0.91188000000E+02  0.91188000000E+02 0.  0.
    9900012    2    3    3    0    0  0.33253726754E+02 -0.65581657099E+01  0.14386155867E+02  0.54367063549E+02  0.39999952973E+02 0.  0.
        -12    1    3    3    0    0 -0.33253726754E+02  0.65581657099E+01 -0.14386155867E+02  0.36820936451E+02  0.00000000000E+00 0.  1.
         11    1    4    4    0    0  0.11342964932E+02 -0.19813998368E+00 -0.49102256969E+01  0.12361732466E+02  0.51100000000E-03 0. -1.
        -11    1    4    4    0    0  0.91905683496E+01 -0.79202300202E+01 -0.60843525224E+01  0.13572617140E+02  0.51100000000E-03 0.  1.
         12    1    4    4    0    0  0.12720193472E+02  0.15602042939E+01  0.25380734087E+02  0.28432713943E+02  0.00000000000E+00 0. -1.
</event>
<event>
 8    1  0.1254059E-006  0.9118800E+02  0.7816164E-02  0.1184000E+00
        -11   -1    0    0    0    0  0.00000000000E+00  0.00000000000E+00  0.45593999997E+02  0.45594000000E+02  0.51100000000E-03 0. -1.
         11   -1    0    0    0    0 -0.00000000000E+00 -0.00000000000E+00 -0.45593999997E+02  0.45594000000E+02  0.51100000000E-03 0.  1.
         23    2    1    2    0    0  0.17763568394E-14  0.35527136788E-14  0.00000000000E+00  0.91188000000E+02  0.91188000000E+02 0.  0.
    9900012    2    3    3    0    0 -0.13298277869E+02 -0.22249559605E+02 -0.26151364874E+02  0.54367068702E+02  0.39999964720E+02 0.  0.
         12    1    3    3    0    0  0.13298277869E+02  0.22249559605E+02  0.26151364874E+02  0.36820931298E+02  0.00000000000E+00 0. -1.
         11    1    4    4    0    0 -0.16902615783E+01  0.30405885523E+00 -0.20231854943E+02  0.20304615009E+02  0.51100000000E-03 0. -1.
        -11    1    4    4    0    0  0.16384816341E+00 -0.63362136645E+01 -0.11612771895E+02  0.13229925214E+02  0.51100000000E-03 0.  1.
        -12    1    4    4    0    0 -0.11771864454E+02 -0.16217404795E+02  0.56932619637E+01  0.20832528478E+02  0.00000000000E+00 0.  1.
</event>
<event>
 8    1  0.1254059E-006  0.9118800E+02  0.7816164E-02  0.1184000E+00
        -11   -1    0    0    0    0  0.00000000000E+00  0.00000000000E+00  0.45593999997E+02  0.45594000000E+02  0.51100000000E-03 0.  1.
         11   -1    0    0    0    0 -0.00000000000E+00 -0.00000000000E+00 -0.45593999997E+02  0.45594000000E+02  0.51100000000E-03 0. -1.
         23    2    1    2    0    0  0.00000000000E+00 -0.35527136788E-14  0.35527136788E-14  0.91188000000E+02  0.91188000000E+02 0.  0.
    9900012    2    3    3    0    0 -0.37985494360E+01  0.31031893960E+02  0.19451737093E+02  0.54367116027E+02  0.40000072608E+02 0.  0.
         12    1    3    3    0    0  0.37985494360E+01 -0.31031893960E+02 -0.19451737093E+02  0.36820883973E+02  0.00000000000E+00 0. -1.
         11    1    4    4    0    0 -0.11469154849E+02  0.91994672990E+01  0.44935153836E+01  0.15374114358E+02  0.51100000000E-03 0. -1.
        -11    1    4    4    0    0 -0.52424437038E+01  0.11984748469E+02  0.18219530966E+02  0.22429193493E+02  0.51100000000E-03 0.  1.
        -12    1    4    4    0    0  0.12913049116E+02  0.98476781923E+01 -0.32613092562E+01  0.16563808177E+02  0.00000000000E+00 0.  1.
</event>
<event>
 8    1  0.1254059E-006  0.9118800E+02  0.7816164E-02  0.1184000E+00
        -11   -1    0    0    0    0  0.00000000000E+00  0.00000000000E+00  0.45593999997E+02  0.45594000000E+02  0.51100000000E-03 0.  1.
         11   -1    0    0    0    0 -0.00000000000E+00 -0.00000000000E+00 -0.45593999997E+02  0.45594000000E+02  0.51100000000E-03 0. -1.
         23    2    1    2    0    0  0.00000000000E+00  0.88817841970E-15  0.00000000000E+00  0.91188000000E+02  0.91188000000E+02 0.  0.
    9900012    2    3    3    0    0 -0.12703639853E+02  0.22954354436E+01  0.34483756582E+02  0.54367069031E+02  0.39999965470E+02 0.  0.
         12    1    3    3    0    0  0.12703639853E+02 -0.22954354436E+01 -0.34483756582E+02  0.36820930969E+02  0.00000000000E+00 0. -1.
         11    1    4    4    0    0 -0.40638658188E+01 -0.54604626807E+01 -0.22328813776E+00  0.68103976341E+01  0.51100000000E-03 0. -1.
        -11    1    4    4    0    0 -0.13240576770E+01  0.21548082981E+01 -0.56346377190E+01  0.61762019089E+01  0.51100000000E-03 0.  1.
        -12    1    4    4    0    0 -0.73157163569E+01  0.56010898262E+01  0.40341682439E+02  0.41380469488E+02  0.00000000000E+00 0.  1.
</event>
<event>
 8    1  0.1254059E-006  0.9118800E+02  0.7816164E-02  0.1184000E+00
        -11   -1    0    0    0    0  0.00000000000E+00  0.00000000000E+00  0.45593999997E+02  0.45594000000E+02  0.51100000000E-03 0. -1.
         11   -1    0    0    0    0 -0.00000000000E+00 -0.00000000000E+00 -0.45593999997E+02  0.45594000000E+02  0.51100000000E-03 0.  1.
         23    2    1    2    0    0  0.00000000000E+00  0.35527136788E-14  0.17763568394E-14  0.91188000000E+02  0.91188000000E+02 0.  0.
    9900012    2    3    3    0    0 -0.18146633904E+02 -0.29839509255E+02 -0.11664991445E+02  0.54367236020E+02  0.40000346154E+02 0.  0.
         12    1    3    3    0    0  0.18146633904E+02  0.29839509255E+02  0.11664991445E+02  0.36820763980E+02  0.00000000000E+00 0. -1.
         11    1    4    4    0    0 -0.46929509194E+01 -0.11198216013E+02  0.40525965886E+01  0.12800287871E+02  0.51100000000E-03 0. -1.
        -11    1    4    4    0    0 -0.18968384264E+02 -0.24086260237E+02 -0.11504825567E+02  0.32746122600E+02  0.51100000000E-03 0.  1.
        -12    1    4    4    0    0  0.55147012792E+01  0.54449669942E+01 -0.42127624670E+01  0.88208255492E+01  0.00000000000E+00 0.  1.
</event>
<event>
 8    1  0.1254059E-006  0.9118800E+02  0.7816164E-02  0.1184000E+00
        -11   -1    0    0    0    0  0.00000000000E+00  0.00000000000E+00  0.45593999997E+02  0.45594000000E+02  0.51100000000E-03 0. -1.
         11   -1    0    0    0    0 -0.00000000000E+00 -0.00000000000E+00 -0.45593999997E+02  0.45594000000E+02  0.51100000000E-03 0.  1.
         23    2    1    2    0    0  0.00000000000E+00  0.17763568394E-14  0.00000000000E+00  0.91188000000E+02  0.91188000000E+02 0.  0.
    9900012    2    3    3    0    0  0.15502086244E+02 -0.14050532173E+02 -0.30299304663E+02  0.54367082095E+02  0.39999995252E+02 0.  0.
         12    1    3    3    0    0 -0.15502086244E+02  0.14050532173E+02  0.30299304663E+02  0.36820917905E+02  0.00000000000E+00 0. -1.
         11    1    4    4    0    0  0.87170410025E+01 -0.40945353756E+01 -0.15998931809E+02  0.18673988408E+02  0.51100000000E-03 0. -1.
        -11    1    4    4    0    0  0.57494429834E+00 -0.13778593212E+02 -0.21437001798E+02  0.25489708477E+02  0.51100000000E-03 0.  1.
         12    1    4    4    0    0  0.62101009433E+01  0.38225964142E+01  0.71366289440E+01  0.10203385211E+02  0.00000000000E+00 0. -1.
</event>
<event>
 8    1  0.1254059E-006  0.9118800E+02  0.7816164E-02  0.1184000E+00
        -11   -1    0    0    0    0  0.00000000000E+00  0.00000000000E+00  0.45593999997E+02  0.45594000000E+02  0.51100000000E-03 0.  1.
         11   -1    0    0    0    0 -0.00000000000E+00 -0.00000000000E+00 -0.45593999997E+02  0.45594000000E+02  0.51100000000E-03 0. -1.
         23    2    1    2    0    0 -0.71054273576E-14  0.00000000000E+00  0.00000000000E+00  0.91188000000E+02  0.91188000000E+02 0.  0.
    9900012    2    3    3    0    0 -0.26855020039E+02  0.18147302427E+02 -0.17471778248E+02  0.54367085809E+02  0.40000003720E+02 0.  0.
        -12    1    3    3    0    0  0.26855020039E+02 -0.18147302427E+02  0.17471778248E+02  0.36820914191E+02  0.00000000000E+00 0.  1.
         11    1    4    4    0    0 -0.25429778092E+01 -0.11602307083E+02 -0.55584361244E+01  0.13113980258E+02  0.51100000000E-03 0. -1.
        -11    1    4    4    0    0 -0.18761509114E+02  0.16367345613E+02 -0.90081613220E+01  0.26476993736E+02  0.51100000000E-03 0.  1.
         12    1    4    4    0    0 -0.55505331159E+01  0.13382263897E+02 -0.29051808017E+01  0.14776111815E+02  0.00000000000E+00 0. -1.
</event>
<event>
 8    1  0.1254059E-006  0.9118800E+02  0.7816164E-02  0.1184000E+00
        -11   -1    0    0    0    0  0.00000000000E+00  0.00000000000E+00  0.45593999997E+02  0.45594000000E+02  0.51100000000E-03 0. -1.
         11   -1    0    0    0    0 -0.00000000000E+00 -0.00000000000E+00 -0.45593999997E+02  0.45594000000E+02  0.51100000000E-03 0.  1.
         23    2    1    2    0    0  0.00000000000E+00  0.00000000000E+00  0.00000000000E+00  0.91188000000E+02  0.91188000000E+02 0.  0.
    9900012    2    3    3    0    0  0.15235071408E+02  0.18507949489E+02  0.27948669104E+02  0.54367086110E+02  0.40000004404E+02 0.  0.
        -12    1    3    3    0    0 -0.15235071408E+02 -0.18507949489E+02 -0.27948669104E+02  0.36820913890E+02  0.00000000000E+00 0.  1.
         11    1    4    4    0    0  0.11918446777E+02  0.10309400854E+02  0.62880381090E+01  0.16966807097E+02  0.51100000000E-03 0. -1.
        -11    1    4    4    0    0  0.14497673699E+02  0.10746388679E+02  0.17674019626E+02  0.25259421655E+02  0.51100000000E-03 0.  1.
        -12    1    4    4    0    0 -0.11181049069E+02 -0.25478400447E+01  0.39866113685E+01  0.12140857358E+02  0.00000000000E+00 0.  1.
</event>
<event>
 8    1  0.1254059E-006  0.9118800E+02  0.7816164E-02  0.1184000E+00
        -11   -1    0    0    0    0  0.00000000000E+00  0.00000000000E+00  0.45593999997E+02  0.45594000000E+02  0.51100000000E-03 0. -1.
         11   -1    0    0    0    0 -0.00000000000E+00 -0.00000000000E+00 -0.45593999997E+02  0.45594000000E+02  0.51100000000E-03 0.  1.
         23    2    1    2    0    0 -0.22204460493E-15 -0.88817841970E-15  0.71054273576E-14  0.91188000000E+02  0.91188000000E+02 0.  0.
    9900012    2    3    3    0    0 -0.13236687245E+01 -0.43335076122E+01  0.36541078219E+02  0.54367057799E+02  0.39999939865E+02 0.  0.
        -12    1    3    3    0    0  0.13236687245E+01  0.43335076122E+01 -0.36541078219E+02  0.36820942201E+02  0.00000000000E+00 0.  1.
         11    1    4    4    0    0  0.57946024907E+01  0.94519119278E+01  0.32908050625E+02  0.34725435250E+02  0.51100000000E-03 0. -1.
        -11    1    4    4    0    0 -0.89382549033E+01 -0.14717796992E+02  0.36245871291E+01  0.17596692335E+02  0.51100000000E-03 0.  1.
        -12    1    4    4    0    0  0.18199836881E+01  0.93237745193E+00  0.84404651318E-02  0.20449302138E+01  0.00000000000E+00 0.  1.
</event>
<event>
 8    1  0.1254059E-006  0.9118800E+02  0.7816164E-02  0.1184000E+00
        -11   -1    0    0    0    0  0.00000000000E+00  0.00000000000E+00  0.45593999997E+02  0.45594000000E+02  0.51100000000E-03 0.  1.
         11   -1    0    0    0    0 -0.00000000000E+00 -0.00000000000E+00 -0.45593999997E+02  0.45594000000E+02  0.51100000000E-03 0. -1.
         23    2    1    2    0    0  0.00000000000E+00  0.35527136788E-14  0.35527136788E-14  0.91188000000E+02  0.91188000000E+02 0.  0.
    9900012    2    3    3    0    0 -0.10893786730E+02  0.27776920986E+02 -0.21576781445E+02  0.54366954031E+02  0.39999703303E+02 0.  0.
        -12    1    3    3    0    0  0.10893786730E+02 -0.27776920986E+02  0.21576781445E+02  0.36821045969E+02  0.00000000000E+00 0.  1.
         11    1    4    4    0    0 -0.95476390877E+01  0.16498341593E+02 -0.76368565390E+01  0.20534708800E+02  0.51100000000E-03 0. -1.
        -11    1    4    4    0    0 -0.44011223910E+01  0.19904075676E+02 -0.48916473921E+01  0.20963547440E+02  0.51100000000E-03 0.  1.
        -12    1    4    4    0    0  0.30549747484E+01 -0.86254962831E+01 -0.90482775135E+01  0.12868697790E+02  0.00000000000E+00 0.  1.
</event>
<event>
 8    1  0.1254059E-006  0.9118800E+02  0.7816164E-02  0.1184000E+00
        -11   -1    0    0    0    0  0.00000000000E+00  0.00000000000E+00  0.45593999997E+02  0.45594000000E+02  0.51100000000E-03 0.  1.
         11   -1    0    0    0    0 -0.00000000000E+00 -0.00000000000E+00 -0.45593999997E+02  0.45594000000E+02  0.51100000000E-03 0. -1.
         23    2    1    2    0    0  0.13322676296E-14 -0.35527136788E-14  0.00000000000E+00  0.91188000000E+02  0.91188000000E+02 0.  0.
    9900012    2    3    3    0    0 -0.10450264518E+01  0.27044740259E+02 -0.24965324647E+02  0.54367116107E+02  0.40000072788E+02 0.  0.
        -12    1    3    3    0    0  0.10450264518E+01 -0.27044740259E+02  0.24965324647E+02  0.36820883893E+02  0.00000000000E+00 0.  1.
         11    1    4    4    0    0  0.86755523230E+01  0.19524498147E+02 -0.12990151220E+02  0.25004304929E+02  0.51100000000E-03 0. -1.
        -11    1    4    4    0    0 -0.14653486557E+02  0.11752928609E+02 -0.12914118650E+02  0.22795404361E+02  0.51100000000E-03 0.  1.
         12    1    4    4    0    0  0.49329077824E+01 -0.42326864972E+01  0.93894522343E+00  0.65674068175E+01  0.00000000000E+00 0. -1.
</event>
<event>
 8    1  0.1254059E-006  0.9118800E+02  0.7816164E-02  0.1184000E+00
        -11   -1    0    0    0    0  0.00000000000E+00  0.00000000000E+00  0.45593999997E+02  0.45594000000E+02  0.51100000000E-03 0. -1.
         11   -1    0    0    0    0 -0.00000000000E+00 -0.00000000000E+00 -0.45593999997E+02  0.45594000000E+02  0.51100000000E-03 0.  1.
         23    2    1    2    0    0  0.00000000000E+00 -0.88817841970E-15  0.00000000000E+00  0.91188000000E+02  0.91188000000E+02 0.  0.
    9900012    2    3    3    0    0  0.32784574076E+02  0.42215811138E+01 -0.16221294148E+02  0.54367076216E+02  0.39999981850E+02 0.  0.
         12    1    3    3    0    0 -0.32784574076E+02 -0.42215811138E+01  0.16221294148E+02  0.36820923784E+02  0.00000000000E+00 0. -1.
         11    1    4    4    0    0  0.85078874613E+01  0.12866956076E+02  0.34651319929E+01  0.15809802266E+02  0.51100000000E-03 0. -1.
        -11    1    4    4    0    0  0.12404869018E+02 -0.10823127173E+02 -0.12352995696E+01  0.16508992169E+02  0.51100000000E-03 0.  1.
        -12    1    4    4    0    0  0.11871817597E+02  0.21777522112E+01 -0.18451126571E+02  0.22048281781E+02  0.00000000000E+00 0.  1.
</event>
<event>
 8    1  0.1254059E-006  0.9118800E+02  0.7816164E-02  0.1184000E+00
        -11   -1    0    0    0    0  0.00000000000E+00  0.00000000000E+00  0.45593999997E+02  0.45594000000E+02  0.51100000000E-03 0.  1.
         11   -1    0    0    0    0 -0.00000000000E+00 -0.00000000000E+00 -0.45593999997E+02  0.45594000000E+02  0.51100000000E-03 0. -1.
         23    2    1    2    0    0  0.17763568394E-14  0.00000000000E+00  0.35527136788E-14  0.91188000000E+02  0.91188000000E+02 0.  0.
    9900012    2    3    3    0    0 -0.56630526530E+01  0.22639974365E+02  0.28480530386E+02  0.54367092683E+02  0.40000019390E+02 0.  0.
         12    1    3    3    0    0  0.56630526530E+01 -0.22639974365E+02 -0.28480530386E+02  0.36820907317E+02  0.00000000000E+00 0. -1.
         11    1    4    4    0    0  0.87627920629E+01  0.42808033017E+00 -0.32088118608E+01  0.93416407192E+01  0.51100000000E-03 0. -1.
        -11    1    4    4    0    0  0.78793301438E+00 -0.26771558767E+01  0.22908846554E+01  0.36105615614E+01  0.51100000000E-03 0.  1.
        -12    1    4    4    0    0 -0.15213777730E+02  0.24889049912E+02  0.29398457591E+02  0.41414890403E+02  0.00000000000E+00 0.  1.
</event>
<event>
 8    1  0.1254059E-006  0.9118800E+02  0.7816164E-02  0.1184000E+00
        -11   -1    0    0    0    0  0.00000000000E+00  0.00000000000E+00  0.45593999997E+02  0.45594000000E+02  0.51100000000E-03 0.  1.
         11   -1    0    0    0    0 -0.00000000000E+00 -0.00000000000E+00 -0.45593999997E+02  0.45594000000E+02  0.51100000000E-03 0. -1.
         23    2    1    2    0    0  0.00000000000E+00 -0.17763568394E-14  0.00000000000E+00  0.91188000000E+02  0.91188000000E+02 0.  0.
    9900012    2    3    3    0    0 -0.21449661715E+02 -0.76389400882E+01 -0.28936788206E+02  0.54367094185E+02  0.40000022814E+02 0.  0.
        -12    1    3    3    0    0  0.21449661715E+02  0.76389400882E+01  0.28936788206E+02  0.36820905815E+02  0.00000000000E+00 0.  1.
         11    1    4    4    0    0  0.20119461905E+01 -0.35294010528E+01 -0.17144910765E+02  0.17619664148E+02  0.51100000000E-03 0. -1.
        -11    1    4    4    0    0 -0.91518453504E+01  0.10688566362E+02 -0.64571810706E+01  0.15482148166E+02  0.51100000000E-03 0.  1.
        -12    1    4    4    0    0 -0.14309762555E+02 -0.14798105397E+02 -0.53346963705E+01  0.21265281872E+02  0.00000000000E+00 0.  1.
</event>
<event>
 8    1  0.1254059E-006  0.9118800E+02  0.7816164E-02  0.1184000E+00
        -11   -1    0    0    0    0  0.00000000000E+00  0.00000000000E+00  0.45593999997E+02  0.45594000000E+02  0.51100000000E-03 0. -1.
         11   -1    0    0    0    0 -0.00000000000E+00 -0.00000000000E+00 -0.45593999997E+02  0.45594000000E+02  0.51100000000E-03 0.  1.
         23    2    1    2    0    0  0.13322676296E-14 -0.71054273576E-14  0.00000000000E+00  0.91188000000E+02  0.91188000000E+02 0.  0.
    9900012    2    3    3    0    0  0.28020052695E+01  0.32789564129E+02  0.16515839903E+02  0.54367085875E+02  0.40000003869E+02 0.  0.
        -12    1    3    3    0    0 -0.28020052695E+01 -0.32789564129E+02 -0.16515839903E+02  0.36820914125E+02  0.00000000000E+00 0.  1.
         11    1    4    4    0    0  0.77337327700E+01  0.21334471120E+02  0.36554018630E+01  0.22985478972E+02  0.51100000000E-03 0. -1.
        -11    1    4    4    0    0  0.64593688892E+01  0.15033448943E+02  0.50898319225E+01  0.17135764437E+02  0.51100000000E-03 0.  1.
         12    1    4    4    0    0 -0.11391096390E+02 -0.35783559334E+01  0.77706061175E+01  0.14245842466E+02  0.00000000000E+00 0. -1.
</event>
<event>
 8    1  0.1254059E-006  0.9118800E+02  0.7816164E-02  0.1184000E+00
        -11   -1    0    0    0    0  0.00000000000E+00  0.00000000000E+00  0.45593999997E+02  0.45594000000E+02  0.51100000000E-03 0.  1.
         11   -1    0    0    0    0 -0.00000000000E+00 -0.00000000000E+00 -0.45593999997E+02  0.45594000000E+02  0.51100000000E-03 0. -1.
         23    2    1    2    0    0  0.00000000000E+00  0.00000000000E+00  0.00000000000E+00  0.91188000000E+02  0.91188000000E+02 0.  0.
    9900012    2    3    3    0    0 -0.41774328246E+01  0.26129831093E+02  0.25603933165E+02  0.54367076445E+02  0.39999982371E+02 0.  0.
         12    1    3    3    0    0  0.41774328246E+01 -0.26129831093E+02 -0.25603933165E+02  0.36820923555E+02  0.00000000000E+00 0. -1.
         11    1    4    4    0    0 -0.70451551640E+01  0.97376863377E+00  0.96454282187E+00  0.71772403996E+01  0.51100000000E-03 0. -1.
        -11    1    4    4    0    0 -0.94676187421E+01  0.45875932380E+01  0.20232829721E+02  0.22804587590E+02  0.51100000000E-03 0.  1.
        -12    1    4    4    0    0  0.12335341081E+02  0.20568469221E+02  0.44065606222E+01  0.24385248455E+02  0.00000000000E+00 0.  1.
</event>
<event>
 8    1  0.1254059E-006  0.9118800E+02  0.7816164E-02  0.1184000E+00
        -11   -1    0    0    0    0  0.00000000000E+00  0.00000000000E+00  0.45593999997E+02  0.45594000000E+02  0.51100000000E-03 0.  1.
         11   -1    0    0    0    0 -0.00000000000E+00 -0.00000000000E+00 -0.45593999997E+02  0.45594000000E+02  0.51100000000E-03 0. -1.
         23    2    1    2    0    0  0.35527136788E-14  0.00000000000E+00  0.00000000000E+00  0.91188000000E+02  0.91188000000E+02 0.  0.
    9900012    2    3    3    0    0  0.29069484960E+02  0.19963228519E+02 -0.10593093983E+02  0.54367094405E+02  0.40000023315E+02 0.  0.
         12    1    3    3    0    0 -0.29069484960E+02 -0.19963228519E+02  0.10593093983E+02  0.36820905595E+02  0.00000000000E+00 0. -1.
         11    1    4    4    0    0  0.81735148031E+01  0.30854696374E+01 -0.18440906684E+02  0.20405722401E+02  0.51100000000E-03 0. -1.
        -11    1    4    4    0    0  0.62933510578E+01  0.37781775721E+01 -0.63818498018E+01  0.97267106700E+01  0.51100000000E-03 0.  1.
         12    1    4    4    0    0  0.14602619099E+02  0.13099581309E+02  0.14229662503E+02  0.24234661334E+02  0.00000000000E+00 0. -1.
</event>
<event>
 8    1  0.1254059E-006  0.9118800E+02  0.7816164E-02  0.1184000E+00
        -11   -1    0    0    0    0  0.00000000000E+00  0.00000000000E+00  0.45593999997E+02  0.45594000000E+02  0.51100000000E-03 0. -1.
         11   -1    0    0    0    0 -0.00000000000E+00 -0.00000000000E+00 -0.45593999997E+02  0.45594000000E+02  0.51100000000E-03 0.  1.
         23    2    1    2    0    0 -0.17763568394E-14  0.00000000000E+00 -0.35527136788E-14  0.91188000000E+02  0.91188000000E+02 0.  0.
    9900012    2    3    3    0    0 -0.46234435703E+01  0.22974967823E+02 -0.28399886428E+02  0.54367096615E+02  0.40000028354E+02 0.  0.
         12    1    3    3    0    0  0.46234435703E+01 -0.22974967823E+02  0.28399886428E+02  0.36820903385E+02  0.00000000000E+00 0. -1.
         11    1    4    4    0    0  0.91184157692E+01  0.37487477503E+01 -0.33006952034E+01  0.10396788202E+02  0.51100000000E-03 0. -1.
        -11    1    4    4    0    0 -0.14000523814E+02  0.10427490448E+02 -0.29385428248E+02  0.34179681358E+02  0.51100000000E-03 0.  1.
        -12    1    4    4    0    0  0.25866447460E+00  0.87987296247E+01  0.42862370234E+01  0.97906270555E+01  0.00000000000E+00 0.  1.
</event>
<event>
 8    1  0.1254059E-006  0.9118800E+02  0.7816164E-02  0.1184000E+00
        -11   -1    0    0    0    0  0.00000000000E+00  0.00000000000E+00  0.45593999997E+02  0.45594000000E+02  0.51100000000E-03 0.  1.
         11   -1    0    0    0    0 -0.00000000000E+00 -0.00000000000E+00 -0.45593999997E+02  0.45594000000E+02  0.51100000000E-03 0. -1.
         23    2    1    2    0    0 -0.17763568394E-14  0.00000000000E+00 -0.35527136788E-14  0.91188000000E+02  0.91188000000E+02 0.  0.
    9900012    2    3    3    0    0  0.95600193497E+01 -0.19321988419E+02  0.29850405132E+02  0.54367083485E+02  0.39999998421E+02 0.  0.
         12    1    3    3    0    0 -0.95600193497E+01  0.19321988419E+02 -0.29850405132E+02  0.36820916515E+02  0.00000000000E+00 0. -1.
         11    1    4    4    0    0 -0.30009941278E+01 -0.51995787392E+01  0.99836647105E+01  0.11649684379E+02  0.51100000000E-03 0.  1.
        -11    1    4    4    0    0  0.77980648449E+01 -0.24751078567E+02  0.15793496492E+02  0.30378614802E+02  0.51100000000E-03 0. -1.
         12    1    4    4    0    0  0.47629486326E+01  0.10628668887E+02  0.40732439296E+01  0.12338784304E+02  0.00000000000E+00 0. -1.
</event>
<event>
 8    1  0.1254059E-006  0.9118800E+02  0.7816164E-02  0.1184000E+00
        -11   -1    0    0    0    0  0.00000000000E+00  0.00000000000E+00  0.45593999997E+02  0.45594000000E+02  0.51100000000E-03 0.  1.
         11   -1    0    0    0    0 -0.00000000000E+00 -0.00000000000E+00 -0.45593999997E+02  0.45594000000E+02  0.51100000000E-03 0. -1.
         23    2    1    2    0    0  0.00000000000E+00  0.00000000000E+00  0.17763568394E-14  0.91188000000E+02  0.91188000000E+02 0.  0.
    9900012    2    3    3    0    0  0.32023276007E+02 -0.10267034636E+02 -0.14995905112E+02  0.54367090498E+02  0.40000014408E+02 0.  0.
        -12    1    3    3    0    0 -0.32023276007E+02  0.10267034636E+02  0.14995905112E+02  0.36820909502E+02  0.00000000000E+00 0.  1.
         11    1    4    4    0    0  0.71916101378E+01 -0.67033675861E+01 -0.10923377960E+02  0.14696073615E+02  0.51100000000E-03 0. -1.
        -11    1    4    4    0    0  0.20756856969E+02 -0.15602584623E+02 -0.64136290232E+01  0.26747381099E+02  0.51100000000E-03 0.  1.
        -12    1    4    4    0    0  0.40748089006E+01  0.12038917573E+02  0.23411018719E+01  0.12923635784E+02  0.00000000000E+00 0.  1.
</event>
<event>
 8    1  0.1254059E-006  0.9118800E+02  0.7816164E-02  0.1184000E+00
        -11   -1    0    0    0    0  0.00000000000E+00  0.00000000000E+00  0.45593999997E+02  0.45594000000E+02  0.51100000000E-03 0.  1.
         11   -1    0    0    0    0 -0.00000000000E+00 -0.00000000000E+00 -0.45593999997E+02  0.45594000000E+02  0.51100000000E-03 0. -1.
         23    2    1    2    0    0 -0.11102230246E-14 -0.71054273576E-14  0.00000000000E+00  0.91188000000E+02  0.91188000000E+02 0.  0.
    9900012    2    3    3    0    0  0.54532243458E+00 -0.33080953795E+02 -0.16159631385E+02  0.54367074332E+02  0.39999977555E+02 0.  0.
        -12    1    3    3    0    0 -0.54532243458E+00  0.33080953795E+02  0.16159631385E+02  0.36820925668E+02  0.00000000000E+00 0.  1.
         11    1    4    4    0    0  0.73046918219E+01 -0.59463255174E+01 -0.14197162353E+02  0.17037509470E+02  0.51100000000E-03 0. -1.
        -11    1    4    4    0    0 -0.91949808515E+01  0.49236807613E+00 -0.26665456771E+01  0.95864782528E+01  0.51100000000E-03 0.  1.
         12    1    4    4    0    0  0.24356114642E+01 -0.27626996354E+02  0.70407664586E+00  0.27743086610E+02  0.00000000000E+00 0. -1.
</event>
<event>
 8    1  0.1254059E-006  0.9118800E+02  0.7816164E-02  0.1184000E+00
        -11   -1    0    0    0    0  0.00000000000E+00  0.00000000000E+00  0.45593999997E+02  0.45594000000E+02  0.51100000000E-03 0. -1.
         11   -1    0    0    0    0 -0.00000000000E+00 -0.00000000000E+00 -0.45593999997E+02  0.45594000000E+02  0.51100000000E-03 0.  1.
         23    2    1    2    0    0 -0.17763568394E-14 -0.35527136788E-14 -0.71054273576E-14  0.91188000000E+02  0.91188000000E+02 0.  0.
    9900012    2    3    3    0    0 -0.12518072011E+02 -0.23174277274E+02 -0.25729892372E+02  0.54367127990E+02  0.40000099879E+02 0.  0.
         12    1    3    3    0    0  0.12518072011E+02  0.23174277274E+02  0.25729892372E+02  0.36820872010E+02  0.00000000000E+00 0. -1.
         11    1    4    4    0    0 -0.94568247185E+01 -0.52816676712E+01  0.39319268261E+00  0.10838918207E+02  0.51100000000E-03 0. -1.
        -11    1    4    4    0    0 -0.13066550697E+02 -0.12881995152E+02 -0.26615588610E+02  0.32327544038E+02  0.51100000000E-03 0.  1.
         12    1    4    4    0    0  0.10005303404E+02 -0.50106144516E+01  0.49250355467E+00  0.11200665746E+02  0.00000000000E+00 0. -1.
</event>
<event>
 8    1  0.1254059E-006  0.9118800E+02  0.7816164E-02  0.1184000E+00
        -11   -1    0    0    0    0  0.00000000000E+00  0.00000000000E+00  0.45593999997E+02  0.45594000000E+02  0.51100000000E-03 0.  1.
         11   -1    0    0    0    0 -0.00000000000E+00 -0.00000000000E+00 -0.45593999997E+02  0.45594000000E+02  0.51100000000E-03 0. -1.
         23    2    1    2    0    0  0.00000000000E+00  0.88817841970E-15  0.35527136788E-14  0.91188000000E+02  0.91188000000E+02 0.  0.
    9900012    2    3    3    0    0 -0.18215321674E+02 -0.78899593758E+01  0.31011783158E+02  0.54367080711E+02  0.39999992097E+02 0.  0.
         12    1    3    3    0    0  0.18215321674E+02  0.78899593758E+01 -0.31011783158E+02  0.36820919289E+02  0.00000000000E+00 0. -1.
         11    1    4    4    0    0 -0.10768885268E+02  0.10099997280E+02  0.15347990182E+02  0.21296470080E+02  0.51100000000E-03 0.  1.
        -11    1    4    4    0    0  0.96067763529E+00 -0.60312155170E+01  0.17314034780E+02  0.18359582314E+02  0.51100000000E-03 0. -1.
         12    1    4    4    0    0 -0.84071140412E+01 -0.11958741139E+02 -0.16502418040E+01  0.14711028317E+02  0.00000000000E+00 0. -1.
</event>
<event>
 8    1  0.1254059E-006  0.9118800E+02  0.7816164E-02  0.1184000E+00
        -11   -1    0    0    0    0  0.00000000000E+00  0.00000000000E+00  0.45593999997E+02  0.45594000000E+02  0.51100000000E-03 0.  1.
         11   -1    0    0    0    0 -0.00000000000E+00 -0.00000000000E+00 -0.45593999997E+02  0.45594000000E+02  0.51100000000E-03 0. -1.
         23    2    1    2    0    0  0.00000000000E+00  0.00000000000E+00  0.00000000000E+00  0.91188000000E+02  0.91188000000E+02 0.  0.
    9900012    2    3    3    0    0 -0.89697900879E+01  0.11988173615E+02  0.33639343995E+02  0.54367096898E+02  0.40000028999E+02 0.  0.
         12    1    3    3    0    0  0.89697900879E+01 -0.11988173615E+02 -0.33639343995E+02  0.36820903102E+02  0.00000000000E+00 0. -1.
         11    1    4    4    0    0  0.94838665543E+01 -0.17149746158E+01  0.15577000495E+02  0.18317418143E+02  0.51100000000E-03 0. -1.
        -11    1    4    4    0    0 -0.21849059663E+01  0.10381977637E+02  0.16167366855E+02  0.19337606497E+02  0.51100000000E-03 0.  1.
         12    1    4    4    0    0 -0.16268750676E+02  0.33211705930E+01  0.18949766446E+01  0.16712072258E+02  0.00000000000E+00 0. -1.
</event>
<event>
 8    1  0.1254059E-006  0.9118800E+02  0.7816164E-02  0.1184000E+00
        -11   -1    0    0    0    0  0.00000000000E+00  0.00000000000E+00  0.45593999997E+02  0.45594000000E+02  0.51100000000E-03 0.  1.
         11   -1    0    0    0    0 -0.00000000000E+00 -0.00000000000E+00 -0.45593999997E+02  0.45594000000E+02  0.51100000000E-03 0. -1.
         23    2    1    2    0    0  0.00000000000E+00  0.00000000000E+00 -0.17763568394E-14  0.91188000000E+02  0.91188000000E+02 0.  0.
    9900012    2    3    3    0    0 -0.21535564182E+02  0.27501856441E+02 -0.11646795304E+02  0.54367075607E+02  0.39999980460E+02 0.  0.
        -12    1    3    3    0    0  0.21535564182E+02 -0.27501856441E+02  0.11646795304E+02  0.36820924393E+02  0.00000000000E+00 0.  1.
         11    1    4    4    0    0 -0.15362911808E+02  0.16444210546E+02 -0.60818193313E+01  0.23311363031E+02  0.51100000000E-03 0. -1.
        -11    1    4    4    0    0 -0.26128828338E+01  0.15563578625E+01 -0.16126141058E+02  0.16410418403E+02  0.51100000000E-03 0.  1.
         12    1    4    4    0    0 -0.35597695403E+01  0.95012880322E+01  0.10561165085E+02  0.14645294173E+02  0.00000000000E+00 0. -1.
</event>
<event>
 8    1  0.1254059E-006  0.9118800E+02  0.7816164E-02  0.1184000E+00
        -11   -1    0    0    0    0  0.00000000000E+00  0.00000000000E+00  0.45593999997E+02  0.45594000000E+02  0.51100000000E-03 0.  1.
         11   -1    0    0    0    0 -0.00000000000E+00 -0.00000000000E+00 -0.45593999997E+02  0.45594000000E+02  0.51100000000E-03 0. -1.
         23    2    1    2    0    0  0.00000000000E+00  0.00000000000E+00  0.00000000000E+00  0.91188000000E+02  0.91188000000E+02 0.  0.
    9900012    2    3    3    0    0 -0.42434569932E+01  0.32100291360E+02  0.17531197176E+02  0.54367102305E+02  0.40000041324E+02 0.  0.
         12    1    3    3    0    0  0.42434569932E+01 -0.32100291360E+02 -0.17531197176E+02  0.36820897695E+02  0.00000000000E+00 0. -1.
         11    1    4    4    0    0  0.10567332734E+02  0.12914165159E+02 -0.17275582538E+01  0.16775835021E+02  0.51100000000E-03 0. -1.
        -11    1    4    4    0    0 -0.20054529242E+02  0.17446386538E+02  0.14385007541E+02  0.30223980356E+02  0.51100000000E-03 0.  1.
        -12    1    4    4    0    0  0.52437395147E+01  0.17397396636E+01  0.48737478888E+01  0.73672869280E+01  0.00000000000E+00 0.  1.
</event>
<event>
 8    1  0.1254059E-006  0.9118800E+02  0.7816164E-02  0.1184000E+00
        -11   -1    0    0    0    0  0.00000000000E+00  0.00000000000E+00  0.45593999997E+02  0.45594000000E+02  0.51100000000E-03 0.  1.
         11   -1    0    0    0    0 -0.00000000000E+00 -0.00000000000E+00 -0.45593999997E+02  0.45594000000E+02  0.51100000000E-03 0. -1.
         23    2    1    2    0    0  0.35527136788E-14  0.44408920985E-15 -0.35527136788E-14  0.91188000000E+02  0.91188000000E+02 0.  0.
    9900012    2    3    3    0    0  0.24082216626E+02  0.39315848443E+01 -0.27574832691E+02  0.54367056029E+02  0.39999935830E+02 0.  0.
        -12    1    3    3    0    0 -0.24082216626E+02 -0.39315848443E+01  0.27574832691E+02  0.36820943971E+02  0.00000000000E+00 0.  1.
         11    1    4    4    0    0  0.24016331556E+02  0.35674380051E+01 -0.35315664940E+02  0.42856819595E+02  0.51100000000E-03 0. -1.
        -11    1    4    4    0    0  0.41210471525E+01  0.17385419984E+00  0.23027279890E+01  0.47239614063E+01  0.51100000000E-03 0.  1.
         12    1    4    4    0    0 -0.40551620830E+01  0.19029263938E+00  0.54381042607E+01  0.67862750282E+01  0.00000000000E+00 0. -1.
</event>
<event>
 8    1  0.1254059E-006  0.9118800E+02  0.7816164E-02  0.1184000E+00
        -11   -1    0    0    0    0  0.00000000000E+00  0.00000000000E+00  0.45593999997E+02  0.45594000000E+02  0.51100000000E-03 0.  1.
         11   -1    0    0    0    0 -0.00000000000E+00 -0.00000000000E+00 -0.45593999997E+02  0.45594000000E+02  0.51100000000E-03 0. -1.
         23    2    1    2    0    0  0.00000000000E+00  0.00000000000E+00  0.00000000000E+00  0.91188000000E+02  0.91188000000E+02 0.  0.
    9900012    2    3    3    0    0 -0.15953802772E+01 -0.17773505929E+02  0.32207722593E+02  0.54367080052E+02  0.39999990594E+02 0.  0.
         12    1    3    3    0    0  0.15953802772E+01  0.17773505929E+02 -0.32207722593E+02  0.36820919948E+02  0.00000000000E+00 0. -1.
         11    1    4    4    0    0 -0.50196722763E+01 -0.80660653955E+01 -0.45609991541E+01  0.10538559402E+02  0.51100000000E-03 0. -1.
        -11    1    4    4    0    0 -0.21301794598E+01 -0.13663998695E+02  0.12573227903E+02  0.18690334000E+02  0.51100000000E-03 0.  1.
        -12    1    4    4    0    0  0.55544714589E+01  0.39565581621E+01  0.24195493844E+02  0.25138186649E+02  0.00000000000E+00 0.  1.
</event>
<event>
 8    1  0.1254059E-006  0.9118800E+02  0.7816164E-02  0.1184000E+00
        -11   -1    0    0    0    0  0.00000000000E+00  0.00000000000E+00  0.45593999997E+02  0.45594000000E+02  0.51100000000E-03 0.  1.
         11   -1    0    0    0    0 -0.00000000000E+00 -0.00000000000E+00 -0.45593999997E+02  0.45594000000E+02  0.51100000000E-03 0. -1.
         23    2    1    2    0    0  0.00000000000E+00  0.35527136788E-14  0.17763568394E-14  0.91188000000E+02  0.91188000000E+02 0.  0.
    9900012    2    3    3    0    0  0.19484877511E+02 -0.27408605828E+02  0.14996216691E+02  0.54367100499E+02  0.40000037207E+02 0.  0.
        -12    1    3    3    0    0 -0.19484877511E+02  0.27408605828E+02 -0.14996216691E+02  0.36820899501E+02  0.00000000000E+00 0.  1.
         11    1    4    4    0    0  0.76001940302E+01 -0.84193154900E+01  0.16518723339E+02  0.20037865246E+02  0.51100000000E-03 0. -1.
        -11    1    4    4    0    0  0.12590106286E+02 -0.42020808210E+00 -0.76794175164E+01  0.14753331989E+02  0.51100000000E-03 0.  1.
         12    1    4    4    0    0 -0.70542280487E+00 -0.18569082256E+02  0.61569108683E+01  0.19575903264E+02  0.00000000000E+00 0. -1.
</event>
<event>
 8    1  0.1254059E-006  0.9118800E+02  0.7816164E-02  0.1184000E+00
        -11   -1    0    0    0    0  0.00000000000E+00  0.00000000000E+00  0.45593999997E+02  0.45594000000E+02  0.51100000000E-03 0.  1.
         11   -1    0    0    0    0 -0.00000000000E+00 -0.00000000000E+00 -0.45593999997E+02  0.45594000000E+02  0.51100000000E-03 0. -1.
         23    2    1    2    0    0 -0.12212453271E-14 -0.88817841970E-15 -0.71054273576E-14  0.91188000000E+02  0.91188000000E+02 0.  0.
    9900012    2    3    3    0    0  0.69982175043E+00 -0.71766927406E+01 -0.36107967252E+02  0.54367082463E+02  0.39999996091E+02 0.  0.
        -12    1    3    3    0    0 -0.69982175043E+00  0.71766927406E+01  0.36107967252E+02  0.36820917537E+02  0.00000000000E+00 0.  1.
         11    1    4    4    0    0 -0.23812795156E+01 -0.10891350401E+02 -0.69039911287E+01  0.13113241379E+02  0.51100000000E-03 0. -1.
        -11    1    4    4    0    0  0.11104676833E+02 -0.21624007176E+01 -0.10114044203E+01  0.11358378563E+02  0.51100000000E-03 0.  1.
         12    1    4    4    0    0 -0.80235755669E+01  0.58770583783E+01 -0.28192571703E+02  0.29895462521E+02  0.00000000000E+00 0. -1.
</event>
<event>
 8    1  0.1254059E-006  0.9118800E+02  0.7816164E-02  0.1184000E+00
        -11   -1    0    0    0    0  0.00000000000E+00  0.00000000000E+00  0.45593999997E+02  0.45594000000E+02  0.51100000000E-03 0.  1.
         11   -1    0    0    0    0 -0.00000000000E+00 -0.00000000000E+00 -0.45593999997E+02  0.45594000000E+02  0.51100000000E-03 0. -1.
         23    2    1    2    0    0  0.17763568394E-14 -0.35527136788E-14  0.35527136788E-14  0.91188000000E+02  0.91188000000E+02 0.  0.
    9900012    2    3    3    0    0  0.15685444297E+02 -0.21298412296E+02 -0.25614960635E+02  0.54367058439E+02  0.39999941323E+02 0.  0.
        -12    1    3    3    0    0 -0.15685444297E+02  0.21298412296E+02  0.25614960635E+02  0.36820941561E+02  0.00000000000E+00 0.  1.
         11    1    4    4    0    0 -0.39374737707E+00 -0.56837870092E+01 -0.11910515464E+02  0.13203062169E+02  0.51100000000E-03 0. -1.
        -11    1    4    4    0    0 -0.60633119826E+01 -0.95106906389E+01  0.42061012842E+01  0.12037785382E+02  0.51100000000E-03 0.  1.
        -12    1    4    4    0    0  0.22142503657E+02 -0.61039346475E+01 -0.17910546455E+02  0.29126210888E+02  0.00000000000E+00 0.  1.
</event>
<event>
 8    1  0.1254059E-006  0.9118800E+02  0.7816164E-02  0.1184000E+00
        -11   -1    0    0    0    0  0.00000000000E+00  0.00000000000E+00  0.45593999997E+02  0.45594000000E+02  0.51100000000E-03 0.  1.
         11   -1    0    0    0    0 -0.00000000000E+00 -0.00000000000E+00 -0.45593999997E+02  0.45594000000E+02  0.51100000000E-03 0. -1.
         23    2    1    2    0    0  0.00000000000E+00  0.00000000000E+00  0.71054273576E-14  0.91188000000E+02  0.91188000000E+02 0.  0.
    9900012    2    3    3    0    0  0.11695742779E+02 -0.75124176664E+01 -0.34096230025E+02  0.54367085830E+02  0.40000003767E+02 0.  0.
        -12    1    3    3    0    0 -0.11695742779E+02  0.75124176664E+01  0.34096230025E+02  0.36820914170E+02  0.00000000000E+00 0.  1.
         11    1    4    4    0    0 -0.33240810281E+01 -0.10515143033E+02 -0.10064517325E+01  0.11073874346E+02  0.51100000000E-03 0. -1.
        -11    1    4    4    0    0 -0.33482986375E+01 -0.35308631045E+01  0.24704020240E-01  0.48660773297E+01  0.51100000000E-03 0.  1.
         12    1    4    4    0    0  0.18368122445E+02  0.65335884708E+01 -0.33114482313E+02  0.38427134155E+02  0.00000000000E+00 0. -1.
</event>
<event>
 8    1  0.1254059E-006  0.9118800E+02  0.7816164E-02  0.1184000E+00
        -11   -1    0    0    0    0  0.00000000000E+00  0.00000000000E+00  0.45593999997E+02  0.45594000000E+02  0.51100000000E-03 0.  1.
         11   -1    0    0    0    0 -0.00000000000E+00 -0.00000000000E+00 -0.45593999997E+02  0.45594000000E+02  0.51100000000E-03 0. -1.
         23    2    1    2    0    0  0.35527136788E-14 -0.17763568394E-14  0.00000000000E+00  0.91188000000E+02  0.91188000000E+02 0.  0.
    9900012    2    3    3    0    0 -0.19183043618E+02  0.14677973930E+02  0.27791145893E+02  0.54367083781E+02  0.39999999096E+02 0.  0.
         12    1    3    3    0    0  0.19183043618E+02 -0.14677973930E+02 -0.27791145893E+02  0.36820916219E+02  0.00000000000E+00 0. -1.
         11    1    4    4    0    0 -0.14450261713E+02  0.42625327881E+01 -0.17293615146E+01  0.15164759835E+02  0.51100000000E-03 0. -1.
        -11    1    4    4    0    0  0.92493797058E+00  0.27392314012E+01 -0.36683246309E+01  0.46707070961E+01  0.51100000000E-03 0.  1.
        -12    1    4    4    0    0 -0.56577198749E+01  0.76762097410E+01  0.33188832039E+02  0.34531616850E+02  0.00000000000E+00 0.  1.
</event>
<event>
 8    1  0.1254059E-006  0.9118800E+02  0.7816164E-02  0.1184000E+00
        -11   -1    0    0    0    0  0.00000000000E+00  0.00000000000E+00  0.45593999997E+02  0.45594000000E+02  0.51100000000E-03 0. -1.
         11   -1    0    0    0    0 -0.00000000000E+00 -0.00000000000E+00 -0.45593999997E+02  0.45594000000E+02  0.51100000000E-03 0.  1.
         23    2    1    2    0    0 -0.35527136788E-14  0.17763568394E-14  0.35527136788E-14  0.91188000000E+02  0.91188000000E+02 0.  0.
    9900012    2    3    3    0    0 -0.26635743874E+02  0.10501938881E+02  0.23152245055E+02  0.54367081720E+02  0.39999994396E+02 0.  0.
        -12    1    3    3    0    0  0.26635743874E+02 -0.10501938881E+02 -0.23152245055E+02  0.36820918280E+02  0.00000000000E+00 0.  1.
         11    1    4    4    0    0 -0.30539151901E+01  0.80089397576E+01 -0.42045031655E+01  0.95471127132E+01  0.51100000000E-03 0. -1.
        -11    1    4    4    0    0 -0.77077414548E+00 -0.22520286371E+01 -0.46541936995E+01  0.52275467496E+01  0.51100000000E-03 0.  1.
         12    1    4    4    0    0 -0.22811054538E+02  0.47450277600E+01  0.32010941920E+02  0.39592422257E+02  0.00000000000E+00 0. -1.
</event>
<event>
 8    1  0.1254059E-006  0.9118800E+02  0.7816164E-02  0.1184000E+00
        -11   -1    0    0    0    0  0.00000000000E+00  0.00000000000E+00  0.45593999997E+02  0.45594000000E+02  0.51100000000E-03 0.  1.
         11   -1    0    0    0    0 -0.00000000000E+00 -0.00000000000E+00 -0.45593999997E+02  0.45594000000E+02  0.51100000000E-03 0. -1.
         23    2    1    2    0    0 -0.13322676296E-14  0.00000000000E+00 -0.10658141036E-13  0.91188000000E+02  0.91188000000E+02 0.  0.
    9900012    2    3    3    0    0 -0.37820602285E+01  0.19966691346E+02 -0.30705202016E+02  0.54367052514E+02  0.39999927817E+02 0.  0.
        -12    1    3    3    0    0  0.37820602285E+01 -0.19966691346E+02  0.30705202016E+02  0.36820947486E+02  0.00000000000E+00 0.  1.
         11    1    4    4    0    0  0.63603945338E+01  0.22461486775E+02 -0.24170185752E+02  0.33603138042E+02  0.51100000000E-03 0. -1.
        -11    1    4    4    0    0 -0.57278896899E+01 -0.54204925917E+01  0.40962895576E+01  0.88865093618E+01  0.51100000000E-03 0.  1.
        -12    1    4    4    0    0 -0.44145650723E+01  0.29256971629E+01 -0.10631305822E+02  0.11877405110E+02  0.00000000000E+00 0.  1.
</event>
<event>
 8    1  0.1254059E-006  0.9118800E+02  0.7816164E-02  0.1184000E+00
        -11   -1    0    0    0    0  0.00000000000E+00  0.00000000000E+00  0.45593999997E+02  0.45594000000E+02  0.51100000000E-03 0. -1.
         11   -1    0    0    0    0 -0.00000000000E+00 -0.00000000000E+00 -0.45593999997E+02  0.45594000000E+02  0.51100000000E-03 0.  1.
         23    2    1    2    0    0  0.12212453271E-14  0.00000000000E+00  0.00000000000E+00  0.91188000000E+02  0.91188000000E+02 0.  0.
    9900012    2    3    3    0    0  0.36767794596E+00  0.30949027064E+02 -0.19944990264E+02  0.54367080675E+02  0.39999992015E+02 0.  0.
         12    1    3    3    0    0 -0.36767794596E+00 -0.30949027064E+02  0.19944990264E+02  0.36820919325E+02  0.00000000000E+00 0. -1.
         11    1    4    4    0    0 -0.87980415456E+01  0.10298778289E+02 -0.10322102366E+02  0.17029861033E+02  0.51100000000E-03 0.  1.
        -11    1    4    4    0    0  0.18876185227E+02  0.12269927344E+02 -0.96900950328E+01  0.24510394280E+02  0.51100000000E-03 0. -1.
         12    1    4    4    0    0 -0.97104657352E+01  0.83803214309E+01  0.67207134410E-01  0.12826825362E+02  0.00000000000E+00 0. -1.
</event>
<event>
 8    1  0.1254059E-006  0.9118800E+02  0.7816164E-02  0.1184000E+00
        -11   -1    0    0    0    0  0.00000000000E+00  0.00000000000E+00  0.45593999997E+02  0.45594000000E+02  0.51100000000E-03 0.  1.
         11   -1    0    0    0    0 -0.00000000000E+00 -0.00000000000E+00 -0.45593999997E+02  0.45594000000E+02  0.51100000000E-03 0. -1.
         23    2    1    2    0    0 -0.35527136788E-14  0.00000000000E+00  0.88817841970E-15  0.91188000000E+02  0.91188000000E+02 0.  0.
    9900012    2    3    3    0    0 -0.28384603266E+02 -0.22095969535E+02  0.78653584652E+01  0.54367062532E+02  0.39999950653E+02 0.  0.
         12    1    3    3    0    0  0.28384603266E+02  0.22095969535E+02 -0.78653584652E+01  0.36820937468E+02  0.00000000000E+00 0. -1.
         11    1    4    4    0    0 -0.31295866284E+01 -0.57844609796E+01 -0.98798197039E+01  0.11868662053E+02  0.51100000000E-03 0. -1.
        -11    1    4    4    0    0  0.32520102895E+01  0.93294698376E+00 -0.18400903802E+01  0.38512197894E+01  0.51100000000E-03 0.  1.
        -12    1    4    4    0    0 -0.28507026927E+02 -0.17244455539E+02  0.19585268549E+02  0.38647180689E+02  0.00000000000E+00 0.  1.
</event>
<event>
 8    1  0.1254059E-006  0.9118800E+02  0.7816164E-02  0.1184000E+00
        -11   -1    0    0    0    0  0.00000000000E+00  0.00000000000E+00  0.45593999997E+02  0.45594000000E+02  0.51100000000E-03 0.  1.
         11   -1    0    0    0    0 -0.00000000000E+00 -0.00000000000E+00 -0.45593999997E+02  0.45594000000E+02  0.51100000000E-03 0. -1.
         23    2    1    2    0    0 -0.11102230246E-14  0.00000000000E+00  0.55511151231E-15  0.91188000000E+02  0.91188000000E+02 0.  0.
    9900012    2    3    3    0    0  0.19506397849E+01  0.36764713267E+02  0.57309009462E+00  0.54367115037E+02  0.40000070350E+02 0.  0.
        -12    1    3    3    0    0 -0.19506397849E+01 -0.36764713267E+02 -0.57309009462E+00  0.36820884963E+02  0.00000000000E+00 0.  1.
         11    1    4    4    0    0 -0.44557864125E+01  0.96181439731E+01  0.11252895466E+02  0.15459313784E+02  0.51100000000E-03 0. -1.
        -11    1    4    4    0    0  0.98665844074E+01  0.69319175755E+01 -0.13618492484E+02  0.18189675834E+02  0.51100000000E-03 0.  1.
         12    1    4    4    0    0 -0.34601582100E+01  0.20214651718E+02  0.29386871132E+01  0.20718125419E+02  0.00000000000E+00 0. -1.
</event>
<event>
 8    1  0.1254059E-006  0.9118800E+02  0.7816164E-02  0.1184000E+00
        -11   -1    0    0    0    0  0.00000000000E+00  0.00000000000E+00  0.45593999997E+02  0.45594000000E+02  0.51100000000E-03 0.  1.
         11   -1    0    0    0    0 -0.00000000000E+00 -0.00000000000E+00 -0.45593999997E+02  0.45594000000E+02  0.51100000000E-03 0. -1.
         23    2    1    2    0    0  0.17763568394E-14  0.00000000000E+00  0.00000000000E+00  0.91188000000E+02  0.91188000000E+02 0.  0.
    9900012    2    3    3    0    0 -0.15788804890E+02  0.13405882389E+02 -0.30442984747E+02  0.54367090685E+02  0.40000014835E+02 0.  0.
        -12    1    3    3    0    0  0.15788804890E+02 -0.13405882389E+02  0.30442984747E+02  0.36820909315E+02  0.00000000000E+00 0.  1.
         11    1    4    4    0    0 -0.73047750997E+01  0.30199992969E+00 -0.18450584910E+02  0.19846284967E+02  0.51100000000E-03 0. -1.
        -11    1    4    4    0    0  0.61307213399E+01  0.12567308152E+02  0.21845574319E+01  0.14152571136E+02  0.51100000000E-03 0.  1.
         12    1    4    4    0    0 -0.14614751130E+02  0.53657430786E+00 -0.14176957269E+02  0.20368234582E+02  0.00000000000E+00 0. -1.
</event>
<event>
 8    1  0.1254059E-006  0.9118800E+02  0.7816164E-02  0.1184000E+00
        -11   -1    0    0    0    0  0.00000000000E+00  0.00000000000E+00  0.45593999997E+02  0.45594000000E+02  0.51100000000E-03 0.  1.
         11   -1    0    0    0    0 -0.00000000000E+00 -0.00000000000E+00 -0.45593999997E+02  0.45594000000E+02  0.51100000000E-03 0. -1.
         23    2    1    2    0    0  0.00000000000E+00  0.00000000000E+00  0.00000000000E+00  0.91188000000E+02  0.91188000000E+02 0.  0.
    9900012    2    3    3    0    0 -0.98008092341E+01  0.17528042503E+02 -0.30862455357E+02  0.54367091724E+02  0.40000017202E+02 0.  0.
        -12    1    3    3    0    0  0.98008092341E+01 -0.17528042503E+02  0.30862455357E+02  0.36820908276E+02  0.00000000000E+00 0.  1.
         11    1    4    4    0    0  0.48514638500E+01  0.53949216030E+01 -0.19508710049E+02  0.20814217464E+02  0.51100000000E-03 0. -1.
        -11    1    4    4    0    0 -0.99662777384E+01  0.14252593199E+02 -0.18079241114E+02  0.25086292360E+02  0.51100000000E-03 0.  1.
        -12    1    4    4    0    0 -0.46859953457E+01 -0.21194722985E+01  0.67254958069E+01  0.84665818990E+01  0.00000000000E+00 0.  1.
</event>
<event>
 8    1  0.1254059E-006  0.9118800E+02  0.7816164E-02  0.1184000E+00
        -11   -1    0    0    0    0  0.00000000000E+00  0.00000000000E+00  0.45593999997E+02  0.45594000000E+02  0.51100000000E-03 0.  1.
         11   -1    0    0    0    0 -0.00000000000E+00 -0.00000000000E+00 -0.45593999997E+02  0.45594000000E+02  0.51100000000E-03 0. -1.
         23    2    1    2    0    0  0.00000000000E+00  0.00000000000E+00  0.00000000000E+00  0.91188000000E+02  0.91188000000E+02 0.  0.
    9900012    2    3    3    0    0 -0.13617615257E+02  0.31573905898E+02  0.13169222404E+02  0.54367090212E+02  0.40000013755E+02 0.  0.
        -12    1    3    3    0    0  0.13617615257E+02 -0.31573905898E+02 -0.13169222404E+02  0.36820909788E+02  0.00000000000E+00 0.  1.
         11    1    4    4    0    0 -0.12823171379E+02  0.14411322286E+02  0.12551944424E+02  0.23014587621E+02  0.51100000000E-03 0. -1.
        -11    1    4    4    0    0 -0.42306846139E+01  0.54750482177E+01  0.12530169003E+02  0.14313629197E+02  0.51100000000E-03 0.  1.
        -12    1    4    4    0    0  0.34362407362E+01  0.11687535393E+02 -0.11912891024E+02  0.17038873393E+02  0.00000000000E+00 0.  1.
</event>
<event>
 8    1  0.1254059E-006  0.9118800E+02  0.7816164E-02  0.1184000E+00
        -11   -1    0    0    0    0  0.00000000000E+00  0.00000000000E+00  0.45593999997E+02  0.45594000000E+02  0.51100000000E-03 0.  1.
         11   -1    0    0    0    0 -0.00000000000E+00 -0.00000000000E+00 -0.45593999997E+02  0.45594000000E+02  0.51100000000E-03 0. -1.
         23    2    1    2    0    0  0.00000000000E+00  0.44408920985E-15  0.00000000000E+00  0.91188000000E+02  0.91188000000E+02 0.  0.
    9900012    2    3    3    0    0  0.17592434420E+02 -0.28453664421E+01 -0.32220943981E+02  0.54367094389E+02  0.40000023278E+02 0.  0.
        -12    1    3    3    0    0 -0.17592434420E+02  0.28453664421E+01  0.32220943981E+02  0.36820905611E+02  0.00000000000E+00 0.  1.
         11    1    4    4    0    0  0.93086305237E+01  0.62808442469E+01 -0.26340127473E+02  0.28633929563E+02  0.51100000000E-03 0. -1.
        -11    1    4    4    0    0  0.10749192771E+02  0.31405733779E+01 -0.69427208118E+01  0.13176104087E+02  0.51100000000E-03 0.  1.
         12    1    4    4    0    0 -0.24653888755E+01 -0.12266784067E+02  0.10619043036E+01  0.12557060739E+02  0.00000000000E+00 0. -1.
</event>
<event>
 8    1  0.1254059E-006  0.9118800E+02  0.7816164E-02  0.1184000E+00
        -11   -1    0    0    0    0  0.00000000000E+00  0.00000000000E+00  0.45593999997E+02  0.45594000000E+02  0.51100000000E-03 0.  1.
         11   -1    0    0    0    0 -0.00000000000E+00 -0.00000000000E+00 -0.45593999997E+02  0.45594000000E+02  0.51100000000E-03 0. -1.
         23    2    1    2    0    0 -0.35527136788E-14 -0.17763568394E-14  0.35527136788E-14  0.91188000000E+02  0.91188000000E+02 0.  0.
    9900012    2    3    3    0    0 -0.30996433837E+02 -0.93503929904E+01 -0.17537732774E+02  0.54367070754E+02  0.39999969398E+02 0.  0.
        -12    1    3    3    0    0  0.30996433837E+02  0.93503929904E+01  0.17537732774E+02  0.36820929246E+02  0.00000000000E+00 0.  1.
         11    1    4    4    0    0 -0.10637450366E+02  0.14903939089E+01 -0.16876464922E+01  0.10873121688E+02  0.51100000000E-03 0. -1.
        -11    1    4    4    0    0 -0.55674962860E+01  0.11079950047E+02  0.48774888768E+00  0.12409681994E+02  0.51100000000E-03 0.  1.
        -12    1    4    4    0    0 -0.14791487185E+02 -0.21920736947E+02 -0.16337835169E+02  0.31084267073E+02  0.00000000000E+00 0.  1.
</event>
<event>
 8    1  0.1254059E-006  0.9118800E+02  0.7816164E-02  0.1184000E+00
        -11   -1    0    0    0    0  0.00000000000E+00  0.00000000000E+00  0.45593999997E+02  0.45594000000E+02  0.51100000000E-03 0. -1.
         11   -1    0    0    0    0 -0.00000000000E+00 -0.00000000000E+00 -0.45593999997E+02  0.45594000000E+02  0.51100000000E-03 0.  1.
         23    2    1    2    0    0 -0.44408920985E-15  0.00000000000E+00  0.00000000000E+00  0.91188000000E+02  0.91188000000E+02 0.  0.
    9900012    2    3    3    0    0 -0.94702516441E+00 -0.10501908949E+02  0.35278804805E+02  0.54367068226E+02  0.39999963635E+02 0.  0.
        -12    1    3    3    0    0  0.94702516441E+00  0.10501908949E+02 -0.35278804805E+02  0.36820931774E+02  0.00000000000E+00 0.  1.
         11    1    4    4    0    0  0.12382459868E+02 -0.78105204044E+01  0.19876922906E+02  0.24686466046E+02  0.51100000000E-03 0. -1.
        -11    1    4    4    0    0 -0.10888882136E+02 -0.11345898232E+02  0.12919562542E+02  0.20352205222E+02  0.51100000000E-03 0.  1.
         12    1    4    4    0    0 -0.24406028958E+01  0.86545096871E+01  0.24823193566E+01  0.93283969581E+01  0.00000000000E+00 0. -1.
</event>
<event>
 8    1  0.1254059E-006  0.9118800E+02  0.7816164E-02  0.1184000E+00
        -11   -1    0    0    0    0  0.00000000000E+00  0.00000000000E+00  0.45593999997E+02  0.45594000000E+02  0.51100000000E-03 0.  1.
         11   -1    0    0    0    0 -0.00000000000E+00 -0.00000000000E+00 -0.45593999997E+02  0.45594000000E+02  0.51100000000E-03 0. -1.
         23    2    1    2    0    0  0.00000000000E+00 -0.35527136788E-14  0.35527136788E-14  0.91188000000E+02  0.91188000000E+02 0.  0.
    9900012    2    3    3    0    0 -0.86638715850E+01  0.27839626003E+02 -0.22487196309E+02  0.54367062415E+02  0.39999950387E+02 0.  0.
        -12    1    3    3    0    0  0.86638715850E+01 -0.27839626003E+02  0.22487196309E+02  0.36820937585E+02  0.00000000000E+00 0.  1.
         11    1    4    4    0    0 -0.15631634095E+02  0.11595202419E+02  0.21003013424E+01  0.19575698445E+02  0.51100000000E-03 0. -1.
        -11    1    4    4    0    0  0.50651101929E+00  0.10762198782E+02 -0.23962999893E+01  0.11037378762E+02  0.51100000000E-03 0.  1.
         12    1    4    4    0    0  0.64612514904E+01  0.54822248024E+01 -0.22191197662E+02  0.23753985208E+02  0.00000000000E+00 0. -1.
</event>
<event>
 8    1  0.1254059E-006  0.9118800E+02  0.7816164E-02  0.1184000E+00
        -11   -1    0    0    0    0  0.00000000000E+00  0.00000000000E+00  0.45593999997E+02  0.45594000000E+02  0.51100000000E-03 0. -1.
         11   -1    0    0    0    0 -0.00000000000E+00 -0.00000000000E+00 -0.45593999997E+02  0.45594000000E+02  0.51100000000E-03 0.  1.
         23    2    1    2    0    0  0.00000000000E+00 -0.88817841970E-15  0.00000000000E+00  0.91188000000E+02  0.91188000000E+02 0.  0.
    9900012    2    3    3    0    0 -0.10289734414E+02 -0.60118865588E+01 -0.34839108080E+02  0.54367015954E+02  0.39999844471E+02 0.  0.
         12    1    3    3    0    0  0.10289734414E+02  0.60118865588E+01  0.34839108080E+02  0.36820984046E+02  0.00000000000E+00 0. -1.
         11    1    4    4    0    0 -0.10203446877E+02 -0.11225061633E+00 -0.12375845961E+02  0.16040090146E+02  0.51100000000E-03 0.  1.
        -11    1    4    4    0    0 -0.13445618278E+02 -0.10309842557E+02 -0.13264935019E+02  0.21518271439E+02  0.51100000000E-03 0. -1.
         12    1    4    4    0    0  0.13359330742E+02  0.44102066145E+01 -0.91983270999E+01  0.16808654369E+02  0.00000000000E+00 0. -1.
</event>
<event>
 8    1  0.1254059E-006  0.9118800E+02  0.7816164E-02  0.1184000E+00
        -11   -1    0    0    0    0  0.00000000000E+00  0.00000000000E+00  0.45593999997E+02  0.45594000000E+02  0.51100000000E-03 0.  1.
         11   -1    0    0    0    0 -0.00000000000E+00 -0.00000000000E+00 -0.45593999997E+02  0.45594000000E+02  0.51100000000E-03 0. -1.
         23    2    1    2    0    0  0.22204460493E-15  0.00000000000E+00  0.00000000000E+00  0.91188000000E+02  0.91188000000E+02 0.  0.
    9900012    2    3    3    0    0  0.15419531851E+01 -0.23461694982E+02 -0.28336558456E+02  0.54366955797E+02  0.39999707330E+02 0.  0.
        -12    1    3    3    0    0 -0.15419531851E+01  0.23461694982E+02  0.28336558456E+02  0.36821044203E+02  0.00000000000E+00 0.  1.
         11    1    4    4    0    0 -0.10640869067E+02 -0.11519102798E+02 -0.18871590856E+01  0.15794910365E+02  0.51100000000E-03 0. -1.
        -11    1    4    4    0    0  0.96732486368E+01 -0.91542042036E+01 -0.30360200519E+02  0.33152872720E+02  0.51100000000E-03 0.  1.
        -12    1    4    4    0    0  0.25095736151E+01 -0.27883879806E+01  0.39108011483E+01  0.54191727119E+01  0.00000000000E+00 0.  1.
</event>
<event>
 8    1  0.1254059E-006  0.9118800E+02  0.7816164E-02  0.1184000E+00
        -11   -1    0    0    0    0  0.00000000000E+00  0.00000000000E+00  0.45593999997E+02  0.45594000000E+02  0.51100000000E-03 0. -1.
         11   -1    0    0    0    0 -0.00000000000E+00 -0.00000000000E+00 -0.45593999997E+02  0.45594000000E+02  0.51100000000E-03 0.  1.
         23    2    1    2    0    0  0.55511151231E-16  0.71054273576E-14 -0.35527136788E-14  0.91188000000E+02  0.91188000000E+02 0.  0.
    9900012    2    3    3    0    0  0.24169465034E+00  0.25984065967E+02 -0.26087335873E+02  0.54367092985E+02  0.40000020077E+02 0.  0.
         12    1    3    3    0    0 -0.24169465034E+00 -0.25984065967E+02  0.26087335873E+02  0.36820907015E+02  0.00000000000E+00 0. -1.
         11    1    4    4    0    0 -0.69300331450E+00 -0.82339059277E+01  0.25944286119E+01  0.86607459554E+01  0.51100000000E-03 0. -1.
        -11    1    4    4    0    0 -0.12059089847E+01  0.16334540663E+02 -0.78346140085E+01  0.18156338069E+02  0.51100000000E-03 0.  1.
         12    1    4    4    0    0  0.21406069495E+01  0.17883431231E+02 -0.20847150477E+02  0.27550008960E+02  0.00000000000E+00 0. -1.
</event>
<event>
 8    1  0.1254059E-006  0.9118800E+02  0.7816164E-02  0.1184000E+00
        -11   -1    0    0    0    0  0.00000000000E+00  0.00000000000E+00  0.45593999997E+02  0.45594000000E+02  0.51100000000E-03 0. -1.
         11   -1    0    0    0    0 -0.00000000000E+00 -0.00000000000E+00 -0.45593999997E+02  0.45594000000E+02  0.51100000000E-03 0.  1.
         23    2    1    2    0    0  0.17763568394E-14  0.00000000000E+00  0.71054273576E-14  0.91188000000E+02  0.91188000000E+02 0.  0.
    9900012    2    3    3    0    0 -0.11527435857E+02 -0.24673042491E+02 -0.24781818537E+02  0.54367091087E+02  0.40000015750E+02 0.  0.
         12    1    3    3    0    0  0.11527435857E+02  0.24673042491E+02  0.24781818537E+02  0.36820908913E+02  0.00000000000E+00 0. -1.
         11    1    4    4    0    0 -0.23671461563E+01 -0.23771977902E+01 -0.13512589752E+02  0.13922806195E+02  0.51100000000E-03 0. -1.
        -11    1    4    4    0    0 -0.92305510942E+01 -0.26789669027E+02 -0.25218911715E-01  0.28335315003E+02  0.51100000000E-03 0.  1.
         12    1    4    4    0    0  0.70261393679E-01  0.44938243264E+01 -0.11244009873E+02  0.12108969889E+02  0.00000000000E+00 0. -1.
</event>
<event>
 8    1  0.1254059E-006  0.9118800E+02  0.7816164E-02  0.1184000E+00
        -11   -1    0    0    0    0  0.00000000000E+00  0.00000000000E+00  0.45593999997E+02  0.45594000000E+02  0.51100000000E-03 0.  1.
         11   -1    0    0    0    0 -0.00000000000E+00 -0.00000000000E+00 -0.45593999997E+02  0.45594000000E+02  0.51100000000E-03 0. -1.
         23    2    1    2    0    0  0.88817841970E-15  0.00000000000E+00  0.00000000000E+00  0.91188000000E+02  0.91188000000E+02 0.  0.
    9900012    2    3    3    0    0 -0.12532647022E+01 -0.42966064572E+01  0.36547955488E+02  0.54367020249E+02  0.39999854261E+02 0.  0.
         12    1    3    3    0    0  0.12532647022E+01  0.42966064572E+01 -0.36547955488E+02  0.36820979751E+02  0.00000000000E+00 0. -1.
         11    1    4    4    0    0  0.79685092258E+01 -0.67516092805E+00  0.22138034628E+01  0.82978254738E+01  0.51100000000E-03 0. -1.
        -11    1    4    4    0    0  0.76017972707E+01  0.72799764737E+01  0.13994811478E+02  0.17511142960E+02  0.51100000000E-03 0.  1.
        -12    1    4    4    0    0 -0.16823571199E+02 -0.10901422003E+02  0.20339340548E+02  0.28558051815E+02  0.00000000000E+00 0.  1.
</event>
<event>
 8    1  0.1254059E-006  0.9118800E+02  0.7816164E-02  0.1184000E+00
        -11   -1    0    0    0    0  0.00000000000E+00  0.00000000000E+00  0.45593999997E+02  0.45594000000E+02  0.51100000000E-03 0. -1.
         11   -1    0    0    0    0 -0.00000000000E+00 -0.00000000000E+00 -0.45593999997E+02  0.45594000000E+02  0.51100000000E-03 0.  1.
         23    2    1    2    0    0  0.00000000000E+00  0.44408920985E-15  0.00000000000E+00  0.91188000000E+02  0.91188000000E+02 0.  0.
    9900012    2    3    3    0    0 -0.64396885748E+01  0.71496464145E+00  0.36246372052E+02  0.54367078633E+02  0.39999987360E+02 0.  0.
        -12    1    3    3    0    0  0.64396885748E+01 -0.71496464145E+00 -0.36246372052E+02  0.36820921367E+02  0.00000000000E+00 0.  1.
         11    1    4    4    0    0 -0.19383792847E+01  0.60973567608E+01 -0.30194453891E+01  0.70747526062E+01  0.51100000000E-03 0.  1.
        -11    1    4    4    0    0  0.90423080757E+01 -0.63885415628E+00  0.26773095253E+02  0.28266059146E+02  0.51100000000E-03 0. -1.
         12    1    4    4    0    0 -0.13543617366E+02 -0.47435379631E+01  0.12492722188E+02  0.19026266881E+02  0.00000000000E+00 0. -1.
</event>
<event>
 8    1  0.1254059E-006  0.9118800E+02  0.7816164E-02  0.1184000E+00
        -11   -1    0    0    0    0  0.00000000000E+00  0.00000000000E+00  0.45593999997E+02  0.45594000000E+02  0.51100000000E-03 0.  1.
         11   -1    0    0    0    0 -0.00000000000E+00 -0.00000000000E+00 -0.45593999997E+02  0.45594000000E+02  0.51100000000E-03 0. -1.
         23    2    1    2    0    0  0.71054273576E-14 -0.22204460493E-15  0.00000000000E+00  0.91188000000E+02  0.91188000000E+02 0.  0.
    9900012    2    3    3    0    0 -0.32384717090E+02  0.11052456430E+01 -0.17486780393E+02  0.54367096189E+02  0.40000027382E+02 0.  0.
        -12    1    3    3    0    0  0.32384717090E+02 -0.11052456430E+01  0.17486780393E+02  0.36820903811E+02  0.00000000000E+00 0.  1.
         11    1    4    4    0    0 -0.36520144994E+02 -0.39658208066E+01 -0.13310338169E+02  0.39071905859E+02  0.51100000000E-03 0. -1.
        -11    1    4    4    0    0  0.58955653449E+00  0.65073576319E+01  0.29791192702E+01  0.71811163578E+01  0.51100000000E-03 0.  1.
         12    1    4    4    0    0  0.35458713688E+01 -0.14362911824E+01 -0.71555614946E+01  0.81140739723E+01  0.00000000000E+00 0. -1.
</event>
<event>
 8    1  0.1254059E-006  0.9118800E+02  0.7816164E-02  0.1184000E+00
        -11   -1    0    0    0    0  0.00000000000E+00  0.00000000000E+00  0.45593999997E+02  0.45594000000E+02  0.51100000000E-03 0.  1.
         11   -1    0    0    0    0 -0.00000000000E+00 -0.00000000000E+00 -0.45593999997E+02  0.45594000000E+02  0.51100000000E-03 0. -1.
         23    2    1    2    0    0  0.00000000000E+00  0.44408920985E-15 -0.35527136788E-14  0.91188000000E+02  0.91188000000E+02 0.  0.
    9900012    2    3    3    0    0  0.23184792118E+02 -0.33483956972E+01 -0.28408197188E+02  0.54367190574E+02  0.40000242550E+02 0.  0.
        -12    1    3    3    0    0 -0.23184792118E+02  0.33483956972E+01  0.28408197188E+02  0.36820809426E+02  0.00000000000E+00 0.  1.
         11    1    4    4    0    0  0.53562625536E+01  0.87574998499E+01 -0.24697980441E+02  0.26746468744E+02  0.51100000000E-03 0. -1.
        -11    1    4    4    0    0  0.92978299449E+01 -0.14763070209E+02  0.10842983734E+01  0.17480663228E+02  0.51100000000E-03 0.  1.
        -12    1    4    4    0    0  0.85306996200E+01  0.26571746619E+01 -0.47945151206E+01  0.10140058601E+02  0.00000000000E+00 0.  1.
</event>
<event>
 8    1  0.1254059E-006  0.9118800E+02  0.7816164E-02  0.1184000E+00
        -11   -1    0    0    0    0  0.00000000000E+00  0.00000000000E+00  0.45593999997E+02  0.45594000000E+02  0.51100000000E-03 0. -1.
         11   -1    0    0    0    0 -0.00000000000E+00 -0.00000000000E+00 -0.45593999997E+02  0.45594000000E+02  0.51100000000E-03 0.  1.
         23    2    1    2    0    0  0.71054273576E-14 -0.17763568394E-14 -0.66613381478E-15  0.91188000000E+02  0.91188000000E+02 0.  0.
    9900012    2    3    3    0    0 -0.35427214706E+02 -0.10014984951E+02 -0.61349759090E+00  0.54367301410E+02  0.40000495221E+02 0.  0.
         12    1    3    3    0    0  0.35427214706E+02  0.10014984951E+02  0.61349759090E+00  0.36820698590E+02  0.00000000000E+00 0. -1.
         11    1    4    4    0    0  0.19245090299E+01 -0.42621379028E+00  0.81546751268E+01  0.83895244136E+01  0.51100000000E-03 0. -1.
        -11    1    4    4    0    0 -0.10112479716E+01  0.36168430902E+01  0.37786855996E+01  0.53275361586E+01  0.51100000000E-03 0.  1.
        -12    1    4    4    0    0 -0.36340475764E+02 -0.13205614251E+02 -0.12546858317E+02  0.40650240837E+02  0.00000000000E+00 0.  1.
</event>
<event>
 8    1  0.1254059E-006  0.9118800E+02  0.7816164E-02  0.1184000E+00
        -11   -1    0    0    0    0  0.00000000000E+00  0.00000000000E+00  0.45593999997E+02  0.45594000000E+02  0.51100000000E-03 0.  1.
         11   -1    0    0    0    0 -0.00000000000E+00 -0.00000000000E+00 -0.45593999997E+02  0.45594000000E+02  0.51100000000E-03 0. -1.
         23    2    1    2    0    0  0.00000000000E+00 -0.35527136788E-14  0.00000000000E+00  0.91188000000E+02  0.91188000000E+02 0.  0.
    9900012    2    3    3    0    0 -0.17601706461E+02  0.28611078978E+02 -0.15078554614E+02  0.54367126574E+02  0.40000096650E+02 0.  0.
        -12    1    3    3    0    0  0.17601706461E+02 -0.28611078978E+02  0.15078554614E+02  0.36820873426E+02  0.00000000000E+00 0.  1.
         11    1    4    4    0    0  0.27930429243E+01  0.19034107961E+02 -0.85491792581E+01  0.21052002776E+02  0.51100000000E-03 0. -1.
        -11    1    4    4    0    0 -0.36535802524E+01 -0.70560200978E+01  0.20479416093E+01  0.82054940971E+01  0.51100000000E-03 0.  1.
         12    1    4    4    0    0 -0.16741169132E+02  0.16632991115E+02 -0.85773169653E+01  0.25109629700E+02  0.00000000000E+00 0. -1.
</event>
<event>
 8    1  0.1254059E-006  0.9118800E+02  0.7816164E-02  0.1184000E+00
        -11   -1    0    0    0    0  0.00000000000E+00  0.00000000000E+00  0.45593999997E+02  0.45594000000E+02  0.51100000000E-03 0.  1.
         11   -1    0    0    0    0 -0.00000000000E+00 -0.00000000000E+00 -0.45593999997E+02  0.45594000000E+02  0.51100000000E-03 0. -1.
         23    2    1    2    0    0 -0.17763568394E-14  0.00000000000E+00  0.35527136788E-14  0.91188000000E+02  0.91188000000E+02 0.  0.
    9900012    2    3    3    0    0  0.15314322816E+02 -0.21584625323E+02 -0.25599927078E+02  0.54367071168E+02  0.39999970342E+02 0.  0.
        -12    1    3    3    0    0 -0.15314322816E+02  0.21584625323E+02  0.25599927078E+02  0.36820928832E+02  0.00000000000E+00 0.  1.
         11    1    4    4    0    0  0.10628973436E+02 -0.14075249784E+01 -0.27745310263E+02  0.29744889388E+02  0.51100000000E-03 0. -1.
        -11    1    4    4    0    0  0.36091839320E+01 -0.16194317189E+02 -0.41431650870E+01  0.17101109176E+02  0.51100000000E-03 0.  1.
        -12    1    4    4    0    0  0.10761654478E+01 -0.39827831562E+01  0.62885482719E+01  0.75210726036E+01  0.00000000000E+00 0.  1.
</event>
<event>
 8    1  0.1254059E-006  0.9118800E+02  0.7816164E-02  0.1184000E+00
        -11   -1    0    0    0    0  0.00000000000E+00  0.00000000000E+00  0.45593999997E+02  0.45594000000E+02  0.51100000000E-03 0. -1.
         11   -1    0    0    0    0 -0.00000000000E+00 -0.00000000000E+00 -0.45593999997E+02  0.45594000000E+02  0.51100000000E-03 0.  1.
         23    2    1    2    0    0 -0.35527136788E-14  0.00000000000E+00  0.00000000000E+00  0.91188000000E+02  0.91188000000E+02 0.  0.
    9900012    2    3    3    0    0  0.30424904214E+02  0.11289656939E+02 -0.17396792472E+02  0.54367088298E+02  0.40000009393E+02 0.  0.
         12    1    3    3    0    0 -0.30424904214E+02 -0.11289656939E+02  0.17396792472E+02  0.36820911702E+02  0.00000000000E+00 0. -1.
         11    1    4    4    0    0  0.49944164394E+01  0.16358820640E+02 -0.49165139980E+01  0.17796834506E+02  0.51100000000E-03 0. -1.
        -11    1    4    4    0    0  0.61238114202E+01  0.75838660537E+01 -0.89216528457E+01  0.13214082654E+02  0.51100000000E-03 0.  1.
         12    1    4    4    0    0  0.19306676355E+02 -0.12653029755E+02 -0.35586256280E+01  0.23356171138E+02  0.00000000000E+00 0. -1.
</event>
<event>
 8    1  0.1254059E-006  0.9118800E+02  0.7816164E-02  0.1184000E+00
        -11   -1    0    0    0    0  0.00000000000E+00  0.00000000000E+00  0.45593999997E+02  0.45594000000E+02  0.51100000000E-03 0. -1.
         11   -1    0    0    0    0 -0.00000000000E+00 -0.00000000000E+00 -0.45593999997E+02  0.45594000000E+02  0.51100000000E-03 0.  1.
         23    2    1    2    0    0 -0.88817841970E-15  0.00000000000E+00  0.00000000000E+00  0.91188000000E+02  0.91188000000E+02 0.  0.
    9900012    2    3    3    0    0 -0.16952816183E+01  0.28120385630E+02 -0.23709677185E+02  0.54367097512E+02  0.40000030399E+02 0.  0.
         12    1    3    3    0    0  0.16952816183E+01 -0.28120385630E+02  0.23709677185E+02  0.36820902488E+02  0.00000000000E+00 0. -1.
         11    1    4    4    0    0  0.60203847732E+01 -0.68632272501E+01 -0.49297841899E+01  0.10375533409E+02  0.51100000000E-03 0. -1.
        -11    1    4    4    0    0  0.33156141095E+01  0.19835748286E+01 -0.55582849170E+01  0.67692242912E+01  0.51100000000E-03 0.  1.
        -12    1    4    4    0    0 -0.11031280501E+02  0.33000038052E+02 -0.13221608078E+02  0.37222339812E+02  0.00000000000E+00 0.  1.
</event>
<event>
 8    1  0.1254059E-006  0.9118800E+02  0.7816164E-02  0.1184000E+00
        -11   -1    0    0    0    0  0.00000000000E+00  0.00000000000E+00  0.45593999997E+02  0.45594000000E+02  0.51100000000E-03 0.  1.
         11   -1    0    0    0    0 -0.00000000000E+00 -0.00000000000E+00 -0.45593999997E+02  0.45594000000E+02  0.51100000000E-03 0. -1.
         23    2    1    2    0    0  0.00000000000E+00  0.00000000000E+00  0.17763568394E-14  0.91188000000E+02  0.91188000000E+02 0.  0.
    9900012    2    3    3    0    0  0.76716683436E+01 -0.32377024478E+02 -0.15769216495E+02  0.54366886517E+02  0.39999549391E+02 0.  0.
         12    1    3    3    0    0 -0.76716683436E+01  0.32377024478E+02  0.15769216495E+02  0.36821113483E+02  0.00000000000E+00 0. -1.
         11    1    4    4    0    0  0.16327478220E+01 -0.73582384561E+01  0.96862460668E+01  0.12273259622E+02  0.51100000000E-03 0. -1.
        -11    1    4    4    0    0  0.29033676439E+01 -0.97885614114E+01  0.21277053318E+01  0.10429410742E+02  0.51100000000E-03 0.  1.
         12    1    4    4    0    0  0.31355528778E+01 -0.15230224611E+02 -0.27583167894E+02  0.31664216153E+02  0.00000000000E+00 0. -1.
</event>
<event>
 8    1  0.1254059E-006  0.9118800E+02  0.7816164E-02  0.1184000E+00
        -11   -1    0    0    0    0  0.00000000000E+00  0.00000000000E+00  0.45593999997E+02  0.45594000000E+02  0.51100000000E-03 0.  1.
         11   -1    0    0    0    0 -0.00000000000E+00 -0.00000000000E+00 -0.45593999997E+02  0.45594000000E+02  0.51100000000E-03 0. -1.
         23    2    1    2    0    0  0.00000000000E+00 -0.71054273576E-14  0.00000000000E+00  0.91188000000E+02  0.91188000000E+02 0.  0.
    9900012    2    3    3    0    0  0.16744621611E+02  0.29404034450E+02 -0.14518958827E+02  0.54367085288E+02  0.40000002530E+02 0.  0.
        -12    1    3    3    0    0 -0.16744621611E+02 -0.29404034450E+02  0.14518958827E+02  0.36820914712E+02  0.00000000000E+00 0.  1.
         11    1    4    4    0    0 -0.74603768406E+01  0.39943073517E+01 -0.51447239364E+01  0.99035295964E+01  0.51100000000E-03 0.  1.
        -11    1    4    4    0    0  0.21584610945E+02  0.25768908036E+02  0.11280122685E+01  0.33633383162E+02  0.51100000000E-03 0. -1.
         12    1    4    4    0    0  0.26203875058E+01 -0.35918093679E+00 -0.10502247159E+02  0.10830172529E+02  0.00000000000E+00 0. -1.
</event>
<event>
 8    1  0.1254059E-006  0.9118800E+02  0.7816164E-02  0.1184000E+00
        -11   -1    0    0    0    0  0.00000000000E+00  0.00000000000E+00  0.45593999997E+02  0.45594000000E+02  0.51100000000E-03 0.  1.
         11   -1    0    0    0    0 -0.00000000000E+00 -0.00000000000E+00 -0.45593999997E+02  0.45594000000E+02  0.51100000000E-03 0. -1.
         23    2    1    2    0    0 -0.88817841970E-15  0.00000000000E+00 -0.17763568394E-14  0.91188000000E+02  0.91188000000E+02 0.  0.
    9900012    2    3    3    0    0  0.72078289910E+01 -0.32911141379E+02  0.14855502269E+02  0.54367055236E+02  0.39999934022E+02 0.  0.
        -12    1    3    3    0    0 -0.72078289910E+01  0.32911141379E+02 -0.14855502269E+02  0.36820944764E+02  0.00000000000E+00 0.  1.
         11    1    4    4    0    0  0.34965213749E+01 -0.26872448756E+02  0.13423161773E+02  0.30241286946E+02  0.51100000000E-03 0. -1.
        -11    1    4    4    0    0  0.11950653477E+02  0.23700458584E+01 -0.50980363551E+00  0.12194061502E+02  0.51100000000E-03 0.  1.
        -12    1    4    4    0    0 -0.82393458609E+01 -0.84087384815E+01  0.19421441312E+01  0.11931706789E+02  0.00000000000E+00 0.  1.
</event>
<event>
 8    1  0.1254059E-006  0.9118800E+02  0.7816164E-02  0.1184000E+00
        -11   -1    0    0    0    0  0.00000000000E+00  0.00000000000E+00  0.45593999997E+02  0.45594000000E+02  0.51100000000E-03 0.  1.
         11   -1    0    0    0    0 -0.00000000000E+00 -0.00000000000E+00 -0.45593999997E+02  0.45594000000E+02  0.51100000000E-03 0. -1.
         23    2    1    2    0    0 -0.10658141036E-13  0.15543122345E-14  0.00000000000E+00  0.91188000000E+02  0.91188000000E+02 0.  0.
    9900012    2    3    3    0    0 -0.29921576434E+02 -0.17285241852E+01 -0.21389046317E+02  0.54367084280E+02  0.40000000232E+02 0.  0.
        -12    1    3    3    0    0  0.29921576434E+02  0.17285241852E+01  0.21389046317E+02  0.36820915720E+02  0.00000000000E+00 0.  1.
         11    1    4    4    0    0 -0.20907156188E+02  0.80684378233E+01 -0.22063224371E+02  0.31448286736E+02  0.51100000000E-03 0. -1.
        -11    1    4    4    0    0  0.16711662857E+01 -0.11129558416E+02 -0.28117697423E+01  0.11600255024E+02  0.51100000000E-03 0.  1.
        -12    1    4    4    0    0 -0.10685586532E+02  0.13325964070E+01  0.34859477961E+01  0.11318542519E+02  0.00000000000E+00 0.  1.
</event>
<event>
 8    1  0.1254059E-006  0.9118800E+02  0.7816164E-02  0.1184000E+00
        -11   -1    0    0    0    0  0.00000000000E+00  0.00000000000E+00  0.45593999997E+02  0.45594000000E+02  0.51100000000E-03 0. -1.
         11   -1    0    0    0    0 -0.00000000000E+00 -0.00000000000E+00 -0.45593999997E+02  0.45594000000E+02  0.51100000000E-03 0.  1.
         23    2    1    2    0    0  0.88817841970E-15  0.35527136788E-14  0.35527136788E-14  0.91188000000E+02  0.91188000000E+02 0.  0.
    9900012    2    3    3    0    0 -0.49421353885E+01 -0.23831168316E+02 -0.27630293863E+02  0.54367049109E+02  0.39999920055E+02 0.  0.
         12    1    3    3    0    0  0.49421353885E+01  0.23831168316E+02  0.27630293863E+02  0.36820950891E+02  0.00000000000E+00 0. -1.
         11    1    4    4    0    0 -0.11050226866E+02  0.18375035810E+00 -0.20661608375E+01  0.11243233470E+02  0.51100000000E-03 0. -1.
        -11    1    4    4    0    0 -0.77779898704E+01 -0.94249683235E+01 -0.17684160299E+02  0.21495503717E+02  0.51100000000E-03 0.  1.
         12    1    4    4    0    0  0.13886081348E+02 -0.14589950351E+02 -0.78799727268E+01  0.21628311922E+02  0.00000000000E+00 0. -1.
</event>
<event>
 8    1  0.1254059E-006  0.9118800E+02  0.7816164E-02  0.1184000E+00
        -11   -1    0    0    0    0  0.00000000000E+00  0.00000000000E+00  0.45593999997E+02  0.45594000000E+02  0.51100000000E-03 0. -1.
         11   -1    0    0    0    0 -0.00000000000E+00 -0.00000000000E+00 -0.45593999997E+02  0.45594000000E+02  0.51100000000E-03 0.  1.
         23    2    1    2    0    0  0.00000000000E+00 -0.35527136788E-14  0.35527136788E-14  0.91188000000E+02  0.91188000000E+02 0.  0.
    9900012    2    3    3    0    0 -0.19816412585E+02  0.18989578237E+02 -0.24545590491E+02  0.54367077932E+02  0.39999985762E+02 0.  0.
         12    1    3    3    0    0  0.19816412585E+02 -0.18989578237E+02  0.24545590491E+02  0.36820922068E+02  0.00000000000E+00 0. -1.
         11    1    4    4    0    0 -0.50367813528E+00  0.15031393176E+02  0.83389465269E+00  0.15062929763E+02  0.51100000000E-03 0. -1.
        -11    1    4    4    0    0 -0.76002146207E+01 -0.89470719085E+01 -0.14897217848E+02  0.18966825192E+02  0.51100000000E-03 0.  1.
        -12    1    4    4    0    0 -0.11712519829E+02  0.12905256970E+02 -0.10482267296E+02  0.20337322977E+02  0.00000000000E+00 0.  1.
</event>
<event>
 8    1  0.1254059E-006  0.9118800E+02  0.7816164E-02  0.1184000E+00
        -11   -1    0    0    0    0  0.00000000000E+00  0.00000000000E+00  0.45593999997E+02  0.45594000000E+02  0.51100000000E-03 0.  1.
         11   -1    0    0    0    0 -0.00000000000E+00 -0.00000000000E+00 -0.45593999997E+02  0.45594000000E+02  0.51100000000E-03 0. -1.
         23    2    1    2    0    0  0.00000000000E+00  0.00000000000E+00  0.00000000000E+00  0.91188000000E+02  0.91188000000E+02 0.  0.
    9900012    2    3    3    0    0  0.27238486123E+01  0.30017777662E+02 -0.21149314458E+02  0.54367084353E+02  0.40000000400E+02 0.  0.
        -12    1    3    3    0    0 -0.27238486123E+01 -0.30017777662E+02  0.21149314458E+02  0.36820915647E+02  0.00000000000E+00 0.  1.
         11    1    4    4    0    0 -0.11355475718E+02  0.27460724024E+02 -0.10199169556E+02  0.31417530976E+02  0.51100000000E-03 0. -1.
        -11    1    4    4    0    0  0.66218382085E+01 -0.12516832746E+01  0.24310793563E+01  0.71641886755E+01  0.51100000000E-03 0.  1.
         12    1    4    4    0    0  0.74574861220E+01  0.38087369121E+01 -0.13381224259E+02  0.15785364702E+02  0.00000000000E+00 0. -1.
</event>
<event>
 8    1  0.1254059E-006  0.9118800E+02  0.7816164E-02  0.1184000E+00
        -11   -1    0    0    0    0  0.00000000000E+00  0.00000000000E+00  0.45593999997E+02  0.45594000000E+02  0.51100000000E-03 0. -1.
         11   -1    0    0    0    0 -0.00000000000E+00 -0.00000000000E+00 -0.45593999997E+02  0.45594000000E+02  0.51100000000E-03 0.  1.
         23    2    1    2    0    0 -0.35527136788E-14 -0.35527136788E-14 -0.35527136788E-14  0.91188000000E+02  0.91188000000E+02 0.  0.
    9900012    2    3    3    0    0 -0.19551445934E+02 -0.23936647731E+02 -0.20013930765E+02  0.54367087907E+02  0.40000008502E+02 0.  0.
         12    1    3    3    0    0  0.19551445934E+02  0.23936647731E+02  0.20013930765E+02  0.36820912093E+02  0.00000000000E+00 0. -1.
         11    1    4    4    0    0 -0.92637698064E+01  0.78080763836E+01 -0.10421195108E+02  0.15980763297E+02  0.51100000000E-03 0. -1.
        -11    1    4    4    0    0 -0.11708036286E+02 -0.10130208727E+02 -0.33050258417E+01  0.15831059302E+02  0.51100000000E-03 0.  1.
         12    1    4    4    0    0  0.14203601585E+01 -0.21614515387E+02 -0.62877098156E+01  0.22555265308E+02  0.00000000000E+00 0. -1.
</event>
<event>
 8    1  0.1254059E-006  0.9118800E+02  0.7816164E-02  0.1184000E+00
        -11   -1    0    0    0    0  0.00000000000E+00  0.00000000000E+00  0.45593999997E+02  0.45594000000E+02  0.51100000000E-03 0. -1.
         11   -1    0    0    0    0 -0.00000000000E+00 -0.00000000000E+00 -0.45593999997E+02  0.45594000000E+02  0.51100000000E-03 0.  1.
         23    2    1    2    0    0  0.17763568394E-14  0.00000000000E+00  0.00000000000E+00  0.91188000000E+02  0.91188000000E+02 0.  0.
    9900012    2    3    3    0    0 -0.14188190303E+02 -0.20116866371E+02  0.27382243240E+02  0.54367077938E+02  0.39999985775E+02 0.  0.
        -12    1    3    3    0    0  0.14188190303E+02  0.20116866371E+02 -0.27382243240E+02  0.36820922062E+02  0.00000000000E+00 0.  1.
         11    1    4    4    0    0  0.11404308076E+02 -0.10701818710E+02  0.67515072224E+01  0.17034377489E+02  0.51100000000E-03 0.  1.
        -11    1    4    4    0    0 -0.17790114329E+02 -0.13452415505E+02  0.15474980672E+02  0.27146467133E+02  0.51100000000E-03 0. -1.
         12    1    4    4    0    0 -0.78023840502E+01  0.40373678438E+01  0.51557553457E+01  0.10186233315E+02  0.00000000000E+00 0. -1.
</event>
<event>
 8    1  0.1254059E-006  0.9118800E+02  0.7816164E-02  0.1184000E+00
        -11   -1    0    0    0    0  0.00000000000E+00  0.00000000000E+00  0.45593999997E+02  0.45594000000E+02  0.51100000000E-03 0.  1.
         11   -1    0    0    0    0 -0.00000000000E+00 -0.00000000000E+00 -0.45593999997E+02  0.45594000000E+02  0.51100000000E-03 0. -1.
         23    2    1    2    0    0  0.00000000000E+00 -0.44408920985E-15  0.00000000000E+00  0.91188000000E+02  0.91188000000E+02 0.  0.
    9900012    2    3    3    0    0  0.28339057456E+02  0.37142476109E+01  0.23213838062E+02  0.54367080805E+02  0.39999992311E+02 0.  0.
        -12    1    3    3    0    0 -0.28339057456E+02 -0.37142476109E+01 -0.23213838062E+02  0.36820919195E+02  0.00000000000E+00 0.  1.
         11    1    4    4    0    0  0.90030191634E+01  0.10085535638E+01  0.15208569200E+02  0.17702319388E+02  0.51100000000E-03 0. -1.
        -11    1    4    4    0    0  0.24519421236E+02  0.18416721557E+01  0.14316135010E+02  0.28452512999E+02  0.51100000000E-03 0.  1.
         12    1    4    4    0    0 -0.51833829431E+01  0.86402189134E+00 -0.63108661470E+01  0.82122484186E+01  0.00000000000E+00 0. -1.
</event>
<event>
 8    1  0.1254059E-006  0.9118800E+02  0.7816164E-02  0.1184000E+00
        -11   -1    0    0    0    0  0.00000000000E+00  0.00000000000E+00  0.45593999997E+02  0.45594000000E+02  0.51100000000E-03 0. -1.
         11   -1    0    0    0    0 -0.00000000000E+00 -0.00000000000E+00 -0.45593999997E+02  0.45594000000E+02  0.51100000000E-03 0.  1.
         23    2    1    2    0    0  0.35527136788E-14  0.00000000000E+00  0.00000000000E+00  0.91188000000E+02  0.91188000000E+02 0.  0.
    9900012    2    3    3    0    0 -0.24469346090E+02 -0.20470377031E+02  0.18384673386E+02  0.54367062351E+02  0.39999950241E+02 0.  0.
        -12    1    3    3    0    0  0.24469346090E+02  0.20470377031E+02 -0.18384673386E+02  0.36820937649E+02  0.00000000000E+00 0.  1.
         11    1    4    4    0    0 -0.30848065087E+02 -0.17959349788E+02  0.75514127275E+01  0.36485136684E+02  0.51100000000E-03 0. -1.
        -11    1    4    4    0    0 -0.83682487317E-02 -0.61278216413E+00  0.11192295329E+02  0.11209060933E+02  0.51100000000E-03 0.  1.
         12    1    4    4    0    0  0.63870872451E+01 -0.18982450789E+01 -0.35903467093E+00  0.66728647335E+01  0.00000000000E+00 0. -1.
</event>
<event>
 8    1  0.1254059E-006  0.9118800E+02  0.7816164E-02  0.1184000E+00
        -11   -1    0    0    0    0  0.00000000000E+00  0.00000000000E+00  0.45593999997E+02  0.45594000000E+02  0.51100000000E-03 0. -1.
         11   -1    0    0    0    0 -0.00000000000E+00 -0.00000000000E+00 -0.45593999997E+02  0.45594000000E+02  0.51100000000E-03 0.  1.
         23    2    1    2    0    0  0.88817841970E-15  0.35527136788E-14  0.00000000000E+00  0.91188000000E+02  0.91188000000E+02 0.  0.
    9900012    2    3    3    0    0 -0.60493190572E+01 -0.11751128057E+02  0.34367071348E+02  0.54367097448E+02  0.40000030252E+02 0.  0.
        -12    1    3    3    0    0  0.60493190572E+01  0.11751128057E+02 -0.34367071348E+02  0.36820902552E+02  0.00000000000E+00 0.  1.
         11    1    4    4    0    0 -0.40913955401E+01 -0.36871465035E+01  0.10574921893E+02  0.11923235304E+02  0.51100000000E-03 0. -1.
        -11    1    4    4    0    0  0.11392712952E+02  0.59831134165E+01  0.18170381296E+02  0.22265540894E+02  0.51100000000E-03 0.  1.
         12    1    4    4    0    0 -0.13350636469E+02 -0.14047094971E+02  0.56217681588E+01  0.20178321250E+02  0.00000000000E+00 0. -1.
</event>
<event>
 8    1  0.1254059E-006  0.9118800E+02  0.7816164E-02  0.1184000E+00
        -11   -1    0    0    0    0  0.00000000000E+00  0.00000000000E+00  0.45593999997E+02  0.45594000000E+02  0.51100000000E-03 0. -1.
         11   -1    0    0    0    0 -0.00000000000E+00 -0.00000000000E+00 -0.45593999997E+02  0.45594000000E+02  0.51100000000E-03 0.  1.
         23    2    1    2    0    0  0.00000000000E+00  0.22204460493E-15  0.00000000000E+00  0.91188000000E+02  0.91188000000E+02 0.  0.
    9900012    2    3    3    0    0 -0.18387880253E+02  0.50185193610E+00 -0.31896938451E+02  0.54367072824E+02  0.39999974116E+02 0.  0.
         12    1    3    3    0    0  0.18387880253E+02 -0.50185193610E+00  0.31896938451E+02  0.36820927176E+02  0.00000000000E+00 0. -1.
         11    1    4    4    0    0  0.79329721843E+01  0.30487517728E+01  0.27010233752E+00  0.85029342337E+01  0.51100000000E-03 0. -1.
        -11    1    4    4    0    0 -0.17475368492E+02 -0.40970983773E+01 -0.32221591557E+02  0.36883677715E+02  0.51100000000E-03 0.  1.
         12    1    4    4    0    0 -0.88454839450E+01  0.15501985406E+01  0.54550768663E-01  0.89804608747E+01  0.00000000000E+00 0. -1.
</event>
<event>
 8    1  0.1254059E-006  0.9118800E+02  0.7816164E-02  0.1184000E+00
        -11   -1    0    0    0    0  0.00000000000E+00  0.00000000000E+00  0.45593999997E+02  0.45594000000E+02  0.51100000000E-03 0.  1.
         11   -1    0    0    0    0 -0.00000000000E+00 -0.00000000000E+00 -0.45593999997E+02  0.45594000000E+02  0.51100000000E-03 0. -1.
         23    2    1    2    0    0  0.26645352591E-14 -0.35527136788E-14  0.00000000000E+00  0.91188000000E+02  0.91188000000E+02 0.  0.
    9900012    2    3    3    0    0  0.35290320058E+01 -0.18007178573E+02 -0.31922787706E+02  0.54367123829E+02  0.40000090393E+02 0.  0.
        -12    1    3    3    0    0 -0.35290320058E+01  0.18007178573E+02  0.31922787706E+02  0.36820876171E+02  0.00000000000E+00 0.  1.
         11    1    4    4    0    0  0.13374008793E+02 -0.67834528577E+01 -0.35101461994E+01  0.15401313921E+02  0.51100000000E-03 0. -1.
        -11    1    4    4    0    0 -0.14419324414E+02 -0.13821914677E+02 -0.16373220331E+02  0.25827206317E+02  0.51100000000E-03 0.  1.
        -12    1    4    4    0    0  0.45743476258E+01  0.25981889615E+01 -0.12039421176E+02  0.13138603591E+02  0.00000000000E+00 0.  1.
</event>
<event>
 8    1  0.1254059E-006  0.9118800E+02  0.7816164E-02  0.1184000E+00
        -11   -1    0    0    0    0  0.00000000000E+00  0.00000000000E+00  0.45593999997E+02  0.45594000000E+02  0.51100000000E-03 0. -1.
         11   -1    0    0    0    0 -0.00000000000E+00 -0.00000000000E+00 -0.45593999997E+02  0.45594000000E+02  0.51100000000E-03 0.  1.
         23    2    1    2    0    0  0.00000000000E+00 -0.44408920985E-15  0.00000000000E+00  0.91188000000E+02  0.91188000000E+02 0.  0.
    9900012    2    3    3    0    0  0.28799034029E+02  0.17711729795E+01 -0.22874858204E+02  0.54367074528E+02  0.39999978002E+02 0.  0.
         12    1    3    3    0    0 -0.28799034029E+02 -0.17711729795E+01  0.22874858204E+02  0.36820925472E+02  0.00000000000E+00 0. -1.
         11    1    4    4    0    0 -0.18684099638E+01  0.19119663554E+01  0.34728652350E+01  0.43826207158E+01  0.51100000000E-03 0. -1.
        -11    1    4    4    0    0  0.54387559655E+01  0.71582992541E+01 -0.21464289310E+02  0.23270948208E+02  0.51100000000E-03 0.  1.
        -12    1    4    4    0    0  0.25228688027E+02 -0.72990926299E+01 -0.48834341296E+01  0.26713505605E+02  0.00000000000E+00 0.  1.
</event>
<event>
 8    1  0.1254059E-006  0.9118800E+02  0.7816164E-02  0.1184000E+00
        -11   -1    0    0    0    0  0.00000000000E+00  0.00000000000E+00  0.45593999997E+02  0.45594000000E+02  0.51100000000E-03 0. -1.
         11   -1    0    0    0    0 -0.00000000000E+00 -0.00000000000E+00 -0.45593999997E+02  0.45594000000E+02  0.51100000000E-03 0.  1.
         23    2    1    2    0    0 -0.35527136788E-14  0.00000000000E+00 -0.17763568394E-14  0.91188000000E+02  0.91188000000E+02 0.  0.
    9900012    2    3    3    0    0  0.30636905958E+02  0.18579403632E+02 -0.84832462470E+01  0.54367085931E+02  0.40000003998E+02 0.  0.
         12    1    3    3    0    0 -0.30636905958E+02 -0.18579403632E+02  0.84832462470E+01  0.36820914069E+02  0.00000000000E+00 0. -1.
         11    1    4    4    0    0 -0.46831761920E+01  0.50260780300E+00  0.68098813714E+01  0.82800506280E+01  0.51100000000E-03 0. -1.
        -11    1    4    4    0    0  0.12854569934E+01  0.73018361331E+01 -0.49668216386E+01  0.89240421361E+01  0.51100000000E-03 0.  1.
         12    1    4    4    0    0  0.34034625156E+02  0.10774959696E+02 -0.10326305980E+02  0.37162993167E+02  0.00000000000E+00 0. -1.
</event>
<event>
 8    1  0.1254059E-006  0.9118800E+02  0.7816164E-02  0.1184000E+00
        -11   -1    0    0    0    0  0.00000000000E+00  0.00000000000E+00  0.45593999997E+02  0.45594000000E+02  0.51100000000E-03 0.  1.
         11   -1    0    0    0    0 -0.00000000000E+00 -0.00000000000E+00 -0.45593999997E+02  0.45594000000E+02  0.51100000000E-03 0. -1.
         23    2    1    2    0    0 -0.17763568394E-14 -0.35527136788E-14 -0.35527136788E-14  0.91188000000E+02  0.91188000000E+02 0.  0.
    9900012    2    3    3    0    0 -0.14610049844E+02  0.20178460964E+02 -0.27113755426E+02  0.54367087782E+02  0.40000008216E+02 0.  0.
        -12    1    3    3    0    0  0.14610049844E+02 -0.20178460964E+02  0.27113755426E+02  0.36820912218E+02  0.00000000000E+00 0.  1.
         11    1    4    4    0    0  0.20131031433E+01 -0.31493509934E+01 -0.48173357834E+01  0.60973535453E+01  0.51100000000E-03 0. -1.
        -11    1    4    4    0    0 -0.52028896429E+01  0.56125294189E+01  0.81883163554E+01  0.11207991440E+02  0.51100000000E-03 0.  1.
         12    1    4    4    0    0 -0.11420263344E+02  0.17715282538E+02 -0.30484735998E+02  0.37061742797E+02  0.00000000000E+00 0. -1.
</event>
<event>
 8    1  0.1254059E-006  0.9118800E+02  0.7816164E-02  0.1184000E+00
        -11   -1    0    0    0    0  0.00000000000E+00  0.00000000000E+00  0.45593999997E+02  0.45594000000E+02  0.51100000000E-03 0.  1.
         11   -1    0    0    0    0 -0.00000000000E+00 -0.00000000000E+00 -0.45593999997E+02  0.45594000000E+02  0.51100000000E-03 0. -1.
         23    2    1    2    0    0  0.00000000000E+00  0.00000000000E+00  0.17763568394E-14  0.91188000000E+02  0.91188000000E+02 0.  0.
    9900012    2    3    3    0    0 -0.26950820481E+02  0.20961677829E+02  0.13785558610E+02  0.54367078118E+02  0.39999986186E+02 0.  0.
         12    1    3    3    0    0  0.26950820481E+02 -0.20961677829E+02 -0.13785558610E+02  0.36820921882E+02  0.00000000000E+00 0. -1.
         11    1    4    4    0    0 -0.19945334194E+02  0.20367678910E+02  0.20581299208E+01  0.28581368045E+02  0.51100000000E-03 0. -1.
        -11    1    4    4    0    0 -0.26499391053E+01  0.89643479733E+01 -0.15719360205E+01  0.94790661439E+01  0.51100000000E-03 0.  1.
         12    1    4    4    0    0 -0.43555471822E+01 -0.83703490543E+01  0.13299364710E+02  0.16306643929E+02  0.00000000000E+00 0. -1.
</event>
<event>
 8    1  0.1254059E-006  0.9118800E+02  0.7816164E-02  0.1184000E+00
        -11   -1    0    0    0    0  0.00000000000E+00  0.00000000000E+00  0.45593999997E+02  0.45594000000E+02  0.51100000000E-03 0.  1.
         11   -1    0    0    0    0 -0.00000000000E+00 -0.00000000000E+00 -0.45593999997E+02  0.45594000000E+02  0.51100000000E-03 0. -1.
         23    2    1    2    0    0  0.00000000000E+00  0.71054273576E-14 -0.13322676296E-14  0.91188000000E+02  0.91188000000E+02 0.  0.
    9900012    2    3    3    0    0  0.17414101095E+02  0.32231140789E+02  0.36993209621E+01  0.54367050405E+02  0.39999923008E+02 0.  0.
        -12    1    3    3    0    0 -0.17414101095E+02 -0.32231140789E+02 -0.36993209621E+01  0.36820949595E+02  0.00000000000E+00 0.  1.
         11    1    4    4    0    0  0.74720614024E+01  0.30304962792E+02 -0.10311120964E+02  0.32871593926E+02  0.51100000000E-03 0. -1.
        -11    1    4    4    0    0  0.84637357358E+01  0.55671287895E+01  0.42726917587E+01  0.10994709668E+02  0.51100000000E-03 0.  1.
         12    1    4    4    0    0  0.14783039573E+01 -0.36409507928E+01  0.97377501671E+01  0.10500746811E+02  0.00000000000E+00 0. -1.
</event>
<event>
 8    1  0.1254059E-006  0.9118800E+02  0.7816164E-02  0.1184000E+00
        -11   -1    0    0    0    0  0.00000000000E+00  0.00000000000E+00  0.45593999997E+02  0.45594000000E+02  0.51100000000E-03 0.  1.
         11   -1    0    0    0    0 -0.00000000000E+00 -0.00000000000E+00 -0.45593999997E+02  0.45594000000E+02  0.51100000000E-03 0. -1.
         23    2    1    2    0    0 -0.35527136788E-14 -0.88817841970E-15  0.00000000000E+00  0.91188000000E+02  0.91188000000E+02 0.  0.
    9900012    2    3    3    0    0  0.27472031249E+02 -0.28823316212E+01  0.24346528554E+02  0.54367166371E+02  0.40000187375E+02 0.  0.
         12    1    3    3    0    0 -0.27472031249E+02  0.28823316212E+01 -0.24346528554E+02  0.36820833629E+02  0.00000000000E+00 0. -1.
         11    1    4    4    0    0  0.10829194562E+01 -0.12774859726E+02  0.14877130764E+02  0.19639215249E+02  0.51100000000E-03 0. -1.
        -11    1    4    4    0    0  0.12349523997E+02 -0.45124519347E+01  0.21505304826E+01  0.13322828042E+02  0.51100000000E-03 0.  1.
        -12    1    4    4    0    0  0.14039587796E+02  0.14404980039E+02  0.73188673070E+01  0.21405123080E+02  0.00000000000E+00 0.  1.
</event>
<event>
 8    1  0.1254059E-006  0.9118800E+02  0.7816164E-02  0.1184000E+00
        -11   -1    0    0    0    0  0.00000000000E+00  0.00000000000E+00  0.45593999997E+02  0.45594000000E+02  0.51100000000E-03 0.  1.
         11   -1    0    0    0    0 -0.00000000000E+00 -0.00000000000E+00 -0.45593999997E+02  0.45594000000E+02  0.51100000000E-03 0. -1.
         23    2    1    2    0    0 -0.71054273576E-14  0.88817841970E-15 -0.44408920985E-15  0.91188000000E+02  0.91188000000E+02 0.  0.
    9900012    2    3    3    0    0 -0.36133904002E+02 -0.66809262614E+01 -0.23443073771E+01  0.54366952062E+02  0.39999698816E+02 0.  0.
         12    1    3    3    0    0  0.36133904002E+02  0.66809262614E+01  0.23443073771E+01  0.36821047938E+02  0.00000000000E+00 0. -1.
         11    1    4    4    0    0 -0.22805431365E+02  0.93070515160E+01 -0.12176575759E+02  0.27476861268E+02  0.51100000000E-03 0. -1.
        -11    1    4    4    0    0  0.11665073705E+01 -0.86101384394E+01  0.44215648135E+01  0.97491260661E+01  0.51100000000E-03 0.  1.
         12    1    4    4    0    0 -0.14494980008E+02 -0.73778393379E+01  0.54107035681E+01  0.17140964728E+02  0.00000000000E+00 0. -1.
</event>
<event>
 8    1  0.1254059E-006  0.9118800E+02  0.7816164E-02  0.1184000E+00
        -11   -1    0    0    0    0  0.00000000000E+00  0.00000000000E+00  0.45593999997E+02  0.45594000000E+02  0.51100000000E-03 0.  1.
         11   -1    0    0    0    0 -0.00000000000E+00 -0.00000000000E+00 -0.45593999997E+02  0.45594000000E+02  0.51100000000E-03 0. -1.
         23    2    1    2    0    0  0.00000000000E+00 -0.17763568394E-14  0.00000000000E+00  0.91188000000E+02  0.91188000000E+02 0.  0.
    9900012    2    3    3    0    0 -0.13408851702E+02 -0.13488564519E+02  0.31528405215E+02  0.54367095446E+02  0.40000025689E+02 0.  0.
         12    1    3    3    0    0  0.13408851702E+02  0.13488564519E+02 -0.31528405215E+02  0.36820904554E+02  0.00000000000E+00 0. -1.
         11    1    4    4    0    0 -0.24191920224E+02 -0.16654807427E+02  0.26482287857E+02  0.39546721545E+02  0.51100000000E-03 0. -1.
        -11    1    4    4    0    0  0.16498528534E+01 -0.19991483761E+01  0.32792219889E+01  0.41799408825E+01  0.51100000000E-03 0.  1.
         12    1    4    4    0    0  0.91332156693E+01  0.51653912837E+01  0.17668953690E+01  0.10640433018E+02  0.00000000000E+00 0. -1.
</event>
<event>
 8    1  0.1254059E-006  0.9118800E+02  0.7816164E-02  0.1184000E+00
        -11   -1    0    0    0    0  0.00000000000E+00  0.00000000000E+00  0.45593999997E+02  0.45594000000E+02  0.51100000000E-03 0. -1.
         11   -1    0    0    0    0 -0.00000000000E+00 -0.00000000000E+00 -0.45593999997E+02  0.45594000000E+02  0.51100000000E-03 0.  1.
         23    2    1    2    0    0  0.17763568394E-14  0.00000000000E+00  0.00000000000E+00  0.91188000000E+02  0.91188000000E+02 0.  0.
    9900012    2    3    3    0    0 -0.10297518118E+02  0.34348656517E+02  0.83612661906E+01  0.54367083984E+02  0.39999999559E+02 0.  0.
        -12    1    3    3    0    0  0.10297518118E+02 -0.34348656517E+02 -0.83612661906E+01  0.36820916016E+02  0.00000000000E+00 0.  1.
         11    1    4    4    0    0 -0.13223474513E+02  0.28672016946E+01  0.11606724216E+02  0.17826866551E+02  0.51100000000E-03 0. -1.
        -11    1    4    4    0    0  0.63339918696E+00  0.31305610188E+02  0.14144224765E+01  0.31343947023E+02  0.51100000000E-03 0.  1.
        -12    1    4    4    0    0  0.22925572078E+01  0.17584463436E+00 -0.46598805016E+01  0.51962704102E+01  0.00000000000E+00 0.  1.
</event>
<event>
 8    1  0.1254059E-006  0.9118800E+02  0.7816164E-02  0.1184000E+00
        -11   -1    0    0    0    0  0.00000000000E+00  0.00000000000E+00  0.45593999997E+02  0.45594000000E+02  0.51100000000E-03 0.  1.
         11   -1    0    0    0    0 -0.00000000000E+00 -0.00000000000E+00 -0.45593999997E+02  0.45594000000E+02  0.51100000000E-03 0. -1.
         23    2    1    2    0    0  0.22204460493E-14  0.00000000000E+00  0.00000000000E+00  0.91188000000E+02  0.91188000000E+02 0.  0.
    9900012    2    3    3    0    0 -0.21978183048E+01 -0.24043563679E+02 -0.27800325141E+02  0.54367062510E+02  0.39999950605E+02 0.  0.
        -12    1    3    3    0    0  0.21978183048E+01  0.24043563679E+02  0.27800325141E+02  0.36820937490E+02  0.00000000000E+00 0.  1.
         11    1    4    4    0    0 -0.12898394905E+02 -0.11757941307E+02 -0.10780050018E+02  0.20514074523E+02  0.51100000000E-03 0. -1.
        -11    1    4    4    0    0  0.12432658610E+02 -0.42747136609E+01 -0.20973472373E+02  0.24753398163E+02  0.51100000000E-03 0.  1.
        -12    1    4    4    0    0 -0.17320820099E+01 -0.80109087112E+01  0.39531972494E+01  0.90995898237E+01  0.00000000000E+00 0.  1.
</event>
<event>
 8    1  0.1254059E-006  0.9118800E+02  0.7816164E-02  0.1184000E+00
        -11   -1    0    0    0    0  0.00000000000E+00  0.00000000000E+00  0.45593999997E+02  0.45594000000E+02  0.51100000000E-03 0. -1.
         11   -1    0    0    0    0 -0.00000000000E+00 -0.00000000000E+00 -0.45593999997E+02  0.45594000000E+02  0.51100000000E-03 0.  1.
         23    2    1    2    0    0  0.00000000000E+00  0.00000000000E+00  0.00000000000E+00  0.91188000000E+02  0.91188000000E+02 0.  0.
    9900012    2    3    3    0    0  0.18893555634E+02  0.16390073144E+02 -0.27021826008E+02  0.54367081720E+02  0.39999994397E+02 0.  0.
        -12    1    3    3    0    0 -0.18893555634E+02 -0.16390073144E+02  0.27021826008E+02  0.36820918280E+02  0.00000000000E+00 0.  1.
         11    1    4    4    0    0  0.16790641038E+00 -0.30623385719E+00  0.25424507872E+01  0.25663257791E+01  0.51100000000E-03 0. -1.
        -11    1    4    4    0    0  0.15371300310E+02  0.11020404410E+02 -0.37188154788E+02  0.41721517750E+02  0.51100000000E-03 0.  1.
        -12    1    4    4    0    0  0.33543489145E+01  0.56759025911E+01  0.76238779928E+01  0.10079238191E+02  0.00000000000E+00 0.  1.
</event>
<event>
 8    1  0.1254059E-006  0.9118800E+02  0.7816164E-02  0.1184000E+00
        -11   -1    0    0    0    0  0.00000000000E+00  0.00000000000E+00  0.45593999997E+02  0.45594000000E+02  0.51100000000E-03 0.  1.
         11   -1    0    0    0    0 -0.00000000000E+00 -0.00000000000E+00 -0.45593999997E+02  0.45594000000E+02  0.51100000000E-03 0. -1.
         23    2    1    2    0    0  0.00000000000E+00  0.00000000000E+00  0.17763568394E-14  0.91188000000E+02  0.91188000000E+02 0.  0.
    9900012    2    3    3    0    0 -0.34289614836E+02 -0.10037442138E+02  0.89023877842E+01  0.54367076077E+02  0.39999981533E+02 0.  0.
         12    1    3    3    0    0  0.34289614836E+02  0.10037442138E+02 -0.89023877842E+01  0.36820923923E+02  0.00000000000E+00 0. -1.
         11    1    4    4    0    0 -0.25680882167E+02 -0.23195324489E+01  0.12089779073E+02  0.28478951841E+02  0.51100000000E-03 0.  1.
        -11    1    4    4    0    0 -0.10313225961E+02  0.46148598052E+01  0.34048546082E+01  0.11800533713E+02  0.51100000000E-03 0. -1.
        -12    1    4    4    0    0  0.17044932920E+01 -0.12332769495E+02 -0.65922458974E+01  0.14087590524E+02  0.00000000000E+00 0.  1.
</event>
<event>
 8    1  0.1254059E-006  0.9118800E+02  0.7816164E-02  0.1184000E+00
        -11   -1    0    0    0    0  0.00000000000E+00  0.00000000000E+00  0.45593999997E+02  0.45594000000E+02  0.51100000000E-03 0.  1.
         11   -1    0    0    0    0 -0.00000000000E+00 -0.00000000000E+00 -0.45593999997E+02  0.45594000000E+02  0.51100000000E-03 0. -1.
         23    2    1    2    0    0  0.17763568394E-14  0.17763568394E-14  0.00000000000E+00  0.91188000000E+02  0.91188000000E+02 0.  0.
    9900012    2    3    3    0    0 -0.10066358692E+02  0.44237121401E+01 -0.35140858754E+02  0.54367071706E+02  0.39999971569E+02 0.  0.
        -12    1    3    3    0    0  0.10066358692E+02 -0.44237121401E+01  0.35140858754E+02  0.36820928294E+02  0.00000000000E+00 0.  1.
         11    1    4    4    0    0  0.27661691367E+00  0.11904051297E+02 -0.21338290767E+02  0.24435744460E+02  0.51100000000E-03 0. -1.
        -11    1    4    4    0    0 -0.10367134183E+02 -0.10549338481E+02  0.98990138687E+00  0.14823829417E+02  0.51100000000E-03 0.  1.
        -12    1    4    4    0    0  0.24158577797E-01  0.30689993247E+01 -0.14792469374E+02  0.15107497829E+02  0.00000000000E+00 0.  1.
</event>
<event>
 8    1  0.1254059E-006  0.9118800E+02  0.7816164E-02  0.1184000E+00
        -11   -1    0    0    0    0  0.00000000000E+00  0.00000000000E+00  0.45593999997E+02  0.45594000000E+02  0.51100000000E-03 0.  1.
         11   -1    0    0    0    0 -0.00000000000E+00 -0.00000000000E+00 -0.45593999997E+02  0.45594000000E+02  0.51100000000E-03 0. -1.
         23    2    1    2    0    0 -0.17763568394E-14  0.00000000000E+00  0.00000000000E+00  0.91188000000E+02  0.91188000000E+02 0.  0.
    9900012    2    3    3    0    0 -0.33916274554E+01 -0.11069387238E+02  0.34953418066E+02  0.54367137637E+02  0.40000121871E+02 0.  0.
         12    1    3    3    0    0  0.33916274554E+01  0.11069387238E+02 -0.34953418066E+02  0.36820862363E+02  0.00000000000E+00 0. -1.
         11    1    4    4    0    0 -0.11574954265E+02 -0.17851052586E+00  0.51268110983E+01  0.12660790834E+02  0.51100000000E-03 0. -1.
        -11    1    4    4    0    0  0.94598123909E+01  0.32974423673E+01  0.24549206409E+02  0.26514613183E+02  0.51100000000E-03 0.  1.
        -12    1    4    4    0    0 -0.12764855816E+01 -0.14188319080E+02  0.52774005587E+01  0.15191733621E+02  0.00000000000E+00 0.  1.
</event>
<event>
 8    1  0.1254059E-006  0.9118800E+02  0.7816164E-02  0.1184000E+00
        -11   -1    0    0    0    0  0.00000000000E+00  0.00000000000E+00  0.45593999997E+02  0.45594000000E+02  0.51100000000E-03 0.  1.
         11   -1    0    0    0    0 -0.00000000000E+00 -0.00000000000E+00 -0.45593999997E+02  0.45594000000E+02  0.51100000000E-03 0. -1.
         23    2    1    2    0    0  0.00000000000E+00  0.35527136788E-14  0.00000000000E+00  0.91188000000E+02  0.91188000000E+02 0.  0.
    9900012    2    3    3    0    0  0.26332010159E+02  0.25476554074E+02  0.36535816843E+01  0.54367106127E+02  0.40000050037E+02 0.  0.
         12    1    3    3    0    0 -0.26332010159E+02 -0.25476554074E+02 -0.36535816843E+01  0.36820893873E+02  0.00000000000E+00 0. -1.
         11    1    4    4    0    0  0.17037347940E+02  0.23356825681E+02 -0.33679933301E+01  0.29105942865E+02  0.51100000000E-03 0. -1.
        -11    1    4    4    0    0  0.22453686476E+01 -0.89677114881E+01 -0.18234454419E+01  0.94226579710E+01  0.51100000000E-03 0.  1.
        -12    1    4    4    0    0  0.70492935718E+01  0.11087439881E+02  0.88450204563E+01  0.15838505291E+02  0.00000000000E+00 0.  1.
</event>
<event>
 8    1  0.1254059E-006  0.9118800E+02  0.7816164E-02  0.1184000E+00
        -11   -1    0    0    0    0  0.00000000000E+00  0.00000000000E+00  0.45593999997E+02  0.45594000000E+02  0.51100000000E-03 0.  1.
         11   -1    0    0    0    0 -0.00000000000E+00 -0.00000000000E+00 -0.45593999997E+02  0.45594000000E+02  0.51100000000E-03 0. -1.
         23    2    1    2    0    0  0.35527136788E-14  0.00000000000E+00  0.00000000000E+00  0.91188000000E+02  0.91188000000E+02 0.  0.
    9900012    2    3    3    0    0  0.19760095116E+02  0.17178616843E+02  0.25888487373E+02  0.54367081840E+02  0.39999994671E+02 0.  0.
         12    1    3    3    0    0 -0.19760095116E+02 -0.17178616843E+02 -0.25888487373E+02  0.36820918160E+02  0.00000000000E+00 0. -1.
         11    1    4    4    0    0 -0.64440298112E+01  0.14777431157E+02  0.34653904384E+01  0.16489600449E+02  0.51100000000E-03 0. -1.
        -11    1    4    4    0    0  0.10654250262E+02  0.14551918200E+00  0.19550287488E+00  0.10657037398E+02  0.51100000000E-03 0.  1.
         12    1    4    4    0    0  0.15549874665E+02  0.22556665042E+01  0.22227594060E+02  0.27220443993E+02  0.00000000000E+00 0. -1.
</event>
<event>
 8    1  0.1254059E-006  0.9118800E+02  0.7816164E-02  0.1184000E+00
        -11   -1    0    0    0    0  0.00000000000E+00  0.00000000000E+00  0.45593999997E+02  0.45594000000E+02  0.51100000000E-03 0. -1.
         11   -1    0    0    0    0 -0.00000000000E+00 -0.00000000000E+00 -0.45593999997E+02  0.45594000000E+02  0.51100000000E-03 0.  1.
         23    2    1    2    0    0  0.17763568394E-14  0.17763568394E-14  0.00000000000E+00  0.91188000000E+02  0.91188000000E+02 0.  0.
    9900012    2    3    3    0    0 -0.15200430026E+02 -0.98600752784E+01 -0.32054719395E+02  0.54367092991E+02  0.40000020092E+02 0.  0.
         12    1    3    3    0    0  0.15200430026E+02  0.98600752784E+01  0.32054719395E+02  0.36820907009E+02  0.00000000000E+00 0. -1.
         11    1    4    4    0    0  0.77844737729E+01 -0.13813139709E+02 -0.77325317045E+01  0.17640660627E+02  0.51100000000E-03 0. -1.
        -11    1    4    4    0    0 -0.17960772924E+02 -0.33473835904E+01 -0.19141163656E+02  0.26460885988E+02  0.51100000000E-03 0.  1.
        -12    1    4    4    0    0 -0.50241308757E+01  0.73004480206E+01 -0.51810240346E+01  0.10265546376E+02  0.00000000000E+00 0.  1.
</event>
<event>
 8    1  0.1254059E-006  0.9118800E+02  0.7816164E-02  0.1184000E+00
        -11   -1    0    0    0    0  0.00000000000E+00  0.00000000000E+00  0.45593999997E+02  0.45594000000E+02  0.51100000000E-03 0.  1.
         11   -1    0    0    0    0 -0.00000000000E+00 -0.00000000000E+00 -0.45593999997E+02  0.45594000000E+02  0.51100000000E-03 0. -1.
         23    2    1    2    0    0  0.17763568394E-14  0.35527136788E-14  0.00000000000E+00  0.91188000000E+02  0.91188000000E+02 0.  0.
    9900012    2    3    3    0    0  0.14259968630E+02 -0.31559555860E+02 -0.12507055956E+02  0.54367099413E+02  0.40000034731E+02 0.  0.
        -12    1    3    3    0    0 -0.14259968630E+02  0.31559555860E+02  0.12507055956E+02  0.36820900587E+02  0.00000000000E+00 0.  1.
         11    1    4    4    0    0 -0.47452148401E+01 -0.23506597476E+02 -0.12712596882E+02  0.27141984241E+02  0.51100000000E-03 0. -1.
        -11    1    4    4    0    0  0.47026553125E+01 -0.82128510361E+01  0.66197612046E+01  0.11549334517E+02  0.51100000000E-03 0.  1.
        -12    1    4    4    0    0  0.14302528157E+02  0.15989265265E+00 -0.64142202787E+01  0.15675780655E+02  0.00000000000E+00 0.  1.
</event>
<event>
 8    1  0.1254059E-006  0.9118800E+02  0.7816164E-02  0.1184000E+00
        -11   -1    0    0    0    0  0.00000000000E+00  0.00000000000E+00  0.45593999997E+02  0.45594000000E+02  0.51100000000E-03 0. -1.
         11   -1    0    0    0    0 -0.00000000000E+00 -0.00000000000E+00 -0.45593999997E+02  0.45594000000E+02  0.51100000000E-03 0.  1.
         23    2    1    2    0    0  0.00000000000E+00  0.00000000000E+00  0.35527136788E-14  0.91188000000E+02  0.91188000000E+02 0.  0.
    9900012    2    3    3    0    0  0.11686683616E+02 -0.25817428925E+02  0.23508723174E+02  0.54367105450E+02  0.40000048494E+02 0.  0.
        -12    1    3    3    0    0 -0.11686683616E+02  0.25817428925E+02 -0.23508723174E+02  0.36820894550E+02  0.00000000000E+00 0.  1.
         11    1    4    4    0    0 -0.11842470729E+02 -0.32253487383E+01  0.16446133022E+02  0.20521264071E+02  0.51100000000E-03 0.  1.
        -11    1    4    4    0    0  0.16823270428E+02 -0.12737166849E+02  0.56350046132E+01  0.21840584344E+02  0.51100000000E-03 0. -1.
        -12    1    4    4    0    0  0.67058839166E+01 -0.98549133370E+01  0.14275855383E+01  0.12005257034E+02  0.00000000000E+00 0.  1.
</event>
<event>
 8    1  0.1254059E-006  0.9118800E+02  0.7816164E-02  0.1184000E+00
        -11   -1    0    0    0    0  0.00000000000E+00  0.00000000000E+00  0.45593999997E+02  0.45594000000E+02  0.51100000000E-03 0. -1.
         11   -1    0    0    0    0 -0.00000000000E+00 -0.00000000000E+00 -0.45593999997E+02  0.45594000000E+02  0.51100000000E-03 0.  1.
         23    2    1    2    0    0  0.00000000000E+00  0.00000000000E+00  0.26645352591E-14  0.91188000000E+02  0.91188000000E+02 0.  0.
    9900012    2    3    3    0    0 -0.13382722638E+02 -0.33903868540E+02 -0.52164894739E+01  0.54367063977E+02  0.39999953948E+02 0.  0.
         12    1    3    3    0    0  0.13382722638E+02  0.33903868540E+02  0.52164894739E+01  0.36820936023E+02  0.00000000000E+00 0. -1.
         11    1    4    4    0    0 -0.11146691203E+02 -0.18485316480E+02 -0.17677420212E+02  0.27900660131E+02  0.51100000000E-03 0.  1.
        -11    1    4    4    0    0 -0.65353473646E+01  0.37411913048E+00  0.59678154812E+01  0.88580783570E+01  0.51100000000E-03 0. -1.
        -12    1    4    4    0    0  0.42993159295E+01 -0.15792671191E+02  0.64931152565E+01  0.17608325489E+02  0.00000000000E+00 0.  1.
</event>
<event>
 8    1  0.1254059E-006  0.9118800E+02  0.7816164E-02  0.1184000E+00
        -11   -1    0    0    0    0  0.00000000000E+00  0.00000000000E+00  0.45593999997E+02  0.45594000000E+02  0.51100000000E-03 0. -1.
         11   -1    0    0    0    0 -0.00000000000E+00 -0.00000000000E+00 -0.45593999997E+02  0.45594000000E+02  0.51100000000E-03 0.  1.
         23    2    1    2    0    0 -0.35527136788E-14 -0.71054273576E-14  0.00000000000E+00  0.91188000000E+02  0.91188000000E+02 0.  0.
    9900012    2    3    3    0    0 -0.20686009086E+02 -0.25667918024E+02 -0.16401459346E+02  0.54367341990E+02  0.40000587731E+02 0.  0.
         12    1    3    3    0    0  0.20686009086E+02  0.25667918024E+02  0.16401459346E+02  0.36820658010E+02  0.00000000000E+00 0. -1.
         11    1    4    4    0    0 -0.12540046373E+02 -0.62786172542E+01 -0.11906605287E+01  0.14074497164E+02  0.51100000000E-03 0. -1.
        -11    1    4    4    0    0 -0.68316783492E+01  0.75558040906E+01 -0.25957941720E+01  0.10511905259E+02  0.51100000000E-03 0.  1.
        -12    1    4    4    0    0 -0.13142843641E+01 -0.26945104861E+02 -0.12615004645E+02  0.29780939568E+02  0.00000000000E+00 0.  1.
</event>
<event>
 8    1  0.1254059E-006  0.9118800E+02  0.7816164E-02  0.1184000E+00
        -11   -1    0    0    0    0  0.00000000000E+00  0.00000000000E+00  0.45593999997E+02  0.45594000000E+02  0.51100000000E-03 0.  1.
         11   -1    0    0    0    0 -0.00000000000E+00 -0.00000000000E+00 -0.45593999997E+02  0.45594000000E+02  0.51100000000E-03 0. -1.
         23    2    1    2    0    0 -0.71054273576E-14  0.88817841970E-15  0.00000000000E+00  0.91188000000E+02  0.91188000000E+02 0.  0.
    9900012    2    3    3    0    0 -0.36267016215E+02  0.43505689882E+01  0.46427635329E+01  0.54367093318E+02  0.40000020837E+02 0.  0.
        -12    1    3    3    0    0  0.36267016215E+02 -0.43505689882E+01 -0.46427635329E+01  0.36820906682E+02  0.00000000000E+00 0.  1.
         11    1    4    4    0    0 -0.57440398434E+00  0.58324207405E+01 -0.32518942757E+01  0.67023792994E+01  0.51100000000E-03 0. -1.
        -11    1    4    4    0    0  0.55846676370E+01 -0.11133807157E+01  0.15435911526E+01  0.59000680624E+01  0.51100000000E-03 0.  1.
        -12    1    4    4    0    0 -0.41277279868E+02 -0.36847103663E+00  0.63510666561E+01  0.41764645956E+02  0.00000000000E+00 0.  1.
</event>
<event>
 8    1  0.1254059E-006  0.9118800E+02  0.7816164E-02  0.1184000E+00
        -11   -1    0    0    0    0  0.00000000000E+00  0.00000000000E+00  0.45593999997E+02  0.45594000000E+02  0.51100000000E-03 0. -1.
         11   -1    0    0    0    0 -0.00000000000E+00 -0.00000000000E+00 -0.45593999997E+02  0.45594000000E+02  0.51100000000E-03 0.  1.
         23    2    1    2    0    0 -0.17763568394E-14  0.35527136788E-14  0.00000000000E+00  0.91188000000E+02  0.91188000000E+02 0.  0.
    9900012    2    3    3    0    0 -0.97304959556E+01  0.17651029569E+02  0.30814549862E+02  0.54367110825E+02  0.40000060749E+02 0.  0.
        -12    1    3    3    0    0  0.97304959556E+01 -0.17651029569E+02 -0.30814549862E+02  0.36820889175E+02  0.00000000000E+00 0.  1.
         11    1    4    4    0    0  0.15314549954E+01 -0.46761321620E+01  0.50281985833E+01  0.70352219335E+01  0.51100000000E-03 0. -1.
        -11    1    4    4    0    0  0.15085194397E+01 -0.53244985642E+01  0.13315198630E+02  0.14419446268E+02  0.51100000000E-03 0.  1.
        -12    1    4    4    0    0 -0.12770470391E+02  0.27651660295E+02  0.12471152650E+02  0.32912442624E+02  0.00000000000E+00 0.  1.
</event>
<event>
 8    1  0.1254059E-006  0.9118800E+02  0.7816164E-02  0.1184000E+00
        -11   -1    0    0    0    0  0.00000000000E+00  0.00000000000E+00  0.45593999997E+02  0.45594000000E+02  0.51100000000E-03 0. -1.
         11   -1    0    0    0    0 -0.00000000000E+00 -0.00000000000E+00 -0.45593999997E+02  0.45594000000E+02  0.51100000000E-03 0.  1.
         23    2    1    2    0    0  0.00000000000E+00  0.00000000000E+00  0.17763568394E-14  0.91188000000E+02  0.91188000000E+02 0.  0.
    9900012    2    3    3    0    0 -0.62359276745E+01  0.33596475478E+02  0.13717533391E+02  0.54367072787E+02  0.39999974032E+02 0.  0.
        -12    1    3    3    0    0  0.62359276745E+01 -0.33596475478E+02 -0.13717533391E+02  0.36820927213E+02  0.00000000000E+00 0.  1.
         11    1    4    4    0    0 -0.33396558246E+01  0.47703889948E+01 -0.90522139032E+01  0.10763479410E+02  0.51100000000E-03 0. -1.
        -11    1    4    4    0    0  0.83037422757E+01  0.13003132425E+02  0.26320149440E+01  0.15651232909E+02  0.51100000000E-03 0.  1.
         12    1    4    4    0    0 -0.11200014126E+02  0.15822954058E+02  0.20137732350E+02  0.27952360468E+02  0.00000000000E+00 0. -1.
</event>
<event>
 8    1  0.1254059E-006  0.9118800E+02  0.7816164E-02  0.1184000E+00
        -11   -1    0    0    0    0  0.00000000000E+00  0.00000000000E+00  0.45593999997E+02  0.45594000000E+02  0.51100000000E-03 0. -1.
         11   -1    0    0    0    0 -0.00000000000E+00 -0.00000000000E+00 -0.45593999997E+02  0.45594000000E+02  0.51100000000E-03 0.  1.
         23    2    1    2    0    0  0.00000000000E+00  0.00000000000E+00 -0.17763568394E-14  0.91188000000E+02  0.91188000000E+02 0.  0.
    9900012    2    3    3    0    0  0.22976680297E+02 -0.28612357367E+02  0.30304962549E+01  0.54367099154E+02  0.40000034141E+02 0.  0.
        -12    1    3    3    0    0 -0.22976680297E+02  0.28612357367E+02 -0.30304962549E+01  0.36820900846E+02  0.00000000000E+00 0.  1.
         11    1    4    4    0    0  0.19858125396E+02 -0.34423609064E+02  0.94329304832E+01  0.40844952969E+02  0.51100000000E-03 0. -1.
        -11    1    4    4    0    0 -0.63211809482E+00  0.13717843604E+01  0.24821243418E+01  0.29055648550E+01  0.51100000000E-03 0.  1.
         12    1    4    4    0    0  0.37506729953E+01  0.44394673368E+01 -0.88845585701E+01  0.10616581330E+02  0.00000000000E+00 0. -1.
</event>
<event>
 8    1  0.1254059E-006  0.9118800E+02  0.7816164E-02  0.1184000E+00
        -11   -1    0    0    0    0  0.00000000000E+00  0.00000000000E+00  0.45593999997E+02  0.45594000000E+02  0.51100000000E-03 0.  1.
         11   -1    0    0    0    0 -0.00000000000E+00 -0.00000000000E+00 -0.45593999997E+02  0.45594000000E+02  0.51100000000E-03 0. -1.
         23    2    1    2    0    0  0.00000000000E+00  0.00000000000E+00  0.00000000000E+00  0.91188000000E+02  0.91188000000E+02 0.  0.
    9900012    2    3    3    0    0  0.62061246387E+01  0.25042020028E+02  0.26270901267E+02  0.54367095564E+02  0.40000025957E+02 0.  0.
         12    1    3    3    0    0 -0.62061246387E+01 -0.25042020028E+02 -0.26270901267E+02  0.36820904436E+02  0.00000000000E+00 0. -1.
         11    1    4    4    0    0 -0.64357955971E+01  0.90661126109E+01 -0.72419603330E+01  0.13268754748E+02  0.51100000000E-03 0. -1.
        -11    1    4    4    0    0  0.23588389256E+01  0.77883755313E+01  0.22579209358E+02  0.24000908524E+02  0.51100000000E-03 0.  1.
        -12    1    4    4    0    0  0.10283081310E+02  0.81875318860E+01  0.10933652242E+02  0.17097432291E+02  0.00000000000E+00 0.  1.
</event>
<event>
 8    1  0.1254059E-006  0.9118800E+02  0.7816164E-02  0.1184000E+00
        -11   -1    0    0    0    0  0.00000000000E+00  0.00000000000E+00  0.45593999997E+02  0.45594000000E+02  0.51100000000E-03 0.  1.
         11   -1    0    0    0    0 -0.00000000000E+00 -0.00000000000E+00 -0.45593999997E+02  0.45594000000E+02  0.51100000000E-03 0. -1.
         23    2    1    2    0    0  0.00000000000E+00  0.00000000000E+00  0.00000000000E+00  0.91188000000E+02  0.91188000000E+02 0.  0.
    9900012    2    3    3    0    0 -0.83635091008E+01 -0.70345908330E+01 -0.35161717548E+02  0.54367080218E+02  0.39999990972E+02 0.  0.
        -12    1    3    3    0    0  0.83635091008E+01  0.70345908330E+01  0.35161717548E+02  0.36820919782E+02  0.00000000000E+00 0.  1.
         11    1    4    4    0    0 -0.11839428572E+02 -0.14558686054E+02 -0.36537493904E+02  0.41074516060E+02  0.51100000000E-03 0. -1.
        -11    1    4    4    0    0 -0.47823066169E+00  0.53084577695E+01  0.51370985862E+01  0.74025813472E+01  0.51100000000E-03 0.  1.
        -12    1    4    4    0    0  0.39541501326E+01  0.22156374513E+01 -0.37613222303E+01  0.58899828104E+01  0.00000000000E+00 0.  1.
</event>
<event>
 8    1  0.1254059E-006  0.9118800E+02  0.7816164E-02  0.1184000E+00
        -11   -1    0    0    0    0  0.00000000000E+00  0.00000000000E+00  0.45593999997E+02  0.45594000000E+02  0.51100000000E-03 0. -1.
         11   -1    0    0    0    0 -0.00000000000E+00 -0.00000000000E+00 -0.45593999997E+02  0.45594000000E+02  0.51100000000E-03 0.  1.
         23    2    1    2    0    0  0.00000000000E+00  0.00000000000E+00  0.00000000000E+00  0.91188000000E+02  0.91188000000E+02 0.  0.
    9900012    2    3    3    0    0  0.27473421916E+02  0.24009719667E+02 -0.49521905211E+01  0.54367085546E+02  0.40000003119E+02 0.  0.
         12    1    3    3    0    0 -0.27473421916E+02 -0.24009719667E+02  0.49521905211E+01  0.36820914454E+02  0.00000000000E+00 0. -1.
         11    1    4    4    0    0  0.97904273869E+01  0.24752678593E+02  0.26074253754E+01  0.26745957326E+02  0.51100000000E-03 0. -1.
        -11    1    4    4    0    0  0.20947972269E+02 -0.27384334893E+01 -0.24942959100E+01  0.21272942263E+02  0.51100000000E-03 0.  1.
         12    1    4    4    0    0 -0.32649777400E+01  0.19954745635E+01 -0.50653199865E+01  0.63481859568E+01  0.00000000000E+00 0. -1.
</event>
<event>
 8    1  0.1254059E-006  0.9118800E+02  0.7816164E-02  0.1184000E+00
        -11   -1    0    0    0    0  0.00000000000E+00  0.00000000000E+00  0.45593999997E+02  0.45594000000E+02  0.51100000000E-03 0.  1.
         11   -1    0    0    0    0 -0.00000000000E+00 -0.00000000000E+00 -0.45593999997E+02  0.45594000000E+02  0.51100000000E-03 0. -1.
         23    2    1    2    0    0 -0.88817841970E-15  0.71054273576E-14  0.00000000000E+00  0.91188000000E+02  0.91188000000E+02 0.  0.
    9900012    2    3    3    0    0  0.46315000451E+01  0.34410079315E+02  0.12258671803E+02  0.54367090376E+02  0.40000014130E+02 0.  0.
         12    1    3    3    0    0 -0.46315000451E+01 -0.34410079315E+02 -0.12258671803E+02  0.36820909624E+02  0.00000000000E+00 0. -1.
         11    1    4    4    0    0  0.10961291404E+02 -0.13789010590E+01  0.13802136238E+02  0.17679090541E+02  0.51100000000E-03 0. -1.
        -11    1    4    4    0    0 -0.13349404422E+01  0.18468607884E+01  0.44861909925E+00  0.23225460411E+01  0.51100000000E-03 0.  1.
         12    1    4    4    0    0 -0.49948509166E+01  0.33942119586E+02 -0.19920835338E+01  0.34365453794E+02  0.00000000000E+00 0. -1.
</event>
<event>
 8    1  0.1254059E-006  0.9118800E+02  0.7816164E-02  0.1184000E+00
        -11   -1    0    0    0    0  0.00000000000E+00  0.00000000000E+00  0.45593999997E+02  0.45594000000E+02  0.51100000000E-03 0.  1.
         11   -1    0    0    0    0 -0.00000000000E+00 -0.00000000000E+00 -0.45593999997E+02  0.45594000000E+02  0.51100000000E-03 0. -1.
         23    2    1    2    0    0 -0.35527136788E-14  0.88817841970E-15  0.71054273576E-14  0.91188000000E+02  0.91188000000E+02 0.  0.
    9900012    2    3    3    0    0 -0.17523394511E+02  0.43638169849E+01  0.32088347181E+02  0.54367159723E+02  0.40000172221E+02 0.  0.
         12    1    3    3    0    0  0.17523394511E+02 -0.43638169849E+01 -0.32088347181E+02  0.36820840277E+02  0.00000000000E+00 0. -1.
         11    1    4    4    0    0  0.14897661271E+01  0.81896673614E+00 -0.21581603428E+01  0.27473197766E+01  0.51100000000E-03 0. -1.
        -11    1    4    4    0    0 -0.16486603580E+01  0.67667628285E+01 -0.50060679962E+01  0.85771718647E+01  0.51100000000E-03 0.  1.
        -12    1    4    4    0    0 -0.17364500280E+02 -0.32219125798E+01  0.39252575520E+02  0.43042668082E+02  0.00000000000E+00 0.  1.
</event>
<event>
 8    1  0.1254059E-006  0.9118800E+02  0.7816164E-02  0.1184000E+00
        -11   -1    0    0    0    0  0.00000000000E+00  0.00000000000E+00  0.45593999997E+02  0.45594000000E+02  0.51100000000E-03 0. -1.
         11   -1    0    0    0    0 -0.00000000000E+00 -0.00000000000E+00 -0.45593999997E+02  0.45594000000E+02  0.51100000000E-03 0.  1.
         23    2    1    2    0    0  0.88817841970E-15  0.00000000000E+00  0.17763568394E-14  0.91188000000E+02  0.91188000000E+02 0.  0.
    9900012    2    3    3    0    0  0.66104796047E+01  0.34096719566E+02 -0.12226838075E+02  0.54367078026E+02  0.39999985975E+02 0.  0.
         12    1    3    3    0    0 -0.66104796047E+01 -0.34096719566E+02  0.12226838075E+02  0.36820921974E+02  0.00000000000E+00 0. -1.
         11    1    4    4    0    0  0.53511678864E+00  0.90081363737E+01  0.12259039965E+02  0.15222251214E+02  0.51100000000E-03 0. -1.
        -11    1    4    4    0    0  0.10986338186E+02  0.22277282713E+02 -0.19109368383E+02  0.31339191312E+02  0.51100000000E-03 0.  1.
        -12    1    4    4    0    0 -0.49109753697E+01  0.28113004788E+01 -0.53765096568E+01  0.78056354997E+01  0.00000000000E+00 0.  1.
</event>
<event>
 8    1  0.1254059E-006  0.9118800E+02  0.7816164E-02  0.1184000E+00
        -11   -1    0    0    0    0  0.00000000000E+00  0.00000000000E+00  0.45593999997E+02  0.45594000000E+02  0.51100000000E-03 0.  1.
         11   -1    0    0    0    0 -0.00000000000E+00 -0.00000000000E+00 -0.45593999997E+02  0.45594000000E+02  0.51100000000E-03 0. -1.
         23    2    1    2    0    0 -0.53290705182E-14  0.00000000000E+00 -0.71054273576E-14  0.91188000000E+02  0.91188000000E+02 0.  0.
    9900012    2    3    3    0    0  0.10750908944E+02 -0.13742358978E+02  0.32424439323E+02  0.54367099158E+02  0.40000034151E+02 0.  0.
         12    1    3    3    0    0 -0.10750908944E+02  0.13742358978E+02 -0.32424439323E+02  0.36820900842E+02  0.00000000000E+00 0. -1.
         11    1    4    4    0    0 -0.26439076688E+01  0.40573088275E+01 -0.19864519716E+01  0.52343093507E+01  0.51100000000E-03 0. -1.
        -11    1    4    4    0    0 -0.59005944599E+01  0.12590601350E+01  0.10260488903E+01  0.61200509793E+01  0.51100000000E-03 0.  1.
         12    1    4    4    0    0  0.19295411073E+02 -0.19058727940E+02  0.33384842404E+02  0.43012738828E+02  0.00000000000E+00 0. -1.
</event>
<event>
 8    1  0.1254059E-006  0.9118800E+02  0.7816164E-02  0.1184000E+00
        -11   -1    0    0    0    0  0.00000000000E+00  0.00000000000E+00  0.45593999997E+02  0.45594000000E+02  0.51100000000E-03 0.  1.
         11   -1    0    0    0    0 -0.00000000000E+00 -0.00000000000E+00 -0.45593999997E+02  0.45594000000E+02  0.51100000000E-03 0. -1.
         23    2    1    2    0    0  0.00000000000E+00  0.35527136788E-14 -0.35527136788E-14  0.91188000000E+02  0.91188000000E+02 0.  0.
    9900012    2    3    3    0    0  0.24933426798E+01 -0.18652492551E+02 -0.31648813958E+02  0.54367086635E+02  0.40000005603E+02 0.  0.
        -12    1    3    3    0    0 -0.24933426798E+01  0.18652492551E+02  0.31648813958E+02  0.36820913365E+02  0.00000000000E+00 0.  1.
         11    1    4    4    0    0 -0.12623644571E+02 -0.22837898817E+01 -0.11494254113E+02  0.17224690893E+02  0.51100000000E-03 0. -1.
        -11    1    4    4    0    0  0.40768463298E+01 -0.12130095006E+02 -0.21723932517E+02  0.25212876177E+02  0.51100000000E-03 0.  1.
        -12    1    4    4    0    0  0.11040140921E+02 -0.42386076628E+01  0.15693726721E+01  0.11929519566E+02  0.00000000000E+00 0.  1.
</event>
<event>
 8    1  0.1254059E-006  0.9118800E+02  0.7816164E-02  0.1184000E+00
        -11   -1    0    0    0    0  0.00000000000E+00  0.00000000000E+00  0.45593999997E+02  0.45594000000E+02  0.51100000000E-03 0.  1.
         11   -1    0    0    0    0 -0.00000000000E+00 -0.00000000000E+00 -0.45593999997E+02  0.45594000000E+02  0.51100000000E-03 0. -1.
         23    2    1    2    0    0  0.00000000000E+00  0.35527136788E-14  0.00000000000E+00  0.91188000000E+02  0.91188000000E+02 0.  0.
    9900012    2    3    3    0    0  0.14828079237E+02  0.29097517063E+02  0.17007064575E+02  0.54367113556E+02  0.40000066973E+02 0.  0.
         12    1    3    3    0    0 -0.14828079237E+02 -0.29097517063E+02 -0.17007064575E+02  0.36820886444E+02  0.00000000000E+00 0. -1.
         11    1    4    4    0    0  0.11416817127E+02  0.71046377468E+01 -0.11196222986E+01  0.13493448232E+02  0.51100000000E-03 0. -1.
        -11    1    4    4    0    0  0.67286165193E+01  0.28495983518E+02  0.15383971821E+02  0.33075095558E+02  0.51100000000E-03 0.  1.
         12    1    4    4    0    0 -0.33173544094E+01 -0.65031042020E+01  0.27427150526E+01  0.77985697663E+01  0.00000000000E+00 0. -1.
</event>
<event>
 8    1  0.1254059E-006  0.9118800E+02  0.7816164E-02  0.1184000E+00
        -11   -1    0    0    0    0  0.00000000000E+00  0.00000000000E+00  0.45593999997E+02  0.45594000000E+02  0.51100000000E-03 0.  1.
         11   -1    0    0    0    0 -0.00000000000E+00 -0.00000000000E+00 -0.45593999997E+02  0.45594000000E+02  0.51100000000E-03 0. -1.
         23    2    1    2    0    0  0.35527136788E-14 -0.52735593670E-15 -0.35527136788E-14  0.91188000000E+02  0.91188000000E+02 0.  0.
    9900012    2    3    3    0    0 -0.28489290150E+02  0.20831309692E+00  0.23325863505E+02  0.54367096210E+02  0.40000027431E+02 0.  0.
         12    1    3    3    0    0  0.28489290150E+02 -0.20831309692E+00 -0.23325863505E+02  0.36820903790E+02  0.00000000000E+00 0. -1.
         11    1    4    4    0    0  0.23769710810E+01  0.33440076463E+01 -0.59971220248E+01  0.72662130095E+01  0.51100000000E-03 0. -1.
        -11    1    4    4    0    0  0.25566744331E+01  0.12090691554E+01  0.42006444246E+01  0.50639753379E+01  0.51100000000E-03 0.  1.
        -12    1    4    4    0    0 -0.33422935664E+02 -0.43447637048E+01  0.25122341106E+02  0.42036907863E+02  0.00000000000E+00 0.  1.
</event>
<event>
 8    1  0.1254059E-006  0.9118800E+02  0.7816164E-02  0.1184000E+00
        -11   -1    0    0    0    0  0.00000000000E+00  0.00000000000E+00  0.45593999997E+02  0.45594000000E+02  0.51100000000E-03 0. -1.
         11   -1    0    0    0    0 -0.00000000000E+00 -0.00000000000E+00 -0.45593999997E+02  0.45594000000E+02  0.51100000000E-03 0.  1.
         23    2    1    2    0    0  0.00000000000E+00  0.35527136788E-14  0.00000000000E+00  0.91188000000E+02  0.91188000000E+02 0.  0.
    9900012    2    3    3    0    0  0.21271717732E+02  0.28025335731E+02 -0.10856988858E+02  0.54367087122E+02  0.40000006713E+02 0.  0.
         12    1    3    3    0    0 -0.21271717732E+02 -0.28025335731E+02  0.10856988858E+02  0.36820912878E+02  0.00000000000E+00 0. -1.
         11    1    4    4    0    0  0.66145581343E+01  0.10782403153E+02  0.13274114046E+02  0.18336158295E+02  0.51100000000E-03 0. -1.
        -11    1    4    4    0    0  0.83619584342E+01  0.59864065937E+01 -0.19998502578E+02  0.22487763748E+02  0.51100000000E-03 0.  1.
        -12    1    4    4    0    0  0.62952011631E+01  0.11256525984E+02 -0.41326003263E+01  0.13543165079E+02  0.00000000000E+00 0.  1.
</event>
<event>
 8    1  0.1254059E-006  0.9118800E+02  0.7816164E-02  0.1184000E+00
        -11   -1    0    0    0    0  0.00000000000E+00  0.00000000000E+00  0.45593999997E+02  0.45594000000E+02  0.51100000000E-03 0. -1.
         11   -1    0    0    0    0 -0.00000000000E+00 -0.00000000000E+00 -0.45593999997E+02  0.45594000000E+02  0.51100000000E-03 0.  1.
         23    2    1    2    0    0  0.00000000000E+00 -0.88817841970E-15  0.00000000000E+00  0.91188000000E+02  0.91188000000E+02 0.  0.
    9900012    2    3    3    0    0  0.17287041881E+02  0.60444778017E+01 -0.31943718436E+02  0.54367100005E+02  0.40000036082E+02 0.  0.
         12    1    3    3    0    0 -0.17287041881E+02 -0.60444778017E+01  0.31943718436E+02  0.36820899995E+02  0.00000000000E+00 0. -1.
         11    1    4    4    0    0  0.26510060668E+01 -0.55453506718E+00  0.13163773829E+01  0.30113438831E+01  0.51100000000E-03 0. -1.
        -11    1    4    4    0    0  0.25601374395E+02 -0.11537762892E+01 -0.20307686537E+02  0.32698068802E+02  0.51100000000E-03 0.  1.
        -12    1    4    4    0    0 -0.10965338581E+02  0.77527891580E+01 -0.12952409282E+02  0.18657687320E+02  0.00000000000E+00 0.  1.
</event>
<event>
 8    1  0.1254059E-006  0.9118800E+02  0.7816164E-02  0.1184000E+00
        -11   -1    0    0    0    0  0.00000000000E+00  0.00000000000E+00  0.45593999997E+02  0.45594000000E+02  0.51100000000E-03 0.  1.
         11   -1    0    0    0    0 -0.00000000000E+00 -0.00000000000E+00 -0.45593999997E+02  0.45594000000E+02  0.51100000000E-03 0. -1.
         23    2    1    2    0    0  0.00000000000E+00  0.00000000000E+00  0.00000000000E+00  0.91188000000E+02  0.91188000000E+02 0.  0.
    9900012    2    3    3    0    0  0.53977721855E+01 -0.92780351865E+01  0.35221590475E+02  0.54367104885E+02  0.40000047206E+02 0.  0.
         12    1    3    3    0    0 -0.53977721855E+01  0.92780351865E+01 -0.35221590475E+02  0.36820895115E+02  0.00000000000E+00 0. -1.
         11    1    4    4    0    0  0.10651694821E+02  0.39783214938E+01  0.16561016437E+01  0.11490357583E+02  0.51100000000E-03 0. -1.
        -11    1    4    4    0    0 -0.22629945258E+01 -0.78161286167E+00 -0.31661445265E+01  0.39694501273E+01  0.51100000000E-03 0.  1.
        -12    1    4    4    0    0 -0.29909281096E+01 -0.12474743819E+02  0.36731633358E+02  0.38907297175E+02  0.00000000000E+00 0.  1.
</event>
<event>
 8    1  0.1254059E-006  0.9118800E+02  0.7816164E-02  0.1184000E+00
        -11   -1    0    0    0    0  0.00000000000E+00  0.00000000000E+00  0.45593999997E+02  0.45594000000E+02  0.51100000000E-03 0.  1.
         11   -1    0    0    0    0 -0.00000000000E+00 -0.00000000000E+00 -0.45593999997E+02  0.45594000000E+02  0.51100000000E-03 0. -1.
         23    2    1    2    0    0  0.35527136788E-14 -0.17763568394E-14  0.35527136788E-14  0.91188000000E+02  0.91188000000E+02 0.  0.
    9900012    2    3    3    0    0 -0.23356361408E+02  0.87361195802E+01 -0.27091341558E+02  0.54367079439E+02  0.39999989198E+02 0.  0.
        -12    1    3    3    0    0  0.23356361408E+02 -0.87361195802E+01  0.27091341558E+02  0.36820920561E+02  0.00000000000E+00 0.  1.
         11    1    4    4    0    0 -0.24740700551E+02  0.21955671439E+01 -0.23177806620E+02  0.33972540364E+02  0.51100000000E-03 0. -1.
        -11    1    4    4    0    0  0.42264331562E+01 -0.33084061955E+01 -0.77689007669E+01  0.94426748417E+01  0.51100000000E-03 0.  1.
         12    1    4    4    0    0 -0.28420940138E+01  0.98489586318E+01  0.38553658290E+01  0.10951864234E+02  0.00000000000E+00 0. -1.
</event>
<event>
 8    1  0.1254059E-006  0.9118800E+02  0.7816164E-02  0.1184000E+00
        -11   -1    0    0    0    0  0.00000000000E+00  0.00000000000E+00  0.45593999997E+02  0.45594000000E+02  0.51100000000E-03 0. -1.
         11   -1    0    0    0    0 -0.00000000000E+00 -0.00000000000E+00 -0.45593999997E+02  0.45594000000E+02  0.51100000000E-03 0.  1.
         23    2    1    2    0    0 -0.11102230246E-15  0.71054273576E-14  0.00000000000E+00  0.91188000000E+02  0.91188000000E+02 0.  0.
    9900012    2    3    3    0    0  0.59721730522E+00 -0.35987113162E+02  0.77687846682E+01  0.54367041329E+02  0.39999902318E+02 0.  0.
        -12    1    3    3    0    0 -0.59721730522E+00  0.35987113162E+02 -0.77687846682E+01  0.36820958671E+02  0.00000000000E+00 0.  1.
         11    1    4    4    0    0 -0.27548085882E+01  0.23410602762E+01  0.79437922668E+01  0.87277356407E+01  0.51100000000E-03 0. -1.
        -11    1    4    4    0    0 -0.19705432766E+01 -0.15954103570E+01 -0.74034857856E+01  0.78255975523E+01  0.51100000000E-03 0.  1.
        -12    1    4    4    0    0  0.53225691701E+01 -0.36732763081E+02  0.72284781869E+01  0.37813708136E+02  0.00000000000E+00 0.  1.
</event>
<event>
 8    1  0.1254059E-006  0.9118800E+02  0.7816164E-02  0.1184000E+00
        -11   -1    0    0    0    0  0.00000000000E+00  0.00000000000E+00  0.45593999997E+02  0.45594000000E+02  0.51100000000E-03 0.  1.
         11   -1    0    0    0    0 -0.00000000000E+00 -0.00000000000E+00 -0.45593999997E+02  0.45594000000E+02  0.51100000000E-03 0. -1.
         23    2    1    2    0    0 -0.35527136788E-14  0.35527136788E-14  0.00000000000E+00  0.91188000000E+02  0.91188000000E+02 0.  0.
    9900012    2    3    3    0    0  0.22811476094E+02 -0.23454386325E+02 -0.16891057142E+02  0.54367088946E+02  0.40000010870E+02 0.  0.
        -12    1    3    3    0    0 -0.22811476094E+02  0.23454386325E+02  0.16891057142E+02  0.36820911054E+02  0.00000000000E+00 0.  1.
         11    1    4    4    0    0 -0.82466854386E+01  0.10039791035E+01 -0.91815508465E+00  0.83581579181E+01  0.51100000000E-03 0. -1.
        -11    1    4    4    0    0  0.16370734761E+02 -0.22913580842E+02 -0.12648309839E+02  0.30870906784E+02  0.51100000000E-03 0.  1.
         12    1    4    4    0    0  0.14687426772E+02 -0.15447845872E+01 -0.33245922181E+01  0.15138024244E+02  0.00000000000E+00 0. -1.
</event>
<event>
 8    1  0.1254059E-006  0.9118800E+02  0.7816164E-02  0.1184000E+00
        -11   -1    0    0    0    0  0.00000000000E+00  0.00000000000E+00  0.45593999997E+02  0.45594000000E+02  0.51100000000E-03 0.  1.
         11   -1    0    0    0    0 -0.00000000000E+00 -0.00000000000E+00 -0.45593999997E+02  0.45594000000E+02  0.51100000000E-03 0. -1.
         23    2    1    2    0    0  0.00000000000E+00  0.00000000000E+00  0.00000000000E+00  0.91188000000E+02  0.91188000000E+02 0.  0.
    9900012    2    3    3    0    0 -0.61440094926E+01 -0.12432431608E+02  0.34109605820E+02  0.54367089942E+02  0.40000013140E+02 0.  0.
         12    1    3    3    0    0  0.61440094926E+01  0.12432431608E+02 -0.34109605820E+02  0.36820910058E+02  0.00000000000E+00 0. -1.
         11    1    4    4    0    0  0.59802943476E+01 -0.12339197710E+02  0.15662412621E+01  0.13801189535E+02  0.51100000000E-03 0. -1.
        -11    1    4    4    0    0  0.35466081065E+01 -0.85736598122E+00  0.20405991748E+02  0.20729640735E+02  0.51100000000E-03 0.  1.
         12    1    4    4    0    0 -0.15670911947E+02  0.76413208324E+00  0.12137372809E+02  0.19836259672E+02  0.00000000000E+00 0. -1.
</event>
<event>
 8    1  0.1254059E-006  0.9118800E+02  0.7816164E-02  0.1184000E+00
        -11   -1    0    0    0    0  0.00000000000E+00  0.00000000000E+00  0.45593999997E+02  0.45594000000E+02  0.51100000000E-03 0.  1.
         11   -1    0    0    0    0 -0.00000000000E+00 -0.00000000000E+00 -0.45593999997E+02  0.45594000000E+02  0.51100000000E-03 0. -1.
         23    2    1    2    0    0  0.00000000000E+00  0.00000000000E+00 -0.44408920985E-15  0.91188000000E+02  0.91188000000E+02 0.  0.
    9900012    2    3    3    0    0 -0.19412485519E+02  0.31062707556E+02 -0.37475112187E+01  0.54367078840E+02  0.39999987832E+02 0.  0.
         12    1    3    3    0    0  0.19412485519E+02 -0.31062707556E+02  0.37475112187E+01  0.36820921160E+02  0.00000000000E+00 0. -1.
         11    1    4    4    0    0 -0.23416655907E+02  0.22883380910E+02  0.89200897446E+01  0.33934597346E+02  0.51100000000E-03 0. -1.
        -11    1    4    4    0    0  0.69814693673E+01  0.58888355934E+01 -0.23190225489E+01  0.94232247673E+01  0.51100000000E-03 0.  1.
         12    1    4    4    0    0 -0.29772989791E+01  0.22904910526E+01 -0.10348578414E+02  0.11009256727E+02  0.00000000000E+00 0. -1.
</event>
<event>
 8    1  0.1254059E-006  0.9118800E+02  0.7816164E-02  0.1184000E+00
        -11   -1    0    0    0    0  0.00000000000E+00  0.00000000000E+00  0.45593999997E+02  0.45594000000E+02  0.51100000000E-03 0. -1.
         11   -1    0    0    0    0 -0.00000000000E+00 -0.00000000000E+00 -0.45593999997E+02  0.45594000000E+02  0.51100000000E-03 0.  1.
         23    2    1    2    0    0  0.71054273576E-14  0.00000000000E+00 -0.88817841970E-15  0.91188000000E+02  0.91188000000E+02 0.  0.
    9900012    2    3    3    0    0  0.34331201664E+02 -0.13036616643E+02 -0.26824989431E+01  0.54367074132E+02  0.39999977098E+02 0.  0.
         12    1    3    3    0    0 -0.34331201664E+02  0.13036616643E+02  0.26824989431E+01  0.36820925868E+02  0.00000000000E+00 0. -1.
         11    1    4    4    0    0  0.67701181754E+01 -0.10531231628E+02  0.10404054631E+02  0.16278381146E+02  0.51100000000E-03 0. -1.
        -11    1    4    4    0    0  0.30891362337E+01  0.84061795955E+01 -0.38308245205E+01  0.97407307134E+01  0.51100000000E-03 0.  1.
        -12    1    4    4    0    0  0.24471947255E+02 -0.10911564611E+02 -0.92557290533E+01  0.28347962273E+02  0.00000000000E+00 0.  1.
</event>
<event>
 8    1  0.1254059E-006  0.9118800E+02  0.7816164E-02  0.1184000E+00
        -11   -1    0    0    0    0  0.00000000000E+00  0.00000000000E+00  0.45593999997E+02  0.45594000000E+02  0.51100000000E-03 0.  1.
         11   -1    0    0    0    0 -0.00000000000E+00 -0.00000000000E+00 -0.45593999997E+02  0.45594000000E+02  0.51100000000E-03 0. -1.
         23    2    1    2    0    0 -0.17763568394E-14  0.00000000000E+00  0.35527136788E-14  0.91188000000E+02  0.91188000000E+02 0.  0.
    9900012    2    3    3    0    0 -0.11672539240E+02  0.21700243579E+02  0.27361121229E+02  0.54367086125E+02  0.40000004439E+02 0.  0.
         12    1    3    3    0    0  0.11672539240E+02 -0.21700243579E+02 -0.27361121229E+02  0.36820913875E+02  0.00000000000E+00 0. -1.
         11    1    4    4    0    0 -0.39897945509E+01 -0.40734147373E+01  0.14901478660E+02  0.15955100586E+02  0.51100000000E-03 0. -1.
        -11    1    4    4    0    0 -0.92063116806E+01  0.49278304221E+01  0.13986837011E+02  0.17454835928E+02  0.51100000000E-03 0.  1.
        -12    1    4    4    0    0  0.15235669918E+01  0.20845827894E+02 -0.15271944424E+01  0.20957149612E+02  0.00000000000E+00 0.  1.
</event>
<event>
 8    1  0.1254059E-006  0.9118800E+02  0.7816164E-02  0.1184000E+00
        -11   -1    0    0    0    0  0.00000000000E+00  0.00000000000E+00  0.45593999997E+02  0.45594000000E+02  0.51100000000E-03 0.  1.
         11   -1    0    0    0    0 -0.00000000000E+00 -0.00000000000E+00 -0.45593999997E+02  0.45594000000E+02  0.51100000000E-03 0. -1.
         23    2    1    2    0    0  0.00000000000E+00  0.00000000000E+00  0.00000000000E+00  0.91188000000E+02  0.91188000000E+02 0.  0.
    9900012    2    3    3    0    0  0.51412282781E+01  0.88355760619E+01 -0.35373351521E+02  0.54367168526E+02  0.40000192289E+02 0.  0.
        -12    1    3    3    0    0 -0.51412282781E+01 -0.88355760619E+01  0.35373351521E+02  0.36820831474E+02  0.00000000000E+00 0.  1.
         11    1    4    4    0    0  0.26270519906E+01  0.53060623959E+01 -0.15503037141E+02  0.16595175840E+02  0.51100000000E-03 0. -1.
        -11    1    4    4    0    0 -0.43695363054E+01  0.90042173912E+00 -0.27090599224E+02  0.27455494412E+02  0.51100000000E-03 0.  1.
        -12    1    4    4    0    0  0.68837125928E+01  0.26290919270E+01  0.72202848435E+01  0.10316498274E+02  0.00000000000E+00 0.  1.
</event>
<event>
 8    1  0.1254059E-006  0.9118800E+02  0.7816164E-02  0.1184000E+00
        -11   -1    0    0    0    0  0.00000000000E+00  0.00000000000E+00  0.45593999997E+02  0.45594000000E+02  0.51100000000E-03 0.  1.
         11   -1    0    0    0    0 -0.00000000000E+00 -0.00000000000E+00 -0.45593999997E+02  0.45594000000E+02  0.51100000000E-03 0. -1.
         23    2    1    2    0    0  0.00000000000E+00  0.00000000000E+00  0.00000000000E+00  0.91188000000E+02  0.91188000000E+02 0.  0.
    9900012    2    3    3    0    0  0.27109049035E+02  0.19578211958E+02 -0.15413401556E+02  0.54367083790E+02  0.39999999115E+02 0.  0.
        -12    1    3    3    0    0 -0.27109049035E+02 -0.19578211958E+02  0.15413401556E+02  0.36820916210E+02  0.00000000000E+00 0.  1.
         11    1    4    4    0    0  0.16656214293E+02  0.77712231182E+01  0.46740459975E+01  0.18964917336E+02  0.51100000000E-03 0. -1.
        -11    1    4    4    0    0  0.11492216922E+01  0.67780806731E+01  0.47840280569E+01  0.83755604481E+01  0.51100000000E-03 0.  1.
        -12    1    4    4    0    0  0.93036130497E+01  0.50289081669E+01 -0.24871475610E+02  0.27026606005E+02  0.00000000000E+00 0.  1.
</event>
<event>
 8    1  0.1254059E-006  0.9118800E+02  0.7816164E-02  0.1184000E+00
        -11   -1    0    0    0    0  0.00000000000E+00  0.00000000000E+00  0.45593999997E+02  0.45594000000E+02  0.51100000000E-03 0.  1.
         11   -1    0    0    0    0 -0.00000000000E+00 -0.00000000000E+00 -0.45593999997E+02  0.45594000000E+02  0.51100000000E-03 0. -1.
         23    2    1    2    0    0 -0.35527136788E-14  0.00000000000E+00  0.00000000000E+00  0.91188000000E+02  0.91188000000E+02 0.  0.
    9900012    2    3    3    0    0  0.16177651302E+02  0.32873702479E+02  0.36585413035E+01  0.54367059751E+02  0.39999944314E+02 0.  0.
        -12    1    3    3    0    0 -0.16177651302E+02 -0.32873702479E+02 -0.36585413035E+01  0.36820940249E+02  0.00000000000E+00 0.  1.
         11    1    4    4    0    0  0.18411279717E+02  0.22350301805E+02  0.71194774225E+01  0.29819426062E+02  0.51100000000E-03 0. -1.
        -11    1    4    4    0    0 -0.76981817438E+01  0.11572022685E+02  0.46986275397E+01  0.14671428431E+02  0.51100000000E-03 0.  1.
         12    1    4    4    0    0  0.54645533287E+01 -0.10486220111E+01 -0.81595636587E+01  0.98762052584E+01  0.00000000000E+00 0. -1.
</event>
<event>
 8    1  0.1254059E-006  0.9118800E+02  0.7816164E-02  0.1184000E+00
        -11   -1    0    0    0    0  0.00000000000E+00  0.00000000000E+00  0.45593999997E+02  0.45594000000E+02  0.51100000000E-03 0. -1.
         11   -1    0    0    0    0 -0.00000000000E+00 -0.00000000000E+00 -0.45593999997E+02  0.45594000000E+02  0.51100000000E-03 0.  1.
         23    2    1    2    0    0  0.19984014443E-14  0.00000000000E+00 -0.17763568394E-14  0.91188000000E+02  0.91188000000E+02 0.  0.
    9900012    2    3    3    0    0 -0.15990012462E+01  0.33193506839E+02 -0.15856064246E+02  0.54367075586E+02  0.39999980414E+02 0.  0.
         12    1    3    3    0    0  0.15990012462E+01 -0.33193506839E+02  0.15856064246E+02  0.36820924414E+02  0.00000000000E+00 0. -1.
         11    1    4    4    0    0  0.64280340277E+01  0.69603223566E+00 -0.56522656674E+01  0.85879095110E+01  0.51100000000E-03 0.  1.
        -11    1    4    4    0    0  0.41363888781E+00  0.31555484275E+02 -0.16111929821E+02  0.35433232534E+02  0.51100000000E-03 0. -1.
         12    1    4    4    0    0 -0.84406741617E+01  0.94199032869E+00  0.59081312417E+01  0.10345933542E+02  0.00000000000E+00 0. -1.
</event>
<event>
 8    1  0.1254059E-006  0.9118800E+02  0.7816164E-02  0.1184000E+00
        -11   -1    0    0    0    0  0.00000000000E+00  0.00000000000E+00  0.45593999997E+02  0.45594000000E+02  0.51100000000E-03 0. -1.
         11   -1    0    0    0    0 -0.00000000000E+00 -0.00000000000E+00 -0.45593999997E+02  0.45594000000E+02  0.51100000000E-03 0.  1.
         23    2    1    2    0    0  0.17763568394E-14  0.00000000000E+00  0.17763568394E-14  0.91188000000E+02  0.91188000000E+02 0.  0.
    9900012    2    3    3    0    0  0.72234317608E+01 -0.34554412861E+02 -0.10468770637E+02  0.54367074248E+02  0.39999977364E+02 0.  0.
         12    1    3    3    0    0 -0.72234317608E+01  0.34554412861E+02  0.10468770637E+02  0.36820925752E+02  0.00000000000E+00 0. -1.
         11    1    4    4    0    0 -0.84482591708E+01 -0.12179020628E+02  0.95002025877E+01  0.17605552418E+02  0.51100000000E-03 0. -1.
        -11    1    4    4    0    0  0.10045208479E+02 -0.98253681860E+01 -0.20923797137E+01  0.14206411458E+02  0.51100000000E-03 0.  1.
        -12    1    4    4    0    0  0.56264824523E+01 -0.12550024047E+02 -0.17876593511E+02  0.22555110373E+02  0.00000000000E+00 0.  1.
</event>
<event>
 8    1  0.1254059E-006  0.9118800E+02  0.7816164E-02  0.1184000E+00
        -11   -1    0    0    0    0  0.00000000000E+00  0.00000000000E+00  0.45593999997E+02  0.45594000000E+02  0.51100000000E-03 0.  1.
         11   -1    0    0    0    0 -0.00000000000E+00 -0.00000000000E+00 -0.45593999997E+02  0.45594000000E+02  0.51100000000E-03 0. -1.
         23    2    1    2    0    0 -0.35527136788E-14 -0.35527136788E-14  0.00000000000E+00  0.91188000000E+02  0.91188000000E+02 0.  0.
    9900012    2    3    3    0    0 -0.21533251787E+02 -0.28456614000E+02  0.90730294502E+01  0.54367086428E+02  0.40000005129E+02 0.  0.
         12    1    3    3    0    0  0.21533251787E+02  0.28456614000E+02 -0.90730294502E+01  0.36820913572E+02  0.00000000000E+00 0. -1.
         11    1    4    4    0    0 -0.21196734393E+01 -0.94572678315E+01 -0.80504562690E+01  0.12599316518E+02  0.51100000000E-03 0. -1.
        -11    1    4    4    0    0 -0.25890948254E+02 -0.17746984266E+02  0.12915554873E+02  0.33942719543E+02  0.51100000000E-03 0.  1.
        -12    1    4    4    0    0  0.64773699058E+01 -0.12523619024E+01  0.42079308465E+01  0.78250503666E+01  0.00000000000E+00 0.  1.
</event>
<event>
 8    1  0.1254059E-006  0.9118800E+02  0.7816164E-02  0.1184000E+00
        -11   -1    0    0    0    0  0.00000000000E+00  0.00000000000E+00  0.45593999997E+02  0.45594000000E+02  0.51100000000E-03 0.  1.
         11   -1    0    0    0    0 -0.00000000000E+00 -0.00000000000E+00 -0.45593999997E+02  0.45594000000E+02  0.51100000000E-03 0. -1.
         23    2    1    2    0    0 -0.17763568394E-14 -0.35527136788E-14 -0.35527136788E-14  0.91188000000E+02  0.91188000000E+02 0.  0.
    9900012    2    3    3    0    0 -0.15670038822E+02  0.23740630200E+02  0.23379768509E+02  0.54367065540E+02  0.39999957512E+02 0.  0.
         12    1    3    3    0    0  0.15670038822E+02 -0.23740630200E+02 -0.23379768509E+02  0.36820934460E+02  0.00000000000E+00 0. -1.
         11    1    4    4    0    0  0.36228881326E+01 -0.29546200888E+01 -0.39738568753E+01  0.61356855377E+01  0.51100000000E-03 0. -1.
        -11    1    4    4    0    0 -0.20921070858E+02  0.29108516125E+02  0.27696622972E+02  0.45300108621E+02  0.51100000000E-03 0.  1.
        -12    1    4    4    0    0  0.16281439026E+01 -0.24132658365E+01 -0.34299758793E+00  0.29312713812E+01  0.00000000000E+00 0.  1.
</event>
<event>
 8    1  0.1254059E-006  0.9118800E+02  0.7816164E-02  0.1184000E+00
        -11   -1    0    0    0    0  0.00000000000E+00  0.00000000000E+00  0.45593999997E+02  0.45594000000E+02  0.51100000000E-03 0.  1.
         11   -1    0    0    0    0 -0.00000000000E+00 -0.00000000000E+00 -0.45593999997E+02  0.45594000000E+02  0.51100000000E-03 0. -1.
         23    2    1    2    0    0  0.35527136788E-14  0.00000000000E+00  0.00000000000E+00  0.91188000000E+02  0.91188000000E+02 0.  0.
    9900012    2    3    3    0    0 -0.25390555793E+02  0.17191651342E+02  0.20384947472E+02  0.54367091771E+02  0.40000017311E+02 0.  0.
        -12    1    3    3    0    0  0.25390555793E+02 -0.17191651342E+02 -0.20384947472E+02  0.36820908229E+02  0.00000000000E+00 0.  1.
         11    1    4    4    0    0  0.23977908682E+01  0.71522058566E+01  0.44241645004E+01  0.87450947079E+01  0.51100000000E-03 0. -1.
        -11    1    4    4    0    0  0.41113812624E+01  0.97466931250E+01  0.61985521356E+01  0.12260649722E+02  0.51100000000E-03 0.  1.
         12    1    4    4    0    0 -0.31899727924E+02  0.29275236080E+00  0.97622308362E+01  0.33361347342E+02  0.00000000000E+00 0. -1.
</event>
<event>
 8    1  0.1254059E-006  0.9118800E+02  0.7816164E-02  0.1184000E+00
        -11   -1    0    0    0    0  0.00000000000E+00  0.00000000000E+00  0.45593999997E+02  0.45594000000E+02  0.51100000000E-03 0.  1.
         11   -1    0    0    0    0 -0.00000000000E+00 -0.00000000000E+00 -0.45593999997E+02  0.45594000000E+02  0.51100000000E-03 0. -1.
         23    2    1    2    0    0  0.35527136788E-14  0.00000000000E+00  0.00000000000E+00  0.91188000000E+02  0.91188000000E+02 0.  0.
    9900012    2    3    3    0    0 -0.20923913311E+02 -0.28203737865E+02  0.11068842205E+02  0.54367078697E+02  0.39999987506E+02 0.  0.
         12    1    3    3    0    0  0.20923913311E+02  0.28203737865E+02 -0.11068842205E+02  0.36820921303E+02  0.00000000000E+00 0. -1.
         11    1    4    4    0    0 -0.29565117449E+02 -0.18568240194E+02  0.35966238173E+01  0.35097171065E+02  0.51100000000E-03 0. -1.
        -11    1    4    4    0    0  0.36813735507E+01  0.12885349745E+01  0.60366325993E+01  0.71870555167E+01  0.51100000000E-03 0.  1.
         12    1    4    4    0    0  0.49598305864E+01 -0.10924032645E+02  0.14355857881E+01  0.12082852115E+02  0.00000000000E+00 0. -1.
</event>
<event>
 8    1  0.1254059E-006  0.9118800E+02  0.7816164E-02  0.1184000E+00
        -11   -1    0    0    0    0  0.00000000000E+00  0.00000000000E+00  0.45593999997E+02  0.45594000000E+02  0.51100000000E-03 0. -1.
         11   -1    0    0    0    0 -0.00000000000E+00 -0.00000000000E+00 -0.45593999997E+02  0.45594000000E+02  0.51100000000E-03 0.  1.
         23    2    1    2    0    0  0.00000000000E+00  0.00000000000E+00  0.17763568394E-14  0.91188000000E+02  0.91188000000E+02 0.  0.
    9900012    2    3    3    0    0 -0.31112771850E+02 -0.13109317890E+02 -0.14694258637E+02  0.54367081698E+02  0.39999994348E+02 0.  0.
         12    1    3    3    0    0  0.31112771850E+02  0.13109317890E+02  0.14694258637E+02  0.36820918302E+02  0.00000000000E+00 0. -1.
         11    1    4    4    0    0  0.15965118063E+01 -0.13635293530E+02 -0.13812164648E+02  0.19474238679E+02  0.51100000000E-03 0. -1.
        -11    1    4    4    0    0 -0.62582075484E+01  0.18345302658E+01 -0.48318669529E+01  0.81165018035E+01  0.51100000000E-03 0.  1.
         12    1    4    4    0    0 -0.26451076108E+02 -0.13085546250E+01  0.39497729639E+01  0.26776341216E+02  0.00000000000E+00 0. -1.
</event>
<event>
 8    1  0.1254059E-006  0.9118800E+02  0.7816164E-02  0.1184000E+00
        -11   -1    0    0    0    0  0.00000000000E+00  0.00000000000E+00  0.45593999997E+02  0.45594000000E+02  0.51100000000E-03 0. -1.
         11   -1    0    0    0    0 -0.00000000000E+00 -0.00000000000E+00 -0.45593999997E+02  0.45594000000E+02  0.51100000000E-03 0.  1.
         23    2    1    2    0    0  0.35527136788E-14  0.00000000000E+00  0.99920072216E-15  0.91188000000E+02  0.91188000000E+02 0.  0.
    9900012    2    3    3    0    0 -0.22035352133E+02 -0.29483022016E+02  0.98681274814E+00  0.54367093843E+02  0.40000022035E+02 0.  0.
         12    1    3    3    0    0  0.22035352133E+02  0.29483022016E+02 -0.98681274814E+00  0.36820906157E+02  0.00000000000E+00 0. -1.
         11    1    4    4    0    0 -0.10501843343E+02 -0.15410747078E+02  0.15190220437E+02  0.24052497506E+02  0.51100000000E-03 0. -1.
        -11    1    4    4    0    0 -0.35242111987E+01  0.22108208705E+00 -0.13457668714E+02  0.13913223542E+02  0.51100000000E-03 0.  1.
         12    1    4    4    0    0 -0.80092975915E+01 -0.14293357025E+02 -0.74573897521E+00  0.16401372795E+02  0.00000000000E+00 0. -1.
</event>
<event>
 8    1  0.1254059E-006  0.9118800E+02  0.7816164E-02  0.1184000E+00
        -11   -1    0    0    0    0  0.00000000000E+00  0.00000000000E+00  0.45593999997E+02  0.45594000000E+02  0.51100000000E-03 0.  1.
         11   -1    0    0    0    0 -0.00000000000E+00 -0.00000000000E+00 -0.45593999997E+02  0.45594000000E+02  0.51100000000E-03 0. -1.
         23    2    1    2    0    0 -0.71054273576E-14  0.00000000000E+00 -0.16098233857E-14  0.91188000000E+02  0.91188000000E+02 0.  0.
    9900012    2    3    3    0    0 -0.32561484155E+02  0.17187112113E+02 -0.36338086364E+00  0.54367093998E+02  0.40000022386E+02 0.  0.
        -12    1    3    3    0    0  0.32561484155E+02 -0.17187112113E+02  0.36338086364E+00  0.36820906002E+02  0.00000000000E+00 0.  1.
         11    1    4    4    0    0 -0.11916037154E+02  0.99675569436E+01 -0.48848472755E+01  0.16285142494E+02  0.51100000000E-03 0. -1.
        -11    1    4    4    0    0 -0.55364826248E+01  0.27331016943E+01 -0.13074665416E+02  0.14459230987E+02  0.51100000000E-03 0.  1.
        -12    1    4    4    0    0 -0.15108964377E+02  0.44864534755E+01  0.17596131828E+02  0.23622720517E+02  0.00000000000E+00 0.  1.
</event>
<event>
 8    1  0.1254059E-006  0.9118800E+02  0.7816164E-02  0.1184000E+00
        -11   -1    0    0    0    0  0.00000000000E+00  0.00000000000E+00  0.45593999997E+02  0.45594000000E+02  0.51100000000E-03 0.  1.
         11   -1    0    0    0    0 -0.00000000000E+00 -0.00000000000E+00 -0.45593999997E+02  0.45594000000E+02  0.51100000000E-03 0. -1.
         23    2    1    2    0    0  0.00000000000E+00 -0.17763568394E-14 -0.35527136788E-14  0.91188000000E+02  0.91188000000E+02 0.  0.
    9900012    2    3    3    0    0 -0.15257251480E+02  0.15558918583E+02 -0.29680257305E+02  0.54367063783E+02  0.39999953507E+02 0.  0.
        -12    1    3    3    0    0  0.15257251480E+02 -0.15558918583E+02  0.29680257305E+02  0.36820936217E+02  0.00000000000E+00 0.  1.
         11    1    4    4    0    0 -0.68990965940E+01  0.10175619870E+01 -0.27288400871E+02  0.28165400558E+02  0.51100000000E-03 0. -1.
        -11    1    4    4    0    0  0.97193397533E+00  0.69455952381E+01 -0.98162590375E+01  0.12064198714E+02  0.51100000000E-03 0.  1.
         12    1    4    4    0    0 -0.93300888614E+01  0.75957613581E+01  0.74244026043E+01  0.14137464511E+02  0.00000000000E+00 0. -1.
</event>
<event>
 8    1  0.1254059E-006  0.9118800E+02  0.7816164E-02  0.1184000E+00
        -11   -1    0    0    0    0  0.00000000000E+00  0.00000000000E+00  0.45593999997E+02  0.45594000000E+02  0.51100000000E-03 0.  1.
         11   -1    0    0    0    0 -0.00000000000E+00 -0.00000000000E+00 -0.45593999997E+02  0.45594000000E+02  0.51100000000E-03 0. -1.
         23    2    1    2    0    0  0.00000000000E+00  0.00000000000E+00  0.00000000000E+00  0.91188000000E+02  0.91188000000E+02 0.  0.
    9900012    2    3    3    0    0 -0.11222835510E+02 -0.33115448650E+02  0.11540911641E+02  0.54367114382E+02  0.40000068857E+02 0.  0.
         12    1    3    3    0    0  0.11222835510E+02  0.33115448650E+02 -0.11540911641E+02  0.36820885618E+02  0.00000000000E+00 0. -1.
         11    1    4    4    0    0 -0.46747590090E+01  0.33320664456E+01 -0.14708580203E+01  0.59261675784E+01  0.51100000000E-03 0. -1.
        -11    1    4    4    0    0 -0.39283155089E+01 -0.38695890240E+02  0.43753693968E+01  0.39140100177E+02  0.51100000000E-03 0.  1.
         12    1    4    4    0    0 -0.26197609917E+01  0.22483751449E+01  0.86364002647E+01  0.93008466270E+01  0.00000000000E+00 0. -1.
</event>
<event>
 8    1  0.1254059E-006  0.9118800E+02  0.7816164E-02  0.1184000E+00
        -11   -1    0    0    0    0  0.00000000000E+00  0.00000000000E+00  0.45593999997E+02  0.45594000000E+02  0.51100000000E-03 0. -1.
         11   -1    0    0    0    0 -0.00000000000E+00 -0.00000000000E+00 -0.45593999997E+02  0.45594000000E+02  0.51100000000E-03 0.  1.
         23    2    1    2    0    0  0.00000000000E+00 -0.17763568394E-14  0.00000000000E+00  0.91188000000E+02  0.91188000000E+02 0.  0.
    9900012    2    3    3    0    0 -0.25900412688E+02 -0.15365785326E+02 -0.21185705170E+02  0.54367179265E+02  0.40000216769E+02 0.  0.
         12    1    3    3    0    0  0.25900412688E+02  0.15365785326E+02  0.21185705170E+02  0.36820820735E+02  0.00000000000E+00 0. -1.
         11    1    4    4    0    0  0.57335669814E+01  0.18213880163E+01 -0.14982766191E+01  0.61996836794E+01  0.51100000000E-03 0. -1.
        -11    1    4    4    0    0 -0.22944177157E+02  0.15184778323E+01 -0.73830000912E+01  0.24150563781E+02  0.51100000000E-03 0.  1.
        -12    1    4    4    0    0 -0.86898025126E+01 -0.18705651175E+02 -0.12304428460E+02  0.24016931804E+02  0.00000000000E+00 0.  1.
</event>
<event>
 8    1  0.1254059E-006  0.9118800E+02  0.7816164E-02  0.1184000E+00
        -11   -1    0    0    0    0  0.00000000000E+00  0.00000000000E+00  0.45593999997E+02  0.45594000000E+02  0.51100000000E-03 0.  1.
         11   -1    0    0    0    0 -0.00000000000E+00 -0.00000000000E+00 -0.45593999997E+02  0.45594000000E+02  0.51100000000E-03 0. -1.
         23    2    1    2    0    0  0.17763568394E-14  0.00000000000E+00 -0.35527136788E-14  0.91188000000E+02  0.91188000000E+02 0.  0.
    9900012    2    3    3    0    0 -0.73863210285E+01 -0.23751946436E+02  0.27149048930E+02  0.54367033750E+02  0.39999885039E+02 0.  0.
         12    1    3    3    0    0  0.73863210285E+01  0.23751946436E+02 -0.27149048930E+02  0.36820966250E+02  0.00000000000E+00 0. -1.
         11    1    4    4    0    0 -0.63544911809E+01 -0.96916252239E+01 -0.50989904526E+01  0.12661234598E+02  0.51100000000E-03 0. -1.
        -11    1    4    4    0    0  0.35496793493E+01 -0.45613711088E+01 -0.18065875221E+01  0.60555832594E+01  0.51100000000E-03 0.  1.
        -12    1    4    4    0    0 -0.45815091969E+01 -0.94989501031E+01  0.34054626904E+02  0.35650215892E+02  0.00000000000E+00 0.  1.
</event>
<event>
 8    1  0.1254059E-006  0.9118800E+02  0.7816164E-02  0.1184000E+00
        -11   -1    0    0    0    0  0.00000000000E+00  0.00000000000E+00  0.45593999997E+02  0.45594000000E+02  0.51100000000E-03 0.  1.
         11   -1    0    0    0    0 -0.00000000000E+00 -0.00000000000E+00 -0.45593999997E+02  0.45594000000E+02  0.51100000000E-03 0. -1.
         23    2    1    2    0    0  0.35527136788E-14  0.35527136788E-14  0.00000000000E+00  0.91188000000E+02  0.91188000000E+02 0.  0.
    9900012    2    3    3    0    0  0.26645830130E+02 -0.24901246411E+02  0.50706386470E+01  0.54367031620E+02  0.39999880183E+02 0.  0.
         12    1    3    3    0    0 -0.26645830130E+02  0.24901246411E+02 -0.50706386470E+01  0.36820968380E+02  0.00000000000E+00 0. -1.
         11    1    4    4    0    0 -0.57252465182E+01 -0.63513893408E+01 -0.23203196439E+01  0.88601624005E+01  0.51100000000E-03 0. -1.
        -11    1    4    4    0    0  0.24836592093E+01 -0.42245787500E+00 -0.72004878302E+01  0.76285030628E+01  0.51100000000E-03 0.  1.
        -12    1    4    4    0    0  0.29887417439E+02 -0.18127399196E+02  0.14591446121E+02  0.37878366156E+02  0.00000000000E+00 0.  1.
</event>
<event>
 8    1  0.1254059E-006  0.9118800E+02  0.7816164E-02  0.1184000E+00
        -11   -1    0    0    0    0  0.00000000000E+00  0.00000000000E+00  0.45593999997E+02  0.45594000000E+02  0.51100000000E-03 0.  1.
         11   -1    0    0    0    0 -0.00000000000E+00 -0.00000000000E+00 -0.45593999997E+02  0.45594000000E+02  0.51100000000E-03 0. -1.
         23    2    1    2    0    0  0.00000000000E+00 -0.35527136788E-14  0.00000000000E+00  0.91188000000E+02  0.91188000000E+02 0.  0.
    9900012    2    3    3    0    0 -0.58719657767E+01 -0.21037788785E+02 -0.29643069742E+02  0.54367080365E+02  0.39999991308E+02 0.  0.
        -12    1    3    3    0    0  0.58719657767E+01  0.21037788785E+02  0.29643069742E+02  0.36820919635E+02  0.00000000000E+00 0.  1.
         11    1    4    4    0    0  0.66347575295E+01  0.61653243858E+00  0.58462897610E+00  0.66889394544E+01  0.51100000000E-03 0. -1.
        -11    1    4    4    0    0 -0.13072743687E+02 -0.19396441897E+01 -0.21864724471E+01  0.13395503317E+02  0.51100000000E-03 0.  1.
         12    1    4    4    0    0  0.56602038096E+00 -0.19714677034E+02 -0.28041226271E+02  0.34282637594E+02  0.00000000000E+00 0. -1.
</event>
<event>
 8    1  0.1254059E-006  0.9118800E+02  0.7816164E-02  0.1184000E+00
        -11   -1    0    0    0    0  0.00000000000E+00  0.00000000000E+00  0.45593999997E+02  0.45594000000E+02  0.51100000000E-03 0.  1.
         11   -1    0    0    0    0 -0.00000000000E+00 -0.00000000000E+00 -0.45593999997E+02  0.45594000000E+02  0.51100000000E-03 0. -1.
         23    2    1    2    0    0  0.35527136788E-14  0.88817841970E-15  0.35527136788E-14  0.91188000000E+02  0.91188000000E+02 0.  0.
    9900012    2    3    3    0    0 -0.29608397709E+02 -0.57682869714E+01 -0.21115146010E+02  0.54367085555E+02  0.40000003141E+02 0.  0.
        -12    1    3    3    0    0  0.29608397709E+02  0.57682869714E+01  0.21115146010E+02  0.36820914445E+02  0.00000000000E+00 0.  1.
         11    1    4    4    0    0 -0.36306280308E+01 -0.45759251581E+01 -0.63242101847E+01  0.86090757734E+01  0.51100000000E-03 0. -1.
        -11    1    4    4    0    0 -0.21308635351E+02 -0.16306017425E+02 -0.13071415302E+02  0.29846374035E+02  0.51100000000E-03 0.  1.
        -12    1    4    4    0    0 -0.46691343278E+01  0.15113655612E+02 -0.17195205241E+01  0.15911635747E+02  0.00000000000E+00 0.  1.
</event>
<event>
 8    1  0.1254059E-006  0.9118800E+02  0.7816164E-02  0.1184000E+00
        -11   -1    0    0    0    0  0.00000000000E+00  0.00000000000E+00  0.45593999997E+02  0.45594000000E+02  0.51100000000E-03 0. -1.
         11   -1    0    0    0    0 -0.00000000000E+00 -0.00000000000E+00 -0.45593999997E+02  0.45594000000E+02  0.51100000000E-03 0.  1.
         23    2    1    2    0    0 -0.35527136788E-14  0.00000000000E+00  0.00000000000E+00  0.91188000000E+02  0.91188000000E+02 0.  0.
    9900012    2    3    3    0    0 -0.31294510495E+02 -0.14794223497E+02  0.12552558022E+02  0.54367052852E+02  0.39999928586E+02 0.  0.
        -12    1    3    3    0    0  0.31294510495E+02  0.14794223497E+02 -0.12552558022E+02  0.36820947148E+02  0.00000000000E+00 0.  1.
         11    1    4    4    0    0 -0.11273458060E+02 -0.94209217972E+01  0.16282730884E+02  0.21931072693E+02  0.51100000000E-03 0. -1.
        -11    1    4    4    0    0 -0.14505712790E+02 -0.64453088621E+01 -0.13715856884E+02  0.20978141963E+02  0.51100000000E-03 0.  1.
        -12    1    4    4    0    0 -0.55153396447E+01  0.10720071623E+01  0.99856840215E+01  0.11457838196E+02  0.00000000000E+00 0.  1.
</event>
<event>
 8    1  0.1254059E-006  0.9118800E+02  0.7816164E-02  0.1184000E+00
        -11   -1    0    0    0    0  0.00000000000E+00  0.00000000000E+00  0.45593999997E+02  0.45594000000E+02  0.51100000000E-03 0.  1.
         11   -1    0    0    0    0 -0.00000000000E+00 -0.00000000000E+00 -0.45593999997E+02  0.45594000000E+02  0.51100000000E-03 0. -1.
         23    2    1    2    0    0 -0.11102230246E-15  0.00000000000E+00  0.00000000000E+00  0.91188000000E+02  0.91188000000E+02 0.  0.
    9900012    2    3    3    0    0  0.67387431618E+00 -0.28862873335E+02  0.22853020110E+02  0.54367080784E+02  0.39999992264E+02 0.  0.
         12    1    3    3    0    0 -0.67387431618E+00  0.28862873335E+02 -0.22853020110E+02  0.36820919216E+02  0.00000000000E+00 0. -1.
         11    1    4    4    0    0 -0.12523020332E+02 -0.10630309958E+02 -0.17375550333E+01  0.16518130215E+02  0.51100000000E-03 0. -1.
        -11    1    4    4    0    0 -0.90497827745E+00 -0.13969465702E+02  0.10967738424E+02  0.17783594802E+02  0.51100000000E-03 0.  1.
         12    1    4    4    0    0  0.14101872926E+02 -0.42630976756E+01  0.13622836719E+02  0.20065355768E+02  0.00000000000E+00 0. -1.
</event>
<event>
 8    1  0.1254059E-006  0.9118800E+02  0.7816164E-02  0.1184000E+00
        -11   -1    0    0    0    0  0.00000000000E+00  0.00000000000E+00  0.45593999997E+02  0.45594000000E+02  0.51100000000E-03 0.  1.
         11   -1    0    0    0    0 -0.00000000000E+00 -0.00000000000E+00 -0.45593999997E+02  0.45594000000E+02  0.51100000000E-03 0. -1.
         23    2    1    2    0    0  0.00000000000E+00  0.35527136788E-14  0.00000000000E+00  0.91188000000E+02  0.91188000000E+02 0.  0.
    9900012    2    3    3    0    0 -0.24228383455E+02  0.21835945775E+02 -0.17086719079E+02  0.54367094775E+02  0.40000024158E+02 0.  0.
        -12    1    3    3    0    0  0.24228383455E+02 -0.21835945775E+02  0.17086719079E+02  0.36820905225E+02  0.00000000000E+00 0.  1.
         11    1    4    4    0    0  0.86729243766E+01 -0.23899454819E+01 -0.87651715897E+01  0.12560242430E+02  0.51100000000E-03 0. -1.
        -11    1    4    4    0    0 -0.21388693584E+02  0.15284790906E+02 -0.39161929172E+01  0.26578894136E+02  0.51100000000E-03 0.  1.
         12    1    4    4    0    0 -0.11512614247E+02  0.89411003505E+01 -0.44053545719E+01  0.15227958208E+02  0.00000000000E+00 0. -1.
</event>
<event>
 8    1  0.1254059E-006  0.9118800E+02  0.7816164E-02  0.1184000E+00
        -11   -1    0    0    0    0  0.00000000000E+00  0.00000000000E+00  0.45593999997E+02  0.45594000000E+02  0.51100000000E-03 0.  1.
         11   -1    0    0    0    0 -0.00000000000E+00 -0.00000000000E+00 -0.45593999997E+02  0.45594000000E+02  0.51100000000E-03 0. -1.
         23    2    1    2    0    0  0.00000000000E+00  0.00000000000E+00  0.00000000000E+00  0.91188000000E+02  0.91188000000E+02 0.  0.
    9900012    2    3    3    0    0 -0.44594766585E+01  0.80088794381E+01 -0.35661610662E+02  0.54367088048E+02  0.40000008824E+02 0.  0.
        -12    1    3    3    0    0  0.44594766585E+01 -0.80088794381E+01  0.35661610662E+02  0.36820911952E+02  0.00000000000E+00 0.  1.
         11    1    4    4    0    0 -0.21719667232E+01 -0.34057961193E+01  0.37357475432E+01  0.55020629423E+01  0.51100000000E-03 0. -1.
        -11    1    4    4    0    0 -0.96245667572E+01  0.14098449260E+01 -0.26529738317E+01  0.10082570029E+02  0.51100000000E-03 0.  1.
         12    1    4    4    0    0  0.73370568219E+01  0.10004830631E+02 -0.36744384374E+02  0.38782455077E+02  0.00000000000E+00 0. -1.
</event>
<event>
 8    1  0.1254059E-006  0.9118800E+02  0.7816164E-02  0.1184000E+00
        -11   -1    0    0    0    0  0.00000000000E+00  0.00000000000E+00  0.45593999997E+02  0.45594000000E+02  0.51100000000E-03 0. -1.
         11   -1    0    0    0    0 -0.00000000000E+00 -0.00000000000E+00 -0.45593999997E+02  0.45594000000E+02  0.51100000000E-03 0.  1.
         23    2    1    2    0    0 -0.35527136788E-14  0.00000000000E+00  0.71054273576E-14  0.91188000000E+02  0.91188000000E+02 0.  0.
    9900012    2    3    3    0    0  0.18046428943E+01 -0.99009542735E+01 -0.35418761249E+02  0.54367159706E+02  0.40000172182E+02 0.  0.
         12    1    3    3    0    0 -0.18046428943E+01  0.99009542735E+01  0.35418761249E+02  0.36820840294E+02  0.00000000000E+00 0. -1.
         11    1    4    4    0    0  0.26619346848E+00 -0.78962381820E+00  0.23594180550E+00  0.86604476421E+00  0.51100000000E-03 0. -1.
        -11    1    4    4    0    0 -0.17642472623E+02 -0.99222065459E+01 -0.14285237075E+02  0.24774483275E+02  0.51100000000E-03 0.  1.
        -12    1    4    4    0    0  0.19180922049E+02  0.81087609057E+00 -0.21369465980E+02  0.28726631667E+02  0.00000000000E+00 0.  1.
</event>
<event>
 8    1  0.1254059E-006  0.9118800E+02  0.7816164E-02  0.1184000E+00
        -11   -1    0    0    0    0  0.00000000000E+00  0.00000000000E+00  0.45593999997E+02  0.45594000000E+02  0.51100000000E-03 0. -1.
         11   -1    0    0    0    0 -0.00000000000E+00 -0.00000000000E+00 -0.45593999997E+02  0.45594000000E+02  0.51100000000E-03 0.  1.
         23    2    1    2    0    0  0.00000000000E+00  0.00000000000E+00  0.35527136788E-14  0.91188000000E+02  0.91188000000E+02 0.  0.
    9900012    2    3    3    0    0  0.11992864641E+02 -0.23485073178E+02  0.25698277384E+02  0.54367096630E+02  0.40000028387E+02 0.  0.
        -12    1    3    3    0    0 -0.11992864641E+02  0.23485073178E+02 -0.25698277384E+02  0.36820903370E+02  0.00000000000E+00 0.  1.
         11    1    4    4    0    0 -0.78202641545E+01 -0.16460185331E+01  0.15559416165E+02  0.17491750630E+02  0.51100000000E-03 0. -1.
        -11    1    4    4    0    0  0.18398377578E+02 -0.21799813615E+02  0.19799825204E+01  0.28594623658E+02  0.51100000000E-03 0.  1.
        -12    1    4    4    0    0  0.14147512181E+01 -0.39241029959E-01  0.81588786990E+01  0.82807223412E+01  0.00000000000E+00 0.  1.
</event>
<event>
 8    1  0.1254059E-006  0.9118800E+02  0.7816164E-02  0.1184000E+00
        -11   -1    0    0    0    0  0.00000000000E+00  0.00000000000E+00  0.45593999997E+02  0.45594000000E+02  0.51100000000E-03 0. -1.
         11   -1    0    0    0    0 -0.00000000000E+00 -0.00000000000E+00 -0.45593999997E+02  0.45594000000E+02  0.51100000000E-03 0.  1.
         23    2    1    2    0    0  0.00000000000E+00  0.17763568394E-14  0.00000000000E+00  0.91188000000E+02  0.91188000000E+02 0.  0.
    9900012    2    3    3    0    0 -0.13473456281E+02  0.10220879348E+02 -0.32707473685E+02  0.54367092439E+02  0.40000018833E+02 0.  0.
         12    1    3    3    0    0  0.13473456281E+02 -0.10220879348E+02  0.32707473685E+02  0.36820907561E+02  0.00000000000E+00 0. -1.
         11    1    4    4    0    0 -0.14758474699E+01  0.13517344398E+01  0.38018119781E+01  0.42964038833E+01  0.51100000000E-03 0. -1.
        -11    1    4    4    0    0 -0.97269576840E+01  0.20090342120E+02 -0.19938107016E+02  0.29929311117E+02  0.51100000000E-03 0.  1.
        -12    1    4    4    0    0 -0.22706511270E+01 -0.11221197212E+02 -0.16571178646E+02  0.20141377439E+02  0.00000000000E+00 0.  1.
</event>
<event>
 8    1  0.1254059E-006  0.9118800E+02  0.7816164E-02  0.1184000E+00
        -11   -1    0    0    0    0  0.00000000000E+00  0.00000000000E+00  0.45593999997E+02  0.45594000000E+02  0.51100000000E-03 0. -1.
         11   -1    0    0    0    0 -0.00000000000E+00 -0.00000000000E+00 -0.45593999997E+02  0.45594000000E+02  0.51100000000E-03 0.  1.
         23    2    1    2    0    0  0.35527136788E-14 -0.35527136788E-14 -0.22204460493E-15  0.91188000000E+02  0.91188000000E+02 0.  0.
    9900012    2    3    3    0    0  0.26249814901E+02 -0.25805786769E+02 -0.88802100878E+00  0.54367082108E+02  0.39999995281E+02 0.  0.
         12    1    3    3    0    0 -0.26249814901E+02  0.25805786769E+02  0.88802100878E+00  0.36820917892E+02  0.00000000000E+00 0. -1.
         11    1    4    4    0    0  0.45892053772E+01 -0.65329298947E+01 -0.15180777805E+02  0.17152142549E+02  0.51100000000E-03 0.  1.
        -11    1    4    4    0    0 -0.33155304985E+00 -0.79076917478E+01 -0.12092351875E+01  0.80064827611E+01  0.51100000000E-03 0. -1.
        -12    1    4    4    0    0  0.21992162574E+02 -0.11365165126E+02  0.15501991984E+02  0.29208456798E+02  0.00000000000E+00 0.  1.
</event>
<event>
 8    1  0.1254059E-006  0.9118800E+02  0.7816164E-02  0.1184000E+00
        -11   -1    0    0    0    0  0.00000000000E+00  0.00000000000E+00  0.45593999997E+02  0.45594000000E+02  0.51100000000E-03 0.  1.
         11   -1    0    0    0    0 -0.00000000000E+00 -0.00000000000E+00 -0.45593999997E+02  0.45594000000E+02  0.51100000000E-03 0. -1.
         23    2    1    2    0    0  0.35527136788E-14  0.00000000000E+00 -0.35527136788E-14  0.91188000000E+02  0.91188000000E+02 0.  0.
    9900012    2    3    3    0    0 -0.29552523453E+02  0.39009166290E+01 -0.21615014346E+02  0.54367114104E+02  0.40000068223E+02 0.  0.
        -12    1    3    3    0    0  0.29552523453E+02 -0.39009166290E+01  0.21615014346E+02  0.36820885896E+02  0.00000000000E+00 0.  1.
         11    1    4    4    0    0  0.10950759082E+01  0.11185761974E+01 -0.91566332971E+01  0.92894745574E+01  0.51100000000E-03 0. -1.
        -11    1    4    4    0    0  0.13212959248E+00  0.36501223245E+01  0.75284637034E+01  0.83677127823E+01  0.51100000000E-03 0.  1.
         12    1    4    4    0    0 -0.30779728954E+02 -0.86778189298E+00 -0.19986844753E+02  0.36709926764E+02  0.00000000000E+00 0. -1.
</event>
<event>
 8    1  0.1254059E-006  0.9118800E+02  0.7816164E-02  0.1184000E+00
        -11   -1    0    0    0    0  0.00000000000E+00  0.00000000000E+00  0.45593999997E+02  0.45594000000E+02  0.51100000000E-03 0. -1.
         11   -1    0    0    0    0 -0.00000000000E+00 -0.00000000000E+00 -0.45593999997E+02  0.45594000000E+02  0.51100000000E-03 0.  1.
         23    2    1    2    0    0 -0.35527136788E-14 -0.17763568394E-14 -0.35527136788E-14  0.91188000000E+02  0.91188000000E+02 0.  0.
    9900012    2    3    3    0    0  0.29837582795E+02  0.11370313944E+02  0.18336255549E+02  0.54367032416E+02  0.39999881999E+02 0.  0.
        -12    1    3    3    0    0 -0.29837582795E+02 -0.11370313944E+02 -0.18336255549E+02  0.36820967584E+02  0.00000000000E+00 0.  1.
         11    1    4    4    0    0  0.30072457100E+02  0.56529052299E+00  0.19273975870E+02  0.35723358961E+02  0.51100000000E-03 0. -1.
        -11    1    4    4    0    0 -0.59018422903E+01 -0.46573855450E+00 -0.11294420303E+01  0.60269639439E+01  0.51100000000E-03 0.  1.
        -12    1    4    4    0    0  0.56669679857E+01  0.11270761976E+02  0.19172170938E+00  0.12616709511E+02  0.00000000000E+00 0.  1.
</event>
<event>
 8    1  0.1254059E-006  0.9118800E+02  0.7816164E-02  0.1184000E+00
        -11   -1    0    0    0    0  0.00000000000E+00  0.00000000000E+00  0.45593999997E+02  0.45594000000E+02  0.51100000000E-03 0.  1.
         11   -1    0    0    0    0 -0.00000000000E+00 -0.00000000000E+00 -0.45593999997E+02  0.45594000000E+02  0.51100000000E-03 0. -1.
         23    2    1    2    0    0  0.00000000000E+00  0.35527136788E-14 -0.35527136788E-14  0.91188000000E+02  0.91188000000E+02 0.  0.
    9900012    2    3    3    0    0 -0.22891005537E+02 -0.21098756750E+02  0.19662730774E+02  0.54367100331E+02  0.40000036825E+02 0.  0.
         12    1    3    3    0    0  0.22891005537E+02  0.21098756750E+02 -0.19662730774E+02  0.36820899669E+02  0.00000000000E+00 0. -1.
         11    1    4    4    0    0 -0.11796906634E+02 -0.15935021074E+02  0.16239411705E+02  0.25628312382E+02  0.51100000000E-03 0. -1.
        -11    1    4    4    0    0 -0.16345956080E+02 -0.52452875078E+00 -0.56246566794E+01  0.17294570639E+02  0.51100000000E-03 0.  1.
         12    1    4    4    0    0  0.52518571762E+01 -0.46392069257E+01  0.90479757490E+01  0.11444217311E+02  0.00000000000E+00 0. -1.
</event>
<event>
 8    1  0.1254059E-006  0.9118800E+02  0.7816164E-02  0.1184000E+00
        -11   -1    0    0    0    0  0.00000000000E+00  0.00000000000E+00  0.45593999997E+02  0.45594000000E+02  0.51100000000E-03 0.  1.
         11   -1    0    0    0    0 -0.00000000000E+00 -0.00000000000E+00 -0.45593999997E+02  0.45594000000E+02  0.51100000000E-03 0. -1.
         23    2    1    2    0    0  0.00000000000E+00 -0.71054273576E-14 -0.13322676296E-14  0.91188000000E+02  0.91188000000E+02 0.  0.
    9900012    2    3    3    0    0  0.67404501874E+01  0.36169939665E+02 -0.14431221681E+01  0.54367071092E+02  0.39999970168E+02 0.  0.
         12    1    3    3    0    0 -0.67404501874E+01 -0.36169939665E+02  0.14431221681E+01  0.36820928908E+02  0.00000000000E+00 0. -1.
         11    1    4    4    0    0  0.80028683738E+00  0.31811675917E+02 -0.12836423930E+02  0.34313218491E+02  0.51100000000E-03 0. -1.
        -11    1    4    4    0    0 -0.24986340430E+01  0.54724997974E+01  0.96399588140E+01  0.11363108391E+02  0.51100000000E-03 0.  1.
         12    1    4    4    0    0  0.84387973931E+01 -0.11142360495E+01  0.17533429481E+01  0.86907442092E+01  0.00000000000E+00 0. -1.
</event>
<event>
 8    1  0.1254059E-006  0.9118800E+02  0.7816164E-02  0.1184000E+00
        -11   -1    0    0    0    0  0.00000000000E+00  0.00000000000E+00  0.45593999997E+02  0.45594000000E+02  0.51100000000E-03 0.  1.
         11   -1    0    0    0    0 -0.00000000000E+00 -0.00000000000E+00 -0.45593999997E+02  0.45594000000E+02  0.51100000000E-03 0. -1.
         23    2    1    2    0    0  0.00000000000E+00  0.35527136788E-14  0.00000000000E+00  0.91188000000E+02  0.91188000000E+02 0.  0.
    9900012    2    3    3    0    0  0.21747363199E+02  0.28718300317E+02  0.76217668475E+01  0.54367083267E+02  0.39999997924E+02 0.  0.
         12    1    3    3    0    0 -0.21747363199E+02 -0.28718300317E+02 -0.76217668475E+01  0.36820916733E+02  0.00000000000E+00 0. -1.
         11    1    4    4    0    0  0.10116898282E+01  0.17226804782E+02  0.78774180836E+00  0.17274456771E+02  0.51100000000E-03 0. -1.
        -11    1    4    4    0    0  0.22710879546E+02  0.18409746145E+02  0.60563528958E+01  0.29856024744E+02  0.51100000000E-03 0.  1.
         12    1    4    4    0    0 -0.19752061751E+01 -0.69182506108E+01  0.77767214331E+00  0.72366017516E+01  0.00000000000E+00 0. -1.
</event>
<event>
 8    1  0.1254059E-006  0.9118800E+02  0.7816164E-02  0.1184000E+00
        -11   -1    0    0    0    0  0.00000000000E+00  0.00000000000E+00  0.45593999997E+02  0.45594000000E+02  0.51100000000E-03 0. -1.
         11   -1    0    0    0    0 -0.00000000000E+00 -0.00000000000E+00 -0.45593999997E+02  0.45594000000E+02  0.51100000000E-03 0.  1.
         23    2    1    2    0    0  0.35527136788E-14  0.00000000000E+00  0.00000000000E+00  0.91188000000E+02  0.91188000000E+02 0.  0.
    9900012    2    3    3    0    0 -0.21455161390E+02 -0.13052370109E+02 -0.26927380190E+02  0.54367189042E+02  0.40000239058E+02 0.  0.
         12    1    3    3    0    0  0.21455161390E+02  0.13052370109E+02  0.26927380190E+02  0.36820810958E+02  0.00000000000E+00 0. -1.
         11    1    4    4    0    0 -0.22753689008E+02 -0.34273723038E+00 -0.15973635851E+02  0.27802965217E+02  0.51100000000E-03 0. -1.
        -11    1    4    4    0    0 -0.68294196910E+01 -0.49009263963E+01 -0.12627445749E+02  0.15169457448E+02  0.51100000000E-03 0.  1.
        -12    1    4    4    0    0  0.81279473086E+01 -0.78087064828E+01  0.16737014104E+01  0.11394766377E+02  0.00000000000E+00 0.  1.
</event>
<event>
 8    1  0.1254059E-006  0.9118800E+02  0.7816164E-02  0.1184000E+00
        -11   -1    0    0    0    0  0.00000000000E+00  0.00000000000E+00  0.45593999997E+02  0.45594000000E+02  0.51100000000E-03 0. -1.
         11   -1    0    0    0    0 -0.00000000000E+00 -0.00000000000E+00 -0.45593999997E+02  0.45594000000E+02  0.51100000000E-03 0.  1.
         23    2    1    2    0    0  0.35527136788E-14 -0.35527136788E-14  0.71054273576E-14  0.91188000000E+02  0.91188000000E+02 0.  0.
    9900012    2    3    3    0    0  0.25687548621E+02 -0.14924269000E+02  0.21753069891E+02  0.54367081910E+02  0.39999994829E+02 0.  0.
        -12    1    3    3    0    0 -0.25687548621E+02  0.14924269000E+02 -0.21753069891E+02  0.36820918090E+02  0.00000000000E+00 0.  1.
         11    1    4    4    0    0  0.18558054522E+02  0.24220454884E+00  0.50679290498E+01  0.19239125651E+02  0.51100000000E-03 0. -1.
        -11    1    4    4    0    0  0.12560246054E+02 -0.16071032784E+02  0.33097654398E+01  0.20663794986E+02  0.51100000000E-03 0.  1.
        -12    1    4    4    0    0 -0.54307519552E+01  0.90455923533E+00  0.13375375401E+02  0.14464161273E+02  0.00000000000E+00 0.  1.
</event>
<event>
 8    1  0.1254059E-006  0.9118800E+02  0.7816164E-02  0.1184000E+00
        -11   -1    0    0    0    0  0.00000000000E+00  0.00000000000E+00  0.45593999997E+02  0.45594000000E+02  0.51100000000E-03 0. -1.
         11   -1    0    0    0    0 -0.00000000000E+00 -0.00000000000E+00 -0.45593999997E+02  0.45594000000E+02  0.51100000000E-03 0.  1.
         23    2    1    2    0    0 -0.11102230246E-15  0.71054273576E-14  0.00000000000E+00  0.91188000000E+02  0.91188000000E+02 0.  0.
    9900012    2    3    3    0    0 -0.91253348598E+00  0.33424945460E+02 -0.15418218809E+02  0.54367066177E+02  0.39999958963E+02 0.  0.
         12    1    3    3    0    0  0.91253348598E+00 -0.33424945460E+02  0.15418218809E+02  0.36820933823E+02  0.00000000000E+00 0. -1.
         11    1    4    4    0    0 -0.47083017022E+00  0.76889582505E+01  0.72379787196E+01  0.10570245798E+02  0.51100000000E-03 0. -1.
        -11    1    4    4    0    0  0.12944637886E+02  0.10667068375E+02 -0.14049616395E+02  0.21880167249E+02  0.51100000000E-03 0.  1.
        -12    1    4    4    0    0 -0.13386341202E+02  0.15068918835E+02 -0.86065811329E+01  0.21916653130E+02  0.00000000000E+00 0.  1.
</event>
<event>
 8    1  0.1254059E-006  0.9118800E+02  0.7816164E-02  0.1184000E+00
        -11   -1    0    0    0    0  0.00000000000E+00  0.00000000000E+00  0.45593999997E+02  0.45594000000E+02  0.51100000000E-03 0.  1.
         11   -1    0    0    0    0 -0.00000000000E+00 -0.00000000000E+00 -0.45593999997E+02  0.45594000000E+02  0.51100000000E-03 0. -1.
         23    2    1    2    0    0 -0.44408920985E-15  0.00000000000E+00  0.00000000000E+00  0.91188000000E+02  0.91188000000E+02 0.  0.
    9900012    2    3    3    0    0  0.28271679313E+01 -0.36092681468E+02  0.67160463538E+01  0.54367084576E+02  0.40000000907E+02 0.  0.
         12    1    3    3    0    0 -0.28271679313E+01  0.36092681468E+02 -0.67160463538E+01  0.36820915424E+02  0.00000000000E+00 0. -1.
         11    1    4    4    0    0 -0.10221482828E+02 -0.16648744219E+02 -0.13123080382E+02  0.23534541301E+02  0.51100000000E-03 0. -1.
        -11    1    4    4    0    0  0.21474523292E+01 -0.54810555987E+01  0.48301208914E+01  0.76146956649E+01  0.51100000000E-03 0.  1.
         12    1    4    4    0    0  0.10901198430E+02 -0.13962881650E+02  0.15009005845E+02  0.23217847610E+02  0.00000000000E+00 0. -1.
</event>
<event>
 8    1  0.1254059E-006  0.9118800E+02  0.7816164E-02  0.1184000E+00
        -11   -1    0    0    0    0  0.00000000000E+00  0.00000000000E+00  0.45593999997E+02  0.45594000000E+02  0.51100000000E-03 0.  1.
         11   -1    0    0    0    0 -0.00000000000E+00 -0.00000000000E+00 -0.45593999997E+02  0.45594000000E+02  0.51100000000E-03 0. -1.
         23    2    1    2    0    0  0.00000000000E+00  0.17763568394E-14  0.00000000000E+00  0.91188000000E+02  0.91188000000E+02 0.  0.
    9900012    2    3    3    0    0 -0.24992715493E+02 -0.96148728571E+01  0.25272492594E+02  0.54367075383E+02  0.39999979950E+02 0.  0.
         12    1    3    3    0    0  0.24992715493E+02  0.96148728571E+01 -0.25272492594E+02  0.36820924617E+02  0.00000000000E+00 0. -1.
         11    1    4    4    0    0 -0.19003649069E+02 -0.22038776582E+00 -0.11483470229E+01  0.19039589014E+02  0.51100000000E-03 0. -1.
        -11    1    4    4    0    0  0.47948531499E+01 -0.11394530975E+02  0.12200433804E+02  0.17368838134E+02  0.51100000000E-03 0.  1.
        -12    1    4    4    0    0 -0.10783919574E+02  0.20000458834E+01  0.14220405812E+02  0.17958648234E+02  0.00000000000E+00 0.  1.
</event>
<event>
 8    1  0.1254059E-006  0.9118800E+02  0.7816164E-02  0.1184000E+00
        -11   -1    0    0    0    0  0.00000000000E+00  0.00000000000E+00  0.45593999997E+02  0.45594000000E+02  0.51100000000E-03 0.  1.
         11   -1    0    0    0    0 -0.00000000000E+00 -0.00000000000E+00 -0.45593999997E+02  0.45594000000E+02  0.51100000000E-03 0. -1.
         23    2    1    2    0    0  0.35527136788E-14  0.17763568394E-14  0.00000000000E+00  0.91188000000E+02  0.91188000000E+02 0.  0.
    9900012    2    3    3    0    0  0.29774551828E+02  0.10335376840E+02  0.19037768903E+02  0.54367073942E+02  0.39999976666E+02 0.  0.
         12    1    3    3    0    0 -0.29774551828E+02 -0.10335376840E+02 -0.19037768903E+02  0.36820926058E+02  0.00000000000E+00 0. -1.
         11    1    4    4    0    0  0.24233063806E+02 -0.10258283657E+02  0.12724698944E+02  0.29229979961E+02  0.51100000000E-03 0. -1.
        -11    1    4    4    0    0  0.36528662067E+00  0.13301381920E+02 -0.13307980692E+01  0.13372779032E+02  0.51100000000E-03 0.  1.
        -12    1    4    4    0    0  0.51762014004E+01  0.72922785773E+01  0.76438680284E+01  0.11764314949E+02  0.00000000000E+00 0.  1.
</event>
<event>
 8    1  0.1254059E-006  0.9118800E+02  0.7816164E-02  0.1184000E+00
        -11   -1    0    0    0    0  0.00000000000E+00  0.00000000000E+00  0.45593999997E+02  0.45594000000E+02  0.51100000000E-03 0.  1.
         11   -1    0    0    0    0 -0.00000000000E+00 -0.00000000000E+00 -0.45593999997E+02  0.45594000000E+02  0.51100000000E-03 0. -1.
         23    2    1    2    0    0 -0.35527136788E-14  0.00000000000E+00  0.35527136788E-14  0.91188000000E+02  0.91188000000E+02 0.  0.
    9900012    2    3    3    0    0  0.20558627586E+02  0.13230879596E+02 -0.27533011836E+02  0.54367080893E+02  0.39999992511E+02 0.  0.
        -12    1    3    3    0    0 -0.20558627586E+02 -0.13230879596E+02  0.27533011836E+02  0.36820919107E+02  0.00000000000E+00 0.  1.
         11    1    4    4    0    0  0.33837862890E+01  0.10640252291E+02 -0.14289635161E+02  0.18134460339E+02  0.51100000000E-03 0. -1.
        -11    1    4    4    0    0  0.24360654723E+02  0.20225341744E+01 -0.44228340715E+01  0.24841368813E+02  0.51100000000E-03 0.  1.
         12    1    4    4    0    0 -0.71858134261E+01  0.56809313052E+00 -0.88205426036E+01  0.11391251741E+02  0.00000000000E+00 0. -1.
</event>
<event>
 8    1  0.1254059E-006  0.9118800E+02  0.7816164E-02  0.1184000E+00
        -11   -1    0    0    0    0  0.00000000000E+00  0.00000000000E+00  0.45593999997E+02  0.45594000000E+02  0.51100000000E-03 0.  1.
         11   -1    0    0    0    0 -0.00000000000E+00 -0.00000000000E+00 -0.45593999997E+02  0.45594000000E+02  0.51100000000E-03 0. -1.
         23    2    1    2    0    0 -0.17763568394E-14 -0.88817841970E-15 -0.71054273576E-14  0.91188000000E+02  0.91188000000E+02 0.  0.
    9900012    2    3    3    0    0 -0.12863241019E+02  0.42976548036E+01  0.34232262286E+02  0.54367074054E+02  0.39999976921E+02 0.  0.
         12    1    3    3    0    0  0.12863241019E+02 -0.42976548036E+01 -0.34232262286E+02  0.36820925946E+02  0.00000000000E+00 0. -1.
         11    1    4    4    0    0  0.32098606335E+01 -0.55663164435E+01  0.49534641172E+01  0.81131924085E+01  0.51100000000E-03 0. -1.
        -11    1    4    4    0    0 -0.15773109482E+02  0.18925739426E+02  0.27664507198E+02  0.37044561737E+02  0.51100000000E-03 0.  1.
        -12    1    4    4    0    0 -0.29999217078E+00 -0.90617681791E+01  0.16142909711E+01  0.92093199083E+01  0.00000000000E+00 0.  1.
</event>
<event>
 8    1  0.1254059E-006  0.9118800E+02  0.7816164E-02  0.1184000E+00
        -11   -1    0    0    0    0  0.00000000000E+00  0.00000000000E+00  0.45593999997E+02  0.45594000000E+02  0.51100000000E-03 0.  1.
         11   -1    0    0    0    0 -0.00000000000E+00 -0.00000000000E+00 -0.45593999997E+02  0.45594000000E+02  0.51100000000E-03 0. -1.
         23    2    1    2    0    0 -0.11102230246E-15  0.00000000000E+00  0.35527136788E-14  0.91188000000E+02  0.91188000000E+02 0.  0.
    9900012    2    3    3    0    0 -0.55722747718E+00  0.26296416929E+02  0.25767566672E+02  0.54367088306E+02  0.40000009411E+02 0.  0.
         12    1    3    3    0    0  0.55722747718E+00 -0.26296416929E+02 -0.25767566672E+02  0.36820911694E+02  0.00000000000E+00 0. -1.
         11    1    4    4    0    0 -0.11178535397E+02  0.75337540793E+01 -0.66413461526E+01  0.15027460967E+02  0.51100000000E-03 0. -1.
        -11    1    4    4    0    0 -0.54630905392E+00  0.24231123512E+01  0.30629103800E+01  0.39435196596E+01  0.51100000000E-03 0.  1.
        -12    1    4    4    0    0  0.11167616973E+02  0.16339550499E+02  0.29346002445E+02  0.35396107679E+02  0.00000000000E+00 0.  1.
</event>
<event>
 8    1  0.1254059E-006  0.9118800E+02  0.7816164E-02  0.1184000E+00
        -11   -1    0    0    0    0  0.00000000000E+00  0.00000000000E+00  0.45593999997E+02  0.45594000000E+02  0.51100000000E-03 0. -1.
         11   -1    0    0    0    0 -0.00000000000E+00 -0.00000000000E+00 -0.45593999997E+02  0.45594000000E+02  0.51100000000E-03 0.  1.
         23    2    1    2    0    0 -0.88817841970E-15 -0.88817841970E-15  0.00000000000E+00  0.91188000000E+02  0.91188000000E+02 0.  0.
    9900012    2    3    3    0    0 -0.12421025860E+01 -0.72758071076E+01  0.36073524590E+02  0.54367090665E+02  0.40000014789E+02 0.  0.
        -12    1    3    3    0    0  0.12421025860E+01  0.72758071076E+01 -0.36073524590E+02  0.36820909335E+02  0.00000000000E+00 0.  1.
         11    1    4    4    0    0 -0.10851242329E+02 -0.18907966958E+01  0.11677651835E+02  0.16052791809E+02  0.51100000000E-03 0. -1.
        -11    1    4    4    0    0  0.30079239156E+01 -0.88635761310E+01  0.28360207685E+02  0.29864895250E+02  0.51100000000E-03 0.  1.
         12    1    4    4    0    0  0.66012158269E+01  0.34785657192E+01 -0.39643349301E+01  0.84494036058E+01  0.00000000000E+00 0. -1.
</event>
<event>
 8    1  0.1254059E-006  0.9118800E+02  0.7816164E-02  0.1184000E+00
        -11   -1    0    0    0    0  0.00000000000E+00  0.00000000000E+00  0.45593999997E+02  0.45594000000E+02  0.51100000000E-03 0.  1.
         11   -1    0    0    0    0 -0.00000000000E+00 -0.00000000000E+00 -0.45593999997E+02  0.45594000000E+02  0.51100000000E-03 0. -1.
         23    2    1    2    0    0 -0.17763568394E-14  0.35527136788E-14  0.00000000000E+00  0.91188000000E+02  0.91188000000E+02 0.  0.
    9900012    2    3    3    0    0 -0.50718072723E+01  0.20653447876E+02 -0.30058085127E+02  0.54367127934E+02  0.40000099752E+02 0.  0.
        -12    1    3    3    0    0  0.50718072723E+01 -0.20653447876E+02  0.30058085127E+02  0.36820872066E+02  0.00000000000E+00 0.  1.
         11    1    4    4    0    0 -0.81248017848E-01 -0.10399893953E+01 -0.14239193316E+01  0.17651418376E+01  0.51100000000E-03 0. -1.
        -11    1    4    4    0    0  0.13256893730E+02  0.43160224131E+01  0.66501377629E+00  0.13957633196E+02  0.51100000000E-03 0.  1.
        -12    1    4    4    0    0 -0.18247452984E+02  0.17377414858E+02 -0.29299179572E+02  0.38644352901E+02  0.00000000000E+00 0.  1.
</event>
<event>
 8    1  0.1254059E-006  0.9118800E+02  0.7816164E-02  0.1184000E+00
        -11   -1    0    0    0    0  0.00000000000E+00  0.00000000000E+00  0.45593999997E+02  0.45594000000E+02  0.51100000000E-03 0.  1.
         11   -1    0    0    0    0 -0.00000000000E+00 -0.00000000000E+00 -0.45593999997E+02  0.45594000000E+02  0.51100000000E-03 0. -1.
         23    2    1    2    0    0 -0.15543122345E-14  0.71054273576E-14  0.00000000000E+00  0.91188000000E+02  0.91188000000E+02 0.  0.
    9900012    2    3    3    0    0  0.53906539036E+00  0.36031922616E+02 -0.75622496889E+01  0.54367113817E+02  0.40000067569E+02 0.  0.
         12    1    3    3    0    0 -0.53906539036E+00 -0.36031922616E+02  0.75622496889E+01  0.36820886183E+02  0.00000000000E+00 0. -1.
         11    1    4    4    0    0  0.87448463500E+01  0.16842301146E+02 -0.10475323761E+02  0.21676435448E+02  0.51100000000E-03 0. -1.
        -11    1    4    4    0    0  0.10258986542E+01  0.22232305499E+02 -0.83824347946E+00  0.22271742820E+02  0.51100000000E-03 0.  1.
         12    1    4    4    0    0 -0.92316796139E+01 -0.30426840292E+01  0.37513175514E+01  0.10418935549E+02  0.00000000000E+00 0. -1.
</event>
<event>
 8    1  0.1254059E-006  0.9118800E+02  0.7816164E-02  0.1184000E+00
        -11   -1    0    0    0    0  0.00000000000E+00  0.00000000000E+00  0.45593999997E+02  0.45594000000E+02  0.51100000000E-03 0. -1.
         11   -1    0    0    0    0 -0.00000000000E+00 -0.00000000000E+00 -0.45593999997E+02  0.45594000000E+02  0.51100000000E-03 0.  1.
         23    2    1    2    0    0  0.00000000000E+00 -0.26645352591E-14  0.00000000000E+00  0.91188000000E+02  0.91188000000E+02 0.  0.
    9900012    2    3    3    0    0  0.29632512183E+02  0.28268208737E+01  0.21672642825E+02  0.54367080110E+02  0.39999990726E+02 0.  0.
         12    1    3    3    0    0 -0.29632512183E+02 -0.28268208737E+01 -0.21672642825E+02  0.36820919890E+02  0.00000000000E+00 0. -1.
         11    1    4    4    0    0  0.80991309303E+00 -0.90681762979E+01  0.18169192049E+01  0.92838018207E+01  0.51100000000E-03 0. -1.
        -11    1    4    4    0    0  0.30954556144E+02  0.16730757238E+02  0.17054006733E+02  0.39101687045E+02  0.51100000000E-03 0.  1.
        -12    1    4    4    0    0 -0.21319570539E+01 -0.48357600661E+01  0.28017168874E+01  0.59815912443E+01  0.00000000000E+00 0.  1.
</event>
<event>
 8    1  0.1254059E-006  0.9118800E+02  0.7816164E-02  0.1184000E+00
        -11   -1    0    0    0    0  0.00000000000E+00  0.00000000000E+00  0.45593999997E+02  0.45594000000E+02  0.51100000000E-03 0.  1.
         11   -1    0    0    0    0 -0.00000000000E+00 -0.00000000000E+00 -0.45593999997E+02  0.45594000000E+02  0.51100000000E-03 0. -1.
         23    2    1    2    0    0 -0.88817841970E-15  0.00000000000E+00 -0.22204460493E-14  0.91188000000E+02  0.91188000000E+02 0.  0.
    9900012    2    3    3    0    0 -0.70654036618E+01 -0.36046017082E+02 -0.25582912666E+01  0.54367080259E+02  0.39999991066E+02 0.  0.
         12    1    3    3    0    0  0.70654036618E+01  0.36046017082E+02  0.25582912666E+01  0.36820919741E+02  0.00000000000E+00 0. -1.
         11    1    4    4    0    0  0.45257626062E-01  0.17245713528E+01  0.56381151370E+01  0.58961459584E+01  0.51100000000E-03 0. -1.
        -11    1    4    4    0    0  0.22550451599E+01 -0.27119743689E+01  0.79920293816E+01  0.87357064710E+01  0.51100000000E-03 0.  1.
        -12    1    4    4    0    0 -0.93657064477E+01 -0.35058614066E+02 -0.16188435785E+02  0.39735227829E+02  0.00000000000E+00 0.  1.
</event>
<event>
 8    1  0.1254059E-006  0.9118800E+02  0.7816164E-02  0.1184000E+00
        -11   -1    0    0    0    0  0.00000000000E+00  0.00000000000E+00  0.45593999997E+02  0.45594000000E+02  0.51100000000E-03 0. -1.
         11   -1    0    0    0    0 -0.00000000000E+00 -0.00000000000E+00 -0.45593999997E+02  0.45594000000E+02  0.51100000000E-03 0.  1.
         23    2    1    2    0    0 -0.35527136788E-14 -0.22204460493E-15  0.00000000000E+00  0.91188000000E+02  0.91188000000E+02 0.  0.
    9900012    2    3    3    0    0 -0.30871308989E+02 -0.15257927564E+01  0.20010336924E+02  0.54367090912E+02  0.40000015353E+02 0.  0.
        -12    1    3    3    0    0  0.30871308989E+02  0.15257927564E+01 -0.20010336924E+02  0.36820909088E+02  0.00000000000E+00 0.  1.
         11    1    4    4    0    0  0.54074909306E+01  0.56077671937E+01 -0.16632767602E+01  0.79658333466E+01  0.51100000000E-03 0.  1.
        -11    1    4    4    0    0 -0.11083782731E+02  0.59858808832E+01  0.59102318910E+01  0.13914447558E+02  0.51100000000E-03 0. -1.
        -12    1    4    4    0    0 -0.25195017189E+02 -0.13119440833E+02  0.15763381793E+02  0.32486810008E+02  0.00000000000E+00 0.  1.
</event>
<event>
 8    1  0.1254059E-006  0.9118800E+02  0.7816164E-02  0.1184000E+00
        -11   -1    0    0    0    0  0.00000000000E+00  0.00000000000E+00  0.45593999997E+02  0.45594000000E+02  0.51100000000E-03 0.  1.
         11   -1    0    0    0    0 -0.00000000000E+00 -0.00000000000E+00 -0.45593999997E+02  0.45594000000E+02  0.51100000000E-03 0. -1.
         23    2    1    2    0    0  0.00000000000E+00  0.00000000000E+00  0.00000000000E+00  0.91188000000E+02  0.91188000000E+02 0.  0.
    9900012    2    3    3    0    0 -0.14265922997E+02 -0.28502799614E+02 -0.18435123819E+02  0.54367082915E+02  0.39999997122E+02 0.  0.
        -12    1    3    3    0    0  0.14265922997E+02  0.28502799614E+02  0.18435123819E+02  0.36820917085E+02  0.00000000000E+00 0.  1.
         11    1    4    4    0    0 -0.59222335905E+00  0.13900554071E+01 -0.71345140564E+01  0.72927548721E+01  0.51100000000E-03 0. -1.
        -11    1    4    4    0    0 -0.27442624007E+00  0.54756226153E+01 -0.71729144846E+01  0.90282033236E+01  0.51100000000E-03 0.  1.
         12    1    4    4    0    0 -0.13399273398E+02 -0.35368477636E+02 -0.41276952775E+01  0.38046124720E+02  0.00000000000E+00 0. -1.
</event>
<event>
 8    1  0.1254059E-006  0.9118800E+02  0.7816164E-02  0.1184000E+00
        -11   -1    0    0    0    0  0.00000000000E+00  0.00000000000E+00  0.45593999997E+02  0.45594000000E+02  0.51100000000E-03 0.  1.
         11   -1    0    0    0    0 -0.00000000000E+00 -0.00000000000E+00 -0.45593999997E+02  0.45594000000E+02  0.51100000000E-03 0. -1.
         23    2    1    2    0    0 -0.71054273576E-14 -0.17763568394E-14  0.17763568394E-14  0.91188000000E+02  0.91188000000E+02 0.  0.
    9900012    2    3    3    0    0  0.33013669888E+02  0.15087547889E+02 -0.61841186869E+01  0.54367084412E+02  0.40000000535E+02 0.  0.
        -12    1    3    3    0    0 -0.33013669888E+02 -0.15087547889E+02  0.61841186869E+01  0.36820915588E+02  0.00000000000E+00 0.  1.
         11    1    4    4    0    0  0.18875768403E+02 -0.42825407630E+01 -0.84584985470E+01  0.21122996618E+02  0.51100000000E-03 0. -1.
        -11    1    4    4    0    0  0.45905826782E+01  0.78570502100E+01  0.12254325291E+02  0.15263524361E+02  0.51100000000E-03 0.  1.
         12    1    4    4    0    0  0.95473188069E+01  0.11513038442E+02 -0.99799454308E+01  0.17980563433E+02  0.00000000000E+00 0. -1.
</event>
<event>
 8    1  0.1254059E-006  0.9118800E+02  0.7816164E-02  0.1184000E+00
        -11   -1    0    0    0    0  0.00000000000E+00  0.00000000000E+00  0.45593999997E+02  0.45594000000E+02  0.51100000000E-03 0.  1.
         11   -1    0    0    0    0 -0.00000000000E+00 -0.00000000000E+00 -0.45593999997E+02  0.45594000000E+02  0.51100000000E-03 0. -1.
         23    2    1    2    0    0  0.26645352591E-14 -0.71054273576E-14 -0.88817841970E-15  0.91188000000E+02  0.91188000000E+02 0.  0.
    9900012    2    3    3    0    0 -0.25229827184E+01 -0.36278164983E+02 -0.57713613919E+01  0.54367091420E+02  0.40000016511E+02 0.  0.
        -12    1    3    3    0    0  0.25229827184E+01  0.36278164983E+02  0.57713613919E+01  0.36820908580E+02  0.00000000000E+00 0.  1.
         11    1    4    4    0    0  0.10704788598E+02 -0.91280205246E+01  0.57373485444E+01  0.15193104562E+02  0.51100000000E-03 0. -1.
        -11    1    4    4    0    0 -0.10553560063E+02 -0.25350701107E+01  0.18963602632E+01  0.11018184650E+02  0.51100000000E-03 0.  1.
         12    1    4    4    0    0 -0.26742112534E+01 -0.24615074347E+02 -0.13405070199E+02  0.28155802209E+02  0.00000000000E+00 0. -1.
</event>
<event>
 8    1  0.1254059E-006  0.9118800E+02  0.7816164E-02  0.1184000E+00
        -11   -1    0    0    0    0  0.00000000000E+00  0.00000000000E+00  0.45593999997E+02  0.45594000000E+02  0.51100000000E-03 0. -1.
         11   -1    0    0    0    0 -0.00000000000E+00 -0.00000000000E+00 -0.45593999997E+02  0.45594000000E+02  0.51100000000E-03 0.  1.
         23    2    1    2    0    0 -0.71054273576E-14  0.00000000000E+00  0.13183898417E-14  0.91188000000E+02  0.91188000000E+02 0.  0.
    9900012    2    3    3    0    0  0.35306590093E+02 -0.10450682735E+02 -0.86622792737E-01  0.54367087774E+02  0.40000008199E+02 0.  0.
         12    1    3    3    0    0 -0.35306590093E+02  0.10450682735E+02  0.86622792737E-01  0.36820912226E+02  0.00000000000E+00 0. -1.
         11    1    4    4    0    0  0.37877835664E+01  0.64276708924E+01  0.10177191474E+02  0.12618933553E+02  0.51100000000E-03 0. -1.
        -11    1    4    4    0    0  0.53798889403E+01  0.16200163471E+01 -0.78248018589E+01  0.96330256082E+01  0.51100000000E-03 0.  1.
         12    1    4    4    0    0  0.26138917587E+02 -0.18498369974E+02 -0.24390124079E+01  0.32115128613E+02  0.00000000000E+00 0. -1.
</event>
<event>
 8    1  0.1254059E-006  0.9118800E+02  0.7816164E-02  0.1184000E+00
        -11   -1    0    0    0    0  0.00000000000E+00  0.00000000000E+00  0.45593999997E+02  0.45594000000E+02  0.51100000000E-03 0.  1.
         11   -1    0    0    0    0 -0.00000000000E+00 -0.00000000000E+00 -0.45593999997E+02  0.45594000000E+02  0.51100000000E-03 0. -1.
         23    2    1    2    0    0  0.00000000000E+00  0.00000000000E+00  0.00000000000E+00  0.91188000000E+02  0.91188000000E+02 0.  0.
    9900012    2    3    3    0    0 -0.19235355205E+02 -0.26345679110E+02 -0.17078864158E+02  0.54367064399E+02  0.39999954910E+02 0.  0.
        -12    1    3    3    0    0  0.19235355205E+02  0.26345679110E+02  0.17078864158E+02  0.36820935601E+02  0.00000000000E+00 0.  1.
         11    1    4    4    0    0 -0.12644453480E+02 -0.30496699065E+02 -0.11222023238E+02  0.34869250974E+02  0.51100000000E-03 0. -1.
        -11    1    4    4    0    0 -0.12062947278E+02  0.70441530868E+00 -0.31513169380E+01  0.12487661777E+02  0.51100000000E-03 0.  1.
         12    1    4    4    0    0  0.54720455525E+01  0.34466046462E+01 -0.27055239822E+01  0.70101516484E+01  0.00000000000E+00 0. -1.
</event>
<event>
 8    1  0.1254059E-006  0.9118800E+02  0.7816164E-02  0.1184000E+00
        -11   -1    0    0    0    0  0.00000000000E+00  0.00000000000E+00  0.45593999997E+02  0.45594000000E+02  0.51100000000E-03 0.  1.
         11   -1    0    0    0    0 -0.00000000000E+00 -0.00000000000E+00 -0.45593999997E+02  0.45594000000E+02  0.51100000000E-03 0. -1.
         23    2    1    2    0    0 -0.88817841970E-15  0.35527136788E-14 -0.35527136788E-14  0.91188000000E+02  0.91188000000E+02 0.  0.
    9900012    2    3    3    0    0 -0.69134656057E+01  0.31744066656E+02 -0.17329161858E+02  0.54367059962E+02  0.39999944796E+02 0.  0.
        -12    1    3    3    0    0  0.69134656057E+01 -0.31744066656E+02  0.17329161858E+02  0.36820940038E+02  0.00000000000E+00 0.  1.
         11    1    4    4    0    0  0.50842542607E+01  0.10252278332E+02 -0.20755508479E+02  0.23701265470E+02  0.51100000000E-03 0. -1.
        -11    1    4    4    0    0 -0.12697973990E+02  0.19738410068E+02 -0.32805508828E+01  0.23698214908E+02  0.51100000000E-03 0.  1.
        -12    1    4    4    0    0  0.70025412343E+00  0.17533782558E+01  0.67068975035E+01  0.69675795846E+01  0.00000000000E+00 0.  1.
</event>
<event>
 8    1  0.1254059E-006  0.9118800E+02  0.7816164E-02  0.1184000E+00
        -11   -1    0    0    0    0  0.00000000000E+00  0.00000000000E+00  0.45593999997E+02  0.45594000000E+02  0.51100000000E-03 0. -1.
         11   -1    0    0    0    0 -0.00000000000E+00 -0.00000000000E+00 -0.45593999997E+02  0.45594000000E+02  0.51100000000E-03 0.  1.
         23    2    1    2    0    0 -0.17763568394E-14  0.71054273576E-14 -0.44408920985E-15  0.91188000000E+02  0.91188000000E+02 0.  0.
    9900012    2    3    3    0    0  0.11552812005E+02  0.34932316895E+02 -0.14298021038E+01  0.54367101547E+02  0.40000039596E+02 0.  0.
         12    1    3    3    0    0 -0.11552812005E+02 -0.34932316895E+02  0.14298021038E+01  0.36820898453E+02  0.00000000000E+00 0. -1.
         11    1    4    4    0    0 -0.70142942325E+01  0.18239999196E+02 -0.90404425626E+01  0.21532010966E+02  0.51100000000E-03 0.  1.
        -11    1    4    4    0    0  0.93274786251E+01  0.42950663925E+01  0.12905039157E+02  0.16492103829E+02  0.51100000000E-03 0. -1.
         12    1    4    4    0    0  0.92396276123E+01  0.12397251307E+02 -0.52943986982E+01  0.16342986751E+02  0.00000000000E+00 0. -1.
</event>
<event>
 8    1  0.1254059E-006  0.9118800E+02  0.7816164E-02  0.1184000E+00
        -11   -1    0    0    0    0  0.00000000000E+00  0.00000000000E+00  0.45593999997E+02  0.45594000000E+02  0.51100000000E-03 0.  1.
         11   -1    0    0    0    0 -0.00000000000E+00 -0.00000000000E+00 -0.45593999997E+02  0.45594000000E+02  0.51100000000E-03 0. -1.
         23    2    1    2    0    0  0.00000000000E+00 -0.35527136788E-14  0.10269562978E-14  0.91188000000E+02  0.91188000000E+02 0.  0.
    9900012    2    3    3    0    0 -0.24365666279E+02  0.27605260264E+02  0.21153492599E+00  0.54367070700E+02  0.39999969275E+02 0.  0.
        -12    1    3    3    0    0  0.24365666279E+02 -0.27605260264E+02 -0.21153492599E+00  0.36820929300E+02  0.00000000000E+00 0.  1.
         11    1    4    4    0    0 -0.12241414983E+02  0.10301974215E+01 -0.10185681123E+02  0.15958121685E+02  0.51100000000E-03 0. -1.
        -11    1    4    4    0    0 -0.16696894310E+02  0.93223174407E+01  0.51163770682E+01  0.19795686314E+02  0.51100000000E-03 0.  1.
        -12    1    4    4    0    0  0.45726430138E+01  0.17252745402E+02  0.52808389807E+01  0.18613262701E+02  0.00000000000E+00 0.  1.
</event>
<event>
 8    1  0.1254059E-006  0.9118800E+02  0.7816164E-02  0.1184000E+00
        -11   -1    0    0    0    0  0.00000000000E+00  0.00000000000E+00  0.45593999997E+02  0.45594000000E+02  0.51100000000E-03 0. -1.
         11   -1    0    0    0    0 -0.00000000000E+00 -0.00000000000E+00 -0.45593999997E+02  0.45594000000E+02  0.51100000000E-03 0.  1.
         23    2    1    2    0    0  0.00000000000E+00 -0.35527136788E-14 -0.35527136788E-14  0.91188000000E+02  0.91188000000E+02 0.  0.
    9900012    2    3    3    0    0 -0.12819777032E+02  0.23951046169E+02  0.24855094570E+02  0.54367149632E+02  0.40000149216E+02 0.  0.
        -12    1    3    3    0    0  0.12819777032E+02 -0.23951046169E+02 -0.24855094570E+02  0.36820850368E+02  0.00000000000E+00 0.  1.
         11    1    4    4    0    0 -0.17507725911E+02  0.60729673884E+01  0.11868408609E+02  0.22005920173E+02  0.51100000000E-03 0. -1.
        -11    1    4    4    0    0 -0.42520800330E+01  0.12634186372E+02 -0.26598182940E+01  0.13593288178E+02  0.51100000000E-03 0.  1.
        -12    1    4    4    0    0  0.89400289120E+01  0.52438924091E+01  0.15646504254E+02  0.18767941281E+02  0.00000000000E+00 0.  1.
</event>
<event>
 8    1  0.1254059E-006  0.9118800E+02  0.7816164E-02  0.1184000E+00
        -11   -1    0    0    0    0  0.00000000000E+00  0.00000000000E+00  0.45593999997E+02  0.45594000000E+02  0.51100000000E-03 0.  1.
         11   -1    0    0    0    0 -0.00000000000E+00 -0.00000000000E+00 -0.45593999997E+02  0.45594000000E+02  0.51100000000E-03 0. -1.
         23    2    1    2    0    0  0.00000000000E+00  0.00000000000E+00  0.00000000000E+00  0.91188000000E+02  0.91188000000E+02 0.  0.
    9900012    2    3    3    0    0  0.10532584959E+02 -0.31478906086E+02  0.15934962270E+02  0.54367083434E+02  0.39999998304E+02 0.  0.
         12    1    3    3    0    0 -0.10532584959E+02  0.31478906086E+02 -0.15934962270E+02  0.36820916566E+02  0.00000000000E+00 0. -1.
         11    1    4    4    0    0 -0.86076752300E+00  0.48995511142E+00 -0.19997120042E+01  0.22315521730E+01  0.51100000000E-03 0. -1.
        -11    1    4    4    0    0  0.24090625469E+02 -0.23612774140E+02  0.13057440441E+02  0.36172062274E+02  0.51100000000E-03 0.  1.
        -12    1    4    4    0    0 -0.12697272987E+02 -0.83560870574E+01  0.48772338327E+01  0.15963468986E+02  0.00000000000E+00 0.  1.
</event>
<event>
 8    1  0.1254059E-006  0.9118800E+02  0.7816164E-02  0.1184000E+00
        -11   -1    0    0    0    0  0.00000000000E+00  0.00000000000E+00  0.45593999997E+02  0.45594000000E+02  0.51100000000E-03 0.  1.
         11   -1    0    0    0    0 -0.00000000000E+00 -0.00000000000E+00 -0.45593999997E+02  0.45594000000E+02  0.51100000000E-03 0. -1.
         23    2    1    2    0    0 -0.17763568394E-14  0.00000000000E+00  0.00000000000E+00  0.91188000000E+02  0.91188000000E+02 0.  0.
    9900012    2    3    3    0    0 -0.86004418377E+01  0.35304140930E+02 -0.59523418306E+01  0.54367077417E+02  0.39999984587E+02 0.  0.
        -12    1    3    3    0    0  0.86004418377E+01 -0.35304140930E+02  0.59523418306E+01  0.36820922583E+02  0.00000000000E+00 0.  1.
         11    1    4    4    0    0 -0.11024782974E+02  0.18163316353E+02  0.54175442225E+00  0.21254303063E+02  0.51100000000E-03 0. -1.
        -11    1    4    4    0    0  0.87894226077E+01 -0.37806762324E+01 -0.58909526297E+01  0.11236137490E+02  0.51100000000E-03 0.  1.
        -12    1    4    4    0    0 -0.63650814709E+01  0.20921500810E+02 -0.60314362319E+00  0.21876636864E+02  0.00000000000E+00 0.  1.
</event>
<event>
 8    1  0.1254059E-006  0.9118800E+02  0.7816164E-02  0.1184000E+00
        -11   -1    0    0    0    0  0.00000000000E+00  0.00000000000E+00  0.45593999997E+02  0.45594000000E+02  0.51100000000E-03 0.  1.
         11   -1    0    0    0    0 -0.00000000000E+00 -0.00000000000E+00 -0.45593999997E+02  0.45594000000E+02  0.51100000000E-03 0. -1.
         23    2    1    2    0    0  0.00000000000E+00 -0.88817841970E-15  0.71054273576E-14  0.91188000000E+02  0.91188000000E+02 0.  0.
    9900012    2    3    3    0    0 -0.16316004464E+02 -0.42419138847E+01  0.32734905141E+02  0.54367084074E+02  0.39999999763E+02 0.  0.
         12    1    3    3    0    0  0.16316004464E+02  0.42419138847E+01 -0.32734905141E+02  0.36820915926E+02  0.00000000000E+00 0. -1.
         11    1    4    4    0    0  0.44707180053E+00 -0.86367937896E+01  0.18901239841E+01  0.88524939478E+01  0.51100000000E-03 0. -1.
        -11    1    4    4    0    0 -0.14437850053E+02 -0.10370148464E+02  0.21457632863E+02  0.27864341041E+02  0.51100000000E-03 0.  1.
        -12    1    4    4    0    0 -0.23252262113E+01  0.14765028369E+02  0.93871482935E+01  0.17650249084E+02  0.00000000000E+00 0.  1.
</event>
<event>
 8    1  0.1254059E-006  0.9118800E+02  0.7816164E-02  0.1184000E+00
        -11   -1    0    0    0    0  0.00000000000E+00  0.00000000000E+00  0.45593999997E+02  0.45594000000E+02  0.51100000000E-03 0.  1.
         11   -1    0    0    0    0 -0.00000000000E+00 -0.00000000000E+00 -0.45593999997E+02  0.45594000000E+02  0.51100000000E-03 0. -1.
         23    2    1    2    0    0 -0.13322676296E-14  0.00000000000E+00  0.88817841970E-15  0.91188000000E+02  0.91188000000E+02 0.  0.
    9900012    2    3    3    0    0 -0.26927891560E+01 -0.36032389124E+02 -0.70852668529E+01  0.54367011613E+02  0.39999834573E+02 0.  0.
        -12    1    3    3    0    0  0.26927891560E+01  0.36032389124E+02  0.70852668529E+01  0.36820988387E+02  0.00000000000E+00 0.  1.
         11    1    4    4    0    0 -0.12845854952E+02 -0.30293490702E+02  0.21681163943E-02  0.32904582862E+02  0.51100000000E-03 0. -1.
        -11    1    4    4    0    0 -0.10228992420E+01  0.24990588559E+01  0.31966003328E+01  0.41844798928E+01  0.51100000000E-03 0.  1.
         12    1    4    4    0    0  0.11175965038E+02 -0.82379572779E+01 -0.10284035302E+02  0.17277948858E+02  0.00000000000E+00 0. -1.
</event>
<event>
 8    1  0.1254059E-006  0.9118800E+02  0.7816164E-02  0.1184000E+00
        -11   -1    0    0    0    0  0.00000000000E+00  0.00000000000E+00  0.45593999997E+02  0.45594000000E+02  0.51100000000E-03 0.  1.
         11   -1    0    0    0    0 -0.00000000000E+00 -0.00000000000E+00 -0.45593999997E+02  0.45594000000E+02  0.51100000000E-03 0. -1.
         23    2    1    2    0    0 -0.17763568394E-14  0.88817841970E-15  0.00000000000E+00  0.91188000000E+02  0.91188000000E+02 0.  0.
    9900012    2    3    3    0    0  0.12212005265E+02  0.48626087438E+01 -0.34394799985E+02  0.54367077925E+02  0.39999985747E+02 0.  0.
        -12    1    3    3    0    0 -0.12212005265E+02 -0.48626087438E+01  0.34394799985E+02  0.36820922075E+02  0.00000000000E+00 0.  1.
         11    1    4    4    0    0 -0.10673804814E+02 -0.33844078085E-01 -0.51994528637E+01  0.11872892022E+02  0.51100000000E-03 0.  1.
        -11    1    4    4    0    0  0.35459719630E+01  0.21003391671E+01 -0.20837101384E+02  0.21240765903E+02  0.51100000000E-03 0. -1.
         12    1    4    4    0    0  0.19339838116E+02  0.27961136548E+01 -0.83582457374E+01  0.21253420001E+02  0.00000000000E+00 0. -1.
</event>
<event>
 8    1  0.1254059E-006  0.9118800E+02  0.7816164E-02  0.1184000E+00
        -11   -1    0    0    0    0  0.00000000000E+00  0.00000000000E+00  0.45593999997E+02  0.45594000000E+02  0.51100000000E-03 0.  1.
         11   -1    0    0    0    0 -0.00000000000E+00 -0.00000000000E+00 -0.45593999997E+02  0.45594000000E+02  0.51100000000E-03 0. -1.
         23    2    1    2    0    0  0.00000000000E+00  0.00000000000E+00 -0.44408920985E-15  0.91188000000E+02  0.91188000000E+02 0.  0.
    9900012    2    3    3    0    0  0.14905136477E+02  0.33659431940E+02 -0.81273294744E+00  0.54367068633E+02  0.39999964562E+02 0.  0.
        -12    1    3    3    0    0 -0.14905136477E+02 -0.33659431940E+02  0.81273294744E+00  0.36820931367E+02  0.00000000000E+00 0.  1.
         11    1    4    4    0    0  0.16431872450E+02  0.26221642350E+02 -0.13129201256E+02  0.33614831334E+02  0.51100000000E-03 0. -1.
        -11    1    4    4    0    0  0.64784443173E+01  0.24322145319E+01  0.73090452080E+01  0.10065190034E+02  0.51100000000E-03 0.  1.
        -12    1    4    4    0    0 -0.80051802903E+01  0.50055750575E+01  0.50074231002E+01  0.10687047265E+02  0.00000000000E+00 0.  1.
</event>
<event>
 8    1  0.1254059E-006  0.9118800E+02  0.7816164E-02  0.1184000E+00
        -11   -1    0    0    0    0  0.00000000000E+00  0.00000000000E+00  0.45593999997E+02  0.45594000000E+02  0.51100000000E-03 0. -1.
         11   -1    0    0    0    0 -0.00000000000E+00 -0.00000000000E+00 -0.45593999997E+02  0.45594000000E+02  0.51100000000E-03 0.  1.
         23    2    1    2    0    0  0.35527136788E-14  0.00000000000E+00  0.00000000000E+00  0.91188000000E+02  0.91188000000E+02 0.  0.
    9900012    2    3    3    0    0 -0.25410133593E+02 -0.86510006328E+01 -0.25204460508E+02  0.54367088405E+02  0.40000009637E+02 0.  0.
         12    1    3    3    0    0  0.25410133593E+02  0.86510006328E+01  0.25204460508E+02  0.36820911595E+02  0.00000000000E+00 0. -1.
         11    1    4    4    0    0 -0.16376869146E+01 -0.14261665665E+02 -0.40045929982E+01  0.14903485878E+02  0.51100000000E-03 0. -1.
        -11    1    4    4    0    0 -0.13979827015E+02 -0.87085040954E+00  0.13167209135E+01  0.14068677906E+02  0.51100000000E-03 0.  1.
        -12    1    4    4    0    0 -0.97926196637E+01  0.64815154415E+01 -0.22516588423E+02  0.25394924621E+02  0.00000000000E+00 0.  1.
</event>
<event>
 8    1  0.1254059E-006  0.9118800E+02  0.7816164E-02  0.1184000E+00
        -11   -1    0    0    0    0  0.00000000000E+00  0.00000000000E+00  0.45593999997E+02  0.45594000000E+02  0.51100000000E-03 0. -1.
         11   -1    0    0    0    0 -0.00000000000E+00 -0.00000000000E+00 -0.45593999997E+02  0.45594000000E+02  0.51100000000E-03 0.  1.
         23    2    1    2    0    0  0.00000000000E+00 -0.17763568394E-14  0.00000000000E+00  0.91188000000E+02  0.91188000000E+02 0.  0.
    9900012    2    3    3    0    0  0.22596716980E+02 -0.13626733288E+02  0.25680361623E+02  0.54367075902E+02  0.39999981133E+02 0.  0.
        -12    1    3    3    0    0 -0.22596716980E+02  0.13626733288E+02 -0.25680361623E+02  0.36820924098E+02  0.00000000000E+00 0.  1.
         11    1    4    4    0    0  0.42635793896E+01  0.87457967019E+01  0.21234376556E+02  0.23357350388E+02  0.51100000000E-03 0. -1.
        -11    1    4    4    0    0  0.16134405648E+01 -0.88270057284E+01 -0.28455088432E+00  0.89777608596E+01  0.51100000000E-03 0.  1.
        -12    1    4    4    0    0  0.16719697025E+02 -0.13545524261E+02  0.47305359512E+01  0.22031964654E+02  0.00000000000E+00 0.  1.
</event>
<event>
 8    1  0.1254059E-006  0.9118800E+02  0.7816164E-02  0.1184000E+00
        -11   -1    0    0    0    0  0.00000000000E+00  0.00000000000E+00  0.45593999997E+02  0.45594000000E+02  0.51100000000E-03 0.  1.
         11   -1    0    0    0    0 -0.00000000000E+00 -0.00000000000E+00 -0.45593999997E+02  0.45594000000E+02  0.51100000000E-03 0. -1.
         23    2    1    2    0    0 -0.35527136788E-14  0.00000000000E+00  0.88817841970E-15  0.91188000000E+02  0.91188000000E+02 0.  0.
    9900012    2    3    3    0    0  0.26176758168E+02  0.25157989112E+02 -0.61342613087E+01  0.54367133006E+02  0.40000111315E+02 0.  0.
         12    1    3    3    0    0 -0.26176758168E+02 -0.25157989112E+02  0.61342613087E+01  0.36820866994E+02  0.00000000000E+00 0. -1.
         11    1    4    4    0    0 -0.31489739920E+01 -0.18840539832E+01 -0.36735462309E+01  0.51923635067E+01  0.51100000000E-03 0. -1.
        -11    1    4    4    0    0  0.23262972552E+02  0.18582414347E+02  0.11365394022E+02  0.31869173137E+02  0.51100000000E-03 0.  1.
        -12    1    4    4    0    0  0.60627596076E+01  0.84596287486E+01 -0.13826109099E+02  0.17305596362E+02  0.00000000000E+00 0.  1.
</event>
<event>
 8    1  0.1254059E-006  0.9118800E+02  0.7816164E-02  0.1184000E+00
        -11   -1    0    0    0    0  0.00000000000E+00  0.00000000000E+00  0.45593999997E+02  0.45594000000E+02  0.51100000000E-03 0. -1.
         11   -1    0    0    0    0 -0.00000000000E+00 -0.00000000000E+00 -0.45593999997E+02  0.45594000000E+02  0.51100000000E-03 0.  1.
         23    2    1    2    0    0 -0.88817841970E-15 -0.17763568394E-14  0.00000000000E+00  0.91188000000E+02  0.91188000000E+02 0.  0.
    9900012    2    3    3    0    0  0.46448676597E+01  0.81363268115E+01 -0.35609054464E+02  0.54367090595E+02  0.40000014630E+02 0.  0.
         12    1    3    3    0    0 -0.46448676597E+01 -0.81363268115E+01  0.35609054464E+02  0.36820909405E+02  0.00000000000E+00 0. -1.
         11    1    4    4    0    0  0.60291930009E+01 -0.13422989240E+01  0.19114971800E+01  0.64658144401E+01  0.51100000000E-03 0. -1.
        -11    1    4    4    0    0 -0.53023258702E+01 -0.59491149890E+00 -0.36673373383E+02  0.37059477801E+02  0.51100000000E-03 0.  1.
        -12    1    4    4    0    0  0.39180005290E+01  0.10073537234E+02 -0.84717826144E+00  0.10841798355E+02  0.00000000000E+00 0.  1.
</event>
<event>
 8    1  0.1254059E-006  0.9118800E+02  0.7816164E-02  0.1184000E+00
        -11   -1    0    0    0    0  0.00000000000E+00  0.00000000000E+00  0.45593999997E+02  0.45594000000E+02  0.51100000000E-03 0.  1.
         11   -1    0    0    0    0 -0.00000000000E+00 -0.00000000000E+00 -0.45593999997E+02  0.45594000000E+02  0.51100000000E-03 0. -1.
         23    2    1    2    0    0  0.00000000000E+00  0.00000000000E+00 -0.88817841970E-15  0.91188000000E+02  0.91188000000E+02 0.  0.
    9900012    2    3    3    0    0 -0.32380334815E+02  0.15915577453E+02 -0.73469895472E+01  0.54367218588E+02  0.40000306415E+02 0.  0.
        -12    1    3    3    0    0  0.32380334815E+02 -0.15915577453E+02  0.73469895472E+01  0.36820781412E+02  0.00000000000E+00 0.  1.
         11    1    4    4    0    0 -0.70607982268E+01  0.80972376592E+00 -0.67467239846E+01  0.97994290121E+01  0.51100000000E-03 0. -1.
        -11    1    4    4    0    0 -0.87331740680E+01 -0.10039119033E+02  0.44379134473E+01  0.14026664475E+02  0.51100000000E-03 0.  1.
        -12    1    4    4    0    0 -0.16586362520E+02  0.25144972720E+02 -0.50381790099E+01  0.30541125101E+02  0.00000000000E+00 0.  1.
</event>
<event>
 8    1  0.1254059E-006  0.9118800E+02  0.7816164E-02  0.1184000E+00
        -11   -1    0    0    0    0  0.00000000000E+00  0.00000000000E+00  0.45593999997E+02  0.45594000000E+02  0.51100000000E-03 0.  1.
         11   -1    0    0    0    0 -0.00000000000E+00 -0.00000000000E+00 -0.45593999997E+02  0.45594000000E+02  0.51100000000E-03 0. -1.
         23    2    1    2    0    0  0.00000000000E+00  0.00000000000E+00  0.00000000000E+00  0.91188000000E+02  0.91188000000E+02 0.  0.
    9900012    2    3    3    0    0  0.10468277645E+02  0.19741953480E+02 -0.29265155141E+02  0.54367097384E+02  0.40000030106E+02 0.  0.
        -12    1    3    3    0    0 -0.10468277645E+02 -0.19741953480E+02  0.29265155141E+02  0.36820902616E+02  0.00000000000E+00 0.  1.
         11    1    4    4    0    0 -0.91915912944E+01  0.12365965764E+02 -0.94274761549E+01  0.18063215846E+02  0.51100000000E-03 0. -1.
        -11    1    4    4    0    0  0.36010706081E+01  0.32160469268E+01  0.46651255060E+01  0.67137220383E+01  0.51100000000E-03 0.  1.
         12    1    4    4    0    0  0.16058798331E+02  0.41599407896E+01 -0.24502804492E+02  0.29590159499E+02  0.00000000000E+00 0. -1.
</event>
<event>
 8    1  0.1254059E-006  0.9118800E+02  0.7816164E-02  0.1184000E+00
        -11   -1    0    0    0    0  0.00000000000E+00  0.00000000000E+00  0.45593999997E+02  0.45594000000E+02  0.51100000000E-03 0.  1.
         11   -1    0    0    0    0 -0.00000000000E+00 -0.00000000000E+00 -0.45593999997E+02  0.45594000000E+02  0.51100000000E-03 0. -1.
         23    2    1    2    0    0  0.00000000000E+00  0.88817841970E-15  0.00000000000E+00  0.91188000000E+02  0.91188000000E+02 0.  0.
    9900012    2    3    3    0    0 -0.14933337713E+02  0.14743585425E+01 -0.33624425477E+02  0.54367077999E+02  0.39999985914E+02 0.  0.
        -12    1    3    3    0    0  0.14933337713E+02 -0.14743585425E+01  0.33624425477E+02  0.36820922001E+02  0.00000000000E+00 0.  1.
         11    1    4    4    0    0 -0.12107169485E+02 -0.11021813669E+02 -0.26101847258E+02  0.30811854213E+02  0.51100000000E-03 0. -1.
        -11    1    4    4    0    0  0.52969910223E+01 -0.99888310474E+00  0.12393234086E+01  0.55309858180E+01  0.51100000000E-03 0.  1.
        -12    1    4    4    0    0 -0.81231592502E+01  0.13495055316E+02 -0.87619016271E+01  0.18024237967E+02  0.00000000000E+00 0.  1.
</event>
<event>
 8    1  0.1254059E-006  0.9118800E+02  0.7816164E-02  0.1184000E+00
        -11   -1    0    0    0    0  0.00000000000E+00  0.00000000000E+00  0.45593999997E+02  0.45594000000E+02  0.51100000000E-03 0. -1.
         11   -1    0    0    0    0 -0.00000000000E+00 -0.00000000000E+00 -0.45593999997E+02  0.45594000000E+02  0.51100000000E-03 0.  1.
         23    2    1    2    0    0  0.00000000000E+00  0.35527136788E-14 -0.17763568394E-14  0.91188000000E+02  0.91188000000E+02 0.  0.
    9900012    2    3    3    0    0 -0.21725381725E+02  0.26782195969E+02 -0.12903516360E+02  0.54367096067E+02  0.40000027103E+02 0.  0.
         12    1    3    3    0    0  0.21725381725E+02 -0.26782195969E+02  0.12903516360E+02  0.36820903933E+02  0.00000000000E+00 0. -1.
         11    1    4    4    0    0 -0.28471346950E+01 -0.12180211915E+01  0.76588541211E+01  0.82612225671E+01  0.51100000000E-03 0. -1.
        -11    1    4    4    0    0 -0.21234112003E+02  0.11169122760E+02 -0.93748558864E+01  0.25758973949E+02  0.51100000000E-03 0.  1.
         12    1    4    4    0    0  0.23558649729E+01  0.16831094400E+02 -0.11187514595E+02  0.20346899550E+02  0.00000000000E+00 0. -1.
</event>
<event>
 8    1  0.1254059E-006  0.9118800E+02  0.7816164E-02  0.1184000E+00
        -11   -1    0    0    0    0  0.00000000000E+00  0.00000000000E+00  0.45593999997E+02  0.45594000000E+02  0.51100000000E-03 0. -1.
         11   -1    0    0    0    0 -0.00000000000E+00 -0.00000000000E+00 -0.45593999997E+02  0.45594000000E+02  0.51100000000E-03 0.  1.
         23    2    1    2    0    0  0.11102230246E-15  0.00000000000E+00  0.00000000000E+00  0.91188000000E+02  0.91188000000E+02 0.  0.
    9900012    2    3    3    0    0  0.17538128252E+00  0.32427440712E+02  0.17441625442E+02  0.54367082470E+02  0.39999996106E+02 0.  0.
         12    1    3    3    0    0 -0.17538128252E+00 -0.32427440712E+02 -0.17441625442E+02  0.36820917530E+02  0.00000000000E+00 0. -1.
         11    1    4    4    0    0 -0.48306095505E+01 -0.50369612869E+01 -0.29525954901E+01  0.75778353125E+01  0.51100000000E-03 0. -1.
        -11    1    4    4    0    0 -0.38929265706E+01  0.30592461405E+02  0.15695577607E+02  0.34603536363E+02  0.51100000000E-03 0.  1.
        -12    1    4    4    0    0  0.88989174036E+01  0.68719405935E+01  0.46986433249E+01  0.12185710795E+02  0.00000000000E+00 0.  1.
</event>
<event>
 8    1  0.1254059E-006  0.9118800E+02  0.7816164E-02  0.1184000E+00
        -11   -1    0    0    0    0  0.00000000000E+00  0.00000000000E+00  0.45593999997E+02  0.45594000000E+02  0.51100000000E-03 0.  1.
         11   -1    0    0    0    0 -0.00000000000E+00 -0.00000000000E+00 -0.45593999997E+02  0.45594000000E+02  0.51100000000E-03 0. -1.
         23    2    1    2    0    0  0.00000000000E+00  0.00000000000E+00 -0.35527136788E-14  0.91188000000E+02  0.91188000000E+02 0.  0.
    9900012    2    3    3    0    0 -0.17761002118E+02  0.21291929612E+02  0.24227666607E+02  0.54367091645E+02  0.40000017024E+02 0.  0.
         12    1    3    3    0    0  0.17761002118E+02 -0.21291929612E+02 -0.24227666607E+02  0.36820908355E+02  0.00000000000E+00 0. -1.
         11    1    4    4    0    0  0.85994328896E+00  0.15113749797E+02  0.52886161390E+01  0.16035410700E+02  0.51100000000E-03 0. -1.
        -11    1    4    4    0    0 -0.39904781067E+01  0.20681636786E+01  0.22316064889E+02  0.22764181709E+02  0.51100000000E-03 0.  1.
        -12    1    4    4    0    0 -0.14630467301E+02  0.41100161365E+01 -0.33770144204E+01  0.15567499236E+02  0.00000000000E+00 0.  1.
</event>
<event>
 8    1  0.1254059E-006  0.9118800E+02  0.7816164E-02  0.1184000E+00
        -11   -1    0    0    0    0  0.00000000000E+00  0.00000000000E+00  0.45593999997E+02  0.45594000000E+02  0.51100000000E-03 0. -1.
         11   -1    0    0    0    0 -0.00000000000E+00 -0.00000000000E+00 -0.45593999997E+02  0.45594000000E+02  0.51100000000E-03 0.  1.
         23    2    1    2    0    0 -0.11102230246E-15  0.00000000000E+00 -0.35527136788E-14  0.91188000000E+02  0.91188000000E+02 0.  0.
    9900012    2    3    3    0    0 -0.89075624316E+00 -0.26159732450E+02 -0.25897122981E+02  0.54367000187E+02  0.39999808526E+02 0.  0.
         12    1    3    3    0    0  0.89075624316E+00  0.26159732450E+02  0.25897122981E+02  0.36820999813E+02  0.00000000000E+00 0. -1.
         11    1    4    4    0    0  0.13400593416E+01 -0.71976529237E+01  0.19912181130E+01  0.75872865034E+01  0.51100000000E-03 0.  1.
        -11    1    4    4    0    0  0.11123957003E-01 -0.93429354530E+01  0.62503876476E+01  0.11240903550E+02  0.51100000000E-03 0. -1.
        -12    1    4    4    0    0 -0.22419395418E+01 -0.96191440732E+01 -0.34138728741E+02  0.35538810133E+02  0.00000000000E+00 0.  1.
</event>
<event>
 8    1  0.1254059E-006  0.9118800E+02  0.7816164E-02  0.1184000E+00
        -11   -1    0    0    0    0  0.00000000000E+00  0.00000000000E+00  0.45593999997E+02  0.45594000000E+02  0.51100000000E-03 0. -1.
         11   -1    0    0    0    0 -0.00000000000E+00 -0.00000000000E+00 -0.45593999997E+02  0.45594000000E+02  0.51100000000E-03 0.  1.
         23    2    1    2    0    0  0.00000000000E+00  0.17763568394E-14 -0.35527136788E-14  0.91188000000E+02  0.91188000000E+02 0.  0.
    9900012    2    3    3    0    0 -0.19894675617E+02 -0.15277018189E+01 -0.30945885281E+02  0.54367084659E+02  0.40000001096E+02 0.  0.
         12    1    3    3    0    0  0.19894675617E+02  0.15277018189E+01  0.30945885281E+02  0.36820915341E+02  0.00000000000E+00 0. -1.
         11    1    4    4    0    0  0.25753322867E+01  0.39428004722E+01 -0.46016769728E+00  0.47317825945E+01  0.51100000000E-03 0. -1.
        -11    1    4    4    0    0 -0.25184050282E+02 -0.14320392949E+02 -0.18054176900E+02  0.34135953870E+02  0.51100000000E-03 0.  1.
        -12    1    4    4    0    0  0.27140423781E+01  0.88498906575E+01 -0.12431540683E+02  0.15499348194E+02  0.00000000000E+00 0.  1.
</event>
<event>
 8    1  0.1254059E-006  0.9118800E+02  0.7816164E-02  0.1184000E+00
        -11   -1    0    0    0    0  0.00000000000E+00  0.00000000000E+00  0.45593999997E+02  0.45594000000E+02  0.51100000000E-03 0.  1.
         11   -1    0    0    0    0 -0.00000000000E+00 -0.00000000000E+00 -0.45593999997E+02  0.45594000000E+02  0.51100000000E-03 0. -1.
         23    2    1    2    0    0  0.35527136788E-14  0.35527136788E-14 -0.35527136788E-14  0.91188000000E+02  0.91188000000E+02 0.  0.
    9900012    2    3    3    0    0  0.24528537822E+02  0.17788934256E+02 -0.20920916261E+02  0.54367080853E+02  0.39999992419E+02 0.  0.
        -12    1    3    3    0    0 -0.24528537822E+02 -0.17788934256E+02  0.20920916261E+02  0.36820919147E+02  0.00000000000E+00 0.  1.
         11    1    4    4    0    0 -0.74940699544E+01  0.53117276971E+01  0.20774771058E+01  0.94176136571E+01  0.51100000000E-03 0.  1.
        -11    1    4    4    0    0  0.19228844825E+02  0.57190848987E+01 -0.22947674266E+02  0.30480356952E+02  0.51100000000E-03 0. -1.
        -12    1    4    4    0    0  0.12793762951E+02  0.67581216600E+01 -0.50719100790E-01  0.14469110244E+02  0.00000000000E+00 0.  1.
</event>
<event>
 8    1  0.1254059E-006  0.9118800E+02  0.7816164E-02  0.1184000E+00
        -11   -1    0    0    0    0  0.00000000000E+00  0.00000000000E+00  0.45593999997E+02  0.45594000000E+02  0.51100000000E-03 0.  1.
         11   -1    0    0    0    0 -0.00000000000E+00 -0.00000000000E+00 -0.45593999997E+02  0.45594000000E+02  0.51100000000E-03 0. -1.
         23    2    1    2    0    0  0.35527136788E-14  0.17763568394E-14  0.00000000000E+00  0.91188000000E+02  0.91188000000E+02 0.  0.
    9900012    2    3    3    0    0  0.24069421107E+02  0.13965722423E+02  0.24112342817E+02  0.54367034350E+02  0.39999886408E+02 0.  0.
         12    1    3    3    0    0 -0.24069421107E+02 -0.13965722423E+02 -0.24112342817E+02  0.36820965650E+02  0.00000000000E+00 0. -1.
         11    1    4    4    0    0 -0.18286594147E+00 -0.10557375472E+02  0.85510030994E+01  0.13587173035E+02  0.51100000000E-03 0. -1.
        -11    1    4    4    0    0  0.14721239201E+02  0.13594994408E+02  0.16905679106E+02  0.26217184114E+02  0.51100000000E-03 0.  1.
         12    1    4    4    0    0  0.95310478479E+01  0.10928103487E+02 -0.13443393881E+01  0.14562677202E+02  0.00000000000E+00 0. -1.
</event>
<event>
 8    1  0.1254059E-006  0.9118800E+02  0.7816164E-02  0.1184000E+00
        -11   -1    0    0    0    0  0.00000000000E+00  0.00000000000E+00  0.45593999997E+02  0.45594000000E+02  0.51100000000E-03 0.  1.
         11   -1    0    0    0    0 -0.00000000000E+00 -0.00000000000E+00 -0.45593999997E+02  0.45594000000E+02  0.51100000000E-03 0. -1.
         23    2    1    2    0    0  0.35527136788E-14 -0.44408920985E-15  0.00000000000E+00  0.91188000000E+02  0.91188000000E+02 0.  0.
    9900012    2    3    3    0    0  0.26059715724E+02  0.31897597033E+01  0.25816592445E+02  0.54367084801E+02  0.40000001422E+02 0.  0.
         12    1    3    3    0    0 -0.26059715724E+02 -0.31897597033E+01 -0.25816592445E+02  0.36820915199E+02  0.00000000000E+00 0. -1.
         11    1    4    4    0    0  0.22429123514E+02  0.27480081552E+01  0.16490521091E+02  0.27974174099E+02  0.51100000000E-03 0. -1.
        -11    1    4    4    0    0 -0.61163310086E+01  0.24497608836E+01  0.13943841554E+02  0.15422112402E+02  0.51100000000E-03 0.  1.
        -12    1    4    4    0    0  0.97469232187E+01 -0.20080093355E+01 -0.46177701996E+01  0.10970798300E+02  0.00000000000E+00 0.  1.
</event>
<event>
 8    1  0.1254059E-006  0.9118800E+02  0.7816164E-02  0.1184000E+00
        -11   -1    0    0    0    0  0.00000000000E+00  0.00000000000E+00  0.45593999997E+02  0.45594000000E+02  0.51100000000E-03 0.  1.
         11   -1    0    0    0    0 -0.00000000000E+00 -0.00000000000E+00 -0.45593999997E+02  0.45594000000E+02  0.51100000000E-03 0. -1.
         23    2    1    2    0    0  0.35527136788E-14  0.00000000000E+00 -0.35527136788E-14  0.91188000000E+02  0.91188000000E+02 0.  0.
    9900012    2    3    3    0    0 -0.19618922954E+02  0.10726935284E+02 -0.29254244701E+02  0.54367080518E+02  0.39999991657E+02 0.  0.
        -12    1    3    3    0    0  0.19618922954E+02 -0.10726935284E+02  0.29254244701E+02  0.36820919482E+02  0.00000000000E+00 0.  1.
         11    1    4    4    0    0 -0.10942696437E+02  0.67381811316E+01  0.20335708539E+01  0.13010807083E+02  0.51100000000E-03 0. -1.
        -11    1    4    4    0    0 -0.96350625536E+01  0.10757454363E+02 -0.68564815541E+01  0.15986512889E+02  0.51100000000E-03 0.  1.
        -12    1    4    4    0    0  0.95883603588E+00 -0.67687002113E+01 -0.24431334001E+02  0.25369760546E+02  0.00000000000E+00 0.  1.
</event>
<event>
 8    1  0.1254059E-006  0.9118800E+02  0.7816164E-02  0.1184000E+00
        -11   -1    0    0    0    0  0.00000000000E+00  0.00000000000E+00  0.45593999997E+02  0.45594000000E+02  0.51100000000E-03 0. -1.
         11   -1    0    0    0    0 -0.00000000000E+00 -0.00000000000E+00 -0.45593999997E+02  0.45594000000E+02  0.51100000000E-03 0.  1.
         23    2    1    2    0    0  0.35527136788E-14 -0.44408920985E-15  0.00000000000E+00  0.91188000000E+02  0.91188000000E+02 0.  0.
    9900012    2    3    3    0    0 -0.10891952768E+02 -0.22142412306E+01 -0.35103293294E+02  0.54367099693E+02  0.40000035371E+02 0.  0.
         12    1    3    3    0    0  0.10891952768E+02  0.22142412306E+01  0.35103293294E+02  0.36820900307E+02  0.00000000000E+00 0. -1.
         11    1    4    4    0    0 -0.90219724871E+00  0.19621518399E+01  0.89744660356E+00  0.23386770589E+01  0.51100000000E-03 0. -1.
        -11    1    4    4    0    0  0.81392421158E+01 -0.92088845994E+01 -0.10496272496E+01  0.12335012582E+02  0.51100000000E-03 0.  1.
        -12    1    4    4    0    0 -0.18128997635E+02  0.50324915289E+01 -0.34951112648E+02  0.39693410052E+02  0.00000000000E+00 0.  1.
</event>
<event>
 8    1  0.1254059E-006  0.9118800E+02  0.7816164E-02  0.1184000E+00
        -11   -1    0    0    0    0  0.00000000000E+00  0.00000000000E+00  0.45593999997E+02  0.45594000000E+02  0.51100000000E-03 0.  1.
         11   -1    0    0    0    0 -0.00000000000E+00 -0.00000000000E+00 -0.45593999997E+02  0.45594000000E+02  0.51100000000E-03 0. -1.
         23    2    1    2    0    0 -0.35527136788E-14  0.00000000000E+00 -0.35527136788E-14  0.91188000000E+02  0.91188000000E+02 0.  0.
    9900012    2    3    3    0    0  0.22440659976E+02  0.17670818608E+02  0.23236576797E+02  0.54367088120E+02  0.40000008987E+02 0.  0.
         12    1    3    3    0    0 -0.22440659976E+02 -0.17670818608E+02 -0.23236576797E+02  0.36820911880E+02  0.00000000000E+00 0. -1.
         11    1    4    4    0    0  0.27186174488E+01  0.14047849387E+02  0.10656592408E+02  0.17840849622E+02  0.51100000000E-03 0. -1.
        -11    1    4    4    0    0  0.20196293999E+02  0.84866233336E+01  0.18624206188E+02  0.28753680170E+02  0.51100000000E-03 0.  1.
         12    1    4    4    0    0 -0.47425147196E+00 -0.48636541129E+01 -0.60442217996E+01  0.77725583273E+01  0.00000000000E+00 0. -1.
</event>
<event>
 8    1  0.1254059E-006  0.9118800E+02  0.7816164E-02  0.1184000E+00
        -11   -1    0    0    0    0  0.00000000000E+00  0.00000000000E+00  0.45593999997E+02  0.45594000000E+02  0.51100000000E-03 0.  1.
         11   -1    0    0    0    0 -0.00000000000E+00 -0.00000000000E+00 -0.45593999997E+02  0.45594000000E+02  0.51100000000E-03 0. -1.
         23    2    1    2    0    0  0.00000000000E+00  0.00000000000E+00  0.00000000000E+00  0.91188000000E+02  0.91188000000E+02 0.  0.
    9900012    2    3    3    0    0 -0.23366435882E+02 -0.20481922960E+02  0.19755495397E+02  0.54367094357E+02  0.40000023206E+02 0.  0.
         12    1    3    3    0    0  0.23366435882E+02  0.20481922960E+02 -0.19755495397E+02  0.36820905643E+02  0.00000000000E+00 0. -1.
         11    1    4    4    0    0 -0.16309612973E-01 -0.89105771464E+01  0.72784596982E+01  0.11505417286E+02  0.51100000000E-03 0. -1.
        -11    1    4    4    0    0 -0.84305142791E+01 -0.63786490501E+01  0.22005441477E+02  0.24413115114E+02  0.51100000000E-03 0.  1.
         12    1    4    4    0    0 -0.14919611990E+02 -0.51926967635E+01 -0.95284057781E+01  0.18448561957E+02  0.00000000000E+00 0. -1.
</event>
<event>
 8    1  0.1254059E-006  0.9118800E+02  0.7816164E-02  0.1184000E+00
        -11   -1    0    0    0    0  0.00000000000E+00  0.00000000000E+00  0.45593999997E+02  0.45594000000E+02  0.51100000000E-03 0.  1.
         11   -1    0    0    0    0 -0.00000000000E+00 -0.00000000000E+00 -0.45593999997E+02  0.45594000000E+02  0.51100000000E-03 0. -1.
         23    2    1    2    0    0  0.00000000000E+00  0.00000000000E+00  0.00000000000E+00  0.91188000000E+02  0.91188000000E+02 0.  0.
    9900012    2    3    3    0    0 -0.17501269049E+02  0.20720495475E+02 -0.24902754879E+02  0.54367074541E+02  0.39999978032E+02 0.  0.
        -12    1    3    3    0    0  0.17501269049E+02 -0.20720495475E+02  0.24902754879E+02  0.36820925459E+02  0.00000000000E+00 0.  1.
         11    1    4    4    0    0 -0.85681349661E+01  0.95104488081E+01 -0.15102364625E+02  0.19797550123E+02  0.51100000000E-03 0. -1.
        -11    1    4    4    0    0  0.91183088901E+01  0.14458994330E+01 -0.10567339857E+02  0.14032207741E+02  0.51100000000E-03 0.  1.
         12    1    4    4    0    0 -0.18051442973E+02  0.97641472338E+01  0.76694960293E+00  0.20537316677E+02  0.00000000000E+00 0. -1.
</event>
<event>
 8    1  0.1254059E-006  0.9118800E+02  0.7816164E-02  0.1184000E+00
        -11   -1    0    0    0    0  0.00000000000E+00  0.00000000000E+00  0.45593999997E+02  0.45594000000E+02  0.51100000000E-03 0.  1.
         11   -1    0    0    0    0 -0.00000000000E+00 -0.00000000000E+00 -0.45593999997E+02  0.45594000000E+02  0.51100000000E-03 0. -1.
         23    2    1    2    0    0  0.88817841970E-15  0.00000000000E+00  0.00000000000E+00  0.91188000000E+02  0.91188000000E+02 0.  0.
    9900012    2    3    3    0    0 -0.34880858735E+01  0.58024905923E+01  0.36193141243E+02  0.54367094074E+02  0.40000022561E+02 0.  0.
         12    1    3    3    0    0  0.34880858735E+01 -0.58024905923E+01 -0.36193141243E+02  0.36820905926E+02  0.00000000000E+00 0. -1.
         11    1    4    4    0    0 -0.48050920173E+01 -0.23348972584E+01  0.35383018817E+02  0.35784056162E+02  0.51100000000E-03 0.  1.
        -11    1    4    4    0    0  0.21064634045E+01 -0.10391178973E+01  0.70678582409E+01  0.74479241708E+01  0.51100000000E-03 0. -1.
        -12    1    4    4    0    0 -0.78945726061E+00  0.91765057480E+01 -0.62577358151E+01  0.11135113742E+02  0.00000000000E+00 0.  1.
</event>
<event>
 8    1  0.1254059E-006  0.9118800E+02  0.7816164E-02  0.1184000E+00
        -11   -1    0    0    0    0  0.00000000000E+00  0.00000000000E+00  0.45593999997E+02  0.45594000000E+02  0.51100000000E-03 0.  1.
         11   -1    0    0    0    0 -0.00000000000E+00 -0.00000000000E+00 -0.45593999997E+02  0.45594000000E+02  0.51100000000E-03 0. -1.
         23    2    1    2    0    0  0.17763568394E-14  0.44408920985E-15  0.00000000000E+00  0.91188000000E+02  0.91188000000E+02 0.  0.
    9900012    2    3    3    0    0  0.11215935102E+02 -0.31176808303E+01 -0.34932260240E+02  0.54367082854E+02  0.39999996982E+02 0.  0.
        -12    1    3    3    0    0 -0.11215935102E+02  0.31176808303E+01  0.34932260240E+02  0.36820917146E+02  0.00000000000E+00 0.  1.
         11    1    4    4    0    0  0.12631731617E+02 -0.50334232726E+01 -0.23156377533E+02  0.26853562411E+02  0.51100000000E-03 0. -1.
        -11    1    4    4    0    0  0.86488040741E+01 -0.24663498648E+01  0.26594264948E+01  0.93785522929E+01  0.51100000000E-03 0.  1.
        -12    1    4    4    0    0 -0.10064600589E+02  0.43820923071E+01 -0.14435309203E+02  0.18134968149E+02  0.00000000000E+00 0.  1.
</event>
<event>
 8    1  0.1254059E-006  0.9118800E+02  0.7816164E-02  0.1184000E+00
        -11   -1    0    0    0    0  0.00000000000E+00  0.00000000000E+00  0.45593999997E+02  0.45594000000E+02  0.51100000000E-03 0. -1.
         11   -1    0    0    0    0 -0.00000000000E+00 -0.00000000000E+00 -0.45593999997E+02  0.45594000000E+02  0.51100000000E-03 0.  1.
         23    2    1    2    0    0  0.35527136788E-14  0.00000000000E+00 -0.17763568394E-14  0.91188000000E+02  0.91188000000E+02 0.  0.
    9900012    2    3    3    0    0 -0.29733350844E+02 -0.16539142495E+02 -0.14077110692E+02  0.54367076161E+02  0.39999981725E+02 0.  0.
        -12    1    3    3    0    0  0.29733350844E+02  0.16539142495E+02  0.14077110692E+02  0.36820923839E+02  0.00000000000E+00 0.  1.
         11    1    4    4    0    0 -0.26540491900E+02 -0.19296676897E+02 -0.14572550697E+02  0.35904298958E+02  0.51100000000E-03 0. -1.
        -11    1    4    4    0    0 -0.77312919548E+01  0.71473642177E+01  0.39739573231E+01  0.11253889444E+02  0.51100000000E-03 0.  1.
         12    1    4    4    0    0  0.45384330107E+01 -0.43898298159E+01 -0.34785173174E+01  0.72088877597E+01  0.00000000000E+00 0. -1.
</event>
<event>
 8    1  0.1254059E-006  0.9118800E+02  0.7816164E-02  0.1184000E+00
        -11   -1    0    0    0    0  0.00000000000E+00  0.00000000000E+00  0.45593999997E+02  0.45594000000E+02  0.51100000000E-03 0.  1.
         11   -1    0    0    0    0 -0.00000000000E+00 -0.00000000000E+00 -0.45593999997E+02  0.45594000000E+02  0.51100000000E-03 0. -1.
         23    2    1    2    0    0  0.17763568394E-14 -0.35527136788E-14  0.00000000000E+00  0.91188000000E+02  0.91188000000E+02 0.  0.
    9900012    2    3    3    0    0 -0.14594347013E+02  0.27438028797E+02  0.19746932761E+02  0.54367058371E+02  0.39999941168E+02 0.  0.
         12    1    3    3    0    0  0.14594347013E+02 -0.27438028797E+02 -0.19746932761E+02  0.36820941629E+02  0.00000000000E+00 0. -1.
         11    1    4    4    0    0 -0.19186295890E+01 -0.54979171404E+01  0.13537798351E+02  0.14737035551E+02  0.51100000000E-03 0. -1.
        -11    1    4    4    0    0 -0.84361357509E+01  0.22118675062E+02  0.12119318895E+02  0.26594775119E+02  0.51100000000E-03 0.  1.
         12    1    4    4    0    0 -0.42395816732E+01  0.10817270876E+02 -0.59101844851E+01  0.13035247700E+02  0.00000000000E+00 0. -1.
</event>
<event>
 8    1  0.1254059E-006  0.9118800E+02  0.7816164E-02  0.1184000E+00
        -11   -1    0    0    0    0  0.00000000000E+00  0.00000000000E+00  0.45593999997E+02  0.45594000000E+02  0.51100000000E-03 0. -1.
         11   -1    0    0    0    0 -0.00000000000E+00 -0.00000000000E+00 -0.45593999997E+02  0.45594000000E+02  0.51100000000E-03 0.  1.
         23    2    1    2    0    0  0.17763568394E-14  0.00000000000E+00  0.00000000000E+00  0.91188000000E+02  0.91188000000E+02 0.  0.
    9900012    2    3    3    0    0 -0.44922604215E+01 -0.36428433016E+02 -0.29272064473E+01  0.54367086469E+02  0.40000005223E+02 0.  0.
         12    1    3    3    0    0  0.44922604215E+01  0.36428433016E+02  0.29272064473E+01  0.36820913531E+02  0.00000000000E+00 0. -1.
         11    1    4    4    0    0  0.10842112459E+02  0.63722232397E-01  0.37353342814E+01  0.11467701842E+02  0.51100000000E-03 0. -1.
        -11    1    4    4    0    0  0.18750248704E+01 -0.12643306376E+02 -0.38841627092E+01  0.13358728779E+02  0.51100000000E-03 0.  1.
        -12    1    4    4    0    0 -0.17209397751E+02 -0.23848848873E+02 -0.27783780195E+01  0.29540655847E+02  0.00000000000E+00 0.  1.
</event>
<event>
 8    1  0.1254059E-006  0.9118800E+02  0.7816164E-02  0.1184000E+00
        -11   -1    0    0    0    0  0.00000000000E+00  0.00000000000E+00  0.45593999997E+02  0.45594000000E+02  0.51100000000E-03 0.  1.
         11   -1    0    0    0    0 -0.00000000000E+00 -0.00000000000E+00 -0.45593999997E+02  0.45594000000E+02  0.51100000000E-03 0. -1.
         23    2    1    2    0    0  0.00000000000E+00  0.35527136788E-14  0.00000000000E+00  0.91188000000E+02  0.91188000000E+02 0.  0.
    9900012    2    3    3    0    0  0.19652803108E+02 -0.30885992462E+02 -0.39499520228E+01  0.54367091247E+02  0.40000016117E+02 0.  0.
        -12    1    3    3    0    0 -0.19652803108E+02  0.30885992462E+02  0.39499520228E+01  0.36820908753E+02  0.00000000000E+00 0.  1.
         11    1    4    4    0    0 -0.11462558438E+01 -0.71112511240E+01  0.13872298881E+01  0.73354074210E+01  0.51100000000E-03 0. -1.
        -11    1    4    4    0    0  0.12147823116E+02 -0.18288493879E+02 -0.19627012164E+02  0.29449248235E+02  0.51100000000E-03 0.  1.
        -12    1    4    4    0    0  0.86512358359E+01 -0.54862474592E+01  0.14289830253E+02  0.17582435592E+02  0.00000000000E+00 0.  1.
</event>
<event>
 8    1  0.1254059E-006  0.9118800E+02  0.7816164E-02  0.1184000E+00
        -11   -1    0    0    0    0  0.00000000000E+00  0.00000000000E+00  0.45593999997E+02  0.45594000000E+02  0.51100000000E-03 0. -1.
         11   -1    0    0    0    0 -0.00000000000E+00 -0.00000000000E+00 -0.45593999997E+02  0.45594000000E+02  0.51100000000E-03 0.  1.
         23    2    1    2    0    0 -0.88817841970E-15  0.00000000000E+00  0.00000000000E+00  0.91188000000E+02  0.91188000000E+02 0.  0.
    9900012    2    3    3    0    0 -0.50534188896E+01  0.29639811166E+02  0.21253810682E+02  0.54367083160E+02  0.39999997679E+02 0.  0.
        -12    1    3    3    0    0  0.50534188896E+01 -0.29639811166E+02 -0.21253810682E+02  0.36820916840E+02  0.00000000000E+00 0.  1.
         11    1    4    4    0    0  0.98497708931E+01  0.14010055596E+02  0.14064234187E+02  0.22160828684E+02  0.51100000000E-03 0. -1.
        -11    1    4    4    0    0  0.26740832437E+01  0.91688411496E+01 -0.40402081314E+01  0.10370229083E+02  0.51100000000E-03 0.  1.
         12    1    4    4    0    0 -0.17577273026E+02  0.64609144213E+01  0.11229784627E+02  0.21836025393E+02  0.00000000000E+00 0. -1.
</event>
<event>
 8    1  0.1254059E-006  0.9118800E+02  0.7816164E-02  0.1184000E+00
        -11   -1    0    0    0    0  0.00000000000E+00  0.00000000000E+00  0.45593999997E+02  0.45594000000E+02  0.51100000000E-03 0. -1.
         11   -1    0    0    0    0 -0.00000000000E+00 -0.00000000000E+00 -0.45593999997E+02  0.45594000000E+02  0.51100000000E-03 0.  1.
         23    2    1    2    0    0 -0.17763568394E-14 -0.44408920985E-15  0.00000000000E+00  0.91188000000E+02  0.91188000000E+02 0.  0.
    9900012    2    3    3    0    0 -0.14986737238E+02  0.26932877285E+01 -0.33524810703E+02  0.54367231071E+02  0.40000334871E+02 0.  0.
         12    1    3    3    0    0  0.14986737238E+02 -0.26932877285E+01  0.33524810703E+02  0.36820768929E+02  0.00000000000E+00 0. -1.
         11    1    4    4    0    0 -0.86493841279E+00  0.11039923175E+02  0.28022574174E+01  0.11422813536E+02  0.51100000000E-03 0. -1.
        -11    1    4    4    0    0  0.15949987163E+01  0.27416324794E+01 -0.88730122052E+01  0.94228931551E+01  0.51100000000E-03 0.  1.
         12    1    4    4    0    0 -0.15716797542E+02 -0.11088267926E+02 -0.27454055915E+02  0.33521524380E+02  0.00000000000E+00 0. -1.
</event>
<event>
 8    1  0.1254059E-006  0.9118800E+02  0.7816164E-02  0.1184000E+00
        -11   -1    0    0    0    0  0.00000000000E+00  0.00000000000E+00  0.45593999997E+02  0.45594000000E+02  0.51100000000E-03 0. -1.
         11   -1    0    0    0    0 -0.00000000000E+00 -0.00000000000E+00 -0.45593999997E+02  0.45594000000E+02  0.51100000000E-03 0.  1.
         23    2    1    2    0    0  0.00000000000E+00  0.00000000000E+00  0.00000000000E+00  0.91188000000E+02  0.91188000000E+02 0.  0.
    9900012    2    3    3    0    0 -0.23718366436E+01 -0.27577941785E+02 -0.24281901943E+02  0.54367092297E+02  0.40000018509E+02 0.  0.
         12    1    3    3    0    0  0.23718366436E+01  0.27577941785E+02  0.24281901943E+02  0.36820907703E+02  0.00000000000E+00 0. -1.
         11    1    4    4    0    0  0.37218322213E+01 -0.37555907439E+01  0.84661398756E+01  0.99815841214E+01  0.51100000000E-03 0. -1.
        -11    1    4    4    0    0  0.97148556362E+00 -0.21911882250E+02 -0.19984565756E+02  0.29672499669E+02  0.51100000000E-03 0.  1.
         12    1    4    4    0    0 -0.70651544285E+01 -0.19104687913E+01 -0.12763476062E+02  0.14713008506E+02  0.00000000000E+00 0. -1.
</event>
<event>
 8    1  0.1254059E-006  0.9118800E+02  0.7816164E-02  0.1184000E+00
        -11   -1    0    0    0    0  0.00000000000E+00  0.00000000000E+00  0.45593999997E+02  0.45594000000E+02  0.51100000000E-03 0. -1.
         11   -1    0    0    0    0 -0.00000000000E+00 -0.00000000000E+00 -0.45593999997E+02  0.45594000000E+02  0.51100000000E-03 0.  1.
         23    2    1    2    0    0  0.00000000000E+00 -0.35527136788E-14  0.17763568394E-14  0.91188000000E+02  0.91188000000E+02 0.  0.
    9900012    2    3    3    0    0 -0.26462380608E+02 -0.23361729729E+02  0.10475726382E+02  0.54367233487E+02  0.40000340379E+02 0.  0.
        -12    1    3    3    0    0  0.26462380608E+02  0.23361729729E+02 -0.10475726382E+02  0.36820766513E+02  0.00000000000E+00 0.  1.
         11    1    4    4    0    0 -0.78722276443E+01 -0.93154334258E+01 -0.10198137875E+02  0.15898153489E+02  0.51100000000E-03 0. -1.
        -11    1    4    4    0    0 -0.22046356435E+02 -0.16949294605E+02  0.18879646564E+02  0.33611924585E+02  0.51100000000E-03 0.  1.
        -12    1    4    4    0    0  0.34562034718E+01  0.29029983015E+01  0.17942176920E+01  0.48571554127E+01  0.00000000000E+00 0.  1.
</event>
<event>
 8    1  0.1254059E-006  0.9118800E+02  0.7816164E-02  0.1184000E+00
        -11   -1    0    0    0    0  0.00000000000E+00  0.00000000000E+00  0.45593999997E+02  0.45594000000E+02  0.51100000000E-03 0.  1.
         11   -1    0    0    0    0 -0.00000000000E+00 -0.00000000000E+00 -0.45593999997E+02  0.45594000000E+02  0.51100000000E-03 0. -1.
         23    2    1    2    0    0 -0.17763568394E-14  0.00000000000E+00  0.00000000000E+00  0.91188000000E+02  0.91188000000E+02 0.  0.
    9900012    2    3    3    0    0  0.67070521548E+01  0.18242744114E+02  0.31272797309E+02  0.54367216290E+02  0.40000301176E+02 0.  0.
         12    1    3    3    0    0 -0.67070521548E+01 -0.18242744114E+02 -0.31272797309E+02  0.36820783710E+02  0.00000000000E+00 0. -1.
         11    1    4    4    0    0 -0.67564577568E+01 -0.29933723675E+01  0.73989801354E+01  0.10457289652E+02  0.51100000000E-03 0. -1.
        -11    1    4    4    0    0 -0.45415541237E+01  0.10284595467E+02  0.19314367935E+02  0.22348230954E+02  0.51100000000E-03 0.  1.
        -12    1    4    4    0    0  0.18005064035E+02  0.10951521015E+02  0.45594492392E+01  0.21561695685E+02  0.00000000000E+00 0.  1.
</event>
<event>
 8    1  0.1254059E-006  0.9118800E+02  0.7816164E-02  0.1184000E+00
        -11   -1    0    0    0    0  0.00000000000E+00  0.00000000000E+00  0.45593999997E+02  0.45594000000E+02  0.51100000000E-03 0. -1.
         11   -1    0    0    0    0 -0.00000000000E+00 -0.00000000000E+00 -0.45593999997E+02  0.45594000000E+02  0.51100000000E-03 0.  1.
         23    2    1    2    0    0  0.00000000000E+00  0.00000000000E+00  0.00000000000E+00  0.91188000000E+02  0.91188000000E+02 0.  0.
    9900012    2    3    3    0    0  0.94142314097E+01  0.25950581165E+02 -0.24366354163E+02  0.54367087043E+02  0.40000006531E+02 0.  0.
         12    1    3    3    0    0 -0.94142314097E+01 -0.25950581165E+02  0.24366354163E+02  0.36820912957E+02  0.00000000000E+00 0. -1.
         11    1    4    4    0    0  0.23392380524E+01 -0.59165449854E+01  0.85711128549E+00  0.64196712725E+01  0.51100000000E-03 0. -1.
        -11    1    4    4    0    0  0.27034264727E+01  0.20626047379E+02 -0.92835164210E+00  0.20823164558E+02  0.51100000000E-03 0.  1.
        -12    1    4    4    0    0  0.43715668845E+01  0.11241078772E+02 -0.24295113806E+02  0.27124251212E+02  0.00000000000E+00 0.  1.
</event>
<event>
 8    1  0.1254059E-006  0.9118800E+02  0.7816164E-02  0.1184000E+00
        -11   -1    0    0    0    0  0.00000000000E+00  0.00000000000E+00  0.45593999997E+02  0.45594000000E+02  0.51100000000E-03 0.  1.
         11   -1    0    0    0    0 -0.00000000000E+00 -0.00000000000E+00 -0.45593999997E+02  0.45594000000E+02  0.51100000000E-03 0. -1.
         23    2    1    2    0    0  0.00000000000E+00 -0.14210854715E-13  0.35527136788E-14  0.91188000000E+02  0.91188000000E+02 0.  0.
    9900012    2    3    3    0    0  0.17065074894E+01 -0.34359775412E+02  0.13125197887E+02  0.54367120682E+02  0.40000083219E+02 0.  0.
         12    1    3    3    0    0 -0.17065074894E+01  0.34359775412E+02 -0.13125197887E+02  0.36820879318E+02  0.00000000000E+00 0. -1.
         11    1    4    4    0    0 -0.26504885627E+01  0.21523575628E+01  0.20240477505E+00  0.34203363363E+01  0.51100000000E-03 0. -1.
        -11    1    4    4    0    0  0.35471085391E+01 -0.87504031600E+01  0.20146379292E+02  0.22249227701E+02  0.51100000000E-03 0.  1.
         12    1    4    4    0    0  0.80988751300E+00 -0.27761729815E+02 -0.72235861804E+01  0.28697556645E+02  0.00000000000E+00 0. -1.
</event>
<event>
 8    1  0.1254059E-006  0.9118800E+02  0.7816164E-02  0.1184000E+00
        -11   -1    0    0    0    0  0.00000000000E+00  0.00000000000E+00  0.45593999997E+02  0.45594000000E+02  0.51100000000E-03 0. -1.
         11   -1    0    0    0    0 -0.00000000000E+00 -0.00000000000E+00 -0.45593999997E+02  0.45594000000E+02  0.51100000000E-03 0.  1.
         23    2    1    2    0    0  0.35527136788E-14  0.00000000000E+00 -0.17763568394E-14  0.91188000000E+02  0.91188000000E+02 0.  0.
    9900012    2    3    3    0    0 -0.20593723217E+02 -0.30365074839E+02 -0.31046456348E+01  0.54367108778E+02  0.40000056080E+02 0.  0.
         12    1    3    3    0    0  0.20593723217E+02  0.30365074839E+02  0.31046456348E+01  0.36820891222E+02  0.00000000000E+00 0. -1.
         11    1    4    4    0    0 -0.33876205956E+01 -0.15526220726E+02 -0.31845008987E+00  0.15894681943E+02  0.51100000000E-03 0. -1.
        -11    1    4    4    0    0 -0.10085981548E+01  0.18258204115E+01  0.11170865389E+02  0.11363939643E+02  0.51100000000E-03 0.  1.
        -12    1    4    4    0    0 -0.16197504467E+02 -0.16664674524E+02 -0.13957060933E+02  0.27108487192E+02  0.00000000000E+00 0.  1.
</event>
<event>
 8    1  0.1254059E-006  0.9118800E+02  0.7816164E-02  0.1184000E+00
        -11   -1    0    0    0    0  0.00000000000E+00  0.00000000000E+00  0.45593999997E+02  0.45594000000E+02  0.51100000000E-03 0.  1.
         11   -1    0    0    0    0 -0.00000000000E+00 -0.00000000000E+00 -0.45593999997E+02  0.45594000000E+02  0.51100000000E-03 0. -1.
         23    2    1    2    0    0  0.44408920985E-15 -0.17763568394E-14  0.00000000000E+00  0.91188000000E+02  0.91188000000E+02 0.  0.
    9900012    2    3    3    0    0  0.37344125087E+01  0.71831644079E+01 -0.35919844822E+02  0.54367096430E+02  0.40000027931E+02 0.  0.
        -12    1    3    3    0    0 -0.37344125087E+01 -0.71831644079E+01  0.35919844822E+02  0.36820903570E+02  0.00000000000E+00 0.  1.
         11    1    4    4    0    0  0.13967092457E+02 -0.11515328949E+02 -0.16572107519E+02  0.24542151910E+02  0.51100000000E-03 0. -1.
        -11    1    4    4    0    0 -0.36996629608E+01  0.88802987495E+01 -0.38772340612E+01  0.10372085428E+02  0.51100000000E-03 0.  1.
         12    1    4    4    0    0 -0.65330169871E+01  0.98181946072E+01 -0.15470503241E+02  0.19452859091E+02  0.00000000000E+00 0. -1.
</event>
<event>
 8    1  0.1254059E-006  0.9118800E+02  0.7816164E-02  0.1184000E+00
        -11   -1    0    0    0    0  0.00000000000E+00  0.00000000000E+00  0.45593999997E+02  0.45594000000E+02  0.51100000000E-03 0. -1.
         11   -1    0    0    0    0 -0.00000000000E+00 -0.00000000000E+00 -0.45593999997E+02  0.45594000000E+02  0.51100000000E-03 0.  1.
         23    2    1    2    0    0  0.17763568394E-14  0.47878367937E-15  0.00000000000E+00  0.91188000000E+02  0.91188000000E+02 0.  0.
    9900012    2    3    3    0    0 -0.15538843470E+02 -0.54111250592E-01 -0.33381420295E+02  0.54367111834E+02  0.40000063049E+02 0.  0.
         12    1    3    3    0    0  0.15538843470E+02  0.54111250592E-01  0.33381420295E+02  0.36820888166E+02  0.00000000000E+00 0. -1.
         11    1    4    4    0    0 -0.17893875573E+02 -0.43595297052E+01 -0.42031736928E+01  0.18890816595E+02  0.51100000000E-03 0. -1.
        -11    1    4    4    0    0  0.24905799284E+01 -0.53756633255E+01 -0.23535927711E+02  0.24270159415E+02  0.51100000000E-03 0.  1.
         12    1    4    4    0    0 -0.13554782606E+00  0.96810817801E+01 -0.56423188906E+01  0.11206135824E+02  0.00000000000E+00 0. -1.
</event>
<event>
 8    1  0.1254059E-006  0.9118800E+02  0.7816164E-02  0.1184000E+00
        -11   -1    0    0    0    0  0.00000000000E+00  0.00000000000E+00  0.45593999997E+02  0.45594000000E+02  0.51100000000E-03 0. -1.
         11   -1    0    0    0    0 -0.00000000000E+00 -0.00000000000E+00 -0.45593999997E+02  0.45594000000E+02  0.51100000000E-03 0.  1.
         23    2    1    2    0    0 -0.17763568394E-14  0.00000000000E+00  0.00000000000E+00  0.91188000000E+02  0.91188000000E+02 0.  0.
    9900012    2    3    3    0    0  0.12870916676E+02  0.30430750247E+02 -0.16250808929E+02  0.54367084102E+02  0.39999999827E+02 0.  0.
         12    1    3    3    0    0 -0.12870916676E+02 -0.30430750247E+02  0.16250808929E+02  0.36820915898E+02  0.00000000000E+00 0. -1.
         11    1    4    4    0    0 -0.68836703468E+01  0.10375465503E+02 -0.48557695696E+01  0.13364643662E+02  0.51100000000E-03 0. -1.
        -11    1    4    4    0    0  0.26621790194E+02  0.17977370269E+02 -0.10365566277E+02  0.33754266685E+02  0.51100000000E-03 0.  1.
        -12    1    4    4    0    0 -0.68672031708E+01  0.20779144760E+01 -0.10294730828E+01  0.72481737553E+01  0.00000000000E+00 0.  1.
</event>
<event>
 8    1  0.1254059E-006  0.9118800E+02  0.7816164E-02  0.1184000E+00
        -11   -1    0    0    0    0  0.00000000000E+00  0.00000000000E+00  0.45593999997E+02  0.45594000000E+02  0.51100000000E-03 0.  1.
         11   -1    0    0    0    0 -0.00000000000E+00 -0.00000000000E+00 -0.45593999997E+02  0.45594000000E+02  0.51100000000E-03 0. -1.
         23    2    1    2    0    0  0.00000000000E+00  0.00000000000E+00 -0.53290705182E-14  0.91188000000E+02  0.91188000000E+02 0.  0.
    9900012    2    3    3    0    0 -0.29833983461E+02  0.18909614692E+02  0.10398999501E+02  0.54367091707E+02  0.40000017164E+02 0.  0.
         12    1    3    3    0    0  0.29833983461E+02 -0.18909614692E+02 -0.10398999501E+02  0.36820908293E+02  0.00000000000E+00 0. -1.
         11    1    4    4    0    0  0.34065385011E+01  0.11308481645E+01 -0.32160854772E+01  0.48193908524E+01  0.51100000000E-03 0. -1.
        -11    1    4    4    0    0  0.15349621199E+01  0.94407756657E+01 -0.31251666513E+01  0.10062356620E+02  0.51100000000E-03 0.  1.
        -12    1    4    4    0    0 -0.34775484082E+02  0.83379908616E+01  0.16740251629E+02  0.39485344235E+02  0.00000000000E+00 0.  1.
</event>
<event>
 8    1  0.1254059E-006  0.9118800E+02  0.7816164E-02  0.1184000E+00
        -11   -1    0    0    0    0  0.00000000000E+00  0.00000000000E+00  0.45593999997E+02  0.45594000000E+02  0.51100000000E-03 0. -1.
         11   -1    0    0    0    0 -0.00000000000E+00 -0.00000000000E+00 -0.45593999997E+02  0.45594000000E+02  0.51100000000E-03 0.  1.
         23    2    1    2    0    0  0.00000000000E+00  0.00000000000E+00  0.00000000000E+00  0.91188000000E+02  0.91188000000E+02 0.  0.
    9900012    2    3    3    0    0 -0.16483394800E+02 -0.78069929730E+01 -0.31986369105E+02  0.54367092191E+02  0.40000018267E+02 0.  0.
         12    1    3    3    0    0  0.16483394800E+02  0.78069929730E+01  0.31986369105E+02  0.36820907809E+02  0.00000000000E+00 0. -1.
         11    1    4    4    0    0 -0.46331839951E+01  0.85199185243E+00 -0.89390334401E+01  0.10104385343E+02  0.51100000000E-03 0.  1.
        -11    1    4    4    0    0  0.51843436016E+01 -0.10091738846E+01 -0.24940477714E+02  0.25493592909E+02  0.51100000000E-03 0. -1.
         12    1    4    4    0    0 -0.17034554406E+02 -0.76498109408E+01  0.18931420496E+01  0.18769113939E+02  0.00000000000E+00 0. -1.
</event>
<event>
 8    1  0.1254059E-006  0.9118800E+02  0.7816164E-02  0.1184000E+00
        -11   -1    0    0    0    0  0.00000000000E+00  0.00000000000E+00  0.45593999997E+02  0.45594000000E+02  0.51100000000E-03 0. -1.
         11   -1    0    0    0    0 -0.00000000000E+00 -0.00000000000E+00 -0.45593999997E+02  0.45594000000E+02  0.51100000000E-03 0.  1.
         23    2    1    2    0    0  0.00000000000E+00  0.71054273576E-14 -0.35527136788E-14  0.91188000000E+02  0.91188000000E+02 0.  0.
    9900012    2    3    3    0    0  0.29371151760E+02 -0.12308571617E+02  0.18482797133E+02  0.54367091798E+02  0.40000017371E+02 0.  0.
         12    1    3    3    0    0 -0.29371151760E+02  0.12308571617E+02 -0.18482797133E+02  0.36820908202E+02  0.00000000000E+00 0. -1.
         11    1    4    4    0    0  0.19106411096E+02 -0.10853035483E+02  0.17560557030E+02  0.28128570664E+02  0.51100000000E-03 0. -1.
        -11    1    4    4    0    0  0.14698099113E+02  0.71952610566E+01 -0.71772173198E+00  0.16380507439E+02  0.51100000000E-03 0.  1.
        -12    1    4    4    0    0 -0.44333584488E+01 -0.86507971915E+01  0.16399618351E+01  0.98580136947E+01  0.00000000000E+00 0.  1.
</event>
<event>
 8    1  0.1254059E-006  0.9118800E+02  0.7816164E-02  0.1184000E+00
        -11   -1    0    0    0    0  0.00000000000E+00  0.00000000000E+00  0.45593999997E+02  0.45594000000E+02  0.51100000000E-03 0. -1.
         11   -1    0    0    0    0 -0.00000000000E+00 -0.00000000000E+00 -0.45593999997E+02  0.45594000000E+02  0.51100000000E-03 0.  1.
         23    2    1    2    0    0  0.00000000000E+00  0.35527136788E-14  0.88817841970E-15  0.91188000000E+02  0.91188000000E+02 0.  0.
    9900012    2    3    3    0    0 -0.24947739295E+02 -0.27054980573E+02 -0.11910579811E+01  0.54367078109E+02  0.39999986166E+02 0.  0.
         12    1    3    3    0    0  0.24947739295E+02  0.27054980573E+02  0.11910579811E+01  0.36820921891E+02  0.00000000000E+00 0. -1.
         11    1    4    4    0    0 -0.19204839983E+02 -0.30118870905E+02 -0.54415469450E+01  0.36132847892E+02  0.51100000000E-03 0. -1.
        -11    1    4    4    0    0 -0.89978559987E+01  0.35264806006E+01 -0.31268407242E+01  0.10157490398E+02  0.51100000000E-03 0.  1.
         12    1    4    4    0    0  0.32549566866E+01 -0.46259026856E+00  0.73773296881E+01  0.80767398197E+01  0.00000000000E+00 0. -1.
</event>
<event>
 8    1  0.1254059E-006  0.9118800E+02  0.7816164E-02  0.1184000E+00
        -11   -1    0    0    0    0  0.00000000000E+00  0.00000000000E+00  0.45593999997E+02  0.45594000000E+02  0.51100000000E-03 0. -1.
         11   -1    0    0    0    0 -0.00000000000E+00 -0.00000000000E+00 -0.45593999997E+02  0.45594000000E+02  0.51100000000E-03 0.  1.
         23    2    1    2    0    0  0.17763568394E-14  0.00000000000E+00 -0.35527136788E-14  0.91188000000E+02  0.91188000000E+02 0.  0.
    9900012    2    3    3    0    0  0.15847129959E+02  0.14742248888E+02  0.29787808223E+02  0.54367096305E+02  0.40000027645E+02 0.  0.
        -12    1    3    3    0    0 -0.15847129959E+02 -0.14742248888E+02 -0.29787808223E+02  0.36820903695E+02  0.00000000000E+00 0.  1.
         11    1    4    4    0    0 -0.14519712790E+01 -0.81839907353E+00  0.23858260534E+01  0.29103545929E+01  0.51100000000E-03 0. -1.
        -11    1    4    4    0    0 -0.10566704733E+02  0.88436558247E+01  0.14563531944E+02  0.20048989007E+02  0.51100000000E-03 0.  1.
        -12    1    4    4    0    0  0.27865805971E+02  0.67169921373E+01  0.12838450226E+02  0.31407752705E+02  0.00000000000E+00 0.  1.
</event>
<event>
 8    1  0.1254059E-006  0.9118800E+02  0.7816164E-02  0.1184000E+00
        -11   -1    0    0    0    0  0.00000000000E+00  0.00000000000E+00  0.45593999997E+02  0.45594000000E+02  0.51100000000E-03 0. -1.
         11   -1    0    0    0    0 -0.00000000000E+00 -0.00000000000E+00 -0.45593999997E+02  0.45594000000E+02  0.51100000000E-03 0.  1.
         23    2    1    2    0    0  0.00000000000E+00  0.88817841970E-15  0.17763568394E-14  0.91188000000E+02  0.91188000000E+02 0.  0.
    9900012    2    3    3    0    0 -0.34311691377E+02 -0.43952757133E+01 -0.12616272986E+02  0.54367069026E+02  0.39999965458E+02 0.  0.
         12    1    3    3    0    0  0.34311691377E+02  0.43952757133E+01  0.12616272986E+02  0.36820930974E+02  0.00000000000E+00 0. -1.
         11    1    4    4    0    0 -0.94559075365E+01 -0.26727631511E+01  0.12069996106E+02  0.15564146506E+02  0.51100000000E-03 0. -1.
        -11    1    4    4    0    0 -0.12354564488E+02  0.74533216300E+01 -0.12093750594E+02  0.18826738185E+02  0.51100000000E-03 0.  1.
         12    1    4    4    0    0 -0.12501219353E+02 -0.91758341922E+01 -0.12592518499E+02  0.19976184334E+02  0.00000000000E+00 0. -1.
</event>
<event>
 8    1  0.1254059E-006  0.9118800E+02  0.7816164E-02  0.1184000E+00
        -11   -1    0    0    0    0  0.00000000000E+00  0.00000000000E+00  0.45593999997E+02  0.45594000000E+02  0.51100000000E-03 0. -1.
         11   -1    0    0    0    0 -0.00000000000E+00 -0.00000000000E+00 -0.45593999997E+02  0.45594000000E+02  0.51100000000E-03 0.  1.
         23    2    1    2    0    0 -0.88817841970E-15 -0.17763568394E-14  0.00000000000E+00  0.91188000000E+02  0.91188000000E+02 0.  0.
    9900012    2    3    3    0    0 -0.67351605840E+01 -0.13304954701E+02 -0.33666054745E+02  0.54366980870E+02  0.39999764489E+02 0.  0.
         12    1    3    3    0    0  0.67351605840E+01  0.13304954701E+02  0.33666054745E+02  0.36821019130E+02  0.00000000000E+00 0. -1.
         11    1    4    4    0    0  0.40770284513E+01 -0.65753188017E+01 -0.31667264151E+02  0.32598659442E+02  0.51100000000E-03 0.  1.
        -11    1    4    4    0    0 -0.12848861886E+02  0.37840175027E+00 -0.49942496438E+01  0.13790539128E+02  0.51100000000E-03 0. -1.
        -12    1    4    4    0    0  0.20366728512E+01 -0.71080376491E+01  0.29954590497E+01  0.79777823010E+01  0.00000000000E+00 0.  1.
</event>
<event>
 8    1  0.1254059E-006  0.9118800E+02  0.7816164E-02  0.1184000E+00
        -11   -1    0    0    0    0  0.00000000000E+00  0.00000000000E+00  0.45593999997E+02  0.45594000000E+02  0.51100000000E-03 0.  1.
         11   -1    0    0    0    0 -0.00000000000E+00 -0.00000000000E+00 -0.45593999997E+02  0.45594000000E+02  0.51100000000E-03 0. -1.
         23    2    1    2    0    0  0.00000000000E+00  0.00000000000E+00  0.00000000000E+00  0.91188000000E+02  0.91188000000E+02 0.  0.
    9900012    2    3    3    0    0  0.25455043630E+02  0.25129247392E+01  0.26485955604E+02  0.54367083645E+02  0.39999998786E+02 0.  0.
         12    1    3    3    0    0 -0.25455043630E+02 -0.25129247392E+01 -0.26485955604E+02  0.36820916355E+02  0.00000000000E+00 0. -1.
         11    1    4    4    0    0  0.12448177446E+01  0.65928256984E+01  0.41541293307E+01  0.78912427833E+01  0.51100000000E-03 0. -1.
        -11    1    4    4    0    0  0.41297490302E+01 -0.81961492702E+01  0.24210700966E+02  0.25891885436E+02  0.51100000000E-03 0.  1.
         12    1    4    4    0    0  0.20080476855E+02  0.41162483110E+01 -0.18788746926E+01  0.20583955426E+02  0.00000000000E+00 0. -1.
</event>
<event>
 8    1  0.1254059E-006  0.9118800E+02  0.7816164E-02  0.1184000E+00
        -11   -1    0    0    0    0  0.00000000000E+00  0.00000000000E+00  0.45593999997E+02  0.45594000000E+02  0.51100000000E-03 0.  1.
         11   -1    0    0    0    0 -0.00000000000E+00 -0.00000000000E+00 -0.45593999997E+02  0.45594000000E+02  0.51100000000E-03 0. -1.
         23    2    1    2    0    0  0.44408920985E-15 -0.35527136788E-14  0.00000000000E+00  0.91188000000E+02  0.91188000000E+02 0.  0.
    9900012    2    3    3    0    0  0.33204565783E+01  0.24857307581E+02 -0.26960499651E+02  0.54367085923E+02  0.40000003978E+02 0.  0.
         12    1    3    3    0    0 -0.33204565783E+01 -0.24857307581E+02  0.26960499651E+02  0.36820914077E+02  0.00000000000E+00 0. -1.
         11    1    4    4    0    0  0.51162628072E+01  0.12475585597E+02 -0.15025714390E+02  0.20188820528E+02  0.51100000000E-03 0. -1.
        -11    1    4    4    0    0 -0.14407056234E+02  0.84976703212E+01 -0.52655528447E+00  0.16734722315E+02  0.51100000000E-03 0.  1.
        -12    1    4    4    0    0  0.12611250005E+02  0.38840516626E+01 -0.11408229976E+02  0.17443543081E+02  0.00000000000E+00 0.  1.
</event>
<event>
 8    1  0.1254059E-006  0.9118800E+02  0.7816164E-02  0.1184000E+00
        -11   -1    0    0    0    0  0.00000000000E+00  0.00000000000E+00  0.45593999997E+02  0.45594000000E+02  0.51100000000E-03 0.  1.
         11   -1    0    0    0    0 -0.00000000000E+00 -0.00000000000E+00 -0.45593999997E+02  0.45594000000E+02  0.51100000000E-03 0. -1.
         23    2    1    2    0    0  0.17763568394E-14 -0.35527136788E-14  0.00000000000E+00  0.91188000000E+02  0.91188000000E+02 0.  0.
    9900012    2    3    3    0    0 -0.12656052447E+02  0.29678218053E+02 -0.17742821264E+02  0.54367082076E+02  0.39999995209E+02 0.  0.
         12    1    3    3    0    0  0.12656052447E+02 -0.29678218053E+02  0.17742821264E+02  0.36820917924E+02  0.00000000000E+00 0. -1.
         11    1    4    4    0    0 -0.13737724867E+02  0.16781206507E+02 -0.19371218461E+02  0.29078825307E+02  0.51100000000E-03 0. -1.
        -11    1    4    4    0    0  0.22979316850E+01  0.84589044213E+01  0.11462985283E+02  0.14430300963E+02  0.51100000000E-03 0.  1.
        -12    1    4    4    0    0 -0.12162592653E+01  0.44381071255E+01 -0.98345880858E+01  0.10857955806E+02  0.00000000000E+00 0.  1.
</event>
<event>
 8    1  0.1254059E-006  0.9118800E+02  0.7816164E-02  0.1184000E+00
        -11   -1    0    0    0    0  0.00000000000E+00  0.00000000000E+00  0.45593999997E+02  0.45594000000E+02  0.51100000000E-03 0.  1.
         11   -1    0    0    0    0 -0.00000000000E+00 -0.00000000000E+00 -0.45593999997E+02  0.45594000000E+02  0.51100000000E-03 0. -1.
         23    2    1    2    0    0  0.00000000000E+00  0.00000000000E+00  0.00000000000E+00  0.91188000000E+02  0.91188000000E+02 0.  0.
    9900012    2    3    3    0    0  0.10861897321E+02 -0.21202293514E+02 -0.28075994515E+02  0.54367088392E+02  0.40000009607E+02 0.  0.
        -12    1    3    3    0    0 -0.10861897321E+02  0.21202293514E+02  0.28075994515E+02  0.36820911608E+02  0.00000000000E+00 0.  1.
         11    1    4    4    0    0  0.10433056739E+02 -0.62928366591E+01 -0.29876668647E+02  0.32265520232E+02  0.51100000000E-03 0. -1.
        -11    1    4    4    0    0 -0.49847172481E+01  0.85771937599E+00  0.19753191822E+01  0.54300068788E+01  0.51100000000E-03 0.  1.
         12    1    4    4    0    0  0.54135578302E+01 -0.15767176231E+02 -0.17464505029E+00  0.16671561281E+02  0.00000000000E+00 0. -1.
</event>
<event>
 8    1  0.1254059E-006  0.9118800E+02  0.7816164E-02  0.1184000E+00
        -11   -1    0    0    0    0  0.00000000000E+00  0.00000000000E+00  0.45593999997E+02  0.45594000000E+02  0.51100000000E-03 0. -1.
         11   -1    0    0    0    0 -0.00000000000E+00 -0.00000000000E+00 -0.45593999997E+02  0.45594000000E+02  0.51100000000E-03 0.  1.
         23    2    1    2    0    0  0.00000000000E+00 -0.44408920985E-15  0.00000000000E+00  0.91188000000E+02  0.91188000000E+02 0.  0.
    9900012    2    3    3    0    0 -0.30615513433E+02  0.38016565232E+01 -0.20100202545E+02  0.54367076635E+02  0.39999982806E+02 0.  0.
         12    1    3    3    0    0  0.30615513433E+02 -0.38016565232E+01  0.20100202545E+02  0.36820923365E+02  0.00000000000E+00 0. -1.
         11    1    4    4    0    0  0.29409122415E+00  0.65213104302E+01  0.79587497828E+01  0.10293477437E+02  0.51100000000E-03 0. -1.
        -11    1    4    4    0    0 -0.69513425661E+01 -0.15525597882E+01  0.48040233475E-01  0.71227742834E+01  0.51100000000E-03 0.  1.
        -12    1    4    4    0    0 -0.23958262091E+02 -0.11670941188E+01 -0.28106992561E+02  0.36950824915E+02  0.00000000000E+00 0.  1.
</event>
<event>
 8    1  0.1254059E-006  0.9118800E+02  0.7816164E-02  0.1184000E+00
        -11   -1    0    0    0    0  0.00000000000E+00  0.00000000000E+00  0.45593999997E+02  0.45594000000E+02  0.51100000000E-03 0. -1.
         11   -1    0    0    0    0 -0.00000000000E+00 -0.00000000000E+00 -0.45593999997E+02  0.45594000000E+02  0.51100000000E-03 0.  1.
         23    2    1    2    0    0  0.35527136788E-14 -0.13322676296E-14  0.35527136788E-14  0.91188000000E+02  0.91188000000E+02 0.  0.
    9900012    2    3    3    0    0 -0.19942842266E+02  0.31875127384E+01 -0.30788030203E+02  0.54367082047E+02  0.39999995144E+02 0.  0.
         12    1    3    3    0    0  0.19942842266E+02 -0.31875127384E+01  0.30788030203E+02  0.36820917953E+02  0.00000000000E+00 0. -1.
         11    1    4    4    0    0 -0.20260389845E+02  0.12009147685E+02 -0.18505536572E+01  0.23624723785E+02  0.51100000000E-03 0. -1.
        -11    1    4    4    0    0  0.10611034618E+01 -0.87725495121E+01 -0.21183424522E+02  0.22952582430E+02  0.51100000000E-03 0.  1.
         12    1    4    4    0    0 -0.74355588280E+00 -0.49085434736E-01 -0.77540520238E+01  0.77897758324E+01  0.00000000000E+00 0. -1.
</event>
<event>
 8    1  0.1254059E-006  0.9118800E+02  0.7816164E-02  0.1184000E+00
        -11   -1    0    0    0    0  0.00000000000E+00  0.00000000000E+00  0.45593999997E+02  0.45594000000E+02  0.51100000000E-03 0.  1.
         11   -1    0    0    0    0 -0.00000000000E+00 -0.00000000000E+00 -0.45593999997E+02  0.45594000000E+02  0.51100000000E-03 0. -1.
         23    2    1    2    0    0 -0.17763568394E-14  0.71054273576E-14  0.00000000000E+00  0.91188000000E+02  0.91188000000E+02 0.  0.
    9900012    2    3    3    0    0 -0.12043941400E+02  0.31266383331E+02  0.15268804205E+02  0.54367087017E+02  0.40000006472E+02 0.  0.
         12    1    3    3    0    0  0.12043941400E+02 -0.31266383331E+02 -0.15268804205E+02  0.36820912983E+02  0.00000000000E+00 0. -1.
         11    1    4    4    0    0  0.10603683827E+02 -0.56094039388E+00  0.43873903195E+01  0.11489210544E+02  0.51100000000E-03 0. -1.
        -11    1    4    4    0    0 -0.11912385121E+02  0.11058444302E+02  0.10769862723E+02  0.19498308977E+02  0.51100000000E-03 0.  1.
         12    1    4    4    0    0 -0.10735240107E+02  0.20768879423E+02  0.11155116295E+00  0.23379567496E+02  0.00000000000E+00 0. -1.
</event>
<event>
 8    1  0.1254059E-006  0.9118800E+02  0.7816164E-02  0.1184000E+00
        -11   -1    0    0    0    0  0.00000000000E+00  0.00000000000E+00  0.45593999997E+02  0.45594000000E+02  0.51100000000E-03 0. -1.
         11   -1    0    0    0    0 -0.00000000000E+00 -0.00000000000E+00 -0.45593999997E+02  0.45594000000E+02  0.51100000000E-03 0.  1.
         23    2    1    2    0    0 -0.35527136788E-14 -0.17763568394E-14  0.00000000000E+00  0.91188000000E+02  0.91188000000E+02 0.  0.
    9900012    2    3    3    0    0  0.25097056173E+02  0.88132213855E+01 -0.25460642718E+02  0.54367089808E+02  0.40000012836E+02 0.  0.
         12    1    3    3    0    0 -0.25097056173E+02 -0.88132213855E+01  0.25460642718E+02  0.36820910192E+02  0.00000000000E+00 0. -1.
         11    1    4    4    0    0 -0.55397010703E+00  0.13100432565E+01 -0.21365167750E+02  0.21412461079E+02  0.51100000000E-03 0.  1.
        -11    1    4    4    0    0  0.63675390223E+01 -0.59749247606E+01  0.12699943656E+01  0.88237273896E+01  0.51100000000E-03 0. -1.
         12    1    4    4    0    0  0.19283487258E+02  0.13478102890E+02 -0.53654693335E+01  0.24130901340E+02  0.00000000000E+00 0. -1.
</event>
<event>
 8    1  0.1254059E-006  0.9118800E+02  0.7816164E-02  0.1184000E+00
        -11   -1    0    0    0    0  0.00000000000E+00  0.00000000000E+00  0.45593999997E+02  0.45594000000E+02  0.51100000000E-03 0. -1.
         11   -1    0    0    0    0 -0.00000000000E+00 -0.00000000000E+00 -0.45593999997E+02  0.45594000000E+02  0.51100000000E-03 0.  1.
         23    2    1    2    0    0  0.00000000000E+00 -0.17763568394E-14 -0.35527136788E-14  0.91188000000E+02  0.91188000000E+02 0.  0.
    9900012    2    3    3    0    0  0.19478055354E+02 -0.10270446109E+02 -0.29511066947E+02  0.54367085073E+02  0.40000002042E+02 0.  0.
         12    1    3    3    0    0 -0.19478055354E+02  0.10270446109E+02  0.29511066947E+02  0.36820914927E+02  0.00000000000E+00 0. -1.
         11    1    4    4    0    0  0.52467431434E+01  0.58067667517E+00 -0.20056078793E+02  0.20739136815E+02  0.51100000000E-03 0. -1.
        -11    1    4    4    0    0 -0.48306051105E+01 -0.99972960718E+01 -0.93983886446E+01  0.14546834152E+02  0.51100000000E-03 0.  1.
        -12    1    4    4    0    0  0.19061917322E+02 -0.85382671208E+00 -0.56599510079E-01  0.19081114106E+02  0.00000000000E+00 0.  1.
</event>
<event>
 8    1  0.1254059E-006  0.9118800E+02  0.7816164E-02  0.1184000E+00
        -11   -1    0    0    0    0  0.00000000000E+00  0.00000000000E+00  0.45593999997E+02  0.45594000000E+02  0.51100000000E-03 0.  1.
         11   -1    0    0    0    0 -0.00000000000E+00 -0.00000000000E+00 -0.45593999997E+02  0.45594000000E+02  0.51100000000E-03 0. -1.
         23    2    1    2    0    0  0.00000000000E+00  0.00000000000E+00  0.00000000000E+00  0.91188000000E+02  0.91188000000E+02 0.  0.
    9900012    2    3    3    0    0  0.29930451818E+02 -0.19319857505E+02  0.93109370688E+01  0.54367049589E+02  0.39999921148E+02 0.  0.
         12    1    3    3    0    0 -0.29930451818E+02  0.19319857505E+02 -0.93109370688E+01  0.36820950411E+02  0.00000000000E+00 0. -1.
         11    1    4    4    0    0  0.15029359798E+02 -0.30269612947E+02  0.10529288068E+02  0.35397698108E+02  0.51100000000E-03 0. -1.
        -11    1    4    4    0    0  0.11385450438E+02  0.91599761048E+01  0.60076281534E+00  0.14625134534E+02  0.51100000000E-03 0.  1.
         12    1    4    4    0    0  0.35156415823E+01  0.17897793366E+01 -0.18191138149E+01  0.43442169468E+01  0.00000000000E+00 0. -1.
</event>
<event>
 8    1  0.1254059E-006  0.9118800E+02  0.7816164E-02  0.1184000E+00
        -11   -1    0    0    0    0  0.00000000000E+00  0.00000000000E+00  0.45593999997E+02  0.45594000000E+02  0.51100000000E-03 0.  1.
         11   -1    0    0    0    0 -0.00000000000E+00 -0.00000000000E+00 -0.45593999997E+02  0.45594000000E+02  0.51100000000E-03 0. -1.
         23    2    1    2    0    0  0.00000000000E+00  0.00000000000E+00  0.49960036108E-15  0.91188000000E+02  0.91188000000E+02 0.  0.
    9900012    2    3    3    0    0 -0.18334114227E+02 -0.31930207573E+02  0.31769675821E+00  0.54367097901E+02  0.40000031285E+02 0.  0.
        -12    1    3    3    0    0  0.18334114227E+02  0.31930207573E+02 -0.31769675821E+00  0.36820902099E+02  0.00000000000E+00 0.  1.
         11    1    4    4    0    0 -0.39194723946E+01 -0.18414562025E+02  0.10696647423E+02  0.21653559171E+02  0.51100000000E-03 0.  1.
        -11    1    4    4    0    0 -0.93001598402E+00 -0.16134234389E+02 -0.12271244745E+01  0.16207537869E+02  0.51100000000E-03 0. -1.
        -12    1    4    4    0    0 -0.13484625849E+02  0.26185888405E+01 -0.91518261904E+01  0.16506000861E+02  0.00000000000E+00 0.  1.
</event>
<event>
 8    1  0.1254059E-006  0.9118800E+02  0.7816164E-02  0.1184000E+00
        -11   -1    0    0    0    0  0.00000000000E+00  0.00000000000E+00  0.45593999997E+02  0.45594000000E+02  0.51100000000E-03 0.  1.
         11   -1    0    0    0    0 -0.00000000000E+00 -0.00000000000E+00 -0.45593999997E+02  0.45594000000E+02  0.51100000000E-03 0. -1.
         23    2    1    2    0    0  0.00000000000E+00  0.00000000000E+00  0.35527136788E-14  0.91188000000E+02  0.91188000000E+02 0.  0.
    9900012    2    3    3    0    0  0.20321548048E+02  0.77795712390E+01  0.29703458223E+02  0.54367048436E+02  0.39999918519E+02 0.  0.
         12    1    3    3    0    0 -0.20321548048E+02 -0.77795712390E+01 -0.29703458223E+02  0.36820951564E+02  0.00000000000E+00 0. -1.
         11    1    4    4    0    0  0.39322317710E+01  0.10136616013E+02  0.16209323421E+02  0.19518083843E+02  0.51100000000E-03 0. -1.
        -11    1    4    4    0    0  0.10287680648E+02  0.12363144066E+02  0.53245511329E+01  0.16942094007E+02  0.51100000000E-03 0.  1.
         12    1    4    4    0    0  0.61016356282E+01 -0.14720188840E+02  0.81695836690E+01  0.17906870585E+02  0.00000000000E+00 0. -1.
</event>
<event>
 8    1  0.1254059E-006  0.9118800E+02  0.7816164E-02  0.1184000E+00
        -11   -1    0    0    0    0  0.00000000000E+00  0.00000000000E+00  0.45593999997E+02  0.45594000000E+02  0.51100000000E-03 0.  1.
         11   -1    0    0    0    0 -0.00000000000E+00 -0.00000000000E+00 -0.45593999997E+02  0.45594000000E+02  0.51100000000E-03 0. -1.
         23    2    1    2    0    0  0.00000000000E+00  0.00000000000E+00  0.00000000000E+00  0.91188000000E+02  0.91188000000E+02 0.  0.
    9900012    2    3    3    0    0  0.18627850383E+02  0.21862787097E+02  0.23039122864E+02  0.54367089475E+02  0.40000012077E+02 0.  0.
        -12    1    3    3    0    0 -0.18627850383E+02 -0.21862787097E+02 -0.23039122864E+02  0.36820910525E+02  0.00000000000E+00 0.  1.
         11    1    4    4    0    0  0.13167758353E+02  0.16493196744E+02  0.22717584812E+02  0.31008128915E+02  0.51100000000E-03 0. -1.
        -11    1    4    4    0    0 -0.65638704272E+01  0.85960990851E+01 -0.88240960425E+00  0.10851541892E+02  0.51100000000E-03 0.  1.
         12    1    4    4    0    0  0.12023962457E+02 -0.32265087317E+01  0.12039476557E+01  0.12507418668E+02  0.00000000000E+00 0. -1.
</event>
<event>
 8    1  0.1254059E-006  0.9118800E+02  0.7816164E-02  0.1184000E+00
        -11   -1    0    0    0    0  0.00000000000E+00  0.00000000000E+00  0.45593999997E+02  0.45594000000E+02  0.51100000000E-03 0. -1.
         11   -1    0    0    0    0 -0.00000000000E+00 -0.00000000000E+00 -0.45593999997E+02  0.45594000000E+02  0.51100000000E-03 0.  1.
         23    2    1    2    0    0  0.00000000000E+00  0.13322676296E-14  0.00000000000E+00  0.91188000000E+02  0.91188000000E+02 0.  0.
    9900012    2    3    3    0    0  0.94462579513E+01  0.39699565807E+01 -0.35366462593E+02  0.54367095328E+02  0.40000025420E+02 0.  0.
         12    1    3    3    0    0 -0.94462579513E+01 -0.39699565807E+01  0.35366462593E+02  0.36820904672E+02  0.00000000000E+00 0. -1.
         11    1    4    4    0    0  0.29148801165E-01 -0.81046521057E+01 -0.22012712047E+02  0.23457317139E+02  0.51100000000E-03 0. -1.
        -11    1    4    4    0    0  0.38411133591E+01 -0.50742606769E+01 -0.11021489334E+02  0.12726959600E+02  0.51100000000E-03 0.  1.
         12    1    4    4    0    0  0.55759957911E+01  0.17148869363E+02 -0.23322612112E+01  0.18182818590E+02  0.00000000000E+00 0. -1.
</event>
<event>
 8    1  0.1254059E-006  0.9118800E+02  0.7816164E-02  0.1184000E+00
        -11   -1    0    0    0    0  0.00000000000E+00  0.00000000000E+00  0.45593999997E+02  0.45594000000E+02  0.51100000000E-03 0.  1.
         11   -1    0    0    0    0 -0.00000000000E+00 -0.00000000000E+00 -0.45593999997E+02  0.45594000000E+02  0.51100000000E-03 0. -1.
         23    2    1    2    0    0  0.44408920985E-15  0.71054273576E-14  0.00000000000E+00  0.91188000000E+02  0.91188000000E+02 0.  0.
    9900012    2    3    3    0    0 -0.60238236934E+00 -0.35902307317E+02  0.81511468720E+01  0.54367085691E+02  0.40000003450E+02 0.  0.
         12    1    3    3    0    0  0.60238236934E+00  0.35902307317E+02 -0.81511468720E+01  0.36820914309E+02  0.00000000000E+00 0. -1.
         11    1    4    4    0    0  0.25287630150E+01 -0.18734901372E+01 -0.25505829647E+01  0.40509358673E+01  0.51100000000E-03 0. -1.
        -11    1    4    4    0    0 -0.18417059948E+02 -0.11783005503E+02  0.76001977753E+01  0.23147145014E+02  0.51100000000E-03 0.  1.
         12    1    4    4    0    0  0.15285914564E+02 -0.22245811677E+02  0.31015320614E+01  0.27169004810E+02  0.00000000000E+00 0. -1.
</event>
<event>
 8    1  0.1254059E-006  0.9118800E+02  0.7816164E-02  0.1184000E+00
        -11   -1    0    0    0    0  0.00000000000E+00  0.00000000000E+00  0.45593999997E+02  0.45594000000E+02  0.51100000000E-03 0.  1.
         11   -1    0    0    0    0 -0.00000000000E+00 -0.00000000000E+00 -0.45593999997E+02  0.45594000000E+02  0.51100000000E-03 0. -1.
         23    2    1    2    0    0 -0.10658141036E-13  0.44408920985E-15 -0.35527136788E-14  0.91188000000E+02  0.91188000000E+02 0.  0.
    9900012    2    3    3    0    0 -0.30293223649E+02  0.22682378038E+01 -0.20807585764E+02  0.54367083022E+02  0.39999997366E+02 0.  0.
        -12    1    3    3    0    0  0.30293223649E+02 -0.22682378038E+01  0.20807585764E+02  0.36820916978E+02  0.00000000000E+00 0.  1.
         11    1    4    4    0    0  0.36664899714E+01  0.33710817547E+00 -0.11769721877E+02  0.12332199478E+02  0.51100000000E-03 0.  1.
        -11    1    4    4    0    0 -0.27633375395E+01  0.25364354618E+01 -0.10141693951E+02  0.10813116834E+02  0.51100000000E-03 0. -1.
        -12    1    4    4    0    0 -0.31196376080E+02 -0.60530583351E+00  0.11038300639E+01  0.31221766710E+02  0.00000000000E+00 0.  1.
</event>
<event>
 8    1  0.1254059E-006  0.9118800E+02  0.7816164E-02  0.1184000E+00
        -11   -1    0    0    0    0  0.00000000000E+00  0.00000000000E+00  0.45593999997E+02  0.45594000000E+02  0.51100000000E-03 0.  1.
         11   -1    0    0    0    0 -0.00000000000E+00 -0.00000000000E+00 -0.45593999997E+02  0.45594000000E+02  0.51100000000E-03 0. -1.
         23    2    1    2    0    0  0.00000000000E+00 -0.71054273576E-14 -0.16653345369E-15  0.91188000000E+02  0.91188000000E+02 0.  0.
    9900012    2    3    3    0    0 -0.15362726488E+02  0.33460331402E+02  0.41336142369E+00  0.54367109050E+02  0.40000056701E+02 0.  0.
         12    1    3    3    0    0  0.15362726488E+02 -0.33460331402E+02 -0.41336142369E+00  0.36820890950E+02  0.00000000000E+00 0. -1.
         11    1    4    4    0    0  0.68552248033E+01  0.23671863353E+02 -0.76107634903E+01  0.25792924279E+02  0.51100000000E-03 0.  1.
        -11    1    4    4    0    0 -0.22591564263E+02  0.84998405238E+01  0.41725858013E+01  0.24495643231E+02  0.51100000000E-03 0. -1.
         12    1    4    4    0    0  0.37361297168E+00  0.12886275253E+01  0.38515391127E+01  0.40785415393E+01  0.00000000000E+00 0. -1.
</event>
<event>
 8    1  0.1254059E-006  0.9118800E+02  0.7816164E-02  0.1184000E+00
        -11   -1    0    0    0    0  0.00000000000E+00  0.00000000000E+00  0.45593999997E+02  0.45594000000E+02  0.51100000000E-03 0.  1.
         11   -1    0    0    0    0 -0.00000000000E+00 -0.00000000000E+00 -0.45593999997E+02  0.45594000000E+02  0.51100000000E-03 0. -1.
         23    2    1    2    0    0 -0.35527136788E-14  0.00000000000E+00  0.00000000000E+00  0.91188000000E+02  0.91188000000E+02 0.  0.
    9900012    2    3    3    0    0 -0.26545771175E+02 -0.23273949245E+02 -0.10460423017E+02  0.54367148158E+02  0.40000145855E+02 0.  0.
        -12    1    3    3    0    0  0.26545771175E+02  0.23273949245E+02  0.10460423017E+02  0.36820851842E+02  0.00000000000E+00 0.  1.
         11    1    4    4    0    0 -0.11377676408E+02 -0.66838608761E+01 -0.10571508733E+01  0.13237941112E+02  0.51100000000E-03 0. -1.
        -11    1    4    4    0    0 -0.11036188491E+02  0.83157263416E+01  0.93097715797E+00  0.13849746558E+02  0.51100000000E-03 0.  1.
         12    1    4    4    0    0 -0.41319062758E+01 -0.24905814710E+02 -0.10334249302E+02  0.27279460487E+02  0.00000000000E+00 0. -1.
</event>
<event>
 8    1  0.1254059E-006  0.9118800E+02  0.7816164E-02  0.1184000E+00
        -11   -1    0    0    0    0  0.00000000000E+00  0.00000000000E+00  0.45593999997E+02  0.45594000000E+02  0.51100000000E-03 0. -1.
         11   -1    0    0    0    0 -0.00000000000E+00 -0.00000000000E+00 -0.45593999997E+02  0.45594000000E+02  0.51100000000E-03 0.  1.
         23    2    1    2    0    0 -0.71054273576E-14  0.00000000000E+00  0.00000000000E+00  0.91188000000E+02  0.91188000000E+02 0.  0.
    9900012    2    3    3    0    0 -0.29160440828E+02 -0.21805139089E+02 -0.54753774954E+01  0.54367147773E+02  0.40000144978E+02 0.  0.
         12    1    3    3    0    0  0.29160440828E+02  0.21805139089E+02  0.54753774954E+01  0.36820852227E+02  0.00000000000E+00 0. -1.
         11    1    4    4    0    0 -0.59867119664E+01 -0.22967827307E+02 -0.29720964384E+01  0.23920601348E+02  0.51100000000E-03 0. -1.
        -11    1    4    4    0    0 -0.14011848181E+01 -0.63187644830E+01  0.24093482662E+01  0.69061612213E+01  0.51100000000E-03 0.  1.
         12    1    4    4    0    0 -0.21772544044E+02  0.74814527010E+01 -0.49126293232E+01  0.23540385203E+02  0.00000000000E+00 0. -1.
</event>
<event>
 8    1  0.1254059E-006  0.9118800E+02  0.7816164E-02  0.1184000E+00
        -11   -1    0    0    0    0  0.00000000000E+00  0.00000000000E+00  0.45593999997E+02  0.45594000000E+02  0.51100000000E-03 0.  1.
         11   -1    0    0    0    0 -0.00000000000E+00 -0.00000000000E+00 -0.45593999997E+02  0.45594000000E+02  0.51100000000E-03 0. -1.
         23    2    1    2    0    0  0.88817841970E-15 -0.17763568394E-14  0.00000000000E+00  0.91188000000E+02  0.91188000000E+02 0.  0.
    9900012    2    3    3    0    0 -0.11078501346E+01 -0.11768684834E+02  0.34871931029E+02  0.54367070512E+02  0.39999968847E+02 0.  0.
         12    1    3    3    0    0  0.11078501346E+01  0.11768684834E+02 -0.34871931029E+02  0.36820929488E+02  0.00000000000E+00 0. -1.
         11    1    4    4    0    0  0.14916481754E+02 -0.24394139183E+01  0.18505430367E+02  0.23893579086E+02  0.51100000000E-03 0. -1.
        -11    1    4    4    0    0 -0.43733277938E+01 -0.18628825156E+01 -0.37516060018E+01  0.60556481992E+01  0.51100000000E-03 0.  1.
        -12    1    4    4    0    0 -0.11651004095E+02 -0.74663884001E+01  0.20118106663E+02  0.24417843227E+02  0.00000000000E+00 0.  1.
</event>
<event>
 8    1  0.1254059E-006  0.9118800E+02  0.7816164E-02  0.1184000E+00
        -11   -1    0    0    0    0  0.00000000000E+00  0.00000000000E+00  0.45593999997E+02  0.45594000000E+02  0.51100000000E-03 0.  1.
         11   -1    0    0    0    0 -0.00000000000E+00 -0.00000000000E+00 -0.45593999997E+02  0.45594000000E+02  0.51100000000E-03 0. -1.
         23    2    1    2    0    0  0.00000000000E+00  0.00000000000E+00  0.00000000000E+00  0.91188000000E+02  0.91188000000E+02 0.  0.
    9900012    2    3    3    0    0  0.23296712475E+02 -0.16477910715E+02  0.23270617574E+02  0.54367082087E+02  0.39999995235E+02 0.  0.
         12    1    3    3    0    0 -0.23296712475E+02  0.16477910715E+02 -0.23270617574E+02  0.36820917913E+02  0.00000000000E+00 0. -1.
         11    1    4    4    0    0  0.95525715824E+01 -0.62460755790E+01  0.30292709510E+02  0.32371489519E+02  0.51100000000E-03 0. -1.
        -11    1    4    4    0    0  0.63633556414E+01 -0.73108426375E+00 -0.76144579780E+01  0.99502135545E+01  0.51100000000E-03 0.  1.
         12    1    4    4    0    0  0.73807852510E+01 -0.95007508723E+01  0.59236604168E+00  0.12045379014E+02  0.00000000000E+00 0. -1.
</event>
<event>
 8    1  0.1254059E-006  0.9118800E+02  0.7816164E-02  0.1184000E+00
        -11   -1    0    0    0    0  0.00000000000E+00  0.00000000000E+00  0.45593999997E+02  0.45594000000E+02  0.51100000000E-03 0.  1.
         11   -1    0    0    0    0 -0.00000000000E+00 -0.00000000000E+00 -0.45593999997E+02  0.45594000000E+02  0.51100000000E-03 0. -1.
         23    2    1    2    0    0  0.00000000000E+00  0.00000000000E+00 -0.17763568394E-14  0.91188000000E+02  0.91188000000E+02 0.  0.
    9900012    2    3    3    0    0  0.32252209107E+02  0.14144141714E+02 -0.10747921988E+02  0.54367087950E+02  0.40000008599E+02 0.  0.
        -12    1    3    3    0    0 -0.32252209107E+02 -0.14144141714E+02  0.10747921988E+02  0.36820912050E+02  0.00000000000E+00 0.  1.
         11    1    4    4    0    0  0.88165568385E+01  0.63431246692E+01 -0.11887254985E+02  0.16101979270E+02  0.51100000000E-03 0. -1.
        -11    1    4    4    0    0  0.21627647106E+02  0.21460873935E+00 -0.10666518376E+02  0.24115882542E+02  0.51100000000E-03 0.  1.
        -12    1    4    4    0    0  0.18080051629E+01  0.75864083057E+01  0.11805851374E+02  0.14149226138E+02  0.00000000000E+00 0.  1.
</event>
<event>
 8    1  0.1254059E-006  0.9118800E+02  0.7816164E-02  0.1184000E+00
        -11   -1    0    0    0    0  0.00000000000E+00  0.00000000000E+00  0.45593999997E+02  0.45594000000E+02  0.51100000000E-03 0. -1.
         11   -1    0    0    0    0 -0.00000000000E+00 -0.00000000000E+00 -0.45593999997E+02  0.45594000000E+02  0.51100000000E-03 0.  1.
         23    2    1    2    0    0  0.71054273576E-14  0.13322676296E-14  0.00000000000E+00  0.91188000000E+02  0.91188000000E+02 0.  0.
    9900012    2    3    3    0    0  0.36369033111E+02 -0.32552602023E+01  0.47409579357E+01  0.54367082432E+02  0.39999996021E+02 0.  0.
         12    1    3    3    0    0 -0.36369033111E+02  0.32552602023E+01 -0.47409579357E+01  0.36820917568E+02  0.00000000000E+00 0. -1.
         11    1    4    4    0    0  0.47129732455E+01  0.81118974629E+01  0.44202605004E+01  0.10370810017E+02  0.51100000000E-03 0. -1.
        -11    1    4    4    0    0  0.34663777420E+02 -0.16209341211E+02  0.81027238562E+00  0.38275014685E+02  0.51100000000E-03 0.  1.
        -12    1    4    4    0    0 -0.30077175550E+01  0.48421835459E+01 -0.48957495034E+00  0.57212577302E+01  0.00000000000E+00 0.  1.
</event>
<event>
 8    1  0.1254059E-006  0.9118800E+02  0.7816164E-02  0.1184000E+00
        -11   -1    0    0    0    0  0.00000000000E+00  0.00000000000E+00  0.45593999997E+02  0.45594000000E+02  0.51100000000E-03 0.  1.
         11   -1    0    0    0    0 -0.00000000000E+00 -0.00000000000E+00 -0.45593999997E+02  0.45594000000E+02  0.51100000000E-03 0. -1.
         23    2    1    2    0    0  0.00000000000E+00 -0.17763568394E-14  0.35527136788E-14  0.91188000000E+02  0.91188000000E+02 0.  0.
    9900012    2    3    3    0    0  0.16528624238E+02  0.12948604190E+02  0.30247615165E+02  0.54367082129E+02  0.39999995329E+02 0.  0.
         12    1    3    3    0    0 -0.16528624238E+02 -0.12948604190E+02 -0.30247615165E+02  0.36820917871E+02  0.00000000000E+00 0. -1.
         11    1    4    4    0    0  0.85928161283E+01  0.13458616823E+02  0.20414417824E+00  0.15969111776E+02  0.51100000000E-03 0. -1.
        -11    1    4    4    0    0  0.13088456927E+02  0.60271183107E-01  0.30503990035E+02  0.33193444317E+02  0.51100000000E-03 0.  1.
         12    1    4    4    0    0 -0.51526488172E+01 -0.57028381634E+00 -0.46051904752E+00  0.52045260358E+01  0.00000000000E+00 0. -1.
</event>
<event>
 8    1  0.1254059E-006  0.9118800E+02  0.7816164E-02  0.1184000E+00
        -11   -1    0    0    0    0  0.00000000000E+00  0.00000000000E+00  0.45593999997E+02  0.45594000000E+02  0.51100000000E-03 0.  1.
         11   -1    0    0    0    0 -0.00000000000E+00 -0.00000000000E+00 -0.45593999997E+02  0.45594000000E+02  0.51100000000E-03 0. -1.
         23    2    1    2    0    0 -0.26645352591E-14  0.00000000000E+00 -0.35527136788E-14  0.91188000000E+02  0.91188000000E+02 0.  0.
    9900012    2    3    3    0    0 -0.42436215452E+01 -0.32005674831E+02 -0.17703347074E+02  0.54367081451E+02  0.39999993783E+02 0.  0.
        -12    1    3    3    0    0  0.42436215452E+01  0.32005674831E+02  0.17703347074E+02  0.36820918549E+02  0.00000000000E+00 0.  1.
         11    1    4    4    0    0  0.55402524095E+01 -0.27385173724E+01 -0.80593808407E+01  0.10156155471E+02  0.51100000000E-03 0. -1.
        -11    1    4    4    0    0 -0.42509777536E+01  0.58116326986E+01  0.66871116087E+00  0.72313941507E+01  0.51100000000E-03 0.  1.
         12    1    4    4    0    0 -0.55328962011E+01 -0.35078790157E+02 -0.10312677394E+02  0.36979531829E+02  0.00000000000E+00 0. -1.
</event>
<event>
 8    1  0.1254059E-006  0.9118800E+02  0.7816164E-02  0.1184000E+00
        -11   -1    0    0    0    0  0.00000000000E+00  0.00000000000E+00  0.45593999997E+02  0.45594000000E+02  0.51100000000E-03 0.  1.
         11   -1    0    0    0    0 -0.00000000000E+00 -0.00000000000E+00 -0.45593999997E+02  0.45594000000E+02  0.51100000000E-03 0. -1.
         23    2    1    2    0    0  0.00000000000E+00  0.88817841970E-15  0.00000000000E+00  0.91188000000E+02  0.91188000000E+02 0.  0.
    9900012    2    3    3    0    0 -0.30412235109E+02 -0.40061334530E+01 -0.20367281096E+02  0.54367091690E+02  0.40000017125E+02 0.  0.
        -12    1    3    3    0    0  0.30412235109E+02  0.40061334530E+01  0.20367281096E+02  0.36820908310E+02  0.00000000000E+00 0.  1.
         11    1    4    4    0    0 -0.71720348401E+01  0.41154973421E+00 -0.10909653440E+02  0.13062465134E+02  0.51100000000E-03 0. -1.
        -11    1    4    4    0    0 -0.54702319059E+01 -0.10364818212E+02 -0.17378119666E+02  0.20960723677E+02  0.51100000000E-03 0.  1.
         12    1    4    4    0    0 -0.17769968363E+02  0.59471350252E+01  0.79204920108E+01  0.20343902878E+02  0.00000000000E+00 0. -1.
</event>
<event>
 8    1  0.1254059E-006  0.9118800E+02  0.7816164E-02  0.1184000E+00
        -11   -1    0    0    0    0  0.00000000000E+00  0.00000000000E+00  0.45593999997E+02  0.45594000000E+02  0.51100000000E-03 0. -1.
         11   -1    0    0    0    0 -0.00000000000E+00 -0.00000000000E+00 -0.45593999997E+02  0.45594000000E+02  0.51100000000E-03 0.  1.
         23    2    1    2    0    0  0.00000000000E+00  0.35527136788E-14  0.00000000000E+00  0.91188000000E+02  0.91188000000E+02 0.  0.
    9900012    2    3    3    0    0 -0.56126665982E+01 -0.26422174320E+02 -0.25022926711E+02  0.54367079543E+02  0.39999989433E+02 0.  0.
         12    1    3    3    0    0  0.56126665982E+01  0.26422174320E+02  0.25022926711E+02  0.36820920457E+02  0.00000000000E+00 0. -1.
         11    1    4    4    0    0  0.56945387683E+01  0.45522822656E+01 -0.27051489076E+01  0.77761736402E+01  0.51100000000E-03 0. -1.
        -11    1    4    4    0    0 -0.99484931847E+01 -0.32078870761E+02 -0.11301832321E+02  0.35436674223E+02  0.51100000000E-03 0.  1.
        -12    1    4    4    0    0 -0.13587121818E+01  0.11044141753E+01 -0.11015945483E+02  0.11154231679E+02  0.00000000000E+00 0.  1.
</event>
<event>
 8    1  0.1254059E-006  0.9118800E+02  0.7816164E-02  0.1184000E+00
        -11   -1    0    0    0    0  0.00000000000E+00  0.00000000000E+00  0.45593999997E+02  0.45594000000E+02  0.51100000000E-03 0.  1.
         11   -1    0    0    0    0 -0.00000000000E+00 -0.00000000000E+00 -0.45593999997E+02  0.45594000000E+02  0.51100000000E-03 0. -1.
         23    2    1    2    0    0  0.35527136788E-14  0.00000000000E+00 -0.17763568394E-14  0.91188000000E+02  0.91188000000E+02 0.  0.
    9900012    2    3    3    0    0 -0.27798385285E+02  0.21870057712E+02  0.10233774893E+02  0.54367084784E+02  0.40000001382E+02 0.  0.
         12    1    3    3    0    0  0.27798385285E+02 -0.21870057712E+02 -0.10233774893E+02  0.36820915216E+02  0.00000000000E+00 0. -1.
         11    1    4    4    0    0 -0.15559687190E+02  0.12439208561E+02 -0.11242084486E+02  0.22874051651E+02  0.51100000000E-03 0. -1.
        -11    1    4    4    0    0  0.19325470792E+01  0.50778070305E+01  0.43724571323E-01  0.54333023615E+01  0.51100000000E-03 0.  1.
        -12    1    4    4    0    0 -0.14171245174E+02  0.43530421211E+01  0.21432134808E+02  0.26059730772E+02  0.00000000000E+00 0.  1.
</event>
<event>
 8    1  0.1254059E-006  0.9118800E+02  0.7816164E-02  0.1184000E+00
        -11   -1    0    0    0    0  0.00000000000E+00  0.00000000000E+00  0.45593999997E+02  0.45594000000E+02  0.51100000000E-03 0.  1.
         11   -1    0    0    0    0 -0.00000000000E+00 -0.00000000000E+00 -0.45593999997E+02  0.45594000000E+02  0.51100000000E-03 0. -1.
         23    2    1    2    0    0  0.00000000000E+00  0.00000000000E+00  0.35527136788E-14  0.91188000000E+02  0.91188000000E+02 0.  0.
    9900012    2    3    3    0    0  0.13959454625E+02  0.26357565353E+02 -0.21591481502E+02  0.54367086130E+02  0.40000004451E+02 0.  0.
        -12    1    3    3    0    0 -0.13959454625E+02 -0.26357565353E+02  0.21591481502E+02  0.36820913870E+02  0.00000000000E+00 0.  1.
         11    1    4    4    0    0  0.42262218363E+01  0.58279768206E+01 -0.25329917142E+01  0.76316650946E+01  0.51100000000E-03 0. -1.
        -11    1    4    4    0    0  0.14850281340E+02  0.18305910917E+02 -0.27748180707E+02  0.36408773163E+02  0.51100000000E-03 0.  1.
        -12    1    4    4    0    0 -0.51170485517E+01  0.22236776150E+01  0.86896909196E+01  0.10326647873E+02  0.00000000000E+00 0.  1.
</event>
<event>
 8    1  0.1254059E-006  0.9118800E+02  0.7816164E-02  0.1184000E+00
        -11   -1    0    0    0    0  0.00000000000E+00  0.00000000000E+00  0.45593999997E+02  0.45594000000E+02  0.51100000000E-03 0.  1.
         11   -1    0    0    0    0 -0.00000000000E+00 -0.00000000000E+00 -0.45593999997E+02  0.45594000000E+02  0.51100000000E-03 0. -1.
         23    2    1    2    0    0 -0.13322676296E-14  0.17763568394E-14  0.00000000000E+00  0.91188000000E+02  0.91188000000E+02 0.  0.
    9900012    2    3    3    0    0  0.21585473722E+01  0.12962643244E+02 -0.34396085397E+02  0.54367080168E+02  0.39999990859E+02 0.  0.
        -12    1    3    3    0    0 -0.21585473722E+01 -0.12962643244E+02  0.34396085397E+02  0.36820919832E+02  0.00000000000E+00 0.  1.
         11    1    4    4    0    0  0.11373582184E+01  0.18581222234E+01 -0.15026747372E+02  0.15183851249E+02  0.51100000000E-03 0. -1.
        -11    1    4    4    0    0  0.14337048356E+02  0.14046056986E+01 -0.17403434868E+02  0.22592109645E+02  0.51100000000E-03 0.  1.
        -12    1    4    4    0    0 -0.13315859202E+02  0.96999153225E+01 -0.19659031573E+01  0.16591119274E+02  0.00000000000E+00 0.  1.
</event>
<event>
 8    1  0.1254059E-006  0.9118800E+02  0.7816164E-02  0.1184000E+00
        -11   -1    0    0    0    0  0.00000000000E+00  0.00000000000E+00  0.45593999997E+02  0.45594000000E+02  0.51100000000E-03 0. -1.
         11   -1    0    0    0    0 -0.00000000000E+00 -0.00000000000E+00 -0.45593999997E+02  0.45594000000E+02  0.51100000000E-03 0.  1.
         23    2    1    2    0    0 -0.44408920985E-15 -0.71054273576E-14  0.00000000000E+00  0.91188000000E+02  0.91188000000E+02 0.  0.
    9900012    2    3    3    0    0  0.17844859680E+01  0.35883602908E+02 -0.80599193076E+01  0.54367086825E+02  0.40000006034E+02 0.  0.
        -12    1    3    3    0    0 -0.17844859680E+01 -0.35883602908E+02  0.80599193076E+01  0.36820913175E+02  0.00000000000E+00 0.  1.
         11    1    4    4    0    0 -0.13947398855E+02  0.68208596093E+01 -0.23945593090E+01  0.15709486789E+02  0.51100000000E-03 0. -1.
        -11    1    4    4    0    0  0.14142304465E+02  0.13675741054E+02 -0.10694106226E+02  0.22391841756E+02  0.51100000000E-03 0.  1.
         12    1    4    4    0    0  0.15895803579E+01  0.15387002244E+02  0.50287462274E+01  0.16265758279E+02  0.00000000000E+00 0. -1.
</event>
<event>
 8    1  0.1254059E-006  0.9118800E+02  0.7816164E-02  0.1184000E+00
        -11   -1    0    0    0    0  0.00000000000E+00  0.00000000000E+00  0.45593999997E+02  0.45594000000E+02  0.51100000000E-03 0. -1.
         11   -1    0    0    0    0 -0.00000000000E+00 -0.00000000000E+00 -0.45593999997E+02  0.45594000000E+02  0.51100000000E-03 0.  1.
         23    2    1    2    0    0  0.00000000000E+00  0.35527136788E-14  0.00000000000E+00  0.91188000000E+02  0.91188000000E+02 0.  0.
    9900012    2    3    3    0    0 -0.78104465306E+01 -0.25831129722E+02  0.25050539176E+02  0.54367084059E+02  0.39999999729E+02 0.  0.
        -12    1    3    3    0    0  0.78104465306E+01  0.25831129722E+02 -0.25050539176E+02  0.36820915941E+02  0.00000000000E+00 0.  1.
         11    1    4    4    0    0  0.10029958730E+01 -0.93569289102E+01  0.17491267116E+02  0.19862088132E+02  0.51100000000E-03 0. -1.
        -11    1    4    4    0    0  0.30412779456E+00 -0.22234662494E+02  0.18797089809E+01  0.22316048397E+02  0.51100000000E-03 0.  1.
         12    1    4    4    0    0 -0.91175701981E+01  0.57604616827E+01  0.56795630792E+01  0.12188947530E+02  0.00000000000E+00 0. -1.
</event>
<event>
 8    1  0.1254059E-006  0.9118800E+02  0.7816164E-02  0.1184000E+00
        -11   -1    0    0    0    0  0.00000000000E+00  0.00000000000E+00  0.45593999997E+02  0.45594000000E+02  0.51100000000E-03 0. -1.
         11   -1    0    0    0    0 -0.00000000000E+00 -0.00000000000E+00 -0.45593999997E+02  0.45594000000E+02  0.51100000000E-03 0.  1.
         23    2    1    2    0    0  0.00000000000E+00  0.17763568394E-14  0.00000000000E+00  0.91188000000E+02  0.91188000000E+02 0.  0.
    9900012    2    3    3    0    0  0.27424599798E+02 -0.98298435038E+01  0.22517651449E+02  0.54367093925E+02  0.40000022222E+02 0.  0.
        -12    1    3    3    0    0 -0.27424599798E+02  0.98298435038E+01 -0.22517651449E+02  0.36820906075E+02  0.00000000000E+00 0.  1.
         11    1    4    4    0    0  0.93496921095E+01 -0.48889566624E+01  0.80940804115E+01  0.13297848614E+02  0.51100000000E-03 0. -1.
        -11    1    4    4    0    0  0.83768760159E+01  0.14308020951E+02  0.36678906482E+01  0.16980722522E+02  0.51100000000E-03 0.  1.
        -12    1    4    4    0    0  0.96980316724E+01 -0.19248907792E+02  0.10755680389E+02  0.24088522789E+02  0.00000000000E+00 0.  1.
</event>
<event>
 8    1  0.1254059E-006  0.9118800E+02  0.7816164E-02  0.1184000E+00
        -11   -1    0    0    0    0  0.00000000000E+00  0.00000000000E+00  0.45593999997E+02  0.45594000000E+02  0.51100000000E-03 0.  1.
         11   -1    0    0    0    0 -0.00000000000E+00 -0.00000000000E+00 -0.45593999997E+02  0.45594000000E+02  0.51100000000E-03 0. -1.
         23    2    1    2    0    0  0.00000000000E+00  0.88817841970E-15  0.00000000000E+00  0.91188000000E+02  0.91188000000E+02 0.  0.
    9900012    2    3    3    0    0 -0.16295619778E+02  0.62324204586E+01  0.32425118712E+02  0.54367100877E+02  0.40000038070E+02 0.  0.
         12    1    3    3    0    0  0.16295619778E+02 -0.62324204586E+01 -0.32425118712E+02  0.36820899123E+02  0.00000000000E+00 0. -1.
         11    1    4    4    0    0 -0.52447925187E+01 -0.67871020602E+01  0.13192035877E+01  0.86783006002E+01  0.51100000000E-03 0. -1.
        -11    1    4    4    0    0 -0.12222628682E+02  0.13621659618E+02  0.42342576015E+01  0.18784866258E+02  0.51100000000E-03 0.  1.
        -12    1    4    4    0    0  0.11718014230E+01 -0.60213709896E+00  0.26871657523E+02  0.26903934019E+02  0.00000000000E+00 0.  1.
</event>
<event>
 8    1  0.1254059E-006  0.9118800E+02  0.7816164E-02  0.1184000E+00
        -11   -1    0    0    0    0  0.00000000000E+00  0.00000000000E+00  0.45593999997E+02  0.45594000000E+02  0.51100000000E-03 0. -1.
         11   -1    0    0    0    0 -0.00000000000E+00 -0.00000000000E+00 -0.45593999997E+02  0.45594000000E+02  0.51100000000E-03 0.  1.
         23    2    1    2    0    0  0.00000000000E+00 -0.35527136788E-14  0.35527136788E-14  0.91188000000E+02  0.91188000000E+02 0.  0.
    9900012    2    3    3    0    0  0.20091881069E+02 -0.20587510941E+02  0.22983720438E+02  0.54367072570E+02  0.39999973539E+02 0.  0.
        -12    1    3    3    0    0 -0.20091881069E+02  0.20587510941E+02 -0.22983720438E+02  0.36820927430E+02  0.00000000000E+00 0.  1.
         11    1    4    4    0    0  0.30308657534E+01  0.39638302589E+01  0.97710361743E+01  0.10971383036E+02  0.51100000000E-03 0. -1.
        -11    1    4    4    0    0  0.71996631934E+01 -0.29358930196E+02  0.81197650078E+01  0.31300359685E+02  0.51100000000E-03 0.  1.
        -12    1    4    4    0    0  0.98613521219E+01  0.48075889962E+01  0.50929192556E+01  0.12095329850E+02  0.00000000000E+00 0.  1.
</event>
<event>
 8    1  0.1254059E-006  0.9118800E+02  0.7816164E-02  0.1184000E+00
        -11   -1    0    0    0    0  0.00000000000E+00  0.00000000000E+00  0.45593999997E+02  0.45594000000E+02  0.51100000000E-03 0.  1.
         11   -1    0    0    0    0 -0.00000000000E+00 -0.00000000000E+00 -0.45593999997E+02  0.45594000000E+02  0.51100000000E-03 0. -1.
         23    2    1    2    0    0  0.17763568394E-14 -0.71054273576E-14  0.00000000000E+00  0.91188000000E+02  0.91188000000E+02 0.  0.
    9900012    2    3    3    0    0 -0.11685628385E+02  0.32641251999E+02  0.12400520061E+02  0.54367107282E+02  0.40000052670E+02 0.  0.
         12    1    3    3    0    0  0.11685628385E+02 -0.32641251999E+02 -0.12400520061E+02  0.36820892718E+02  0.00000000000E+00 0. -1.
         11    1    4    4    0    0 -0.16627610826E+02  0.31503774647E+02  0.70998750935E+00  0.35629613264E+02  0.51100000000E-03 0. -1.
        -11    1    4    4    0    0 -0.36660595616E+01 -0.15268049074E+01 -0.74951593225E-02  0.39712947980E+01  0.51100000000E-03 0.  1.
        -12    1    4    4    0    0  0.86080420031E+01  0.26642822595E+01  0.11698027711E+02  0.14766199220E+02  0.00000000000E+00 0.  1.
</event>
<event>
 8    1  0.1254059E-006  0.9118800E+02  0.7816164E-02  0.1184000E+00
        -11   -1    0    0    0    0  0.00000000000E+00  0.00000000000E+00  0.45593999997E+02  0.45594000000E+02  0.51100000000E-03 0. -1.
         11   -1    0    0    0    0 -0.00000000000E+00 -0.00000000000E+00 -0.45593999997E+02  0.45594000000E+02  0.51100000000E-03 0.  1.
         23    2    1    2    0    0 -0.35527136788E-14  0.00000000000E+00  0.17763568394E-14  0.91188000000E+02  0.91188000000E+02 0.  0.
    9900012    2    3    3    0    0 -0.20387205359E+02 -0.27424809799E+02 -0.13712094774E+02  0.54367083689E+02  0.39999998886E+02 0.  0.
         12    1    3    3    0    0  0.20387205359E+02  0.27424809799E+02  0.13712094774E+02  0.36820916311E+02  0.00000000000E+00 0. -1.
         11    1    4    4    0    0 -0.19436248982E+02 -0.15401002566E+02 -0.11592038228E+02  0.27373965826E+02  0.51100000000E-03 0. -1.
        -11    1    4    4    0    0  0.47210462855E+01 -0.18026205389E+02 -0.19137754799E+01  0.18732188756E+02  0.51100000000E-03 0.  1.
         12    1    4    4    0    0 -0.56720026631E+01  0.60023981555E+01 -0.20628106598E+00  0.82609291067E+01  0.00000000000E+00 0. -1.
</event>
<event>
 8    1  0.1254059E-006  0.9118800E+02  0.7816164E-02  0.1184000E+00
        -11   -1    0    0    0    0  0.00000000000E+00  0.00000000000E+00  0.45593999997E+02  0.45594000000E+02  0.51100000000E-03 0.  1.
         11   -1    0    0    0    0 -0.00000000000E+00 -0.00000000000E+00 -0.45593999997E+02  0.45594000000E+02  0.51100000000E-03 0. -1.
         23    2    1    2    0    0  0.00000000000E+00  0.00000000000E+00 -0.17763568394E-14  0.91188000000E+02  0.91188000000E+02 0.  0.
    9900012    2    3    3    0    0 -0.11219087098E+01 -0.34219834874E+02  0.13547090187E+02  0.54367089766E+02  0.40000012740E+02 0.  0.
         12    1    3    3    0    0  0.11219087098E+01  0.34219834874E+02 -0.13547090187E+02  0.36820910234E+02  0.00000000000E+00 0. -1.
         11    1    4    4    0    0 -0.14468564830E+02 -0.20003604906E+01  0.86652574413E+01  0.16983153333E+02  0.51100000000E-03 0. -1.
        -11    1    4    4    0    0  0.68635136779E+01 -0.13207755813E+02  0.82479936635E+01  0.17017110018E+02  0.51100000000E-03 0.  1.
         12    1    4    4    0    0  0.64831424422E+01 -0.19011718570E+02 -0.33661609183E+01  0.20366826416E+02  0.00000000000E+00 0. -1.
</event>
<event>
 8    1  0.1254059E-006  0.9118800E+02  0.7816164E-02  0.1184000E+00
        -11   -1    0    0    0    0  0.00000000000E+00  0.00000000000E+00  0.45593999997E+02  0.45594000000E+02  0.51100000000E-03 0.  1.
         11   -1    0    0    0    0 -0.00000000000E+00 -0.00000000000E+00 -0.45593999997E+02  0.45594000000E+02  0.51100000000E-03 0. -1.
         23    2    1    2    0    0 -0.35527136788E-14  0.88817841970E-15  0.00000000000E+00  0.91188000000E+02  0.91188000000E+02 0.  0.
    9900012    2    3    3    0    0 -0.31946509710E+02 -0.66605262539E+01 -0.17053799561E+02  0.54367161171E+02  0.40000175520E+02 0.  0.
        -12    1    3    3    0    0  0.31946509710E+02  0.66605262539E+01  0.17053799561E+02  0.36820838829E+02  0.00000000000E+00 0.  1.
         11    1    4    4    0    0 -0.46611181852E+01  0.12088604710E+02 -0.10903202498E+02  0.16933405196E+02  0.51100000000E-03 0.  1.
        -11    1    4    4    0    0  0.14119368912E+01  0.38784089668E+00  0.15068555482E+01  0.21010950122E+01  0.51100000000E-03 0. -1.
         12    1    4    4    0    0 -0.28697328416E+02 -0.19136971860E+02 -0.76574526118E+01  0.35332660962E+02  0.00000000000E+00 0. -1.
</event>
<event>
 8    1  0.1254059E-006  0.9118800E+02  0.7816164E-02  0.1184000E+00
        -11   -1    0    0    0    0  0.00000000000E+00  0.00000000000E+00  0.45593999997E+02  0.45594000000E+02  0.51100000000E-03 0.  1.
         11   -1    0    0    0    0 -0.00000000000E+00 -0.00000000000E+00 -0.45593999997E+02  0.45594000000E+02  0.51100000000E-03 0. -1.
         23    2    1    2    0    0  0.88817841970E-15  0.35527136788E-14  0.00000000000E+00  0.91188000000E+02  0.91188000000E+02 0.  0.
    9900012    2    3    3    0    0  0.69023176732E+01  0.31515971487E+02 -0.17744897616E+02  0.54367084213E+02  0.40000000080E+02 0.  0.
        -12    1    3    3    0    0 -0.69023176732E+01 -0.31515971487E+02  0.17744897616E+02  0.36820915787E+02  0.00000000000E+00 0.  1.
         11    1    4    4    0    0  0.16242655670E+02  0.32227436688E+02 -0.17372405244E+02  0.40052865102E+02  0.51100000000E-03 0. -1.
        -11    1    4    4    0    0 -0.75546702449E+01  0.34104558779E+01  0.28727589863E+01  0.87725136796E+01  0.51100000000E-03 0.  1.
        -12    1    4    4    0    0 -0.17856677518E+01 -0.41219210793E+01 -0.32452513586E+01  0.55417054310E+01  0.00000000000E+00 0.  1.
</event>
<event>
 8    1  0.1254059E-006  0.9118800E+02  0.7816164E-02  0.1184000E+00
        -11   -1    0    0    0    0  0.00000000000E+00  0.00000000000E+00  0.45593999997E+02  0.45594000000E+02  0.51100000000E-03 0. -1.
         11   -1    0    0    0    0 -0.00000000000E+00 -0.00000000000E+00 -0.45593999997E+02  0.45594000000E+02  0.51100000000E-03 0.  1.
         23    2    1    2    0    0 -0.88817841970E-15  0.17763568394E-14  0.00000000000E+00  0.91188000000E+02  0.91188000000E+02 0.  0.
    9900012    2    3    3    0    0 -0.48791130590E+01  0.14433573002E+02 -0.33520856802E+02  0.54367060108E+02  0.39999945128E+02 0.  0.
         12    1    3    3    0    0  0.48791130590E+01 -0.14433573002E+02  0.33520856802E+02  0.36820939892E+02  0.00000000000E+00 0. -1.
         11    1    4    4    0    0 -0.39710407448E+00  0.44971870815E+01  0.64749518437E+01  0.78935027036E+01  0.51100000000E-03 0. -1.
        -11    1    4    4    0    0  0.12503419955E+01  0.15271174857E+02 -0.21621652846E+02  0.26500339784E+02  0.51100000000E-03 0.  1.
         12    1    4    4    0    0 -0.57323509800E+01 -0.53347889369E+01 -0.18374155799E+02  0.19973217620E+02  0.00000000000E+00 0. -1.
</event>
<event>
 8    1  0.1254059E-006  0.9118800E+02  0.7816164E-02  0.1184000E+00
        -11   -1    0    0    0    0  0.00000000000E+00  0.00000000000E+00  0.45593999997E+02  0.45594000000E+02  0.51100000000E-03 0.  1.
         11   -1    0    0    0    0 -0.00000000000E+00 -0.00000000000E+00 -0.45593999997E+02  0.45594000000E+02  0.51100000000E-03 0. -1.
         23    2    1    2    0    0  0.00000000000E+00  0.00000000000E+00  0.53290705182E-14  0.91188000000E+02  0.91188000000E+02 0.  0.
    9900012    2    3    3    0    0  0.35667758457E+02  0.61105963980E+01  0.68008317438E+01  0.54367086186E+02  0.40000004579E+02 0.  0.
         12    1    3    3    0    0 -0.35667758457E+02 -0.61105963980E+01 -0.68008317438E+01  0.36820913814E+02  0.00000000000E+00 0. -1.
         11    1    4    4    0    0 -0.13759869376E+01  0.45043427102E+01 -0.16378362412E+01  0.49864768241E+01  0.51100000000E-03 0. -1.
        -11    1    4    4    0    0  0.95860210287E+01 -0.17985715825E+01 -0.11646428573E+02  0.15190982775E+02  0.51100000000E-03 0.  1.
        -12    1    4    4    0    0  0.27457724366E+02  0.34048252702E+01  0.20085096558E+02  0.34189626588E+02  0.00000000000E+00 0.  1.
</event>
<event>
 8    1  0.1254059E-006  0.9118800E+02  0.7816164E-02  0.1184000E+00
        -11   -1    0    0    0    0  0.00000000000E+00  0.00000000000E+00  0.45593999997E+02  0.45594000000E+02  0.51100000000E-03 0.  1.
         11   -1    0    0    0    0 -0.00000000000E+00 -0.00000000000E+00 -0.45593999997E+02  0.45594000000E+02  0.51100000000E-03 0. -1.
         23    2    1    2    0    0  0.17763568394E-14 -0.35527136788E-14  0.35527136788E-14  0.91188000000E+02  0.91188000000E+02 0.  0.
    9900012    2    3    3    0    0  0.14121842517E+02  0.23038473386E+02  0.25011631597E+02  0.54367090082E+02  0.40000013461E+02 0.  0.
         12    1    3    3    0    0 -0.14121842517E+02 -0.23038473386E+02 -0.25011631597E+02  0.36820909918E+02  0.00000000000E+00 0. -1.
         11    1    4    4    0    0 -0.76378277771E+01  0.17665809632E+02  0.83508517937E+01  0.20979846735E+02  0.51100000000E-03 0. -1.
        -11    1    4    4    0    0  0.18010478219E+02  0.98365696423E+01  0.18121605031E+02  0.27377508966E+02  0.51100000000E-03 0.  1.
         12    1    4    4    0    0  0.37491920745E+01 -0.44639058882E+01 -0.14608252276E+01  0.60097343814E+01  0.00000000000E+00 0. -1.
</event>
<event>
 8    1  0.1254059E-006  0.9118800E+02  0.7816164E-02  0.1184000E+00
        -11   -1    0    0    0    0  0.00000000000E+00  0.00000000000E+00  0.45593999997E+02  0.45594000000E+02  0.51100000000E-03 0. -1.
         11   -1    0    0    0    0 -0.00000000000E+00 -0.00000000000E+00 -0.45593999997E+02  0.45594000000E+02  0.51100000000E-03 0.  1.
         23    2    1    2    0    0  0.44408920985E-15  0.17763568394E-14  0.71054273576E-14  0.91188000000E+02  0.91188000000E+02 0.  0.
    9900012    2    3    3    0    0 -0.34937264146E+01 -0.11978216377E+02 -0.34642399383E+02  0.54367087099E+02  0.40000006661E+02 0.  0.
         12    1    3    3    0    0  0.34937264146E+01  0.11978216377E+02  0.34642399383E+02  0.36820912901E+02  0.00000000000E+00 0. -1.
         11    1    4    4    0    0  0.57213346252E+00  0.12408242119E+02 -0.12945553451E+02  0.17940991154E+02  0.51100000000E-03 0.  1.
        -11    1    4    4    0    0  0.38789077254E+01 -0.47429518539E+01 -0.39655762721E-01  0.61272416528E+01  0.51100000000E-03 0. -1.
        -12    1    4    4    0    0 -0.79447676025E+01 -0.19643506641E+02 -0.21657190169E+02  0.30298854293E+02  0.00000000000E+00 0.  1.
</event>
<event>
 8    1  0.1254059E-006  0.9118800E+02  0.7816164E-02  0.1184000E+00
        -11   -1    0    0    0    0  0.00000000000E+00  0.00000000000E+00  0.45593999997E+02  0.45594000000E+02  0.51100000000E-03 0. -1.
         11   -1    0    0    0    0 -0.00000000000E+00 -0.00000000000E+00 -0.45593999997E+02  0.45594000000E+02  0.51100000000E-03 0.  1.
         23    2    1    2    0    0  0.17763568394E-14  0.17763568394E-14  0.35527136788E-14  0.91188000000E+02  0.91188000000E+02 0.  0.
    9900012    2    3    3    0    0  0.12994745100E+02 -0.14680520269E+02  0.31167286960E+02  0.54367070462E+02  0.39999968733E+02 0.  0.
        -12    1    3    3    0    0 -0.12994745100E+02  0.14680520269E+02 -0.31167286960E+02  0.36820929538E+02  0.00000000000E+00 0.  1.
         11    1    4    4    0    0  0.12710598784E+02  0.40403331511E+01  0.13304298847E+02  0.18838470784E+02  0.51100000000E-03 0. -1.
        -11    1    4    4    0    0 -0.70407120618E+01  0.29776084537E+01  0.29196970765E+01  0.81830562580E+01  0.51100000000E-03 0.  1.
         12    1    4    4    0    0  0.73248583775E+01 -0.21698461874E+02  0.14943291036E+02  0.27345543420E+02  0.00000000000E+00 0. -1.
</event>
<event>
 8    1  0.1254059E-006  0.9118800E+02  0.7816164E-02  0.1184000E+00
        -11   -1    0    0    0    0  0.00000000000E+00  0.00000000000E+00  0.45593999997E+02  0.45594000000E+02  0.51100000000E-03 0.  1.
         11   -1    0    0    0    0 -0.00000000000E+00 -0.00000000000E+00 -0.45593999997E+02  0.45594000000E+02  0.51100000000E-03 0. -1.
         23    2    1    2    0    0  0.35527136788E-14  0.00000000000E+00  0.00000000000E+00  0.91188000000E+02  0.91188000000E+02 0.  0.
    9900012    2    3    3    0    0  0.23787242570E+02 -0.17676419728E+02 -0.21851568137E+02  0.54367085379E+02  0.40000002739E+02 0.  0.
        -12    1    3    3    0    0 -0.23787242570E+02  0.17676419728E+02  0.21851568137E+02  0.36820914621E+02  0.00000000000E+00 0.  1.
         11    1    4    4    0    0 -0.41973545567E+01 -0.13700162037E+02 -0.20757638715E+02  0.25222842632E+02  0.51100000000E-03 0. -1.
        -11    1    4    4    0    0  0.23352244565E+02 -0.47234103069E+01 -0.31289376269E+01  0.24029735372E+02  0.51100000000E-03 0.  1.
         12    1    4    4    0    0  0.46323525622E+01  0.74715261609E+00  0.20350082057E+01  0.51145073751E+01  0.00000000000E+00 0. -1.
</event>
<event>
 8    1  0.1254059E-006  0.9118800E+02  0.7816164E-02  0.1184000E+00
        -11   -1    0    0    0    0  0.00000000000E+00  0.00000000000E+00  0.45593999997E+02  0.45594000000E+02  0.51100000000E-03 0.  1.
         11   -1    0    0    0    0 -0.00000000000E+00 -0.00000000000E+00 -0.45593999997E+02  0.45594000000E+02  0.51100000000E-03 0. -1.
         23    2    1    2    0    0  0.00000000000E+00 -0.44408920985E-15  0.00000000000E+00  0.91188000000E+02  0.91188000000E+02 0.  0.
    9900012    2    3    3    0    0  0.30435891495E+02 -0.26933025620E+01 -0.20547083003E+02  0.54367082172E+02  0.39999995427E+02 0.  0.
        -12    1    3    3    0    0 -0.30435891495E+02  0.26933025620E+01  0.20547083003E+02  0.36820917828E+02  0.00000000000E+00 0.  1.
         11    1    4    4    0    0  0.17447095126E+02  0.33483109505E+00 -0.12919671372E+02  0.21712465287E+02  0.51100000000E-03 0. -1.
        -11    1    4    4    0    0  0.13750525486E+02 -0.27973718092E+01  0.85669903670E+01  0.16440668003E+02  0.51100000000E-03 0.  1.
         12    1    4    4    0    0 -0.76172911682E+00 -0.23076184783E+00 -0.16194401998E+02  0.16213948882E+02  0.00000000000E+00 0. -1.
</event>
<event>
 8    1  0.1254059E-006  0.9118800E+02  0.7816164E-02  0.1184000E+00
        -11   -1    0    0    0    0  0.00000000000E+00  0.00000000000E+00  0.45593999997E+02  0.45594000000E+02  0.51100000000E-03 0. -1.
         11   -1    0    0    0    0 -0.00000000000E+00 -0.00000000000E+00 -0.45593999997E+02  0.45594000000E+02  0.51100000000E-03 0.  1.
         23    2    1    2    0    0 -0.35527136788E-14  0.00000000000E+00  0.00000000000E+00  0.91188000000E+02  0.91188000000E+02 0.  0.
    9900012    2    3    3    0    0  0.30573245359E+02  0.64714087998E+01  0.19472482049E+02  0.54367081749E+02  0.39999994464E+02 0.  0.
        -12    1    3    3    0    0 -0.30573245359E+02 -0.64714087998E+01 -0.19472482049E+02  0.36820918251E+02  0.00000000000E+00 0.  1.
         11    1    4    4    0    0  0.37214787521E+01 -0.20995279576E+01  0.55171248038E+01  0.69782582433E+01  0.51100000000E-03 0. -1.
        -11    1    4    4    0    0  0.15799817382E+02  0.39664295216E+01  0.25822414359E+02  0.30531358896E+02  0.51100000000E-03 0.  1.
        -12    1    4    4    0    0  0.11051949225E+02  0.46045072358E+01 -0.11867057113E+02  0.16857464610E+02  0.00000000000E+00 0.  1.
</event>
<event>
 8    1  0.1254059E-006  0.9118800E+02  0.7816164E-02  0.1184000E+00
        -11   -1    0    0    0    0  0.00000000000E+00  0.00000000000E+00  0.45593999997E+02  0.45594000000E+02  0.51100000000E-03 0.  1.
         11   -1    0    0    0    0 -0.00000000000E+00 -0.00000000000E+00 -0.45593999997E+02  0.45594000000E+02  0.51100000000E-03 0. -1.
         23    2    1    2    0    0  0.44408920985E-15  0.00000000000E+00  0.00000000000E+00  0.91188000000E+02  0.91188000000E+02 0.  0.
    9900012    2    3    3    0    0  0.25146138483E+01  0.28575315125E+02  0.23084779567E+02  0.54367096087E+02  0.40000027150E+02 0.  0.
         12    1    3    3    0    0 -0.25146138483E+01 -0.28575315125E+02 -0.23084779567E+02  0.36820903913E+02  0.00000000000E+00 0. -1.
         11    1    4    4    0    0 -0.47749470315E+00  0.13354140968E+01 -0.77406538597E+01  0.78695015368E+01  0.51100000000E-03 0. -1.
        -11    1    4    4    0    0 -0.46461874373E+01  0.28945031936E+01  0.16172829899E+02  0.17074121753E+02  0.51100000000E-03 0.  1.
         12    1    4    4    0    0  0.76382959887E+01  0.24345397835E+02  0.14652603528E+02  0.29423472798E+02  0.00000000000E+00 0. -1.
</event>
<event>
 8    1  0.1254059E-006  0.9118800E+02  0.7816164E-02  0.1184000E+00
        -11   -1    0    0    0    0  0.00000000000E+00  0.00000000000E+00  0.45593999997E+02  0.45594000000E+02  0.51100000000E-03 0. -1.
         11   -1    0    0    0    0 -0.00000000000E+00 -0.00000000000E+00 -0.45593999997E+02  0.45594000000E+02  0.51100000000E-03 0.  1.
         23    2    1    2    0    0 -0.17763568394E-14  0.00000000000E+00  0.00000000000E+00  0.91188000000E+02  0.91188000000E+02 0.  0.
    9900012    2    3    3    0    0 -0.11987000009E+02  0.19920862180E+02 -0.28552595076E+02  0.54367087398E+02  0.40000007342E+02 0.  0.
         12    1    3    3    0    0  0.11987000009E+02 -0.19920862180E+02  0.28552595076E+02  0.36820912602E+02  0.00000000000E+00 0. -1.
         11    1    4    4    0    0 -0.13628873331E+02  0.21569705466E+02 -0.36244185575E+00  0.25517244101E+02  0.51100000000E-03 0. -1.
        -11    1    4    4    0    0  0.29062446849E+01  0.10496282868E+01 -0.12263209155E+02  0.12646512434E+02  0.51100000000E-03 0.  1.
         12    1    4    4    0    0 -0.12643713627E+01 -0.26984715726E+01 -0.15926944066E+02  0.16203330863E+02  0.00000000000E+00 0. -1.
</event>
<event>
 8    1  0.1254059E-006  0.9118800E+02  0.7816164E-02  0.1184000E+00
        -11   -1    0    0    0    0  0.00000000000E+00  0.00000000000E+00  0.45593999997E+02  0.45594000000E+02  0.51100000000E-03 0.  1.
         11   -1    0    0    0    0 -0.00000000000E+00 -0.00000000000E+00 -0.45593999997E+02  0.45594000000E+02  0.51100000000E-03 0. -1.
         23    2    1    2    0    0  0.35527136788E-14 -0.44408920985E-15 -0.35527136788E-14  0.91188000000E+02  0.91188000000E+02 0.  0.
    9900012    2    3    3    0    0 -0.28457752586E+02  0.12336037233E+01  0.23332684826E+02  0.54367086899E+02  0.40000006203E+02 0.  0.
         12    1    3    3    0    0  0.28457752586E+02 -0.12336037233E+01 -0.23332684826E+02  0.36820913101E+02  0.00000000000E+00 0. -1.
         11    1    4    4    0    0 -0.20980549834E+02  0.53163566016E+01  0.53775888451E+01  0.22301694574E+02  0.51100000000E-03 0. -1.
        -11    1    4    4    0    0 -0.94271713933E+01  0.91554391405E+01  0.98256671650E+01  0.16408453974E+02  0.51100000000E-03 0.  1.
        -12    1    4    4    0    0  0.19499686406E+01 -0.13238192019E+02  0.81294288158E+01  0.15656938350E+02  0.00000000000E+00 0.  1.
</event>
<event>
 8    1  0.1254059E-006  0.9118800E+02  0.7816164E-02  0.1184000E+00
        -11   -1    0    0    0    0  0.00000000000E+00  0.00000000000E+00  0.45593999997E+02  0.45594000000E+02  0.51100000000E-03 0.  1.
         11   -1    0    0    0    0 -0.00000000000E+00 -0.00000000000E+00 -0.45593999997E+02  0.45594000000E+02  0.51100000000E-03 0. -1.
         23    2    1    2    0    0  0.00000000000E+00 -0.17763568394E-14  0.13322676296E-14  0.91188000000E+02  0.91188000000E+02 0.  0.
    9900012    2    3    3    0    0 -0.35551283709E+02 -0.93041346145E+01  0.23062420742E+01  0.54367089544E+02  0.40000012234E+02 0.  0.
        -12    1    3    3    0    0  0.35551283709E+02  0.93041346145E+01 -0.23062420742E+01  0.36820910456E+02  0.00000000000E+00 0.  1.
         11    1    4    4    0    0 -0.15615886479E+02 -0.13649515855E+02 -0.89211969378E+01  0.22577709110E+02  0.51100000000E-03 0. -1.
        -11    1    4    4    0    0 -0.15598566979E+02  0.84893492574E+00  0.17461154544E+02  0.23429210413E+02  0.51100000000E-03 0.  1.
         12    1    4    4    0    0 -0.43368302507E+01  0.34964463145E+01 -0.62337155317E+01  0.83601700212E+01  0.00000000000E+00 0. -1.
</event>
<event>
 8    1  0.1254059E-006  0.9118800E+02  0.7816164E-02  0.1184000E+00
        -11   -1    0    0    0    0  0.00000000000E+00  0.00000000000E+00  0.45593999997E+02  0.45594000000E+02  0.51100000000E-03 0. -1.
         11   -1    0    0    0    0 -0.00000000000E+00 -0.00000000000E+00 -0.45593999997E+02  0.45594000000E+02  0.51100000000E-03 0.  1.
         23    2    1    2    0    0 -0.71054273576E-14 -0.17763568394E-14  0.44408920985E-15  0.91188000000E+02  0.91188000000E+02 0.  0.
    9900012    2    3    3    0    0 -0.35396867064E+02 -0.94897059868E+01 -0.35761941214E+01  0.54367056475E+02  0.39999936847E+02 0.  0.
        -12    1    3    3    0    0  0.35396867064E+02  0.94897059868E+01  0.35761941214E+01  0.36820943525E+02  0.00000000000E+00 0.  1.
         11    1    4    4    0    0 -0.11254741047E+02 -0.54013394546E+01  0.91581219823E+01  0.15482727875E+02  0.51100000000E-03 0.  1.
        -11    1    4    4    0    0  0.21525874053E+01 -0.88264727395E+01  0.43764968810E+00  0.90957017909E+01  0.51100000000E-03 0. -1.
        -12    1    4    4    0    0 -0.26294713422E+02  0.47381062072E+01 -0.13171965792E+02  0.29788626809E+02  0.00000000000E+00 0.  1.
</event>
<event>
 8    1  0.1254059E-006  0.9118800E+02  0.7816164E-02  0.1184000E+00
        -11   -1    0    0    0    0  0.00000000000E+00  0.00000000000E+00  0.45593999997E+02  0.45594000000E+02  0.51100000000E-03 0.  1.
         11   -1    0    0    0    0 -0.00000000000E+00 -0.00000000000E+00 -0.45593999997E+02  0.45594000000E+02  0.51100000000E-03 0. -1.
         23    2    1    2    0    0  0.35527136788E-14  0.35527136788E-14 -0.35527136788E-14  0.91188000000E+02  0.91188000000E+02 0.  0.
    9900012    2    3    3    0    0 -0.20973584282E+02 -0.13890874018E+02  0.26887432120E+02  0.54367059971E+02  0.39999944815E+02 0.  0.
         12    1    3    3    0    0  0.20973584282E+02  0.13890874018E+02 -0.26887432120E+02  0.36820940029E+02  0.00000000000E+00 0. -1.
         11    1    4    4    0    0  0.31092421759E+01  0.84225446683E+00 -0.33829454891E+01  0.46713060207E+01  0.51100000000E-03 0. -1.
        -11    1    4    4    0    0 -0.60082756481E+01 -0.30385613684E+01 -0.49917197622E+01  0.83814973542E+01  0.51100000000E-03 0.  1.
        -12    1    4    4    0    0 -0.18074550810E+02 -0.11694567117E+02  0.35262097371E+02  0.41314256596E+02  0.00000000000E+00 0.  1.
</event>
<event>
 8    1  0.1254059E-006  0.9118800E+02  0.7816164E-02  0.1184000E+00
        -11   -1    0    0    0    0  0.00000000000E+00  0.00000000000E+00  0.45593999997E+02  0.45594000000E+02  0.51100000000E-03 0. -1.
         11   -1    0    0    0    0 -0.00000000000E+00 -0.00000000000E+00 -0.45593999997E+02  0.45594000000E+02  0.51100000000E-03 0.  1.
         23    2    1    2    0    0  0.88817841970E-15  0.00000000000E+00  0.00000000000E+00  0.91188000000E+02  0.91188000000E+02 0.  0.
    9900012    2    3    3    0    0 -0.54267482240E+01 -0.32530490201E+02 -0.16373581533E+02  0.54367128728E+02  0.40000101561E+02 0.  0.
         12    1    3    3    0    0  0.54267482240E+01  0.32530490201E+02  0.16373581533E+02  0.36820871272E+02  0.00000000000E+00 0. -1.
         11    1    4    4    0    0 -0.46549615920E+00 -0.19101372239E+02 -0.83820814953E+01  0.20864764522E+02  0.51100000000E-03 0. -1.
        -11    1    4    4    0    0 -0.16997972759E+02 -0.10497883221E+02 -0.32679990425E+01  0.20243923731E+02  0.51100000000E-03 0.  1.
         12    1    4    4    0    0  0.12036720694E+02 -0.29312347407E+01 -0.47235009947E+01  0.13258440475E+02  0.00000000000E+00 0. -1.
</event>
<event>
 8    1  0.1254059E-006  0.9118800E+02  0.7816164E-02  0.1184000E+00
        -11   -1    0    0    0    0  0.00000000000E+00  0.00000000000E+00  0.45593999997E+02  0.45594000000E+02  0.51100000000E-03 0.  1.
         11   -1    0    0    0    0 -0.00000000000E+00 -0.00000000000E+00 -0.45593999997E+02  0.45594000000E+02  0.51100000000E-03 0. -1.
         23    2    1    2    0    0  0.00000000000E+00  0.00000000000E+00  0.00000000000E+00  0.91188000000E+02  0.91188000000E+02 0.  0.
    9900012    2    3    3    0    0  0.22325122597E+02 -0.24398018160E+02 -0.16189648166E+02  0.54367094296E+02  0.40000023068E+02 0.  0.
        -12    1    3    3    0    0 -0.22325122597E+02  0.24398018160E+02  0.16189648166E+02  0.36820905704E+02  0.00000000000E+00 0.  1.
         11    1    4    4    0    0  0.16592393296E+02 -0.15430596248E+02  0.69865335781E+01  0.23711230832E+02  0.51100000000E-03 0. -1.
        -11    1    4    4    0    0 -0.35089950593E+01  0.31000353620E+01 -0.38059658046E+01  0.60339573697E+01  0.51100000000E-03 0.  1.
         12    1    4    4    0    0  0.92417243600E+01 -0.12067457274E+02 -0.19370215939E+02  0.24621906095E+02  0.00000000000E+00 0. -1.
</event>
<event>
 8    1  0.1254059E-006  0.9118800E+02  0.7816164E-02  0.1184000E+00
        -11   -1    0    0    0    0  0.00000000000E+00  0.00000000000E+00  0.45593999997E+02  0.45594000000E+02  0.51100000000E-03 0.  1.
         11   -1    0    0    0    0 -0.00000000000E+00 -0.00000000000E+00 -0.45593999997E+02  0.45594000000E+02  0.51100000000E-03 0. -1.
         23    2    1    2    0    0  0.00000000000E+00 -0.17763568394E-14  0.35527136788E-14  0.91188000000E+02  0.91188000000E+02 0.  0.
    9900012    2    3    3    0    0  0.22194076302E+02  0.90281451252E+01  0.27958821840E+02  0.54367080050E+02  0.39999990589E+02 0.  0.
         12    1    3    3    0    0 -0.22194076302E+02 -0.90281451252E+01 -0.27958821840E+02  0.36820919950E+02  0.00000000000E+00 0. -1.
         11    1    4    4    0    0 -0.28714966373E+01  0.55504357508E+00  0.47454197770E+00  0.29628966668E+01  0.51100000000E-03 0. -1.
        -11    1    4    4    0    0  0.13534568761E+02 -0.12920713600E+02  0.84361781993E+01  0.20525557102E+02  0.51100000000E-03 0.  1.
         12    1    4    4    0    0  0.11531004178E+02  0.21393815150E+02  0.19048101663E+02  0.30878626281E+02  0.00000000000E+00 0. -1.
</event>
<event>
 8    1  0.1254059E-006  0.9118800E+02  0.7816164E-02  0.1184000E+00
        -11   -1    0    0    0    0  0.00000000000E+00  0.00000000000E+00  0.45593999997E+02  0.45594000000E+02  0.51100000000E-03 0. -1.
         11   -1    0    0    0    0 -0.00000000000E+00 -0.00000000000E+00 -0.45593999997E+02  0.45594000000E+02  0.51100000000E-03 0.  1.
         23    2    1    2    0    0  0.00000000000E+00  0.00000000000E+00  0.35527136788E-14  0.91188000000E+02  0.91188000000E+02 0.  0.
    9900012    2    3    3    0    0 -0.21880516790E+02  0.16487745597E+02 -0.24600360675E+02  0.54367075036E+02  0.39999979160E+02 0.  0.
         12    1    3    3    0    0  0.21880516790E+02 -0.16487745597E+02  0.24600360675E+02  0.36820924964E+02  0.00000000000E+00 0. -1.
         11    1    4    4    0    0 -0.12525245915E+01  0.45131581149E+01 -0.17789560790E+02  0.18395811680E+02  0.51100000000E-03 0. -1.
        -11    1    4    4    0    0 -0.17372417201E+02 -0.27242341225E+01  0.32248007926E+01  0.17877966086E+02  0.51100000000E-03 0.  1.
        -12    1    4    4    0    0 -0.32555749971E+01  0.14698821605E+02 -0.10035600678E+02  0.18093297270E+02  0.00000000000E+00 0.  1.
</event>
<event>
 8    1  0.1254059E-006  0.9118800E+02  0.7816164E-02  0.1184000E+00
        -11   -1    0    0    0    0  0.00000000000E+00  0.00000000000E+00  0.45593999997E+02  0.45594000000E+02  0.51100000000E-03 0. -1.
         11   -1    0    0    0    0 -0.00000000000E+00 -0.00000000000E+00 -0.45593999997E+02  0.45594000000E+02  0.51100000000E-03 0.  1.
         23    2    1    2    0    0  0.00000000000E+00  0.00000000000E+00  0.00000000000E+00  0.91188000000E+02  0.91188000000E+02 0.  0.
    9900012    2    3    3    0    0 -0.30766593728E+02 -0.17330971302E+02 -0.10432347297E+02  0.54367085753E+02  0.40000003591E+02 0.  0.
         12    1    3    3    0    0  0.30766593728E+02  0.17330971302E+02  0.10432347297E+02  0.36820914247E+02  0.00000000000E+00 0. -1.
         11    1    4    4    0    0 -0.18286778487E+01  0.12783241550E+01 -0.37944673625E+01  0.44018357700E+01  0.51100000000E-03 0. -1.
        -11    1    4    4    0    0 -0.25745957483E+02 -0.28427071622E+02 -0.13752638236E+01  0.38377650769E+02  0.51100000000E-03 0.  1.
        -12    1    4    4    0    0 -0.31919583963E+01  0.98177761647E+01 -0.52626161107E+01  0.11587599214E+02  0.00000000000E+00 0.  1.
</event>
<event>
 8    1  0.1254059E-006  0.9118800E+02  0.7816164E-02  0.1184000E+00
        -11   -1    0    0    0    0  0.00000000000E+00  0.00000000000E+00  0.45593999997E+02  0.45594000000E+02  0.51100000000E-03 0. -1.
         11   -1    0    0    0    0 -0.00000000000E+00 -0.00000000000E+00 -0.45593999997E+02  0.45594000000E+02  0.51100000000E-03 0.  1.
         23    2    1    2    0    0  0.00000000000E+00  0.88817841970E-15  0.11102230246E-14  0.91188000000E+02  0.91188000000E+02 0.  0.
    9900012    2    3    3    0    0 -0.36422935250E+02  0.52523867429E+01 -0.12491260465E+01  0.54367107906E+02  0.40000054093E+02 0.  0.
        -12    1    3    3    0    0  0.36422935250E+02 -0.52523867429E+01  0.12491260465E+01  0.36820892094E+02  0.00000000000E+00 0.  1.
         11    1    4    4    0    0 -0.35733478867E+01 -0.45017605495E+01  0.96285699809E+01  0.11213564255E+02  0.51100000000E-03 0. -1.
        -11    1    4    4    0    0 -0.76721305249E-01  0.17755575673E+01 -0.92125228333E+01  0.93823807239E+01  0.51100000000E-03 0.  1.
         12    1    4    4    0    0 -0.32772866058E+02  0.79785897251E+01 -0.16651731940E+01  0.33771162927E+02  0.00000000000E+00 0. -1.
</event>
<event>
 8    1  0.1254059E-006  0.9118800E+02  0.7816164E-02  0.1184000E+00
        -11   -1    0    0    0    0  0.00000000000E+00  0.00000000000E+00  0.45593999997E+02  0.45594000000E+02  0.51100000000E-03 0.  1.
         11   -1    0    0    0    0 -0.00000000000E+00 -0.00000000000E+00 -0.45593999997E+02  0.45594000000E+02  0.51100000000E-03 0. -1.
         23    2    1    2    0    0  0.00000000000E+00  0.00000000000E+00  0.00000000000E+00  0.91188000000E+02  0.91188000000E+02 0.  0.
    9900012    2    3    3    0    0 -0.10526433614E+02 -0.28266892653E+02  0.21117664823E+02  0.54367098430E+02  0.40000032490E+02 0.  0.
         12    1    3    3    0    0  0.10526433614E+02  0.28266892653E+02 -0.21117664823E+02  0.36820901570E+02  0.00000000000E+00 0. -1.
         11    1    4    4    0    0  0.41377297432E+01  0.17209576760E+01  0.21588580158E+01  0.49742507922E+01  0.51100000000E-03 0. -1.
        -11    1    4    4    0    0 -0.46787228272E+00 -0.23774031879E+02  0.23308527327E+02  0.33297311343E+02  0.51100000000E-03 0.  1.
        -12    1    4    4    0    0 -0.14196291074E+02 -0.62138184497E+01 -0.43497205200E+01  0.16095536294E+02  0.00000000000E+00 0.  1.
</event>
<event>
 8    1  0.1254059E-006  0.9118800E+02  0.7816164E-02  0.1184000E+00
        -11   -1    0    0    0    0  0.00000000000E+00  0.00000000000E+00  0.45593999997E+02  0.45594000000E+02  0.51100000000E-03 0. -1.
         11   -1    0    0    0    0 -0.00000000000E+00 -0.00000000000E+00 -0.45593999997E+02  0.45594000000E+02  0.51100000000E-03 0.  1.
         23    2    1    2    0    0  0.00000000000E+00 -0.17763568394E-14 -0.71054273576E-14  0.91188000000E+02  0.91188000000E+02 0.  0.
    9900012    2    3    3    0    0  0.17069500134E+02  0.12033524010E+02 -0.30325025243E+02  0.54367072650E+02  0.39999973720E+02 0.  0.
         12    1    3    3    0    0 -0.17069500134E+02 -0.12033524010E+02  0.30325025243E+02  0.36820927350E+02  0.00000000000E+00 0. -1.
         11    1    4    4    0    0  0.67748244341E+01 -0.27688254975E+00  0.20575084897E+01  0.70857781158E+01  0.51100000000E-03 0. -1.
        -11    1    4    4    0    0  0.10677941910E+02  0.19958562570E+02 -0.32520213632E+02  0.39622303798E+02  0.51100000000E-03 0.  1.
         12    1    4    4    0    0 -0.38326621079E+00 -0.76481560104E+01  0.13767989908E+00  0.76589907365E+01  0.00000000000E+00 0. -1.
</event>
<event>
 8    1  0.1254059E-006  0.9118800E+02  0.7816164E-02  0.1184000E+00
        -11   -1    0    0    0    0  0.00000000000E+00  0.00000000000E+00  0.45593999997E+02  0.45594000000E+02  0.51100000000E-03 0.  1.
         11   -1    0    0    0    0 -0.00000000000E+00 -0.00000000000E+00 -0.45593999997E+02  0.45594000000E+02  0.51100000000E-03 0. -1.
         23    2    1    2    0    0 -0.88817841970E-15 -0.35527136788E-14 -0.71054273576E-14  0.91188000000E+02  0.91188000000E+02 0.  0.
    9900012    2    3    3    0    0 -0.45377058790E+01  0.14201402183E+02  0.33667622770E+02  0.54367089886E+02  0.40000013014E+02 0.  0.
         12    1    3    3    0    0  0.45377058790E+01 -0.14201402183E+02 -0.33667622770E+02  0.36820910114E+02  0.00000000000E+00 0. -1.
         11    1    4    4    0    0 -0.57608316658E+01 -0.96932364678E+01  0.55980044563E+01  0.12589029703E+02  0.51100000000E-03 0. -1.
        -11    1    4    4    0    0 -0.87461984017E+01  0.67538679811E+01  0.87730678496E+01  0.14109480463E+02  0.51100000000E-03 0.  1.
        -12    1    4    4    0    0  0.99693241884E+01  0.17140770670E+02  0.19296550464E+02  0.27668579720E+02  0.00000000000E+00 0.  1.
</event>
<event>
 8    1  0.1254059E-006  0.9118800E+02  0.7816164E-02  0.1184000E+00
        -11   -1    0    0    0    0  0.00000000000E+00  0.00000000000E+00  0.45593999997E+02  0.45594000000E+02  0.51100000000E-03 0. -1.
         11   -1    0    0    0    0 -0.00000000000E+00 -0.00000000000E+00 -0.45593999997E+02  0.45594000000E+02  0.51100000000E-03 0.  1.
         23    2    1    2    0    0  0.00000000000E+00 -0.35527136788E-14  0.71054273576E-14  0.91188000000E+02  0.91188000000E+02 0.  0.
    9900012    2    3    3    0    0  0.12259368195E+02 -0.19444507815E+02  0.28764534764E+02  0.54367089461E+02  0.40000012044E+02 0.  0.
        -12    1    3    3    0    0 -0.12259368195E+02  0.19444507815E+02 -0.28764534764E+02  0.36820910539E+02  0.00000000000E+00 0.  1.
         11    1    4    4    0    0  0.16531824730E+02 -0.56741105405E+01  0.24022473562E+02  0.29708180618E+02  0.51100000000E-03 0. -1.
        -11    1    4    4    0    0  0.41877456831E+01 -0.88444953304E+01  0.96188622136E+01  0.13721691663E+02  0.51100000000E-03 0.  1.
        -12    1    4    4    0    0 -0.84602022181E+01 -0.49259019445E+01 -0.48768010109E+01  0.10937217180E+02  0.00000000000E+00 0.  1.
</event>
<event>
 8    1  0.1254059E-006  0.9118800E+02  0.7816164E-02  0.1184000E+00
        -11   -1    0    0    0    0  0.00000000000E+00  0.00000000000E+00  0.45593999997E+02  0.45594000000E+02  0.51100000000E-03 0.  1.
         11   -1    0    0    0    0 -0.00000000000E+00 -0.00000000000E+00 -0.45593999997E+02  0.45594000000E+02  0.51100000000E-03 0. -1.
         23    2    1    2    0    0  0.00000000000E+00  0.00000000000E+00  0.00000000000E+00  0.91188000000E+02  0.91188000000E+02 0.  0.
    9900012    2    3    3    0    0  0.21569099994E+02  0.20272917075E+02 -0.21898882215E+02  0.54367105340E+02  0.40000048244E+02 0.  0.
        -12    1    3    3    0    0 -0.21569099994E+02 -0.20272917075E+02  0.21898882215E+02  0.36820894660E+02  0.00000000000E+00 0.  1.
         11    1    4    4    0    0  0.14352507390E+02  0.10741025634E+02 -0.12120735736E+02  0.21639693507E+02  0.51100000000E-03 0. -1.
        -11    1    4    4    0    0 -0.81459788994E+01  0.62095981635E+01 -0.13133576920E+02  0.16655537354E+02  0.51100000000E-03 0.  1.
        -12    1    4    4    0    0  0.15362571503E+02  0.33222932777E+01  0.33554304407E+01  0.16071874479E+02  0.00000000000E+00 0.  1.
</event>
<event>
 8    1  0.1254059E-006  0.9118800E+02  0.7816164E-02  0.1184000E+00
        -11   -1    0    0    0    0  0.00000000000E+00  0.00000000000E+00  0.45593999997E+02  0.45594000000E+02  0.51100000000E-03 0.  1.
         11   -1    0    0    0    0 -0.00000000000E+00 -0.00000000000E+00 -0.45593999997E+02  0.45594000000E+02  0.51100000000E-03 0. -1.
         23    2    1    2    0    0  0.00000000000E+00  0.17763568394E-14  0.00000000000E+00  0.91188000000E+02  0.91188000000E+02 0.  0.
    9900012    2    3    3    0    0  0.29616541553E+02 -0.14405632525E+02 -0.16465655918E+02  0.54367087371E+02  0.40000007280E+02 0.  0.
        -12    1    3    3    0    0 -0.29616541553E+02  0.14405632525E+02  0.16465655918E+02  0.36820912629E+02  0.00000000000E+00 0.  1.
         11    1    4    4    0    0  0.23935517037E+02  0.59320892965E+00 -0.28940604488E+01  0.24117140353E+02  0.51100000000E-03 0.  1.
        -11    1    4    4    0    0  0.60556544545E+01 -0.19814898100E+02 -0.14554140539E+02  0.25320429393E+02  0.51100000000E-03 0. -1.
        -12    1    4    4    0    0 -0.37462993849E+00  0.48160566452E+01  0.98254506901E+00  0.49295176248E+01  0.00000000000E+00 0.  1.
</event>
<event>
 8    1  0.1254059E-006  0.9118800E+02  0.7816164E-02  0.1184000E+00
        -11   -1    0    0    0    0  0.00000000000E+00  0.00000000000E+00  0.45593999997E+02  0.45594000000E+02  0.51100000000E-03 0. -1.
         11   -1    0    0    0    0 -0.00000000000E+00 -0.00000000000E+00 -0.45593999997E+02  0.45594000000E+02  0.51100000000E-03 0.  1.
         23    2    1    2    0    0  0.00000000000E+00  0.00000000000E+00  0.10658141036E-13  0.91188000000E+02  0.91188000000E+02 0.  0.
    9900012    2    3    3    0    0  0.17384781744E+02 -0.95639360824E+01 -0.31017415158E+02  0.54367088105E+02  0.40000008953E+02 0.  0.
         12    1    3    3    0    0 -0.17384781744E+02  0.95639360824E+01  0.31017415158E+02  0.36820911895E+02  0.00000000000E+00 0. -1.
         11    1    4    4    0    0 -0.15470765472E+00  0.18796170856E+01  0.83787710443E+00  0.20637182827E+01  0.51100000000E-03 0. -1.
        -11    1    4    4    0    0  0.14205567381E+02 -0.92543479870E+01  0.30027049967E+01  0.17217936545E+02  0.51100000000E-03 0.  1.
        -12    1    4    4    0    0  0.33339220173E+01 -0.21892051810E+01 -0.34857997259E+02  0.35085433278E+02  0.00000000000E+00 0.  1.
</event>
<event>
 8    1  0.1254059E-006  0.9118800E+02  0.7816164E-02  0.1184000E+00
        -11   -1    0    0    0    0  0.00000000000E+00  0.00000000000E+00  0.45593999997E+02  0.45594000000E+02  0.51100000000E-03 0.  1.
         11   -1    0    0    0    0 -0.00000000000E+00 -0.00000000000E+00 -0.45593999997E+02  0.45594000000E+02  0.51100000000E-03 0. -1.
         23    2    1    2    0    0  0.17763568394E-14 -0.35527136788E-14  0.00000000000E+00  0.91188000000E+02  0.91188000000E+02 0.  0.
    9900012    2    3    3    0    0 -0.54638416390E+01  0.30627809452E+02  0.19694248573E+02  0.54367086050E+02  0.40000004267E+02 0.  0.
        -12    1    3    3    0    0  0.54638416390E+01 -0.30627809452E+02 -0.19694248573E+02  0.36820913950E+02  0.00000000000E+00 0.  1.
         11    1    4    4    0    0  0.22398118378E+01  0.89517992580E+01  0.13727551361E+02  0.16540771858E+02  0.51100000000E-03 0. -1.
        -11    1    4    4    0    0  0.93868287435E+01  0.29430981057E+01  0.75777769171E+01  0.12417611831E+02  0.51100000000E-03 0.  1.
        -12    1    4    4    0    0 -0.17090482220E+02  0.18732912088E+02 -0.16110797055E+01  0.25408702361E+02  0.00000000000E+00 0.  1.
</event>
<event>
 8    1  0.1254059E-006  0.9118800E+02  0.7816164E-02  0.1184000E+00
        -11   -1    0    0    0    0  0.00000000000E+00  0.00000000000E+00  0.45593999997E+02  0.45594000000E+02  0.51100000000E-03 0. -1.
         11   -1    0    0    0    0 -0.00000000000E+00 -0.00000000000E+00 -0.45593999997E+02  0.45594000000E+02  0.51100000000E-03 0.  1.
         23    2    1    2    0    0  0.00000000000E+00 -0.22204460493E-15  0.00000000000E+00  0.91188000000E+02  0.91188000000E+02 0.  0.
    9900012    2    3    3    0    0 -0.11607372299E+02 -0.15472539037E+01 -0.34909245001E+02  0.54367075611E+02  0.39999980470E+02 0.  0.
         12    1    3    3    0    0  0.11607372299E+02  0.15472539037E+01  0.34909245001E+02  0.36820924389E+02  0.00000000000E+00 0. -1.
         11    1    4    4    0    0  0.20531470858E+01  0.75609969623E+01  0.12606804982E+01  0.79355783405E+01  0.51100000000E-03 0. -1.
        -11    1    4    4    0    0  0.42694367847E+01 -0.96889523917E+01 -0.91236597981E+01  0.13976589616E+02  0.51100000000E-03 0.  1.
        -12    1    4    4    0    0 -0.17929956169E+02  0.58070152581E+00 -0.27046265701E+02  0.32454907655E+02  0.00000000000E+00 0.  1.
</event>
<event>
 8    1  0.1254059E-006  0.9118800E+02  0.7816164E-02  0.1184000E+00
        -11   -1    0    0    0    0  0.00000000000E+00  0.00000000000E+00  0.45593999997E+02  0.45594000000E+02  0.51100000000E-03 0.  1.
         11   -1    0    0    0    0 -0.00000000000E+00 -0.00000000000E+00 -0.45593999997E+02  0.45594000000E+02  0.51100000000E-03 0. -1.
         23    2    1    2    0    0  0.88817841970E-15  0.00000000000E+00  0.00000000000E+00  0.91188000000E+02  0.91188000000E+02 0.  0.
    9900012    2    3    3    0    0  0.49663735473E+01 -0.16078117364E+02 -0.32750679368E+02  0.54367112948E+02  0.40000065588E+02 0.  0.
        -12    1    3    3    0    0 -0.49663735473E+01  0.16078117364E+02  0.32750679368E+02  0.36820887052E+02  0.00000000000E+00 0.  1.
         11    1    4    4    0    0 -0.65249748019E+01 -0.18629715127E+02 -0.36619595235E+02  0.41600917506E+02  0.51100000000E-03 0. -1.
        -11    1    4    4    0    0  0.19846013948E+01  0.17063696476E+01  0.69455432083E+00  0.27079043624E+01  0.51100000000E-03 0.  1.
         12    1    4    4    0    0  0.95067469544E+01  0.84522811485E+00  0.31743615462E+01  0.10058291080E+02  0.00000000000E+00 0. -1.
</event>
<event>
 8    1  0.1254059E-006  0.9118800E+02  0.7816164E-02  0.1184000E+00
        -11   -1    0    0    0    0  0.00000000000E+00  0.00000000000E+00  0.45593999997E+02  0.45594000000E+02  0.51100000000E-03 0.  1.
         11   -1    0    0    0    0 -0.00000000000E+00 -0.00000000000E+00 -0.45593999997E+02  0.45594000000E+02  0.51100000000E-03 0. -1.
         23    2    1    2    0    0  0.13322676296E-14  0.00000000000E+00  0.17763568394E-14  0.91188000000E+02  0.91188000000E+02 0.  0.
    9900012    2    3    3    0    0 -0.34411482249E+01  0.33077067554E+02 -0.15806518131E+02  0.54367083193E+02  0.39999997756E+02 0.  0.
        -12    1    3    3    0    0  0.34411482249E+01 -0.33077067554E+02  0.15806518131E+02  0.36820916807E+02  0.00000000000E+00 0.  1.
         11    1    4    4    0    0  0.22744210399E+01 -0.43299333402E+01  0.23418892858E+01  0.54227077632E+01  0.51100000000E-03 0. -1.
        -11    1    4    4    0    0  0.37583734113E+01 -0.21929468081E+01  0.34357475555E-01  0.43515017062E+01  0.51100000000E-03 0.  1.
         12    1    4    4    0    0 -0.94739426761E+01  0.39599947702E+02 -0.18182764892E+02  0.44592873724E+02  0.00000000000E+00 0. -1.
</event>
<event>
 8    1  0.1254059E-006  0.9118800E+02  0.7816164E-02  0.1184000E+00
        -11   -1    0    0    0    0  0.00000000000E+00  0.00000000000E+00  0.45593999997E+02  0.45594000000E+02  0.51100000000E-03 0. -1.
         11   -1    0    0    0    0 -0.00000000000E+00 -0.00000000000E+00 -0.45593999997E+02  0.45594000000E+02  0.51100000000E-03 0.  1.
         23    2    1    2    0    0  0.00000000000E+00  0.17763568394E-14 -0.35527136788E-14  0.91188000000E+02  0.91188000000E+02 0.  0.
    9900012    2    3    3    0    0 -0.16051181232E+02  0.10934045016E+02  0.31282361902E+02  0.54367083044E+02  0.39999997416E+02 0.  0.
        -12    1    3    3    0    0  0.16051181232E+02 -0.10934045016E+02 -0.31282361902E+02  0.36820916956E+02  0.00000000000E+00 0.  1.
         11    1    4    4    0    0 -0.89709622894E+01  0.14143825931E+02  0.26515937982E+02  0.31362731764E+02  0.51100000000E-03 0. -1.
        -11    1    4    4    0    0  0.46375899350E+01 -0.82453451597E+01  0.38630493991E+01  0.10218420041E+02  0.51100000000E-03 0.  1.
         12    1    4    4    0    0 -0.11717808877E+02  0.50355642444E+01  0.90337452024E+00  0.12785931240E+02  0.00000000000E+00 0. -1.
</event>
<event>
 8    1  0.1254059E-006  0.9118800E+02  0.7816164E-02  0.1184000E+00
        -11   -1    0    0    0    0  0.00000000000E+00  0.00000000000E+00  0.45593999997E+02  0.45594000000E+02  0.51100000000E-03 0.  1.
         11   -1    0    0    0    0 -0.00000000000E+00 -0.00000000000E+00 -0.45593999997E+02  0.45594000000E+02  0.51100000000E-03 0. -1.
         23    2    1    2    0    0  0.00000000000E+00 -0.17763568394E-14  0.00000000000E+00  0.91188000000E+02  0.91188000000E+02 0.  0.
    9900012    2    3    3    0    0  0.21239447106E+02  0.11105434780E+02 -0.27952318677E+02  0.54367123932E+02  0.40000090627E+02 0.  0.
        -12    1    3    3    0    0 -0.21239447106E+02 -0.11105434780E+02  0.27952318677E+02  0.36820876068E+02  0.00000000000E+00 0.  1.
         11    1    4    4    0    0  0.11720097793E+02  0.83500838869E+01 -0.32032819849E+02  0.35116750148E+02  0.51100000000E-03 0. -1.
        -11    1    4    4    0    0 -0.58324293575E+00 -0.44083317445E+01  0.51683155095E+01  0.68179943208E+01  0.51100000000E-03 0.  1.
        -12    1    4    4    0    0  0.10102592249E+02  0.71636826376E+01 -0.10878143373E+01  0.12432379463E+02  0.00000000000E+00 0.  1.
</event>
<event>
 8    1  0.1254059E-006  0.9118800E+02  0.7816164E-02  0.1184000E+00
        -11   -1    0    0    0    0  0.00000000000E+00  0.00000000000E+00  0.45593999997E+02  0.45594000000E+02  0.51100000000E-03 0.  1.
         11   -1    0    0    0    0 -0.00000000000E+00 -0.00000000000E+00 -0.45593999997E+02  0.45594000000E+02  0.51100000000E-03 0. -1.
         23    2    1    2    0    0  0.00000000000E+00  0.38857805862E-15  0.00000000000E+00  0.91188000000E+02  0.91188000000E+02 0.  0.
    9900012    2    3    3    0    0  0.14538028283E+02  0.47702153824E+00  0.33825991794E+02  0.54367088323E+02  0.40000009449E+02 0.  0.
         12    1    3    3    0    0 -0.14538028283E+02 -0.47702153824E+00 -0.33825991794E+02  0.36820911677E+02  0.00000000000E+00 0. -1.
         11    1    4    4    0    0  0.38470011853E+01 -0.12574814701E+02  0.96986368291E+01  0.16339796189E+02  0.51100000000E-03 0. -1.
        -11    1    4    4    0    0  0.35272162514E+01 -0.11715104545E+01  0.21581885623E+02  0.21899577131E+02  0.51100000000E-03 0.  1.
        -12    1    4    4    0    0  0.71638108466E+01  0.14223346694E+02  0.25454693417E+01  0.16127715002E+02  0.00000000000E+00 0.  1.
</event>
<event>
 8    1  0.1254059E-006  0.9118800E+02  0.7816164E-02  0.1184000E+00
        -11   -1    0    0    0    0  0.00000000000E+00  0.00000000000E+00  0.45593999997E+02  0.45594000000E+02  0.51100000000E-03 0.  1.
         11   -1    0    0    0    0 -0.00000000000E+00 -0.00000000000E+00 -0.45593999997E+02  0.45594000000E+02  0.51100000000E-03 0. -1.
         23    2    1    2    0    0 -0.35527136788E-14  0.35527136788E-14  0.00000000000E+00  0.91188000000E+02  0.91188000000E+02 0.  0.
    9900012    2    3    3    0    0 -0.19298959252E+02  0.22432102339E+02  0.21911910491E+02  0.54367070287E+02  0.39999968334E+02 0.  0.
         12    1    3    3    0    0  0.19298959252E+02 -0.22432102339E+02 -0.21911910491E+02  0.36820929713E+02  0.00000000000E+00 0. -1.
         11    1    4    4    0    0 -0.12753067976E+02 -0.11393050998E+01  0.16413658971E+02  0.20816987294E+02  0.51100000000E-03 0. -1.
        -11    1    4    4    0    0 -0.10614672119E+02  0.17823885312E+02  0.11999810908E+02  0.23965759197E+02  0.51100000000E-03 0.  1.
         12    1    4    4    0    0  0.40687808433E+01  0.57475221269E+01 -0.65015593885E+01  0.95843237963E+01  0.00000000000E+00 0. -1.
</event>
<event>
 8    1  0.1254059E-006  0.9118800E+02  0.7816164E-02  0.1184000E+00
        -11   -1    0    0    0    0  0.00000000000E+00  0.00000000000E+00  0.45593999997E+02  0.45594000000E+02  0.51100000000E-03 0. -1.
         11   -1    0    0    0    0 -0.00000000000E+00 -0.00000000000E+00 -0.45593999997E+02  0.45594000000E+02  0.51100000000E-03 0.  1.
         23    2    1    2    0    0  0.17763568394E-14  0.35527136788E-14  0.00000000000E+00  0.91188000000E+02  0.91188000000E+02 0.  0.
    9900012    2    3    3    0    0  0.10952077347E+02  0.20032702883E+02 -0.28888100110E+02  0.54367088672E+02  0.40000010246E+02 0.  0.
         12    1    3    3    0    0 -0.10952077347E+02 -0.20032702883E+02  0.28888100110E+02  0.36820911328E+02  0.00000000000E+00 0. -1.
         11    1    4    4    0    0  0.75895818939E+00  0.11112315516E+02  0.10124835257E+00  0.11138663526E+02  0.51100000000E-03 0. -1.
        -11    1    4    4    0    0 -0.98280818898E+01  0.17590463355E+01 -0.14072078824E+02  0.17254241228E+02  0.51100000000E-03 0.  1.
         12    1    4    4    0    0  0.20021201047E+02  0.71613410316E+01 -0.14917269639E+02  0.25974183918E+02  0.00000000000E+00 0. -1.
</event>
<event>
 8    1  0.1254059E-006  0.9118800E+02  0.7816164E-02  0.1184000E+00
        -11   -1    0    0    0    0  0.00000000000E+00  0.00000000000E+00  0.45593999997E+02  0.45594000000E+02  0.51100000000E-03 0. -1.
         11   -1    0    0    0    0 -0.00000000000E+00 -0.00000000000E+00 -0.45593999997E+02  0.45594000000E+02  0.51100000000E-03 0.  1.
         23    2    1    2    0    0  0.00000000000E+00  0.00000000000E+00  0.00000000000E+00  0.91188000000E+02  0.91188000000E+02 0.  0.
    9900012    2    3    3    0    0  0.14943823318E+02 -0.25712903968E+02  0.21709661587E+02  0.54367072635E+02  0.39999973685E+02 0.  0.
        -12    1    3    3    0    0 -0.14943823318E+02  0.25712903968E+02 -0.21709661587E+02  0.36820927365E+02  0.00000000000E+00 0.  1.
         11    1    4    4    0    0 -0.32014835920E+00 -0.54498470599E+01  0.24133431898E+02  0.24743198325E+02  0.51100000000E-03 0. -1.
        -11    1    4    4    0    0  0.95268353915E+01 -0.20291562957E+02  0.18159066734E+01  0.22490123102E+02  0.51100000000E-03 0.  1.
         12    1    4    4    0    0  0.57371362861E+01  0.28506049092E-01 -0.42396769843E+01  0.71337512076E+01  0.00000000000E+00 0. -1.
</event>
<event>
 8    1  0.1254059E-006  0.9118800E+02  0.7816164E-02  0.1184000E+00
        -11   -1    0    0    0    0  0.00000000000E+00  0.00000000000E+00  0.45593999997E+02  0.45594000000E+02  0.51100000000E-03 0.  1.
         11   -1    0    0    0    0 -0.00000000000E+00 -0.00000000000E+00 -0.45593999997E+02  0.45594000000E+02  0.51100000000E-03 0. -1.
         23    2    1    2    0    0 -0.35527136788E-14  0.00000000000E+00  0.35527136788E-14  0.91188000000E+02  0.91188000000E+02 0.  0.
    9900012    2    3    3    0    0  0.21202386357E+02  0.28097525627E+01  0.29972286822E+02  0.54367165218E+02  0.40000184746E+02 0.  0.
         12    1    3    3    0    0 -0.21202386357E+02 -0.28097525627E+01 -0.29972286822E+02  0.36820834782E+02  0.00000000000E+00 0. -1.
         11    1    4    4    0    0  0.12506196469E+02 -0.77241473376E+01  0.56576300744E+01  0.15750434296E+02  0.51100000000E-03 0.  1.
        -11    1    4    4    0    0  0.73924249502E+01  0.13510896424E+02  0.13908849547E+01  0.15463726266E+02  0.51100000000E-03 0. -1.
        -12    1    4    4    0    0  0.13037649381E+01 -0.29769965237E+01  0.22923771793E+02  0.23153004655E+02  0.00000000000E+00 0.  1.
</event>
<event>
 8    1  0.1254059E-006  0.9118800E+02  0.7816164E-02  0.1184000E+00
        -11   -1    0    0    0    0  0.00000000000E+00  0.00000000000E+00  0.45593999997E+02  0.45594000000E+02  0.51100000000E-03 0. -1.
         11   -1    0    0    0    0 -0.00000000000E+00 -0.00000000000E+00 -0.45593999997E+02  0.45594000000E+02  0.51100000000E-03 0.  1.
         23    2    1    2    0    0 -0.17763568394E-14  0.71054273576E-14  0.17763568394E-14  0.91188000000E+02  0.91188000000E+02 0.  0.
    9900012    2    3    3    0    0  0.14341738738E+02 -0.32139135161E+02  0.10824532214E+02  0.54367082350E+02  0.39999995833E+02 0.  0.
        -12    1    3    3    0    0 -0.14341738738E+02  0.32139135161E+02 -0.10824532214E+02  0.36820917650E+02  0.00000000000E+00 0.  1.
         11    1    4    4    0    0 -0.53974071176E+01 -0.92140774746E+01 -0.69348014148E+01  0.12732741191E+02  0.51100000000E-03 0. -1.
        -11    1    4    4    0    0  0.17460811811E+02 -0.23407348283E+02  0.62137531521E+01  0.29856232704E+02  0.51100000000E-03 0.  1.
         12    1    4    4    0    0  0.22783340444E+01  0.48229059680E+00  0.11545580477E+02  0.11778108455E+02  0.00000000000E+00 0. -1.
</event>
<event>
 8    1  0.1254059E-006  0.9118800E+02  0.7816164E-02  0.1184000E+00
        -11   -1    0    0    0    0  0.00000000000E+00  0.00000000000E+00  0.45593999997E+02  0.45594000000E+02  0.51100000000E-03 0.  1.
         11   -1    0    0    0    0 -0.00000000000E+00 -0.00000000000E+00 -0.45593999997E+02  0.45594000000E+02  0.51100000000E-03 0. -1.
         23    2    1    2    0    0 -0.71054273576E-14  0.00000000000E+00 -0.71054273576E-14  0.91188000000E+02  0.91188000000E+02 0.  0.
    9900012    2    3    3    0    0  0.22588276240E+02 -0.54919052758E+01  0.28555015485E+02  0.54367079908E+02  0.39999990266E+02 0.  0.
         12    1    3    3    0    0 -0.22588276240E+02  0.54919052758E+01 -0.28555015485E+02  0.36820920092E+02  0.00000000000E+00 0. -1.
         11    1    4    4    0    0 -0.55420439732E+01 -0.26168604916E+01 -0.39543759217E+00  0.61415455208E+01  0.51100000000E-03 0. -1.
        -11    1    4    4    0    0  0.18607365478E+02 -0.59155264687E+00  0.32790397480E+02  0.37706685770E+02  0.51100000000E-03 0.  1.
         12    1    4    4    0    0  0.95229547346E+01 -0.22834921374E+01 -0.38399444026E+01  0.10518848617E+02  0.00000000000E+00 0. -1.
</event>
<event>
 8    1  0.1254059E-006  0.9118800E+02  0.7816164E-02  0.1184000E+00
        -11   -1    0    0    0    0  0.00000000000E+00  0.00000000000E+00  0.45593999997E+02  0.45594000000E+02  0.51100000000E-03 0.  1.
         11   -1    0    0    0    0 -0.00000000000E+00 -0.00000000000E+00 -0.45593999997E+02  0.45594000000E+02  0.51100000000E-03 0. -1.
         23    2    1    2    0    0 -0.35527136788E-14  0.00000000000E+00  0.88817841970E-15  0.91188000000E+02  0.91188000000E+02 0.  0.
    9900012    2    3    3    0    0  0.23888057997E+02 -0.27032947016E+02 -0.73729512547E+01  0.54367082718E+02  0.39999996672E+02 0.  0.
        -12    1    3    3    0    0 -0.23888057997E+02  0.27032947016E+02  0.73729512547E+01  0.36820917282E+02  0.00000000000E+00 0.  1.
         11    1    4    4    0    0  0.25821418888E+02 -0.24617371668E+02 -0.29938188488E+01  0.35801167758E+02  0.51100000000E-03 0. -1.
        -11    1    4    4    0    0 -0.10581643527E+00 -0.88462731749E+01  0.22736611696E+01  0.91344009972E+01  0.51100000000E-03 0.  1.
         12    1    4    4    0    0 -0.18275444553E+01  0.64306978269E+01 -0.66527935755E+01  0.94315139630E+01  0.00000000000E+00 0. -1.
</event>
<event>
 8    1  0.1254059E-006  0.9118800E+02  0.7816164E-02  0.1184000E+00
        -11   -1    0    0    0    0  0.00000000000E+00  0.00000000000E+00  0.45593999997E+02  0.45594000000E+02  0.51100000000E-03 0. -1.
         11   -1    0    0    0    0 -0.00000000000E+00 -0.00000000000E+00 -0.45593999997E+02  0.45594000000E+02  0.51100000000E-03 0.  1.
         23    2    1    2    0    0  0.00000000000E+00 -0.88817841970E-15  0.00000000000E+00  0.91188000000E+02  0.91188000000E+02 0.  0.
    9900012    2    3    3    0    0 -0.66490119180E+01 -0.54100872593E+01 -0.35809244708E+02  0.54367076462E+02  0.39999982410E+02 0.  0.
         12    1    3    3    0    0  0.66490119180E+01  0.54100872593E+01  0.35809244708E+02  0.36820923538E+02  0.00000000000E+00 0. -1.
         11    1    4    4    0    0 -0.16485597645E+02 -0.51321261740E+01 -0.28219106403E+02  0.33082194836E+02  0.51100000000E-03 0. -1.
        -11    1    4    4    0    0  0.23841228896E+01  0.79056647910E+01 -0.57558480582E+01  0.10065454032E+02  0.51100000000E-03 0.  1.
        -12    1    4    4    0    0  0.74524628369E+01 -0.81836258763E+01 -0.18342902472E+01  0.11219427594E+02  0.00000000000E+00 0.  1.
</event>
<event>
 8    1  0.1254059E-006  0.9118800E+02  0.7816164E-02  0.1184000E+00
        -11   -1    0    0    0    0  0.00000000000E+00  0.00000000000E+00  0.45593999997E+02  0.45594000000E+02  0.51100000000E-03 0. -1.
         11   -1    0    0    0    0 -0.00000000000E+00 -0.00000000000E+00 -0.45593999997E+02  0.45594000000E+02  0.51100000000E-03 0.  1.
         23    2    1    2    0    0  0.00000000000E+00  0.35527136788E-14  0.00000000000E+00  0.91188000000E+02  0.91188000000E+02 0.  0.
    9900012    2    3    3    0    0 -0.26516542234E+02 -0.17382890499E+02 -0.18721298900E+02  0.54367096607E+02  0.40000028336E+02 0.  0.
         12    1    3    3    0    0  0.26516542234E+02  0.17382890499E+02  0.18721298900E+02  0.36820903393E+02  0.00000000000E+00 0. -1.
         11    1    4    4    0    0  0.78295685670E+01  0.38456921338E+01 -0.94398370869E+01  0.12853093652E+02  0.51100000000E-03 0. -1.
        -11    1    4    4    0    0 -0.13331252139E+02 -0.86819869723E+01 -0.23951923209E+01  0.16088384876E+02  0.51100000000E-03 0.  1.
         12    1    4    4    0    0 -0.21014858662E+02 -0.12546595660E+02 -0.68862694925E+01  0.25425618080E+02  0.00000000000E+00 0. -1.
</event>
<event>
 8    1  0.1254059E-006  0.9118800E+02  0.7816164E-02  0.1184000E+00
        -11   -1    0    0    0    0  0.00000000000E+00  0.00000000000E+00  0.45593999997E+02  0.45594000000E+02  0.51100000000E-03 0.  1.
         11   -1    0    0    0    0 -0.00000000000E+00 -0.00000000000E+00 -0.45593999997E+02  0.45594000000E+02  0.51100000000E-03 0. -1.
         23    2    1    2    0    0  0.00000000000E+00  0.19984014443E-14  0.00000000000E+00  0.91188000000E+02  0.91188000000E+02 0.  0.
    9900012    2    3    3    0    0 -0.27268209546E+02 -0.10915294639E+01 -0.24719077734E+02  0.54367088925E+02  0.40000010823E+02 0.  0.
        -12    1    3    3    0    0  0.27268209546E+02  0.10915294639E+01  0.24719077734E+02  0.36820911075E+02  0.00000000000E+00 0.  1.
         11    1    4    4    0    0 -0.33481054828E+01 -0.12456876087E+02  0.24209437504E+01  0.13124196778E+02  0.51100000000E-03 0. -1.
        -11    1    4    4    0    0 -0.86401391574E+00  0.10956474509E+01  0.21594822816E+01  0.25710556915E+01  0.51100000000E-03 0.  1.
         12    1    4    4    0    0 -0.23056090147E+02  0.10269699172E+02 -0.29299503765E+02  0.38671836456E+02  0.00000000000E+00 0. -1.
</event>
<event>
 8    1  0.1254059E-006  0.9118800E+02  0.7816164E-02  0.1184000E+00
        -11   -1    0    0    0    0  0.00000000000E+00  0.00000000000E+00  0.45593999997E+02  0.45594000000E+02  0.51100000000E-03 0.  1.
         11   -1    0    0    0    0 -0.00000000000E+00 -0.00000000000E+00 -0.45593999997E+02  0.45594000000E+02  0.51100000000E-03 0. -1.
         23    2    1    2    0    0  0.00000000000E+00  0.00000000000E+00  0.00000000000E+00  0.91188000000E+02  0.91188000000E+02 0.  0.
    9900012    2    3    3    0    0 -0.19574480602E+02  0.26356105171E+02 -0.16672438668E+02  0.54367152891E+02  0.40000156646E+02 0.  0.
        -12    1    3    3    0    0  0.19574480602E+02 -0.26356105171E+02  0.16672438668E+02  0.36820847109E+02  0.00000000000E+00 0.  1.
         11    1    4    4    0    0 -0.96014525449E+01 -0.98726967097E+00 -0.56369611961E+01  0.11177563427E+02  0.51100000000E-03 0. -1.
        -11    1    4    4    0    0 -0.63741300146E+00  0.22017295432E+02  0.61955230593E+01  0.22881260886E+02  0.51100000000E-03 0.  1.
        -12    1    4    4    0    0 -0.93356150560E+01  0.53260794101E+01 -0.17231000531E+02  0.20308328579E+02  0.00000000000E+00 0.  1.
</event>
<event>
 8    1  0.1254059E-006  0.9118800E+02  0.7816164E-02  0.1184000E+00
        -11   -1    0    0    0    0  0.00000000000E+00  0.00000000000E+00  0.45593999997E+02  0.45594000000E+02  0.51100000000E-03 0.  1.
         11   -1    0    0    0    0 -0.00000000000E+00 -0.00000000000E+00 -0.45593999997E+02  0.45594000000E+02  0.51100000000E-03 0. -1.
         23    2    1    2    0    0  0.17763568394E-14  0.00000000000E+00  0.35527136788E-14  0.91188000000E+02  0.91188000000E+02 0.  0.
    9900012    2    3    3    0    0 -0.14126727727E+02  0.26513886360E+02 -0.21289191436E+02  0.54367078255E+02  0.39999986497E+02 0.  0.
        -12    1    3    3    0    0  0.14126727727E+02 -0.26513886360E+02  0.21289191436E+02  0.36820921745E+02  0.00000000000E+00 0.  1.
         11    1    4    4    0    0 -0.71505819297E+01  0.12273573878E+02  0.54350179845E+01  0.15208907206E+02  0.51100000000E-03 0. -1.
        -11    1    4    4    0    0  0.54804697027E+01 -0.38200441816E+01 -0.63973597538E+01  0.92495674381E+01  0.51100000000E-03 0.  1.
         12    1    4    4    0    0 -0.12456615500E+02  0.18060356664E+02 -0.20326849666E+02  0.29908603610E+02  0.00000000000E+00 0. -1.
</event>
<event>
 8    1  0.1254059E-006  0.9118800E+02  0.7816164E-02  0.1184000E+00
        -11   -1    0    0    0    0  0.00000000000E+00  0.00000000000E+00  0.45593999997E+02  0.45594000000E+02  0.51100000000E-03 0.  1.
         11   -1    0    0    0    0 -0.00000000000E+00 -0.00000000000E+00 -0.45593999997E+02  0.45594000000E+02  0.51100000000E-03 0. -1.
         23    2    1    2    0    0  0.35527136788E-14  0.00000000000E+00  0.17763568394E-14  0.91188000000E+02  0.91188000000E+02 0.  0.
    9900012    2    3    3    0    0 -0.14007000072E+02 -0.31427660277E+02  0.13110513886E+02  0.54367089421E+02  0.40000011954E+02 0.  0.
        -12    1    3    3    0    0  0.14007000072E+02  0.31427660277E+02 -0.13110513886E+02  0.36820910579E+02  0.00000000000E+00 0.  1.
         11    1    4    4    0    0 -0.92542474604E+00 -0.13193413406E+02  0.35519648632E+00  0.13230598364E+02  0.51100000000E-03 0. -1.
        -11    1    4    4    0    0  0.66901713984E+01 -0.17884460360E+02  0.39958369579E+01  0.19508434816E+02  0.51100000000E-03 0.  1.
        -12    1    4    4    0    0 -0.19771746725E+02 -0.34978650988E+00  0.87594804413E+01  0.21628056241E+02  0.00000000000E+00 0.  1.
</event>
<event>
 8    1  0.1254059E-006  0.9118800E+02  0.7816164E-02  0.1184000E+00
        -11   -1    0    0    0    0  0.00000000000E+00  0.00000000000E+00  0.45593999997E+02  0.45594000000E+02  0.51100000000E-03 0. -1.
         11   -1    0    0    0    0 -0.00000000000E+00 -0.00000000000E+00 -0.45593999997E+02  0.45594000000E+02  0.51100000000E-03 0.  1.
         23    2    1    2    0    0  0.44408920985E-15 -0.11102230246E-15  0.00000000000E+00  0.91188000000E+02  0.91188000000E+02 0.  0.
    9900012    2    3    3    0    0  0.34112238975E+01 -0.69261175998E+00  0.36656029539E+02  0.54367073055E+02  0.39999974643E+02 0.  0.
        -12    1    3    3    0    0 -0.34112238975E+01  0.69261175998E+00 -0.36656029539E+02  0.36820926945E+02  0.00000000000E+00 0.  1.
         11    1    4    4    0    0  0.46020251327E+01 -0.14559059838E+01  0.31013427219E+02  0.31386796040E+02  0.51100000000E-03 0. -1.
        -11    1    4    4    0    0  0.57789185390E+01 -0.17063650250E+01 -0.64370110508E+01  0.88171816704E+01  0.51100000000E-03 0.  1.
         12    1    4    4    0    0 -0.69697197742E+01  0.24696592488E+01  0.12079613371E+02  0.14163095344E+02  0.00000000000E+00 0. -1.
</event>
<event>
 8    1  0.1254059E-006  0.9118800E+02  0.7816164E-02  0.1184000E+00
        -11   -1    0    0    0    0  0.00000000000E+00  0.00000000000E+00  0.45593999997E+02  0.45594000000E+02  0.51100000000E-03 0. -1.
         11   -1    0    0    0    0 -0.00000000000E+00 -0.00000000000E+00 -0.45593999997E+02  0.45594000000E+02  0.51100000000E-03 0.  1.
         23    2    1    2    0    0  0.00000000000E+00  0.00000000000E+00  0.00000000000E+00  0.91188000000E+02  0.91188000000E+02 0.  0.
    9900012    2    3    3    0    0  0.18121185817E+02 -0.11534268070E+02  0.29905892606E+02  0.54367093875E+02  0.40000022107E+02 0.  0.
        -12    1    3    3    0    0 -0.18121185817E+02  0.11534268070E+02 -0.29905892606E+02  0.36820906125E+02  0.00000000000E+00 0.  1.
         11    1    4    4    0    0  0.11129832985E+02 -0.10766104902E+00  0.14694466239E+02  0.18433993368E+02  0.51100000000E-03 0. -1.
        -11    1    4    4    0    0  0.47151373474E+01  0.33425724403E+01  0.19538697846E+02  0.20375623291E+02  0.51100000000E-03 0.  1.
         12    1    4    4    0    0  0.22762154851E+01 -0.14769179461E+02 -0.43272714791E+01  0.15557477216E+02  0.00000000000E+00 0. -1.
</event>
<event>
 8    1  0.1254059E-006  0.9118800E+02  0.7816164E-02  0.1184000E+00
        -11   -1    0    0    0    0  0.00000000000E+00  0.00000000000E+00  0.45593999997E+02  0.45594000000E+02  0.51100000000E-03 0. -1.
         11   -1    0    0    0    0 -0.00000000000E+00 -0.00000000000E+00 -0.45593999997E+02  0.45594000000E+02  0.51100000000E-03 0.  1.
         23    2    1    2    0    0 -0.35527136788E-14  0.16653345369E-15 -0.35527136788E-14  0.91188000000E+02  0.91188000000E+02 0.  0.
    9900012    2    3    3    0    0  0.29791163485E+02  0.34196101015E+00 -0.21636761605E+02  0.54367084587E+02  0.40000000933E+02 0.  0.
         12    1    3    3    0    0 -0.29791163485E+02 -0.34196101015E+00  0.21636761605E+02  0.36820915413E+02  0.00000000000E+00 0. -1.
         11    1    4    4    0    0  0.66997303513E-01 -0.73048672810E+00 -0.98198326260E+01  0.98471931312E+01  0.51100000000E-03 0. -1.
        -11    1    4    4    0    0  0.36097290761E+02  0.14508799387E+01 -0.77443359365E+01  0.36947181114E+02  0.51100000000E-03 0.  1.
         12    1    4    4    0    0 -0.63731245796E+01 -0.37843220045E+00 -0.40725930420E+01  0.75727103419E+01  0.00000000000E+00 0. -1.
</event>
<event>
 8    1  0.1254059E-006  0.9118800E+02  0.7816164E-02  0.1184000E+00
        -11   -1    0    0    0    0  0.00000000000E+00  0.00000000000E+00  0.45593999997E+02  0.45594000000E+02  0.51100000000E-03 0.  1.
         11   -1    0    0    0    0 -0.00000000000E+00 -0.00000000000E+00 -0.45593999997E+02  0.45594000000E+02  0.51100000000E-03 0. -1.
         23    2    1    2    0    0  0.00000000000E+00  0.00000000000E+00 -0.35527136788E-14  0.91188000000E+02  0.91188000000E+02 0.  0.
    9900012    2    3    3    0    0 -0.14368172041E+02 -0.29107438456E+02 -0.17380832235E+02  0.54367072928E+02  0.39999974355E+02 0.  0.
         12    1    3    3    0    0  0.14368172041E+02  0.29107438456E+02  0.17380832235E+02  0.36820927072E+02  0.00000000000E+00 0. -1.
         11    1    4    4    0    0  0.53748897299E+00 -0.23065807879E+02 -0.78612887398E+01  0.24374582015E+02  0.51100000000E-03 0. -1.
        -11    1    4    4    0    0 -0.12802081071E+02 -0.45451862910E+01  0.55708604987E+01  0.14682863655E+02  0.51100000000E-03 0.  1.
         12    1    4    4    0    0 -0.21035799432E+01 -0.14964442855E+01 -0.15090403994E+02  0.15309627258E+02  0.00000000000E+00 0. -1.
</event>
<event>
 8    1  0.1254059E-006  0.9118800E+02  0.7816164E-02  0.1184000E+00
        -11   -1    0    0    0    0  0.00000000000E+00  0.00000000000E+00  0.45593999997E+02  0.45594000000E+02  0.51100000000E-03 0.  1.
         11   -1    0    0    0    0 -0.00000000000E+00 -0.00000000000E+00 -0.45593999997E+02  0.45594000000E+02  0.51100000000E-03 0. -1.
         23    2    1    2    0    0  0.00000000000E+00 -0.17763568394E-14  0.00000000000E+00  0.91188000000E+02  0.91188000000E+02 0.  0.
    9900012    2    3    3    0    0  0.71027163887E+01  0.80285869893E+01  0.35226015765E+02  0.54367095939E+02  0.40000026813E+02 0.  0.
         12    1    3    3    0    0 -0.71027163887E+01 -0.80285869893E+01 -0.35226015765E+02  0.36820904061E+02  0.00000000000E+00 0. -1.
         11    1    4    4    0    0  0.20445532379E+01 -0.12514218132E+02  0.18176062583E+02  0.22162019418E+02  0.51100000000E-03 0. -1.
        -11    1    4    4    0    0  0.79174973823E+01  0.42746651180E+01  0.11869071713E+02  0.14894105890E+02  0.51100000000E-03 0.  1.
         12    1    4    4    0    0 -0.28593342315E+01  0.16268140003E+02  0.51808814700E+01  0.17310970632E+02  0.00000000000E+00 0. -1.
</event>
<event>
 8    1  0.1254059E-006  0.9118800E+02  0.7816164E-02  0.1184000E+00
        -11   -1    0    0    0    0  0.00000000000E+00  0.00000000000E+00  0.45593999997E+02  0.45594000000E+02  0.51100000000E-03 0. -1.
         11   -1    0    0    0    0 -0.00000000000E+00 -0.00000000000E+00 -0.45593999997E+02  0.45594000000E+02  0.51100000000E-03 0.  1.
         23    2    1    2    0    0 -0.88817841970E-15  0.00000000000E+00 -0.35527136788E-14  0.91188000000E+02  0.91188000000E+02 0.  0.
    9900012    2    3    3    0    0 -0.55978619429E+01 -0.20210057606E+02  0.30265427399E+02  0.54367101282E+02  0.40000038992E+02 0.  0.
        -12    1    3    3    0    0  0.55978619429E+01  0.20210057606E+02 -0.30265427399E+02  0.36820898718E+02  0.00000000000E+00 0.  1.
         11    1    4    4    0    0 -0.54104035392E+01  0.13913676631E+01  0.47458042945E+01  0.73301452300E+01  0.51100000000E-03 0. -1.
        -11    1    4    4    0    0  0.12559910084E+02 -0.18087273164E+02  0.25660089710E+02  0.33813325716E+02  0.51100000000E-03 0.  1.
        -12    1    4    4    0    0 -0.12747368487E+02 -0.35141521057E+01 -0.14046660543E+00  0.13223630335E+02  0.00000000000E+00 0.  1.
</event>
<event>
 8    1  0.1254059E-006  0.9118800E+02  0.7816164E-02  0.1184000E+00
        -11   -1    0    0    0    0  0.00000000000E+00  0.00000000000E+00  0.45593999997E+02  0.45594000000E+02  0.51100000000E-03 0. -1.
         11   -1    0    0    0    0 -0.00000000000E+00 -0.00000000000E+00 -0.45593999997E+02  0.45594000000E+02  0.51100000000E-03 0.  1.
         23    2    1    2    0    0  0.00000000000E+00  0.00000000000E+00 -0.17763568394E-14  0.91188000000E+02  0.91188000000E+02 0.  0.
    9900012    2    3    3    0    0  0.31750885148E+02 -0.11077401367E+02 -0.14998412284E+02  0.54367083393E+02  0.39999998211E+02 0.  0.
        -12    1    3    3    0    0 -0.31750885148E+02  0.11077401367E+02  0.14998412284E+02  0.36820916607E+02  0.00000000000E+00 0.  1.
         11    1    4    4    0    0  0.41768678169E+01 -0.63548335814E+01  0.34572599954E+01  0.83536088934E+01  0.51100000000E-03 0. -1.
        -11    1    4    4    0    0  0.11491871238E+02 -0.16767370557E+02 -0.15800617210E+02  0.25746209904E+02  0.51100000000E-03 0.  1.
        -12    1    4    4    0    0  0.16082146094E+02  0.12044802771E+02 -0.26550550687E+01  0.20267264595E+02  0.00000000000E+00 0.  1.
</event>
<event>
 8    1  0.1254059E-006  0.9118800E+02  0.7816164E-02  0.1184000E+00
        -11   -1    0    0    0    0  0.00000000000E+00  0.00000000000E+00  0.45593999997E+02  0.45594000000E+02  0.51100000000E-03 0. -1.
         11   -1    0    0    0    0 -0.00000000000E+00 -0.00000000000E+00 -0.45593999997E+02  0.45594000000E+02  0.51100000000E-03 0.  1.
         23    2    1    2    0    0  0.35527136788E-14  0.00000000000E+00  0.17763568394E-14  0.91188000000E+02  0.91188000000E+02 0.  0.
    9900012    2    3    3    0    0 -0.31883169824E+02 -0.93830619040E+01 -0.15849356060E+02  0.54367075837E+02  0.39999980985E+02 0.  0.
         12    1    3    3    0    0  0.31883169824E+02  0.93830619040E+01  0.15849356060E+02  0.36820924163E+02  0.00000000000E+00 0. -1.
         11    1    4    4    0    0 -0.28818819980E+01 -0.12761283706E+02  0.90638547043E+01  0.15915686226E+02  0.51100000000E-03 0. -1.
        -11    1    4    4    0    0 -0.21687436276E+02  0.20883183705E+01 -0.19742813599E+02  0.29402119905E+02  0.51100000000E-03 0.  1.
         12    1    4    4    0    0 -0.73138515498E+01  0.12899034317E+01 -0.51703971654E+01  0.90492697055E+01  0.00000000000E+00 0. -1.
</event>
<event>
 8    1  0.1254059E-006  0.9118800E+02  0.7816164E-02  0.1184000E+00
        -11   -1    0    0    0    0  0.00000000000E+00  0.00000000000E+00  0.45593999997E+02  0.45594000000E+02  0.51100000000E-03 0. -1.
         11   -1    0    0    0    0 -0.00000000000E+00 -0.00000000000E+00 -0.45593999997E+02  0.45594000000E+02  0.51100000000E-03 0.  1.
         23    2    1    2    0    0  0.35527136788E-14  0.00000000000E+00 -0.17763568394E-14  0.91188000000E+02  0.91188000000E+02 0.  0.
    9900012    2    3    3    0    0 -0.28617755798E+02 -0.20386499081E+02  0.11008794016E+02  0.54367097819E+02  0.40000031099E+02 0.  0.
        -12    1    3    3    0    0  0.28617755798E+02  0.20386499081E+02 -0.11008794016E+02  0.36820902181E+02  0.00000000000E+00 0.  1.
         11    1    4    4    0    0 -0.53760012651E+01 -0.19027283028E+02  0.15204167486E+02  0.24942044789E+02  0.51100000000E-03 0. -1.
        -11    1    4    4    0    0 -0.20243260668E+02 -0.48461211931E+01  0.28521745511E+01  0.21009745192E+02  0.51100000000E-03 0.  1.
        -12    1    4    4    0    0 -0.29984938649E+01  0.34869051407E+01 -0.70475480206E+01  0.84153078388E+01  0.00000000000E+00 0.  1.
</event>
<event>
 8    1  0.1254059E-006  0.9118800E+02  0.7816164E-02  0.1184000E+00
        -11   -1    0    0    0    0  0.00000000000E+00  0.00000000000E+00  0.45593999997E+02  0.45594000000E+02  0.51100000000E-03 0. -1.
         11   -1    0    0    0    0 -0.00000000000E+00 -0.00000000000E+00 -0.45593999997E+02  0.45594000000E+02  0.51100000000E-03 0.  1.
         23    2    1    2    0    0 -0.17763568394E-14  0.00000000000E+00  0.00000000000E+00  0.91188000000E+02  0.91188000000E+02 0.  0.
    9900012    2    3    3    0    0 -0.13054194808E+02 -0.32386888091E+02 -0.11681601668E+02  0.54367050259E+02  0.39999922676E+02 0.  0.
         12    1    3    3    0    0  0.13054194808E+02  0.32386888091E+02  0.11681601668E+02  0.36820949741E+02  0.00000000000E+00 0. -1.
         11    1    4    4    0    0  0.69635190265E+01 -0.25673732208E+02 -0.33173786978E+00  0.26603405289E+02  0.51100000000E-03 0. -1.
        -11    1    4    4    0    0 -0.14408020140E+02 -0.10301542883E+02 -0.11473262558E+02  0.21103283729E+02  0.51100000000E-03 0.  1.
         12    1    4    4    0    0 -0.56096936941E+01  0.35883870005E+01  0.12339876000E+00  0.66603612410E+01  0.00000000000E+00 0. -1.
</event>
<event>
 8    1  0.1254059E-006  0.9118800E+02  0.7816164E-02  0.1184000E+00
        -11   -1    0    0    0    0  0.00000000000E+00  0.00000000000E+00  0.45593999997E+02  0.45594000000E+02  0.51100000000E-03 0.  1.
         11   -1    0    0    0    0 -0.00000000000E+00 -0.00000000000E+00 -0.45593999997E+02  0.45594000000E+02  0.51100000000E-03 0. -1.
         23    2    1    2    0    0  0.35527136788E-14  0.00000000000E+00  0.00000000000E+00  0.91188000000E+02  0.91188000000E+02 0.  0.
    9900012    2    3    3    0    0 -0.12758955826E+02 -0.25563885896E+02  0.23226630420E+02  0.54367087783E+02  0.40000008218E+02 0.  0.
         12    1    3    3    0    0  0.12758955826E+02  0.25563885896E+02 -0.23226630420E+02  0.36820912217E+02  0.00000000000E+00 0. -1.
         11    1    4    4    0    0  0.33843132170E+01 -0.27533049278E+02  0.17497037937E+02  0.32797388849E+02  0.51100000000E-03 0. -1.
        -11    1    4    4    0    0  0.20197045324E+01  0.14371342640E+01  0.15529525733E+01  0.29251022626E+01  0.51100000000E-03 0.  1.
         12    1    4    4    0    0 -0.18162973576E+02  0.53202911803E+00  0.41766399088E+01  0.18644596671E+02  0.00000000000E+00 0. -1.
</event>
<event>
 8    1  0.1254059E-006  0.9118800E+02  0.7816164E-02  0.1184000E+00
        -11   -1    0    0    0    0  0.00000000000E+00  0.00000000000E+00  0.45593999997E+02  0.45594000000E+02  0.51100000000E-03 0.  1.
         11   -1    0    0    0    0 -0.00000000000E+00 -0.00000000000E+00 -0.45593999997E+02  0.45594000000E+02  0.51100000000E-03 0. -1.
         23    2    1    2    0    0  0.00000000000E+00  0.00000000000E+00  0.17763568394E-14  0.91188000000E+02  0.91188000000E+02 0.  0.
    9900012    2    3    3    0    0 -0.24437411588E+02  0.24215542945E+02 -0.13122484816E+02  0.54367092720E+02  0.40000019473E+02 0.  0.
        -12    1    3    3    0    0  0.24437411588E+02 -0.24215542945E+02  0.13122484816E+02  0.36820907280E+02  0.00000000000E+00 0.  1.
         11    1    4    4    0    0 -0.72238872496E+01 -0.25464587747E+01 -0.16719210408E+01  0.78399183359E+01  0.51100000000E-03 0.  1.
        -11    1    4    4    0    0 -0.15190599613E+02  0.56525625228E+01  0.77085815796E+01  0.17947924947E+02  0.51100000000E-03 0. -1.
         12    1    4    4    0    0 -0.20229247255E+01  0.21109439196E+02 -0.19159145355E+02  0.28579249437E+02  0.00000000000E+00 0. -1.
</event>
<event>
 8    1  0.1254059E-006  0.9118800E+02  0.7816164E-02  0.1184000E+00
        -11   -1    0    0    0    0  0.00000000000E+00  0.00000000000E+00  0.45593999997E+02  0.45594000000E+02  0.51100000000E-03 0.  1.
         11   -1    0    0    0    0 -0.00000000000E+00 -0.00000000000E+00 -0.45593999997E+02  0.45594000000E+02  0.51100000000E-03 0. -1.
         23    2    1    2    0    0 -0.35527136788E-14  0.00000000000E+00  0.00000000000E+00  0.91188000000E+02  0.91188000000E+02 0.  0.
    9900012    2    3    3    0    0  0.31845715469E+02  0.12971204961E+02 -0.13167297039E+02  0.54367089322E+02  0.40000011726E+02 0.  0.
        -12    1    3    3    0    0 -0.31845715469E+02 -0.12971204961E+02  0.13167297039E+02  0.36820910678E+02  0.00000000000E+00 0.  1.
         11    1    4    4    0    0  0.15608890050E+02  0.80014615914E+01 -0.26740540540E+02  0.31979952233E+02  0.51100000000E-03 0. -1.
        -11    1    4    4    0    0  0.10161984690E+02  0.25952175735E+01  0.11450723795E+02  0.15528044397E+02  0.51100000000E-03 0.  1.
         12    1    4    4    0    0  0.60748407297E+01  0.23745257964E+01  0.21225197068E+01  0.68590926918E+01  0.00000000000E+00 0. -1.
</event>
<event>
 8    1  0.1254059E-006  0.9118800E+02  0.7816164E-02  0.1184000E+00
        -11   -1    0    0    0    0  0.00000000000E+00  0.00000000000E+00  0.45593999997E+02  0.45594000000E+02  0.51100000000E-03 0.  1.
         11   -1    0    0    0    0 -0.00000000000E+00 -0.00000000000E+00 -0.45593999997E+02  0.45594000000E+02  0.51100000000E-03 0. -1.
         23    2    1    2    0    0 -0.17763568394E-14  0.00000000000E+00 -0.17763568394E-14  0.91188000000E+02  0.91188000000E+02 0.  0.
    9900012    2    3    3    0    0  0.11865062653E+02 -0.32789475976E+02  0.11825891157E+02  0.54367066440E+02  0.39999959564E+02 0.  0.
         12    1    3    3    0    0 -0.11865062653E+02  0.32789475976E+02 -0.11825891157E+02  0.36820933560E+02  0.00000000000E+00 0. -1.
         11    1    4    4    0    0  0.14904712393E+02  0.19688592231E+01 -0.21938304139E+01  0.15193411411E+02  0.51100000000E-03 0. -1.
        -11    1    4    4    0    0  0.24409446629E+01 -0.18989537834E+02  0.11379027679E+02  0.22272023463E+02  0.51100000000E-03 0.  1.
         12    1    4    4    0    0 -0.54805944027E+01 -0.15768797366E+02  0.26406938915E+01  0.16901631566E+02  0.00000000000E+00 0. -1.
</event>
<event>
 8    1  0.1254059E-006  0.9118800E+02  0.7816164E-02  0.1184000E+00
        -11   -1    0    0    0    0  0.00000000000E+00  0.00000000000E+00  0.45593999997E+02  0.45594000000E+02  0.51100000000E-03 0.  1.
         11   -1    0    0    0    0 -0.00000000000E+00 -0.00000000000E+00 -0.45593999997E+02  0.45594000000E+02  0.51100000000E-03 0. -1.
         23    2    1    2    0    0  0.00000000000E+00  0.00000000000E+00  0.35527136788E-14  0.91188000000E+02  0.91188000000E+02 0.  0.
    9900012    2    3    3    0    0  0.23115631583E+02  0.12205152389E+02 -0.25932531997E+02  0.54366886707E+02  0.39999549824E+02 0.  0.
        -12    1    3    3    0    0 -0.23115631583E+02 -0.12205152389E+02  0.25932531997E+02  0.36821113293E+02  0.00000000000E+00 0.  1.
         11    1    4    4    0    0  0.10877294693E+02  0.40534343091E+01 -0.12808182637E+02  0.17285699647E+02  0.51100000000E-03 0. -1.
        -11    1    4    4    0    0  0.18276691030E+01 -0.11923145499E+02 -0.48580703612E+01  0.13003946356E+02  0.51100000000E-03 0.  1.
        -12    1    4    4    0    0  0.10410667787E+02  0.20074863579E+02 -0.82662789987E+01  0.24077240705E+02  0.00000000000E+00 0.  1.
</event>
<event>
 8    1  0.1254059E-006  0.9118800E+02  0.7816164E-02  0.1184000E+00
        -11   -1    0    0    0    0  0.00000000000E+00  0.00000000000E+00  0.45593999997E+02  0.45594000000E+02  0.51100000000E-03 0. -1.
         11   -1    0    0    0    0 -0.00000000000E+00 -0.00000000000E+00 -0.45593999997E+02  0.45594000000E+02  0.51100000000E-03 0.  1.
         23    2    1    2    0    0 -0.71054273576E-14 -0.35527136788E-14  0.17763568394E-14  0.91188000000E+02  0.91188000000E+02 0.  0.
    9900012    2    3    3    0    0 -0.32628718698E+02 -0.14693435292E+02  0.86746026581E+01  0.54367094853E+02  0.40000024336E+02 0.  0.
        -12    1    3    3    0    0  0.32628718698E+02  0.14693435292E+02 -0.86746026581E+01  0.36820905147E+02  0.00000000000E+00 0.  1.
         11    1    4    4    0    0 -0.74101621457E+01  0.77209895062E+01 -0.49396557095E+01  0.11786618717E+02  0.51100000000E-03 0. -1.
        -11    1    4    4    0    0 -0.67148438475E+01 -0.20442447227E+02  0.95089412273E+01  0.23524513598E+02  0.51100000000E-03 0.  1.
         12    1    4    4    0    0 -0.18503712705E+02 -0.19719775720E+01  0.41053171403E+01  0.19055962538E+02  0.00000000000E+00 0. -1.
</event>
<event>
 8    1  0.1254059E-006  0.9118800E+02  0.7816164E-02  0.1184000E+00
        -11   -1    0    0    0    0  0.00000000000E+00  0.00000000000E+00  0.45593999997E+02  0.45594000000E+02  0.51100000000E-03 0. -1.
         11   -1    0    0    0    0 -0.00000000000E+00 -0.00000000000E+00 -0.45593999997E+02  0.45594000000E+02  0.51100000000E-03 0.  1.
         23    2    1    2    0    0  0.00000000000E+00  0.35527136788E-14  0.35527136788E-14  0.91188000000E+02  0.91188000000E+02 0.  0.
    9900012    2    3    3    0    0  0.15606022146E+02  0.26498158309E+02  0.20250419760E+02  0.54367084456E+02  0.40000000634E+02 0.  0.
         12    1    3    3    0    0 -0.15606022146E+02 -0.26498158309E+02 -0.20250419760E+02  0.36820915544E+02  0.00000000000E+00 0. -1.
         11    1    4    4    0    0  0.17104694318E+02 -0.43176180933E+01  0.43906068672E+01  0.18179379050E+02  0.51100000000E-03 0. -1.
        -11    1    4    4    0    0  0.40124771884E+01  0.84898167635E+01  0.30997684218E+01  0.98886564504E+01  0.51100000000E-03 0.  1.
         12    1    4    4    0    0 -0.55111493599E+01  0.22325959639E+02  0.12760044472E+02  0.26299048956E+02  0.00000000000E+00 0. -1.
</event>
<event>
 8    1  0.1254059E-006  0.9118800E+02  0.7816164E-02  0.1184000E+00
        -11   -1    0    0    0    0  0.00000000000E+00  0.00000000000E+00  0.45593999997E+02  0.45594000000E+02  0.51100000000E-03 0.  1.
         11   -1    0    0    0    0 -0.00000000000E+00 -0.00000000000E+00 -0.45593999997E+02  0.45594000000E+02  0.51100000000E-03 0. -1.
         23    2    1    2    0    0 -0.35527136788E-14  0.88817841970E-15 -0.35527136788E-14  0.91188000000E+02  0.91188000000E+02 0.  0.
    9900012    2    3    3    0    0  0.24208549646E+02 -0.46689173794E+01 -0.27348244437E+02  0.54367093720E+02  0.40000021754E+02 0.  0.
        -12    1    3    3    0    0 -0.24208549646E+02  0.46689173794E+01  0.27348244437E+02  0.36820906280E+02  0.00000000000E+00 0.  1.
         11    1    4    4    0    0  0.65977189922E+01 -0.31316310617E+01 -0.25733255858E+02  0.26749532076E+02  0.51100000000E-03 0. -1.
        -11    1    4    4    0    0 -0.42982316773E+01  0.29411220542E+01 -0.32426642855E+00  0.52182509970E+01  0.51100000000E-03 0.  1.
        -12    1    4    4    0    0  0.21909062331E+02 -0.44784083718E+01 -0.12907221511E+01  0.22399310647E+02  0.00000000000E+00 0.  1.
</event>
<event>
 8    1  0.1254059E-006  0.9118800E+02  0.7816164E-02  0.1184000E+00
        -11   -1    0    0    0    0  0.00000000000E+00  0.00000000000E+00  0.45593999997E+02  0.45594000000E+02  0.51100000000E-03 0. -1.
         11   -1    0    0    0    0 -0.00000000000E+00 -0.00000000000E+00 -0.45593999997E+02  0.45594000000E+02  0.51100000000E-03 0.  1.
         23    2    1    2    0    0  0.15543122345E-14  0.00000000000E+00  0.00000000000E+00  0.91188000000E+02  0.91188000000E+02 0.  0.
    9900012    2    3    3    0    0  0.17944688669E+01 -0.58668045884E+01  0.36306198157E+02  0.54367088289E+02  0.40000009372E+02 0.  0.
        -12    1    3    3    0    0 -0.17944688669E+01  0.58668045884E+01 -0.36306198157E+02  0.36820911711E+02  0.00000000000E+00 0.  1.
         11    1    4    4    0    0  0.42156510920E+01 -0.39509402096E+01  0.14457991071E+02  0.15569686854E+02  0.51100000000E-03 0. -1.
        -11    1    4    4    0    0  0.96466989354E+01  0.77107891513E+01  0.19644246720E+02  0.23203695808E+02  0.51100000000E-03 0.  1.
        -12    1    4    4    0    0 -0.12067881160E+02 -0.96266535301E+01  0.22039603667E+01  0.15593705627E+02  0.00000000000E+00 0.  1.
</event>
<event>
 8    1  0.1254059E-006  0.9118800E+02  0.7816164E-02  0.1184000E+00
        -11   -1    0    0    0    0  0.00000000000E+00  0.00000000000E+00  0.45593999997E+02  0.45594000000E+02  0.51100000000E-03 0.  1.
         11   -1    0    0    0    0 -0.00000000000E+00 -0.00000000000E+00 -0.45593999997E+02  0.45594000000E+02  0.51100000000E-03 0. -1.
         23    2    1    2    0    0  0.00000000000E+00  0.35527136788E-14  0.00000000000E+00  0.91188000000E+02  0.91188000000E+02 0.  0.
    9900012    2    3    3    0    0 -0.27230220727E+02  0.23138761809E+02 -0.88819382115E+01  0.54367135735E+02  0.40000117534E+02 0.  0.
        -12    1    3    3    0    0  0.27230220727E+02 -0.23138761809E+02  0.88819382115E+01  0.36820864265E+02  0.00000000000E+00 0.  1.
         11    1    4    4    0    0 -0.18218756554E+02  0.32513973812E+02 -0.91383990552E+01  0.38374365415E+02  0.51100000000E-03 0. -1.
        -11    1    4    4    0    0 -0.24634964342E+01 -0.89572933881E+01  0.11885451205E+01  0.93656051213E+01  0.51100000000E-03 0.  1.
         12    1    4    4    0    0 -0.65479677384E+01 -0.41791861524E+00 -0.93208427681E+00  0.66271651988E+01  0.00000000000E+00 0. -1.
</event>
<event>
 8    1  0.1254059E-006  0.9118800E+02  0.7816164E-02  0.1184000E+00
        -11   -1    0    0    0    0  0.00000000000E+00  0.00000000000E+00  0.45593999997E+02  0.45594000000E+02  0.51100000000E-03 0.  1.
         11   -1    0    0    0    0 -0.00000000000E+00 -0.00000000000E+00 -0.45593999997E+02  0.45594000000E+02  0.51100000000E-03 0. -1.
         23    2    1    2    0    0 -0.35527136788E-14  0.00000000000E+00  0.00000000000E+00  0.91188000000E+02  0.91188000000E+02 0.  0.
    9900012    2    3    3    0    0 -0.26962423501E+02 -0.23073717275E+02  0.98189186053E+01  0.54367083763E+02  0.39999999055E+02 0.  0.
         12    1    3    3    0    0  0.26962423501E+02  0.23073717275E+02 -0.98189186053E+01  0.36820916237E+02  0.00000000000E+00 0. -1.
         11    1    4    4    0    0 -0.36861081808E+01  0.92883000534E+01  0.70798788719E+01  0.12246819853E+02  0.51100000000E-03 0. -1.
        -11    1    4    4    0    0 -0.14793491071E+02 -0.98155474770E+01  0.31309644675E+01  0.18027625720E+02  0.51100000000E-03 0.  1.
         12    1    4    4    0    0 -0.84828242495E+01 -0.22546469851E+02 -0.39192473413E+00  0.24092638191E+02  0.00000000000E+00 0. -1.
</event>
<event>
 8    1  0.1254059E-006  0.9118800E+02  0.7816164E-02  0.1184000E+00
        -11   -1    0    0    0    0  0.00000000000E+00  0.00000000000E+00  0.45593999997E+02  0.45594000000E+02  0.51100000000E-03 0.  1.
         11   -1    0    0    0    0 -0.00000000000E+00 -0.00000000000E+00 -0.45593999997E+02  0.45594000000E+02  0.51100000000E-03 0. -1.
         23    2    1    2    0    0  0.00000000000E+00  0.00000000000E+00  0.00000000000E+00  0.91188000000E+02  0.91188000000E+02 0.  0.
    9900012    2    3    3    0    0 -0.21619467638E+02  0.33713558206E+01 -0.29614411675E+02  0.54367071171E+02  0.39999970348E+02 0.  0.
        -12    1    3    3    0    0  0.21619467638E+02 -0.33713558206E+01  0.29614411675E+02  0.36820928829E+02  0.00000000000E+00 0.  1.
         11    1    4    4    0    0  0.40105784380E+01 -0.50054328310E+01 -0.65049723149E+01  0.91353030772E+01  0.51100000000E-03 0. -1.
        -11    1    4    4    0    0  0.26184911956E+01 -0.60314258293E+01 -0.11887635204E+01  0.66818973836E+01  0.51100000000E-03 0.  1.
         12    1    4    4    0    0 -0.28248537271E+02  0.14408214481E+02 -0.21920675839E+02  0.38549870710E+02  0.00000000000E+00 0. -1.
</event>
<event>
 8    1  0.1254059E-006  0.9118800E+02  0.7816164E-02  0.1184000E+00
        -11   -1    0    0    0    0  0.00000000000E+00  0.00000000000E+00  0.45593999997E+02  0.45594000000E+02  0.51100000000E-03 0.  1.
         11   -1    0    0    0    0 -0.00000000000E+00 -0.00000000000E+00 -0.45593999997E+02  0.45594000000E+02  0.51100000000E-03 0. -1.
         23    2    1    2    0    0 -0.35527136788E-14  0.17763568394E-14  0.35527136788E-14  0.91188000000E+02  0.91188000000E+02 0.  0.
    9900012    2    3    3    0    0  0.28552375192E+02 -0.15218663393E+02 -0.17576525564E+02  0.54367080735E+02  0.39999992153E+02 0.  0.
        -12    1    3    3    0    0 -0.28552375192E+02  0.15218663393E+02  0.17576525564E+02  0.36820919265E+02  0.00000000000E+00 0.  1.
         11    1    4    4    0    0  0.41353235403E+01 -0.10256684218E+02 -0.57945172053E+01  0.12485067154E+02  0.51100000000E-03 0. -1.
        -11    1    4    4    0    0  0.15295042141E+01 -0.29128727073E+01 -0.17821393187E+02  0.18122534755E+02  0.51100000000E-03 0.  1.
         12    1    4    4    0    0  0.22887547438E+02 -0.20491064678E+01  0.60393848281E+01  0.23759478827E+02  0.00000000000E+00 0. -1.
</event>
<event>
 8    1  0.1254059E-006  0.9118800E+02  0.7816164E-02  0.1184000E+00
        -11   -1    0    0    0    0  0.00000000000E+00  0.00000000000E+00  0.45593999997E+02  0.45594000000E+02  0.51100000000E-03 0.  1.
         11   -1    0    0    0    0 -0.00000000000E+00 -0.00000000000E+00 -0.45593999997E+02  0.45594000000E+02  0.51100000000E-03 0. -1.
         23    2    1    2    0    0  0.44408920985E-15 -0.17763568394E-14 -0.71054273576E-14  0.91188000000E+02  0.91188000000E+02 0.  0.
    9900012    2    3    3    0    0  0.26587661351E+01  0.77669958416E+01  0.35894075562E+02  0.54367083088E+02  0.39999997517E+02 0.  0.
         12    1    3    3    0    0 -0.26587661351E+01 -0.77669958416E+01 -0.35894075562E+02  0.36820916912E+02  0.00000000000E+00 0. -1.
         11    1    4    4    0    0 -0.10023160358E+02 -0.30279441311E+01 -0.34514460786E+01  0.11024729907E+02  0.51100000000E-03 0. -1.
        -11    1    4    4    0    0  0.86264771095E-01  0.24954064013E+01  0.10478083900E+02  0.10771477949E+02  0.51100000000E-03 0.  1.
         12    1    4    4    0    0  0.12595661722E+02  0.82995335714E+01  0.28867437740E+02  0.32570875233E+02  0.00000000000E+00 0. -1.
</event>
<event>
 8    1  0.1254059E-006  0.9118800E+02  0.7816164E-02  0.1184000E+00
        -11   -1    0    0    0    0  0.00000000000E+00  0.00000000000E+00  0.45593999997E+02  0.45594000000E+02  0.51100000000E-03 0. -1.
         11   -1    0    0    0    0 -0.00000000000E+00 -0.00000000000E+00 -0.45593999997E+02  0.45594000000E+02  0.51100000000E-03 0.  1.
         23    2    1    2    0    0  0.44408920985E-15 -0.71054273576E-14  0.00000000000E+00  0.91188000000E+02  0.91188000000E+02 0.  0.
    9900012    2    3    3    0    0 -0.15088245096E+01 -0.27281970396E+02 -0.24681925349E+02  0.54367083403E+02  0.39999998234E+02 0.  0.
         12    1    3    3    0    0  0.15088245096E+01  0.27281970396E+02  0.24681925349E+02  0.36820916597E+02  0.00000000000E+00 0. -1.
         11    1    4    4    0    0  0.10300130333E+02 -0.93010832861E+01 -0.13188342205E+02  0.19145109181E+02  0.51100000000E-03 0. -1.
        -11    1    4    4    0    0 -0.57575730460E+01  0.51608825025E+01 -0.78636955442E+01  0.11028239363E+02  0.51100000000E-03 0.  1.
        -12    1    4    4    0    0 -0.60513817965E+01 -0.23141769612E+02 -0.36298876003E+01  0.24193734859E+02  0.00000000000E+00 0.  1.
</event>
<event>
 8    1  0.1254059E-006  0.9118800E+02  0.7816164E-02  0.1184000E+00
        -11   -1    0    0    0    0  0.00000000000E+00  0.00000000000E+00  0.45593999997E+02  0.45594000000E+02  0.51100000000E-03 0.  1.
         11   -1    0    0    0    0 -0.00000000000E+00 -0.00000000000E+00 -0.45593999997E+02  0.45594000000E+02  0.51100000000E-03 0. -1.
         23    2    1    2    0    0 -0.71054273576E-14  0.00000000000E+00  0.17763568394E-14  0.91188000000E+02  0.91188000000E+02 0.  0.
    9900012    2    3    3    0    0  0.25399715323E+02  0.22526924485E+02  0.14253800966E+02  0.54367099587E+02  0.40000035129E+02 0.  0.
        -12    1    3    3    0    0 -0.25399715323E+02 -0.22526924485E+02 -0.14253800966E+02  0.36820900413E+02  0.00000000000E+00 0.  1.
         11    1    4    4    0    0 -0.24608667479E+01  0.55931309225E+01  0.19135393923E+01  0.64031720212E+01  0.51100000000E-03 0. -1.
        -11    1    4    4    0    0 -0.16043247287E+01  0.57755864554E+01  0.15188466848E+02  0.16328526639E+02  0.51100000000E-03 0.  1.
         12    1    4    4    0    0  0.29464906799E+02  0.11158207107E+02 -0.28482052741E+01  0.31635400927E+02  0.00000000000E+00 0. -1.
</event>
<event>
 8    1  0.1254059E-006  0.9118800E+02  0.7816164E-02  0.1184000E+00
        -11   -1    0    0    0    0  0.00000000000E+00  0.00000000000E+00  0.45593999997E+02  0.45594000000E+02  0.51100000000E-03 0. -1.
         11   -1    0    0    0    0 -0.00000000000E+00 -0.00000000000E+00 -0.45593999997E+02  0.45594000000E+02  0.51100000000E-03 0.  1.
         23    2    1    2    0    0  0.00000000000E+00  0.17763568394E-14  0.17763568394E-14  0.91188000000E+02  0.91188000000E+02 0.  0.
    9900012    2    3    3    0    0  0.30220487732E+02  0.15261518626E+02  0.14477154693E+02  0.54367084238E+02  0.40000000138E+02 0.  0.
        -12    1    3    3    0    0 -0.30220487732E+02 -0.15261518626E+02 -0.14477154693E+02  0.36820915762E+02  0.00000000000E+00 0.  1.
         11    1    4    4    0    0  0.16149453716E+02  0.72604695116E+01  0.12726957001E+01  0.17752155572E+02  0.51100000000E-03 0. -1.
        -11    1    4    4    0    0  0.22219221622E+02  0.14676447773E+01  0.38579289240E+01  0.22599367392E+02  0.51100000000E-03 0.  1.
         12    1    4    4    0    0 -0.81481876061E+01  0.65334043376E+01  0.93465300689E+01  0.14015561274E+02  0.00000000000E+00 0. -1.
</event>
<event>
 8    1  0.1254059E-006  0.9118800E+02  0.7816164E-02  0.1184000E+00
        -11   -1    0    0    0    0  0.00000000000E+00  0.00000000000E+00  0.45593999997E+02  0.45594000000E+02  0.51100000000E-03 0.  1.
         11   -1    0    0    0    0 -0.00000000000E+00 -0.00000000000E+00 -0.45593999997E+02  0.45594000000E+02  0.51100000000E-03 0. -1.
         23    2    1    2    0    0  0.00000000000E+00  0.00000000000E+00  0.00000000000E+00  0.91188000000E+02  0.91188000000E+02 0.  0.
    9900012    2    3    3    0    0  0.21055922540E+02  0.11928761404E+02  0.27751271375E+02  0.54367078154E+02  0.39999986267E+02 0.  0.
         12    1    3    3    0    0 -0.21055922540E+02 -0.11928761404E+02 -0.27751271375E+02  0.36820921846E+02  0.00000000000E+00 0. -1.
         11    1    4    4    0    0 -0.57746654599E+01 -0.45321569947E+01  0.13035744994E+02  0.14960543306E+02  0.51100000000E-03 0. -1.
        -11    1    4    4    0    0  0.77417270865E+01 -0.26407401204E+00 -0.31578278288E+01  0.83651628928E+01  0.51100000000E-03 0.  1.
        -12    1    4    4    0    0  0.19088860914E+02  0.16724992411E+02  0.17873354210E+02  0.31041371955E+02  0.00000000000E+00 0.  1.
</event>
<event>
 8    1  0.1254059E-006  0.9118800E+02  0.7816164E-02  0.1184000E+00
        -11   -1    0    0    0    0  0.00000000000E+00  0.00000000000E+00  0.45593999997E+02  0.45594000000E+02  0.51100000000E-03 0.  1.
         11   -1    0    0    0    0 -0.00000000000E+00 -0.00000000000E+00 -0.45593999997E+02  0.45594000000E+02  0.51100000000E-03 0. -1.
         23    2    1    2    0    0 -0.17763568394E-14  0.00000000000E+00 -0.35527136788E-14  0.91188000000E+02  0.91188000000E+02 0.  0.
    9900012    2    3    3    0    0  0.10094198182E+02  0.17383892413E+02 -0.30849425124E+02  0.54367087696E+02  0.40000008021E+02 0.  0.
        -12    1    3    3    0    0 -0.10094198182E+02 -0.17383892413E+02  0.30849425124E+02  0.36820912304E+02  0.00000000000E+00 0.  1.
         11    1    4    4    0    0 -0.12200628981E+02  0.30262957806E+01 -0.21508206008E+01  0.12753032706E+02  0.51100000000E-03 0. -1.
        -11    1    4    4    0    0  0.99036271433E+01  0.12019191712E+02 -0.83393437102E+01  0.17665997107E+02  0.51100000000E-03 0.  1.
         12    1    4    4    0    0  0.12391200020E+02  0.23384049207E+01 -0.20359260813E+02  0.23948057883E+02  0.00000000000E+00 0. -1.
</event>
<event>
 8    1  0.1254059E-006  0.9118800E+02  0.7816164E-02  0.1184000E+00
        -11   -1    0    0    0    0  0.00000000000E+00  0.00000000000E+00  0.45593999997E+02  0.45594000000E+02  0.51100000000E-03 0.  1.
         11   -1    0    0    0    0 -0.00000000000E+00 -0.00000000000E+00 -0.45593999997E+02  0.45594000000E+02  0.51100000000E-03 0. -1.
         23    2    1    2    0    0  0.00000000000E+00  0.17763568394E-14  0.35527136788E-14  0.91188000000E+02  0.91188000000E+02 0.  0.
    9900012    2    3    3    0    0 -0.12984564065E+02  0.13026496922E+02 -0.31898155793E+02  0.54367070232E+02  0.39999968207E+02 0.  0.
        -12    1    3    3    0    0  0.12984564065E+02 -0.13026496922E+02  0.31898155793E+02  0.36820929768E+02  0.00000000000E+00 0.  1.
         11    1    4    4    0    0 -0.10788630539E+01  0.60805856639E+01 -0.93431411695E+01  0.11199631899E+02  0.51100000000E-03 0. -1.
        -11    1    4    4    0    0 -0.92856035877E+01 -0.13849078428E+01  0.74071258861E+01  0.11958508179E+02  0.51100000000E-03 0.  1.
        -12    1    4    4    0    0 -0.26200974234E+01  0.83308191008E+01 -0.29962140509E+02  0.31208930153E+02  0.00000000000E+00 0.  1.
</event>
<event>
 8    1  0.1254059E-006  0.9118800E+02  0.7816164E-02  0.1184000E+00
        -11   -1    0    0    0    0  0.00000000000E+00  0.00000000000E+00  0.45593999997E+02  0.45594000000E+02  0.51100000000E-03 0.  1.
         11   -1    0    0    0    0 -0.00000000000E+00 -0.00000000000E+00 -0.45593999997E+02  0.45594000000E+02  0.51100000000E-03 0. -1.
         23    2    1    2    0    0  0.00000000000E+00  0.00000000000E+00  0.00000000000E+00  0.91188000000E+02  0.91188000000E+02 0.  0.
    9900012    2    3    3    0    0 -0.22160729349E+02 -0.21660926215E+02 -0.19886924482E+02  0.54367035658E+02  0.39999889389E+02 0.  0.
        -12    1    3    3    0    0  0.22160729349E+02  0.21660926215E+02  0.19886924482E+02  0.36820964342E+02  0.00000000000E+00 0.  1.
         11    1    4    4    0    0 -0.26533468234E+02 -0.27338529163E+02 -0.18700057675E+02  0.42439513082E+02  0.51100000000E-03 0. -1.
        -11    1    4    4    0    0  0.42713818293E+01  0.61222317498E+00  0.30818265503E+01  0.53025630685E+01  0.51100000000E-03 0.  1.
         12    1    4    4    0    0  0.10135705576E+00  0.50653797731E+01 -0.42686933573E+01  0.66249595075E+01  0.00000000000E+00 0. -1.
</event>
<event>
 8    1  0.1254059E-006  0.9118800E+02  0.7816164E-02  0.1184000E+00
        -11   -1    0    0    0    0  0.00000000000E+00  0.00000000000E+00  0.45593999997E+02  0.45594000000E+02  0.51100000000E-03 0.  1.
         11   -1    0    0    0    0 -0.00000000000E+00 -0.00000000000E+00 -0.45593999997E+02  0.45594000000E+02  0.51100000000E-03 0. -1.
         23    2    1    2    0    0  0.00000000000E+00  0.17763568394E-14  0.00000000000E+00  0.91188000000E+02  0.91188000000E+02 0.  0.
    9900012    2    3    3    0    0 -0.33705121289E+02  0.11298814677E+02  0.95958511052E+01  0.54367098699E+02  0.40000033103E+02 0.  0.
        -12    1    3    3    0    0  0.33705121289E+02 -0.11298814677E+02 -0.95958511052E+01  0.36820901301E+02  0.00000000000E+00 0.  1.
         11    1    4    4    0    0 -0.31032737631E+02  0.18349327729E+02  0.21192764124E+01  0.36113985736E+02  0.51100000000E-03 0. -1.
        -11    1    4    4    0    0  0.57452614667E+01 -0.38286113883E+01  0.59445616695E+01  0.91106590424E+01  0.51100000000E-03 0.  1.
        -12    1    4    4    0    0 -0.84176451250E+01 -0.32219016634E+01  0.15320130232E+01  0.91424539202E+01  0.00000000000E+00 0.  1.
</event>
<event>
 8    1  0.1254059E-006  0.9118800E+02  0.7816164E-02  0.1184000E+00
        -11   -1    0    0    0    0  0.00000000000E+00  0.00000000000E+00  0.45593999997E+02  0.45594000000E+02  0.51100000000E-03 0.  1.
         11   -1    0    0    0    0 -0.00000000000E+00 -0.00000000000E+00 -0.45593999997E+02  0.45594000000E+02  0.51100000000E-03 0. -1.
         23    2    1    2    0    0  0.00000000000E+00  0.33306690739E-15 -0.35527136788E-14  0.91188000000E+02  0.91188000000E+02 0.  0.
    9900012    2    3    3    0    0  0.28655087424E+02 -0.91794614376E+00 -0.23104617915E+02  0.54367081633E+02  0.39999994199E+02 0.  0.
        -12    1    3    3    0    0 -0.28655087424E+02  0.91794614376E+00  0.23104617915E+02  0.36820918367E+02  0.00000000000E+00 0.  1.
         11    1    4    4    0    0  0.10886468533E+02 -0.89879804565E+01 -0.22504343374E+02  0.26565851403E+02  0.51100000000E-03 0. -1.
        -11    1    4    4    0    0  0.40229589153E+01 -0.59362341180E+01  0.31318463205E+01  0.78250581834E+01  0.51100000000E-03 0.  1.
         12    1    4    4    0    0  0.13745659975E+02  0.14006268431E+02 -0.37321208611E+01  0.19976172047E+02  0.00000000000E+00 0. -1.
</event>
<event>
 8    1  0.1254059E-006  0.9118800E+02  0.7816164E-02  0.1184000E+00
        -11   -1    0    0    0    0  0.00000000000E+00  0.00000000000E+00  0.45593999997E+02  0.45594000000E+02  0.51100000000E-03 0.  1.
         11   -1    0    0    0    0 -0.00000000000E+00 -0.00000000000E+00 -0.45593999997E+02  0.45594000000E+02  0.51100000000E-03 0. -1.
         23    2    1    2    0    0  0.00000000000E+00  0.00000000000E+00  0.00000000000E+00  0.91188000000E+02  0.91188000000E+02 0.  0.
    9900012    2    3    3    0    0  0.18617567091E+02  0.49039310920E+01  0.31386585476E+02  0.54367080777E+02  0.39999992248E+02 0.  0.
         12    1    3    3    0    0 -0.18617567091E+02 -0.49039310920E+01 -0.31386585476E+02  0.36820919223E+02  0.00000000000E+00 0. -1.
         11    1    4    4    0    0 -0.49416777892E+01  0.34431213697E+01 -0.29405357860E+01  0.67023887614E+01  0.51100000000E-03 0. -1.
        -11    1    4    4    0    0  0.14685414377E+02  0.70289531991E+01  0.58138736381E+01  0.17287819569E+02  0.51100000000E-03 0.  1.
        -12    1    4    4    0    0  0.88738305037E+01 -0.55681434768E+01  0.28513247624E+02  0.30376872447E+02  0.00000000000E+00 0.  1.
</event>
<event>
 8    1  0.1254059E-006  0.9118800E+02  0.7816164E-02  0.1184000E+00
        -11   -1    0    0    0    0  0.00000000000E+00  0.00000000000E+00  0.45593999997E+02  0.45594000000E+02  0.51100000000E-03 0. -1.
         11   -1    0    0    0    0 -0.00000000000E+00 -0.00000000000E+00 -0.45593999997E+02  0.45594000000E+02  0.51100000000E-03 0.  1.
         23    2    1    2    0    0 -0.88817841970E-15  0.00000000000E+00  0.71054273576E-14  0.91188000000E+02  0.91188000000E+02 0.  0.
    9900012    2    3    3    0    0 -0.49521052053E+01  0.77215200769E+01 -0.35660001261E+02  0.54367069699E+02  0.39999966993E+02 0.  0.
         12    1    3    3    0    0  0.49521052053E+01 -0.77215200769E+01  0.35660001261E+02  0.36820930301E+02  0.00000000000E+00 0. -1.
         11    1    4    4    0    0 -0.67096359570E+01  0.38380540848E+01  0.66958972592E+01  0.10226676596E+02  0.51100000000E-03 0. -1.
        -11    1    4    4    0    0 -0.34977688465E+01  0.48467315183E+01 -0.13079901992E+02  0.14380856362E+02  0.51100000000E-03 0.  1.
        -12    1    4    4    0    0  0.52552995982E+01 -0.96326552617E+00 -0.29275996528E+02  0.29759536742E+02  0.00000000000E+00 0.  1.
</event>
<event>
 8    1  0.1254059E-006  0.9118800E+02  0.7816164E-02  0.1184000E+00
        -11   -1    0    0    0    0  0.00000000000E+00  0.00000000000E+00  0.45593999997E+02  0.45594000000E+02  0.51100000000E-03 0. -1.
         11   -1    0    0    0    0 -0.00000000000E+00 -0.00000000000E+00 -0.45593999997E+02  0.45594000000E+02  0.51100000000E-03 0.  1.
         23    2    1    2    0    0  0.44408920985E-15  0.00000000000E+00  0.35527136788E-14  0.91188000000E+02  0.91188000000E+02 0.  0.
    9900012    2    3    3    0    0 -0.32033906553E+01 -0.23730691464E+02  0.27970969404E+02  0.54367047290E+02  0.39999915907E+02 0.  0.
        -12    1    3    3    0    0  0.32033906553E+01  0.23730691464E+02 -0.27970969404E+02  0.36820952710E+02  0.00000000000E+00 0.  1.
         11    1    4    4    0    0  0.82689775668E+01  0.92748674753E+00  0.19610168865E+02  0.21302463351E+02  0.51100000000E-03 0. -1.
        -11    1    4    4    0    0 -0.33843803667E+01 -0.31792710690E+01 -0.47416939907E+01  0.66366751585E+01  0.51100000000E-03 0.  1.
         12    1    4    4    0    0 -0.80879878553E+01 -0.21478907143E+02  0.13102494530E+02  0.26427908780E+02  0.00000000000E+00 0. -1.
</event>
<event>
 8    1  0.1254059E-006  0.9118800E+02  0.7816164E-02  0.1184000E+00
        -11   -1    0    0    0    0  0.00000000000E+00  0.00000000000E+00  0.45593999997E+02  0.45594000000E+02  0.51100000000E-03 0. -1.
         11   -1    0    0    0    0 -0.00000000000E+00 -0.00000000000E+00 -0.45593999997E+02  0.45594000000E+02  0.51100000000E-03 0.  1.
         23    2    1    2    0    0  0.17763568394E-14  0.00000000000E+00 -0.66613381478E-15  0.91188000000E+02  0.91188000000E+02 0.  0.
    9900012    2    3    3    0    0 -0.11456703343E+02 -0.34951361707E+02 -0.17110155048E+01  0.54367064233E+02  0.39999954532E+02 0.  0.
         12    1    3    3    0    0  0.11456703343E+02  0.34951361707E+02  0.17110155048E+01  0.36820935767E+02  0.00000000000E+00 0. -1.
         11    1    4    4    0    0  0.59232863065E+00 -0.14083879568E+02  0.11610718923E+01  0.14144066073E+02  0.51100000000E-03 0. -1.
        -11    1    4    4    0    0  0.35951096246E+01  0.69291968584E+01  0.17310340873E+01  0.79959403192E+01  0.51100000000E-03 0.  1.
        -12    1    4    4    0    0 -0.15644141598E+02 -0.27796678998E+02 -0.46031214844E+01  0.32227057841E+02  0.00000000000E+00 0.  1.
</event>
<event>
 8    1  0.1254059E-006  0.9118800E+02  0.7816164E-02  0.1184000E+00
        -11   -1    0    0    0    0  0.00000000000E+00  0.00000000000E+00  0.45593999997E+02  0.45594000000E+02  0.51100000000E-03 0.  1.
         11   -1    0    0    0    0 -0.00000000000E+00 -0.00000000000E+00 -0.45593999997E+02  0.45594000000E+02  0.51100000000E-03 0. -1.
         23    2    1    2    0    0  0.17763568394E-14  0.17763568394E-14  0.00000000000E+00  0.91188000000E+02  0.91188000000E+02 0.  0.
    9900012    2    3    3    0    0 -0.12416986917E+02 -0.69860514925E+01 -0.33952816964E+02  0.54367078510E+02  0.39999987080E+02 0.  0.
        -12    1    3    3    0    0  0.12416986917E+02  0.69860514925E+01  0.33952816964E+02  0.36820921490E+02  0.00000000000E+00 0.  1.
         11    1    4    4    0    0 -0.22004086600E+02 -0.20281648648E+01 -0.22561693467E+02  0.31580425776E+02  0.51100000000E-03 0. -1.
        -11    1    4    4    0    0  0.94761373209E+01 -0.82032467495E+01 -0.18017842196E+01  0.12662419295E+02  0.51100000000E-03 0.  1.
         12    1    4    4    0    0  0.11096236281E+00  0.32453601219E+01 -0.95893392772E+01  0.10124233440E+02  0.00000000000E+00 0. -1.
</event>
<event>
 8    1  0.1254059E-006  0.9118800E+02  0.7816164E-02  0.1184000E+00
        -11   -1    0    0    0    0  0.00000000000E+00  0.00000000000E+00  0.45593999997E+02  0.45594000000E+02  0.51100000000E-03 0.  1.
         11   -1    0    0    0    0 -0.00000000000E+00 -0.00000000000E+00 -0.45593999997E+02  0.45594000000E+02  0.51100000000E-03 0. -1.
         23    2    1    2    0    0  0.44408920985E-15 -0.88817841970E-15  0.00000000000E+00  0.91188000000E+02  0.91188000000E+02 0.  0.
    9900012    2    3    3    0    0 -0.30306999301E+01 -0.50872136353E+01 -0.36341645086E+02  0.54367081323E+02  0.39999993492E+02 0.  0.
        -12    1    3    3    0    0  0.30306999301E+01  0.50872136353E+01  0.36341645086E+02  0.36820918677E+02  0.00000000000E+00 0.  1.
         11    1    4    4    0    0 -0.12986731194E+01 -0.69454234661E+01 -0.37160622091E+02  0.37826409999E+02  0.51100000000E-03 0. -1.
        -11    1    4    4    0    0 -0.90635783464E+01  0.14304469950E+01  0.38479776397E+00  0.91838282120E+01  0.51100000000E-03 0.  1.
        -12    1    4    4    0    0  0.73315515357E+01  0.42776283584E+00  0.43417924032E+00  0.73568431121E+01  0.00000000000E+00 0.  1.
</event>
<event>
 8    1  0.1254059E-006  0.9118800E+02  0.7816164E-02  0.1184000E+00
        -11   -1    0    0    0    0  0.00000000000E+00  0.00000000000E+00  0.45593999997E+02  0.45594000000E+02  0.51100000000E-03 0. -1.
         11   -1    0    0    0    0 -0.00000000000E+00 -0.00000000000E+00 -0.45593999997E+02  0.45594000000E+02  0.51100000000E-03 0.  1.
         23    2    1    2    0    0  0.00000000000E+00  0.71054273576E-14  0.35527136788E-14  0.91188000000E+02  0.91188000000E+02 0.  0.
    9900012    2    3    3    0    0  0.21490955165E+02  0.23223141102E+02  0.18831085025E+02  0.54367011423E+02  0.39999834141E+02 0.  0.
        -12    1    3    3    0    0 -0.21490955165E+02 -0.23223141102E+02 -0.18831085025E+02  0.36820988577E+02  0.00000000000E+00 0.  1.
         11    1    4    4    0    0  0.10422268387E+02  0.74549652981E+01  0.89039708202E+00  0.12844959834E+02  0.51100000000E-03 0. -1.
        -11    1    4    4    0    0  0.41931923340E+01 -0.48807362303E+01 -0.62582628854E+01  0.89760961840E+01  0.51100000000E-03 0.  1.
        -12    1    4    4    0    0  0.68754944447E+01  0.20648912034E+02  0.24198950828E+02  0.32545955405E+02  0.00000000000E+00 0.  1.
</event>
<event>
 8    1  0.1254059E-006  0.9118800E+02  0.7816164E-02  0.1184000E+00
        -11   -1    0    0    0    0  0.00000000000E+00  0.00000000000E+00  0.45593999997E+02  0.45594000000E+02  0.51100000000E-03 0.  1.
         11   -1    0    0    0    0 -0.00000000000E+00 -0.00000000000E+00 -0.45593999997E+02  0.45594000000E+02  0.51100000000E-03 0. -1.
         23    2    1    2    0    0  0.00000000000E+00  0.00000000000E+00 -0.39551695252E-15  0.91188000000E+02  0.91188000000E+02 0.  0.
    9900012    2    3    3    0    0  0.30902380438E+02 -0.20020469754E+02 -0.32062432903E-01  0.54367117964E+02  0.40000077022E+02 0.  0.
        -12    1    3    3    0    0 -0.30902380438E+02  0.20020469754E+02  0.32062432903E-01  0.36820882036E+02  0.00000000000E+00 0.  1.
         11    1    4    4    0    0  0.24206336122E+02 -0.51602727703E+01 -0.20530596173E+01  0.24835260771E+02  0.51100000000E-03 0. -1.
        -11    1    4    4    0    0 -0.59242081276E+01 -0.15601763769E+02 -0.23398969175E+00  0.16690297363E+02  0.51100000000E-03 0.  1.
        -12    1    4    4    0    0  0.12620252443E+02  0.74156678470E+00  0.22549868762E+01  0.12841559829E+02  0.00000000000E+00 0.  1.
</event>
<event>
 8    1  0.1254059E-006  0.9118800E+02  0.7816164E-02  0.1184000E+00
        -11   -1    0    0    0    0  0.00000000000E+00  0.00000000000E+00  0.45593999997E+02  0.45594000000E+02  0.51100000000E-03 0. -1.
         11   -1    0    0    0    0 -0.00000000000E+00 -0.00000000000E+00 -0.45593999997E+02  0.45594000000E+02  0.51100000000E-03 0.  1.
         23    2    1    2    0    0  0.00000000000E+00  0.22204460493E-15  0.00000000000E+00  0.91188000000E+02  0.91188000000E+02 0.  0.
    9900012    2    3    3    0    0 -0.35597764809E+02  0.19321560573E+01  0.92111911059E+01  0.54367080294E+02  0.39999991146E+02 0.  0.
        -12    1    3    3    0    0  0.35597764809E+02 -0.19321560573E+01 -0.92111911059E+01  0.36820919706E+02  0.00000000000E+00 0.  1.
         11    1    4    4    0    0  0.13266743805E+00 -0.25353361128E+01  0.62404915448E+01  0.67371555449E+01  0.51100000000E-03 0. -1.
        -11    1    4    4    0    0 -0.49810789371E+01  0.49227296001E+01  0.13430780356E+02  0.15146955976E+02  0.51100000000E-03 0.  1.
         12    1    4    4    0    0 -0.30749353310E+02 -0.45523743001E+00 -0.10460080795E+02  0.32482968773E+02  0.00000000000E+00 0. -1.
</event>
<event>
 8    1  0.1254059E-006  0.9118800E+02  0.7816164E-02  0.1184000E+00
        -11   -1    0    0    0    0  0.00000000000E+00  0.00000000000E+00  0.45593999997E+02  0.45594000000E+02  0.51100000000E-03 0. -1.
         11   -1    0    0    0    0 -0.00000000000E+00 -0.00000000000E+00 -0.45593999997E+02  0.45594000000E+02  0.51100000000E-03 0.  1.
         23    2    1    2    0    0  0.00000000000E+00  0.17763568394E-14  0.00000000000E+00  0.91188000000E+02  0.91188000000E+02 0.  0.
    9900012    2    3    3    0    0 -0.25768621939E+02 -0.66772537519E+01 -0.25439525115E+02  0.54367122330E+02  0.40000086976E+02 0.  0.
         12    1    3    3    0    0  0.25768621939E+02  0.66772537519E+01  0.25439525115E+02  0.36820877670E+02  0.00000000000E+00 0. -1.
         11    1    4    4    0    0  0.37265083703E+00 -0.18167394836E+02 -0.14960814214E+02  0.23537609606E+02  0.51100000000E-03 0. -1.
        -11    1    4    4    0    0 -0.10110812489E+02  0.59951170899E+01 -0.21587897365E+01  0.11951164441E+02  0.51100000000E-03 0.  1.
         12    1    4    4    0    0 -0.16030460288E+02  0.54950239940E+01 -0.83199211640E+01  0.18878348283E+02  0.00000000000E+00 0. -1.
</event>
<event>
 8    1  0.1254059E-006  0.9118800E+02  0.7816164E-02  0.1184000E+00
        -11   -1    0    0    0    0  0.00000000000E+00  0.00000000000E+00  0.45593999997E+02  0.45594000000E+02  0.51100000000E-03 0.  1.
         11   -1    0    0    0    0 -0.00000000000E+00 -0.00000000000E+00 -0.45593999997E+02  0.45594000000E+02  0.51100000000E-03 0. -1.
         23    2    1    2    0    0  0.35527136788E-14  0.00000000000E+00 -0.13322676296E-14  0.91188000000E+02  0.91188000000E+02 0.  0.
    9900012    2    3    3    0    0  0.23128292461E+02  0.28622650812E+02  0.12671644881E+01  0.54367085325E+02  0.40000002615E+02 0.  0.
         12    1    3    3    0    0 -0.23128292461E+02 -0.28622650812E+02 -0.12671644881E+01  0.36820914675E+02  0.00000000000E+00 0. -1.
         11    1    4    4    0    0 -0.35762515128E+01 -0.72801352235E+00  0.66116065971E+01  0.75520143424E+01  0.51100000000E-03 0. -1.
        -11    1    4    4    0    0  0.91757201062E+00  0.18238553853E+02 -0.40536657872E+01  0.18706121769E+02  0.51100000000E-03 0.  1.
         12    1    4    4    0    0  0.25786971963E+02  0.11112110481E+02 -0.12907763218E+01  0.28108949214E+02  0.00000000000E+00 0. -1.
</event>
<event>
 8    1  0.1254059E-006  0.9118800E+02  0.7816164E-02  0.1184000E+00
        -11   -1    0    0    0    0  0.00000000000E+00  0.00000000000E+00  0.45593999997E+02  0.45594000000E+02  0.51100000000E-03 0.  1.
         11   -1    0    0    0    0 -0.00000000000E+00 -0.00000000000E+00 -0.45593999997E+02  0.45594000000E+02  0.51100000000E-03 0. -1.
         23    2    1    2    0    0  0.35527136788E-14  0.35527136788E-14  0.00000000000E+00  0.91188000000E+02  0.91188000000E+02 0.  0.
    9900012    2    3    3    0    0 -0.27083832422E+02 -0.17777390275E+02  0.17498793454E+02  0.54367117936E+02  0.40000076958E+02 0.  0.
        -12    1    3    3    0    0  0.27083832422E+02  0.17777390275E+02 -0.17498793454E+02  0.36820882064E+02  0.00000000000E+00 0.  1.
         11    1    4    4    0    0 -0.17364753195E+02 -0.54472779716E+01  0.12686078480E+02  0.22184320550E+02  0.51100000000E-03 0. -1.
        -11    1    4    4    0    0 -0.15110798676E+02  0.24456277758E+01 -0.11759942599E+01  0.15352533817E+02  0.51100000000E-03 0.  1.
         12    1    4    4    0    0  0.53917194486E+01 -0.14775740079E+02  0.59887092338E+01  0.16830263568E+02  0.00000000000E+00 0. -1.
</event>
<event>
 8    1  0.1254059E-006  0.9118800E+02  0.7816164E-02  0.1184000E+00
        -11   -1    0    0    0    0  0.00000000000E+00  0.00000000000E+00  0.45593999997E+02  0.45594000000E+02  0.51100000000E-03 0.  1.
         11   -1    0    0    0    0 -0.00000000000E+00 -0.00000000000E+00 -0.45593999997E+02  0.45594000000E+02  0.51100000000E-03 0. -1.
         23    2    1    2    0    0  0.00000000000E+00  0.00000000000E+00  0.00000000000E+00  0.91188000000E+02  0.91188000000E+02 0.  0.
    9900012    2    3    3    0    0  0.30785843924E+02  0.48968096822E+01  0.19596986044E+02  0.54366962627E+02  0.39999722900E+02 0.  0.
         12    1    3    3    0    0 -0.30785843924E+02 -0.48968096822E+01 -0.19596986044E+02  0.36821037373E+02  0.00000000000E+00 0. -1.
         11    1    4    4    0    0  0.24875892113E+02 -0.61319330776E+01  0.10072753769E+02  0.27529456596E+02  0.51100000000E-03 0. -1.
        -11    1    4    4    0    0  0.54264436225E+01 -0.54746874610E+01  0.64331865841E+01  0.10040138598E+02  0.51100000000E-03 0.  1.
        -12    1    4    4    0    0  0.48350818852E+00  0.16503430221E+02  0.30910456909E+01  0.16797367433E+02  0.00000000000E+00 0.  1.
</event>
<event>
 8    1  0.1254059E-006  0.9118800E+02  0.7816164E-02  0.1184000E+00
        -11   -1    0    0    0    0  0.00000000000E+00  0.00000000000E+00  0.45593999997E+02  0.45594000000E+02  0.51100000000E-03 0. -1.
         11   -1    0    0    0    0 -0.00000000000E+00 -0.00000000000E+00 -0.45593999997E+02  0.45594000000E+02  0.51100000000E-03 0.  1.
         23    2    1    2    0    0  0.00000000000E+00  0.00000000000E+00 -0.88817841970E-15  0.91188000000E+02  0.91188000000E+02 0.  0.
    9900012    2    3    3    0    0  0.20416699409E+02  0.30603087720E+02  0.15455057759E+01  0.54367093156E+02  0.40000020467E+02 0.  0.
        -12    1    3    3    0    0 -0.20416699409E+02 -0.30603087720E+02 -0.15455057759E+01  0.36820906844E+02  0.00000000000E+00 0.  1.
         11    1    4    4    0    0  0.29131993933E+01  0.92665553010E+01 -0.81640485641E+01  0.12688871781E+02  0.51100000000E-03 0. -1.
        -11    1    4    4    0    0  0.25344395829E+02  0.11224174695E+02  0.60838343947E+01  0.28378399157E+02  0.51100000000E-03 0.  1.
        -12    1    4    4    0    0 -0.78408958140E+01  0.10112357724E+02  0.36257199453E+01  0.13299822218E+02  0.00000000000E+00 0.  1.
</event>
<event>
 8    1  0.1254059E-006  0.9118800E+02  0.7816164E-02  0.1184000E+00
        -11   -1    0    0    0    0  0.00000000000E+00  0.00000000000E+00  0.45593999997E+02  0.45594000000E+02  0.51100000000E-03 0.  1.
         11   -1    0    0    0    0 -0.00000000000E+00 -0.00000000000E+00 -0.45593999997E+02  0.45594000000E+02  0.51100000000E-03 0. -1.
         23    2    1    2    0    0  0.22204460493E-15  0.35527136788E-14  0.00000000000E+00  0.91188000000E+02  0.91188000000E+02 0.  0.
    9900012    2    3    3    0    0 -0.73613137937E+00 -0.23155615301E+02  0.28619138250E+02  0.54367089045E+02  0.40000011097E+02 0.  0.
         12    1    3    3    0    0  0.73613137937E+00  0.23155615301E+02 -0.28619138250E+02  0.36820910955E+02  0.00000000000E+00 0. -1.
         11    1    4    4    0    0  0.10322000335E+02 -0.66996904910E+01  0.14771426828E+01  0.12394010423E+02  0.51100000000E-03 0. -1.
        -11    1    4    4    0    0  0.29160780742E+01 -0.14432086155E+01  0.19988178499E+02  0.20251262736E+02  0.51100000000E-03 0.  1.
         12    1    4    4    0    0 -0.13974209789E+02 -0.15012716195E+02  0.71538170675E+01  0.21721815886E+02  0.00000000000E+00 0. -1.
</event>
<event>
 8    1  0.1254059E-006  0.9118800E+02  0.7816164E-02  0.1184000E+00
        -11   -1    0    0    0    0  0.00000000000E+00  0.00000000000E+00  0.45593999997E+02  0.45594000000E+02  0.51100000000E-03 0. -1.
         11   -1    0    0    0    0 -0.00000000000E+00 -0.00000000000E+00 -0.45593999997E+02  0.45594000000E+02  0.51100000000E-03 0.  1.
         23    2    1    2    0    0 -0.44408920985E-15  0.00000000000E+00 -0.71054273576E-14  0.91188000000E+02  0.91188000000E+02 0.  0.
    9900012    2    3    3    0    0  0.24247237445E+01  0.16977742813E+02  0.32583112915E+02  0.54367051024E+02  0.39999924420E+02 0.  0.
        -12    1    3    3    0    0 -0.24247237445E+01 -0.16977742813E+02 -0.32583112915E+02  0.36820948976E+02  0.00000000000E+00 0.  1.
         11    1    4    4    0    0 -0.53718229973E+01  0.20139408034E+02  0.11046828182E+02  0.23589926906E+02  0.51100000000E-03 0. -1.
        -11    1    4    4    0    0  0.14309813030E+02  0.14004374664E+00  0.11463237473E+02  0.18335653106E+02  0.51100000000E-03 0.  1.
         12    1    4    4    0    0 -0.65132662886E+01 -0.33017089671E+01  0.10073047260E+02  0.12441471012E+02  0.00000000000E+00 0. -1.
</event>
<event>
 8    1  0.1254059E-006  0.9118800E+02  0.7816164E-02  0.1184000E+00
        -11   -1    0    0    0    0  0.00000000000E+00  0.00000000000E+00  0.45593999997E+02  0.45594000000E+02  0.51100000000E-03 0. -1.
         11   -1    0    0    0    0 -0.00000000000E+00 -0.00000000000E+00 -0.45593999997E+02  0.45594000000E+02  0.51100000000E-03 0.  1.
         23    2    1    2    0    0  0.00000000000E+00 -0.35527136788E-14  0.00000000000E+00  0.91188000000E+02  0.91188000000E+02 0.  0.
    9900012    2    3    3    0    0  0.57640156893E+01  0.19567007899E+02  0.30654500614E+02  0.54366945114E+02  0.39999682976E+02 0.  0.
        -12    1    3    3    0    0 -0.57640156893E+01 -0.19567007899E+02 -0.30654500614E+02  0.36821054886E+02  0.00000000000E+00 0.  1.
         11    1    4    4    0    0  0.12216174128E+02  0.25570395848E+02  0.31767583805E+02  0.42570640531E+02  0.51100000000E-03 0. -1.
        -11    1    4    4    0    0 -0.19614024095E+01 -0.47107460330E+01  0.26926068433E+01  0.57696065268E+01  0.51100000000E-03 0.  1.
         12    1    4    4    0    0 -0.44907560292E+01 -0.12926419152E+01 -0.38056900340E+01  0.60266980570E+01  0.00000000000E+00 0. -1.
</event>
<event>
 8    1  0.1254059E-006  0.9118800E+02  0.7816164E-02  0.1184000E+00
        -11   -1    0    0    0    0  0.00000000000E+00  0.00000000000E+00  0.45593999997E+02  0.45594000000E+02  0.51100000000E-03 0.  1.
         11   -1    0    0    0    0 -0.00000000000E+00 -0.00000000000E+00 -0.45593999997E+02  0.45594000000E+02  0.51100000000E-03 0. -1.
         23    2    1    2    0    0  0.00000000000E+00  0.00000000000E+00 -0.35527136788E-14  0.91188000000E+02  0.91188000000E+02 0.  0.
    9900012    2    3    3    0    0 -0.30925857476E+02  0.16217189109E+02  0.11677945261E+02  0.54367078111E+02  0.39999986170E+02 0.  0.
         12    1    3    3    0    0  0.30925857476E+02 -0.16217189109E+02 -0.11677945261E+02  0.36820921889E+02  0.00000000000E+00 0. -1.
         11    1    4    4    0    0 -0.11444957631E+02  0.80275151644E+01  0.49569676563E+01  0.14832382934E+02  0.51100000000E-03 0. -1.
        -11    1    4    4    0    0 -0.80436444040E+01 -0.32178024001E+01  0.17902563920E+02  0.19888596300E+02  0.51100000000E-03 0.  1.
         12    1    4    4    0    0 -0.11437255441E+02  0.11407476345E+02 -0.11181586315E+02  0.19646098878E+02  0.00000000000E+00 0. -1.
</event>
<event>
 8    1  0.1254059E-006  0.9118800E+02  0.7816164E-02  0.1184000E+00
        -11   -1    0    0    0    0  0.00000000000E+00  0.00000000000E+00  0.45593999997E+02  0.45594000000E+02  0.51100000000E-03 0. -1.
         11   -1    0    0    0    0 -0.00000000000E+00 -0.00000000000E+00 -0.45593999997E+02  0.45594000000E+02  0.51100000000E-03 0.  1.
         23    2    1    2    0    0 -0.35527136788E-14 -0.13600232052E-14  0.00000000000E+00  0.91188000000E+02  0.91188000000E+02 0.  0.
    9900012    2    3    3    0    0 -0.31255580116E+02  0.15353693995E+00 -0.19463943025E+02  0.54367082847E+02  0.39999996965E+02 0.  0.
         12    1    3    3    0    0  0.31255580116E+02 -0.15353693995E+00  0.19463943025E+02  0.36820917153E+02  0.00000000000E+00 0. -1.
         11    1    4    4    0    0 -0.19745314990E+02 -0.16018177265E+02 -0.22174510757E+02  0.33736751392E+02  0.51100000000E-03 0. -1.
        -11    1    4    4    0    0 -0.31659135505E+01  0.19770418758E+01 -0.74466105492E+00  0.38060771847E+01  0.51100000000E-03 0.  1.
         12    1    4    4    0    0 -0.83443515755E+01  0.14194672329E+02  0.34552287877E+01  0.16824254269E+02  0.00000000000E+00 0. -1.
</event>
<event>
 8    1  0.1254059E-006  0.9118800E+02  0.7816164E-02  0.1184000E+00
        -11   -1    0    0    0    0  0.00000000000E+00  0.00000000000E+00  0.45593999997E+02  0.45594000000E+02  0.51100000000E-03 0. -1.
         11   -1    0    0    0    0 -0.00000000000E+00 -0.00000000000E+00 -0.45593999997E+02  0.45594000000E+02  0.51100000000E-03 0.  1.
         23    2    1    2    0    0  0.00000000000E+00  0.00000000000E+00  0.00000000000E+00  0.91188000000E+02  0.91188000000E+02 0.  0.
    9900012    2    3    3    0    0 -0.20744455619E+01 -0.23932105333E+01 -0.36684426381E+02  0.54367110278E+02  0.40000059500E+02 0.  0.
         12    1    3    3    0    0  0.20744455619E+01  0.23932105333E+01  0.36684426381E+02  0.36820889722E+02  0.00000000000E+00 0. -1.
         11    1    4    4    0    0  0.17582960490E+01 -0.14488480061E+02 -0.44506851020E-01  0.14594849796E+02  0.51100000000E-03 0. -1.
        -11    1    4    4    0    0 -0.66010543112E+01  0.86935839686E+01 -0.28628568169E+02  0.30638982293E+02  0.51100000000E-03 0.  1.
        -12    1    4    4    0    0  0.27683127003E+01  0.34016855586E+01 -0.80113513607E+01  0.91332781886E+01  0.00000000000E+00 0.  1.
</event>
<event>
 8    1  0.1254059E-006  0.9118800E+02  0.7816164E-02  0.1184000E+00
        -11   -1    0    0    0    0  0.00000000000E+00  0.00000000000E+00  0.45593999997E+02  0.45594000000E+02  0.51100000000E-03 0.  1.
         11   -1    0    0    0    0 -0.00000000000E+00 -0.00000000000E+00 -0.45593999997E+02  0.45594000000E+02  0.51100000000E-03 0. -1.
         23    2    1    2    0    0 -0.71054273576E-14  0.00000000000E+00  0.17763568394E-14  0.91188000000E+02  0.91188000000E+02 0.  0.
    9900012    2    3    3    0    0  0.33582812456E+02  0.12053273767E+02  0.90937660447E+01  0.54367037467E+02  0.39999893514E+02 0.  0.
         12    1    3    3    0    0 -0.33582812456E+02 -0.12053273767E+02 -0.90937660447E+01  0.36820962533E+02  0.00000000000E+00 0. -1.
         11    1    4    4    0    0  0.52157421966E+01  0.14641212893E+00 -0.68398495560E+01  0.86028451912E+01  0.51100000000E-03 0. -1.
        -11    1    4    4    0    0  0.18630006295E+02  0.62313372516E+01 -0.64723986714E+01  0.20683293822E+02  0.51100000000E-03 0.  1.
        -12    1    4    4    0    0  0.97370639647E+01  0.56755243862E+01  0.22406014272E+02  0.25080898454E+02  0.00000000000E+00 0.  1.
</event>
<event>
 8    1  0.1254059E-006  0.9118800E+02  0.7816164E-02  0.1184000E+00
        -11   -1    0    0    0    0  0.00000000000E+00  0.00000000000E+00  0.45593999997E+02  0.45594000000E+02  0.51100000000E-03 0. -1.
         11   -1    0    0    0    0 -0.00000000000E+00 -0.00000000000E+00 -0.45593999997E+02  0.45594000000E+02  0.51100000000E-03 0.  1.
         23    2    1    2    0    0  0.00000000000E+00 -0.35527136788E-14  0.00000000000E+00  0.91188000000E+02  0.91188000000E+02 0.  0.
    9900012    2    3    3    0    0 -0.12944153595E+02  0.28318849907E+02  0.19653733954E+02  0.54367114205E+02  0.40000068453E+02 0.  0.
         12    1    3    3    0    0  0.12944153595E+02 -0.28318849907E+02 -0.19653733954E+02  0.36820885795E+02  0.00000000000E+00 0. -1.
         11    1    4    4    0    0 -0.10792952390E+02  0.11963340820E+02  0.21183733663E+02  0.26615031787E+02  0.51100000000E-03 0. -1.
        -11    1    4    4    0    0  0.73052857094E+00  0.16020489475E+02  0.79061163122E+01  0.17880056779E+02  0.51100000000E-03 0.  1.
        -12    1    4    4    0    0 -0.28817297765E+01  0.33501961220E+00 -0.94361160211E+01  0.98720256386E+01  0.00000000000E+00 0.  1.
</event>
<event>
 8    1  0.1254059E-006  0.9118800E+02  0.7816164E-02  0.1184000E+00
        -11   -1    0    0    0    0  0.00000000000E+00  0.00000000000E+00  0.45593999997E+02  0.45594000000E+02  0.51100000000E-03 0. -1.
         11   -1    0    0    0    0 -0.00000000000E+00 -0.00000000000E+00 -0.45593999997E+02  0.45594000000E+02  0.51100000000E-03 0.  1.
         23    2    1    2    0    0  0.17763568394E-14 -0.71054273576E-14  0.00000000000E+00  0.91188000000E+02  0.91188000000E+02 0.  0.
    9900012    2    3    3    0    0 -0.10763846455E+02  0.34473850178E+02 -0.71745107403E+01  0.54367077403E+02  0.39999984555E+02 0.  0.
         12    1    3    3    0    0  0.10763846455E+02 -0.34473850178E+02  0.71745107403E+01  0.36820922597E+02  0.00000000000E+00 0. -1.
         11    1    4    4    0    0 -0.50411915367E+01  0.23947529844E+02  0.88634509460E+01  0.26028034130E+02  0.51100000000E-03 0. -1.
        -11    1    4    4    0    0  0.70637437431E+01  0.69436233257E+01 -0.86083583836E+01  0.13123041373E+02  0.51100000000E-03 0.  1.
        -12    1    4    4    0    0 -0.12786398661E+02  0.35826970079E+01 -0.74296033027E+01  0.15216001900E+02  0.00000000000E+00 0.  1.
</event>
<event>
 8    1  0.1254059E-006  0.9118800E+02  0.7816164E-02  0.1184000E+00
        -11   -1    0    0    0    0  0.00000000000E+00  0.00000000000E+00  0.45593999997E+02  0.45594000000E+02  0.51100000000E-03 0.  1.
         11   -1    0    0    0    0 -0.00000000000E+00 -0.00000000000E+00 -0.45593999997E+02  0.45594000000E+02  0.51100000000E-03 0. -1.
         23    2    1    2    0    0  0.17763568394E-14  0.00000000000E+00  0.00000000000E+00  0.91188000000E+02  0.91188000000E+02 0.  0.
    9900012    2    3    3    0    0  0.13386903578E+02  0.27301689595E+02 -0.20765072292E+02  0.54367086521E+02  0.40000005342E+02 0.  0.
        -12    1    3    3    0    0 -0.13386903578E+02 -0.27301689595E+02  0.20765072292E+02  0.36820913479E+02  0.00000000000E+00 0.  1.
         11    1    4    4    0    0 -0.65876047176E+00  0.55781655293E+01  0.24274728370E+01  0.61190293893E+01  0.51100000000E-03 0. -1.
        -11    1    4    4    0    0  0.49787393120E+01  0.22138124050E+02  0.68730136799E+00  0.22701470548E+02  0.51100000000E-03 0.  1.
         12    1    4    4    0    0  0.90669247373E+01 -0.41459998505E+00 -0.23879846497E+02  0.25546586584E+02  0.00000000000E+00 0. -1.
</event>
<event>
 8    1  0.1254059E-006  0.9118800E+02  0.7816164E-02  0.1184000E+00
        -11   -1    0    0    0    0  0.00000000000E+00  0.00000000000E+00  0.45593999997E+02  0.45594000000E+02  0.51100000000E-03 0.  1.
         11   -1    0    0    0    0 -0.00000000000E+00 -0.00000000000E+00 -0.45593999997E+02  0.45594000000E+02  0.51100000000E-03 0. -1.
         23    2    1    2    0    0  0.00000000000E+00 -0.71054273576E-14 -0.17763568394E-14  0.91188000000E+02  0.91188000000E+02 0.  0.
    9900012    2    3    3    0    0  0.43148331577E+01  0.35281787831E+02  0.96102385081E+01  0.54367095314E+02  0.40000025388E+02 0.  0.
        -12    1    3    3    0    0 -0.43148331577E+01 -0.35281787831E+02 -0.96102385081E+01  0.36820904686E+02  0.00000000000E+00 0.  1.
         11    1    4    4    0    0 -0.86686296566E+00  0.18550941194E+02  0.12214691013E+02  0.22228080155E+02  0.51100000000E-03 0. -1.
        -11    1    4    4    0    0 -0.10654413104E+02  0.10047504810E+02  0.58738780750E+00  0.14656530838E+02  0.51100000000E-03 0.  1.
         12    1    4    4    0    0  0.15836109228E+02  0.66833418266E+01 -0.31918403129E+01  0.17482484321E+02  0.00000000000E+00 0. -1.
</event>
<event>
 8    1  0.1254059E-006  0.9118800E+02  0.7816164E-02  0.1184000E+00
        -11   -1    0    0    0    0  0.00000000000E+00  0.00000000000E+00  0.45593999997E+02  0.45594000000E+02  0.51100000000E-03 0. -1.
         11   -1    0    0    0    0 -0.00000000000E+00 -0.00000000000E+00 -0.45593999997E+02  0.45594000000E+02  0.51100000000E-03 0.  1.
         23    2    1    2    0    0  0.00000000000E+00  0.00000000000E+00 -0.35527136788E-14  0.91188000000E+02  0.91188000000E+02 0.  0.
    9900012    2    3    3    0    0 -0.22248973226E+02  0.28929616119E+02  0.48826057917E+01  0.54367091025E+02  0.40000015610E+02 0.  0.
        -12    1    3    3    0    0  0.22248973226E+02 -0.28929616119E+02 -0.48826057917E+01  0.36820908975E+02  0.00000000000E+00 0.  1.
         11    1    4    4    0    0 -0.11208507226E+02  0.13217722638E+02 -0.11320197329E+02  0.20699895985E+02  0.51100000000E-03 0.  1.
        -11    1    4    4    0    0 -0.15638806047E+02  0.73576704517E+01  0.32555380452E+01  0.17587100309E+02  0.51100000000E-03 0. -1.
         12    1    4    4    0    0  0.45983400469E+01  0.83542230294E+01  0.12947265076E+02  0.16080094731E+02  0.00000000000E+00 0. -1.
</event>
<event>
 8    1  0.1254059E-006  0.9118800E+02  0.7816164E-02  0.1184000E+00
        -11   -1    0    0    0    0  0.00000000000E+00  0.00000000000E+00  0.45593999997E+02  0.45594000000E+02  0.51100000000E-03 0. -1.
         11   -1    0    0    0    0 -0.00000000000E+00 -0.00000000000E+00 -0.45593999997E+02  0.45594000000E+02  0.51100000000E-03 0.  1.
         23    2    1    2    0    0  0.00000000000E+00  0.00000000000E+00  0.00000000000E+00  0.91188000000E+02  0.91188000000E+02 0.  0.
    9900012    2    3    3    0    0 -0.86847539866E+01  0.24969328465E+02  0.25629537920E+02  0.54367278527E+02  0.40000443057E+02 0.  0.
        -12    1    3    3    0    0  0.86847539866E+01 -0.24969328465E+02 -0.25629537920E+02  0.36820721473E+02  0.00000000000E+00 0.  1.
         11    1    4    4    0    0 -0.16847890311E+02  0.10084700432E+02 -0.20690933528E+01  0.19744207715E+02  0.51100000000E-03 0. -1.
        -11    1    4    4    0    0 -0.91212596001E-01  0.69395463067E+01  0.33344435332E+01  0.76996192515E+01  0.51100000000E-03 0.  1.
         12    1    4    4    0    0  0.82543489209E+01  0.79450817261E+01  0.24364187739E+02  0.26923451560E+02  0.00000000000E+00 0. -1.
</event>
<event>
 8    1  0.1254059E-006  0.9118800E+02  0.7816164E-02  0.1184000E+00
        -11   -1    0    0    0    0  0.00000000000E+00  0.00000000000E+00  0.45593999997E+02  0.45594000000E+02  0.51100000000E-03 0. -1.
         11   -1    0    0    0    0 -0.00000000000E+00 -0.00000000000E+00 -0.45593999997E+02  0.45594000000E+02  0.51100000000E-03 0.  1.
         23    2    1    2    0    0 -0.31086244690E-14  0.00000000000E+00  0.00000000000E+00  0.91188000000E+02  0.91188000000E+02 0.  0.
    9900012    2    3    3    0    0 -0.26187342995E+01 -0.33463937358E+02  0.15135632514E+02  0.54367078713E+02  0.39999987542E+02 0.  0.
         12    1    3    3    0    0  0.26187342995E+01  0.33463937358E+02 -0.15135632514E+02  0.36820921287E+02  0.00000000000E+00 0. -1.
         11    1    4    4    0    0  0.13586744658E+02 -0.10593030466E+02 -0.60009195108E+00  0.17238678472E+02  0.51100000000E-03 0. -1.
        -11    1    4    4    0    0  0.31326363493E+01 -0.83871089149E+01  0.14774248231E+01  0.90741275513E+01  0.51100000000E-03 0.  1.
         12    1    4    4    0    0 -0.19338115307E+02 -0.14483797977E+02  0.14258299642E+02  0.28054272689E+02  0.00000000000E+00 0. -1.
</event>
<event>
 8    1  0.1254059E-006  0.9118800E+02  0.7816164E-02  0.1184000E+00
        -11   -1    0    0    0    0  0.00000000000E+00  0.00000000000E+00  0.45593999997E+02  0.45594000000E+02  0.51100000000E-03 0. -1.
         11   -1    0    0    0    0 -0.00000000000E+00 -0.00000000000E+00 -0.45593999997E+02  0.45594000000E+02  0.51100000000E-03 0.  1.
         23    2    1    2    0    0  0.00000000000E+00  0.17763568394E-14  0.35527136788E-14  0.91188000000E+02  0.91188000000E+02 0.  0.
    9900012    2    3    3    0    0  0.24303576775E+02  0.10235641351E+02  0.25697411331E+02  0.54366957823E+02  0.39999711948E+02 0.  0.
        -12    1    3    3    0    0 -0.24303576775E+02 -0.10235641351E+02 -0.25697411331E+02  0.36821042177E+02  0.00000000000E+00 0.  1.
         11    1    4    4    0    0  0.68820379664E+01 -0.18814549808E+01  0.23256824992E+01  0.75040734780E+01  0.51100000000E-03 0. -1.
        -11    1    4    4    0    0  0.24056639973E+02 -0.28139138278E+01  0.12708354645E+02  0.27352190331E+02  0.51100000000E-03 0.  1.
         12    1    4    4    0    0 -0.66351011654E+01  0.14931010160E+02  0.10663374186E+02  0.19510694014E+02  0.00000000000E+00 0. -1.
</event>
<event>
 8    1  0.1254059E-006  0.9118800E+02  0.7816164E-02  0.1184000E+00
        -11   -1    0    0    0    0  0.00000000000E+00  0.00000000000E+00  0.45593999997E+02  0.45594000000E+02  0.51100000000E-03 0.  1.
         11   -1    0    0    0    0 -0.00000000000E+00 -0.00000000000E+00 -0.45593999997E+02  0.45594000000E+02  0.51100000000E-03 0. -1.
         23    2    1    2    0    0  0.00000000000E+00  0.88817841970E-15  0.00000000000E+00  0.91188000000E+02  0.91188000000E+02 0.  0.
    9900012    2    3    3    0    0 -0.25469236451E+02  0.29382373013E+01 -0.26428475826E+02  0.54367087758E+02  0.40000008162E+02 0.  0.
        -12    1    3    3    0    0  0.25469236451E+02 -0.29382373013E+01  0.26428475826E+02  0.36820912242E+02  0.00000000000E+00 0.  1.
         11    1    4    4    0    0 -0.19637019575E+02  0.20447766053E+02 -0.15794022564E+02  0.32452655105E+02  0.51100000000E-03 0. -1.
        -11    1    4    4    0    0 -0.17463658702E+01 -0.65928236074E+01 -0.68321604910E+01  0.96536798221E+01  0.51100000000E-03 0.  1.
         12    1    4    4    0    0 -0.40858510059E+01 -0.10916705145E+02 -0.38022927714E+01  0.12260752831E+02  0.00000000000E+00 0. -1.
</event>
<event>
 8    1  0.1254059E-006  0.9118800E+02  0.7816164E-02  0.1184000E+00
        -11   -1    0    0    0    0  0.00000000000E+00  0.00000000000E+00  0.45593999997E+02  0.45594000000E+02  0.51100000000E-03 0. -1.
         11   -1    0    0    0    0 -0.00000000000E+00 -0.00000000000E+00 -0.45593999997E+02  0.45594000000E+02  0.51100000000E-03 0.  1.
         23    2    1    2    0    0 -0.88817841970E-15  0.00000000000E+00 -0.17763568394E-14  0.91188000000E+02  0.91188000000E+02 0.  0.
    9900012    2    3    3    0    0  0.40551182649E+01 -0.35532039749E+02 -0.87641259809E+01  0.54367085603E+02  0.40000003248E+02 0.  0.
         12    1    3    3    0    0 -0.40551182649E+01  0.35532039749E+02  0.87641259809E+01  0.36820914397E+02  0.00000000000E+00 0. -1.
         11    1    4    4    0    0  0.73534050122E+01 -0.24784551609E+02 -0.65673507811E+00  0.25860739838E+02  0.51100000000E-03 0. -1.
        -11    1    4    4    0    0  0.71749837181E+01 -0.85372548949E+01  0.44491007276E+01  0.12006648577E+02  0.51100000000E-03 0.  1.
        -12    1    4    4    0    0 -0.10473270465E+02 -0.22102332449E+01 -0.12556491630E+02  0.16499697188E+02  0.00000000000E+00 0.  1.
</event>
<event>
 8    1  0.1254059E-006  0.9118800E+02  0.7816164E-02  0.1184000E+00
        -11   -1    0    0    0    0  0.00000000000E+00  0.00000000000E+00  0.45593999997E+02  0.45594000000E+02  0.51100000000E-03 0. -1.
         11   -1    0    0    0    0 -0.00000000000E+00 -0.00000000000E+00 -0.45593999997E+02  0.45594000000E+02  0.51100000000E-03 0.  1.
         23    2    1    2    0    0  0.00000000000E+00 -0.26645352591E-14  0.35527136788E-14  0.91188000000E+02  0.91188000000E+02 0.  0.
    9900012    2    3    3    0    0 -0.19617843916E+02  0.77640343047E+01 -0.30176799252E+02  0.54367092329E+02  0.40000018582E+02 0.  0.
         12    1    3    3    0    0  0.19617843916E+02 -0.77640343047E+01  0.30176799252E+02  0.36820907671E+02  0.00000000000E+00 0. -1.
         11    1    4    4    0    0 -0.48340936544E+01  0.13180745243E+02 -0.28956498022E+02  0.32180417719E+02  0.51100000000E-03 0. -1.
        -11    1    4    4    0    0 -0.13043479868E+02 -0.22712072824E+01 -0.73035888592E+01  0.15120620360E+02  0.51100000000E-03 0.  1.
        -12    1    4    4    0    0 -0.17402703937E+01 -0.31455036556E+01  0.60832876288E+01  0.70660542501E+01  0.00000000000E+00 0.  1.
</event>
<event>
 8    1  0.1254059E-006  0.9118800E+02  0.7816164E-02  0.1184000E+00
        -11   -1    0    0    0    0  0.00000000000E+00  0.00000000000E+00  0.45593999997E+02  0.45594000000E+02  0.51100000000E-03 0. -1.
         11   -1    0    0    0    0 -0.00000000000E+00 -0.00000000000E+00 -0.45593999997E+02  0.45594000000E+02  0.51100000000E-03 0.  1.
         23    2    1    2    0    0  0.00000000000E+00  0.35527136788E-14  0.00000000000E+00  0.91188000000E+02  0.91188000000E+02 0.  0.
    9900012    2    3    3    0    0 -0.24167200422E+02  0.17537383715E+02  0.21544516465E+02  0.54367087552E+02  0.40000007692E+02 0.  0.
        -12    1    3    3    0    0  0.24167200422E+02 -0.17537383715E+02 -0.21544516465E+02  0.36820912448E+02  0.00000000000E+00 0.  1.
         11    1    4    4    0    0 -0.20888657022E+02  0.92701228636E+01  0.23058627598E+00  0.22854416211E+02  0.51100000000E-03 0. -1.
        -11    1    4    4    0    0  0.34807885296E+01 -0.26633690233E+01 -0.20567223967E+01  0.48414388998E+01  0.51100000000E-03 0.  1.
         12    1    4    4    0    0 -0.67593319300E+01  0.10930629875E+02  0.23370652586E+02  0.26671232441E+02  0.00000000000E+00 0. -1.
</event>
<event>
 8    1  0.1254059E-006  0.9118800E+02  0.7816164E-02  0.1184000E+00
        -11   -1    0    0    0    0  0.00000000000E+00  0.00000000000E+00  0.45593999997E+02  0.45594000000E+02  0.51100000000E-03 0.  1.
         11   -1    0    0    0    0 -0.00000000000E+00 -0.00000000000E+00 -0.45593999997E+02  0.45594000000E+02  0.51100000000E-03 0. -1.
         23    2    1    2    0    0  0.35527136788E-14  0.17763568394E-14  0.35527136788E-14  0.91188000000E+02  0.91188000000E+02 0.  0.
    9900012    2    3    3    0    0 -0.18439336226E+02  0.13422158571E+02 -0.28907048103E+02  0.54367069931E+02  0.39999967521E+02 0.  0.
        -12    1    3    3    0    0  0.18439336226E+02 -0.13422158571E+02  0.28907048103E+02  0.36820930069E+02  0.00000000000E+00 0.  1.
         11    1    4    4    0    0 -0.12499143081E+01  0.11356084720E+02 -0.44173435541E+01  0.12248913024E+02  0.51100000000E-03 0. -1.
        -11    1    4    4    0    0  0.63851170372E+01 -0.50791818284E+01 -0.11968590073E+02  0.14484990722E+02  0.51100000000E-03 0.  1.
        -12    1    4    4    0    0 -0.23574538955E+02  0.71452556796E+01 -0.12521114476E+02  0.27633166185E+02  0.00000000000E+00 0.  1.
</event>
<event>
 8    1  0.1254059E-006  0.9118800E+02  0.7816164E-02  0.1184000E+00
        -11   -1    0    0    0    0  0.00000000000E+00  0.00000000000E+00  0.45593999997E+02  0.45594000000E+02  0.51100000000E-03 0. -1.
         11   -1    0    0    0    0 -0.00000000000E+00 -0.00000000000E+00 -0.45593999997E+02  0.45594000000E+02  0.51100000000E-03 0.  1.
         23    2    1    2    0    0  0.00000000000E+00  0.35527136788E-14 -0.88817841970E-15  0.91188000000E+02  0.91188000000E+02 0.  0.
    9900012    2    3    3    0    0 -0.30162809084E+02  0.20823302266E+02 -0.35176364489E+01  0.54367099206E+02  0.40000034260E+02 0.  0.
        -12    1    3    3    0    0  0.30162809084E+02 -0.20823302266E+02  0.35176364489E+01  0.36820900794E+02  0.00000000000E+00 0.  1.
         11    1    4    4    0    0 -0.61813187751E+00 -0.33962878639E+01  0.69056848768E+00  0.35204748784E+01  0.51100000000E-03 0. -1.
        -11    1    4    4    0    0 -0.90871162887E+01  0.17519188803E+02 -0.16790967324E+02  0.25912048215E+02  0.51100000000E-03 0.  1.
        -12    1    4    4    0    0 -0.20457560918E+02  0.67004013262E+01  0.12582762387E+02  0.24934576113E+02  0.00000000000E+00 0.  1.
</event>
<event>
 8    1  0.1254059E-006  0.9118800E+02  0.7816164E-02  0.1184000E+00
        -11   -1    0    0    0    0  0.00000000000E+00  0.00000000000E+00  0.45593999997E+02  0.45594000000E+02  0.51100000000E-03 0.  1.
         11   -1    0    0    0    0 -0.00000000000E+00 -0.00000000000E+00 -0.45593999997E+02  0.45594000000E+02  0.51100000000E-03 0. -1.
         23    2    1    2    0    0  0.00000000000E+00 -0.88817841970E-15  0.00000000000E+00  0.91188000000E+02  0.91188000000E+02 0.  0.
    9900012    2    3    3    0    0  0.18636953620E+02 -0.28068200319E+01  0.31631719600E+02  0.54367082524E+02  0.39999996229E+02 0.  0.
         12    1    3    3    0    0 -0.18636953620E+02  0.28068200319E+01 -0.31631719600E+02  0.36820917476E+02  0.00000000000E+00 0. -1.
         11    1    4    4    0    0  0.88577737153E+01 -0.71751289956E+01  0.81028435767E-03  0.11399238230E+02  0.51100000000E-03 0. -1.
        -11    1    4    4    0    0  0.14976085345E+02  0.64866233651E+01  0.33324047554E+02  0.37105950474E+02  0.51100000000E-03 0.  1.
        -12    1    4    4    0    0 -0.51969054405E+01 -0.21183144014E+01 -0.16931382385E+01  0.58618938198E+01  0.00000000000E+00 0.  1.
</event>
<event>
 8    1  0.1254059E-006  0.9118800E+02  0.7816164E-02  0.1184000E+00
        -11   -1    0    0    0    0  0.00000000000E+00  0.00000000000E+00  0.45593999997E+02  0.45594000000E+02  0.51100000000E-03 0.  1.
         11   -1    0    0    0    0 -0.00000000000E+00 -0.00000000000E+00 -0.45593999997E+02  0.45594000000E+02  0.51100000000E-03 0. -1.
         23    2    1    2    0    0  0.88817841970E-15 -0.71054273576E-14  0.00000000000E+00  0.91188000000E+02  0.91188000000E+02 0.  0.
    9900012    2    3    3    0    0 -0.35796903245E+01  0.31556063427E+02  0.18632794738E+02  0.54367077122E+02  0.39999983916E+02 0.  0.
        -12    1    3    3    0    0  0.35796903245E+01 -0.31556063427E+02 -0.18632794738E+02  0.36820922878E+02  0.00000000000E+00 0.  1.
         11    1    4    4    0    0  0.64592635881E+01  0.29870566494E+00 -0.63083165863E+01  0.90336133186E+01  0.51100000000E-03 0. -1.
        -11    1    4    4    0    0 -0.41318437365E+00 -0.25366202175E+01  0.76424577822E+00  0.26812749440E+01  0.51100000000E-03 0.  1.
        -12    1    4    4    0    0 -0.96257695390E+01  0.33793977980E+02  0.24176865546E+02  0.42652188860E+02  0.00000000000E+00 0.  1.
</event>
<event>
 8    1  0.1254059E-006  0.9118800E+02  0.7816164E-02  0.1184000E+00
        -11   -1    0    0    0    0  0.00000000000E+00  0.00000000000E+00  0.45593999997E+02  0.45594000000E+02  0.51100000000E-03 0. -1.
         11   -1    0    0    0    0 -0.00000000000E+00 -0.00000000000E+00 -0.45593999997E+02  0.45594000000E+02  0.51100000000E-03 0.  1.
         23    2    1    2    0    0  0.88817841970E-15  0.17763568394E-14  0.00000000000E+00  0.91188000000E+02  0.91188000000E+02 0.  0.
    9900012    2    3    3    0    0 -0.63069206943E+01  0.55861702646E+01 -0.35844056677E+02  0.54367096346E+02  0.40000027740E+02 0.  0.
         12    1    3    3    0    0  0.63069206943E+01 -0.55861702646E+01  0.35844056677E+02  0.36820903654E+02  0.00000000000E+00 0. -1.
         11    1    4    4    0    0 -0.85620224791E+01  0.10592046720E+01 -0.45980744582E+00  0.86395350927E+01  0.51100000000E-03 0. -1.
        -11    1    4    4    0    0  0.48519607078E+00  0.15708339008E+02 -0.12089872558E+02  0.19828069708E+02  0.51100000000E-03 0.  1.
        -12    1    4    4    0    0  0.17699057140E+01 -0.11181373416E+02 -0.23294376673E+02  0.25899491545E+02  0.00000000000E+00 0.  1.
</event>
<event>
 8    1  0.1254059E-006  0.9118800E+02  0.7816164E-02  0.1184000E+00
        -11   -1    0    0    0    0  0.00000000000E+00  0.00000000000E+00  0.45593999997E+02  0.45594000000E+02  0.51100000000E-03 0. -1.
         11   -1    0    0    0    0 -0.00000000000E+00 -0.00000000000E+00 -0.45593999997E+02  0.45594000000E+02  0.51100000000E-03 0.  1.
         23    2    1    2    0    0  0.17763568394E-14  0.00000000000E+00  0.00000000000E+00  0.91188000000E+02  0.91188000000E+02 0.  0.
    9900012    2    3    3    0    0 -0.11994096215E+02  0.21015733118E+02 -0.27753574631E+02  0.54367078130E+02  0.39999986214E+02 0.  0.
         12    1    3    3    0    0  0.11994096215E+02 -0.21015733118E+02  0.27753574631E+02  0.36820921870E+02  0.00000000000E+00 0. -1.
         11    1    4    4    0    0 -0.11394617548E+02  0.10537874371E+01 -0.77789422310E+01  0.13836897034E+02  0.51100000000E-03 0. -1.
        -11    1    4    4    0    0 -0.14729600982E+02  0.12264573293E+02 -0.11299154713E+02  0.22249759564E+02  0.51100000000E-03 0.  1.
         12    1    4    4    0    0  0.14130122315E+02  0.76973723881E+01 -0.86754776874E+01  0.18280421533E+02  0.00000000000E+00 0. -1.
</event>
<event>
 8    1  0.1254059E-006  0.9118800E+02  0.7816164E-02  0.1184000E+00
        -11   -1    0    0    0    0  0.00000000000E+00  0.00000000000E+00  0.45593999997E+02  0.45594000000E+02  0.51100000000E-03 0. -1.
         11   -1    0    0    0    0 -0.00000000000E+00 -0.00000000000E+00 -0.45593999997E+02  0.45594000000E+02  0.51100000000E-03 0.  1.
         23    2    1    2    0    0  0.00000000000E+00 -0.35527136788E-14  0.35527136788E-14  0.91188000000E+02  0.91188000000E+02 0.  0.
    9900012    2    3    3    0    0  0.19148692854E+02 -0.27975646690E+02  0.14369074078E+02  0.54367088339E+02  0.40000009485E+02 0.  0.
        -12    1    3    3    0    0 -0.19148692854E+02  0.27975646690E+02 -0.14369074078E+02  0.36820911661E+02  0.00000000000E+00 0.  1.
         11    1    4    4    0    0 -0.44932941831E+01  0.18394888752E+01  0.52944060356E+01  0.71836026803E+01  0.51100000000E-03 0.  1.
        -11    1    4    4    0    0  0.92990005601E+01 -0.58835072163E-01 -0.57963088897E+01  0.10957740186E+02  0.51100000000E-03 0. -1.
         12    1    4    4    0    0  0.14342986477E+02 -0.29756300493E+02  0.14870976932E+02  0.36225745472E+02  0.00000000000E+00 0. -1.
</event>
<event>
 8    1  0.1254059E-006  0.9118800E+02  0.7816164E-02  0.1184000E+00
        -11   -1    0    0    0    0  0.00000000000E+00  0.00000000000E+00  0.45593999997E+02  0.45594000000E+02  0.51100000000E-03 0.  1.
         11   -1    0    0    0    0 -0.00000000000E+00 -0.00000000000E+00 -0.45593999997E+02  0.45594000000E+02  0.51100000000E-03 0. -1.
         23    2    1    2    0    0  0.00000000000E+00  0.44408920985E-15  0.00000000000E+00  0.91188000000E+02  0.91188000000E+02 0.  0.
    9900012    2    3    3    0    0  0.32305752324E+02 -0.38051995037E+01 -0.17252179664E+02  0.54367097245E+02  0.40000029790E+02 0.  0.
        -12    1    3    3    0    0 -0.32305752324E+02  0.38051995037E+01  0.17252179664E+02  0.36820902755E+02  0.00000000000E+00 0.  1.
         11    1    4    4    0    0  0.11637758346E+02  0.99378993224E+00  0.13260373591E+01  0.11755144111E+02  0.51100000000E-03 0. -1.
        -11    1    4    4    0    0  0.44895991511E+01 -0.13926666750E+02  0.21373095389E+01  0.14787719217E+02  0.51100000000E-03 0.  1.
         12    1    4    4    0    0  0.16178394828E+02  0.91276773140E+01 -0.20715526562E+02  0.27824233918E+02  0.00000000000E+00 0. -1.
</event>
<event>
 8    1  0.1254059E-006  0.9118800E+02  0.7816164E-02  0.1184000E+00
        -11   -1    0    0    0    0  0.00000000000E+00  0.00000000000E+00  0.45593999997E+02  0.45594000000E+02  0.51100000000E-03 0. -1.
         11   -1    0    0    0    0 -0.00000000000E+00 -0.00000000000E+00 -0.45593999997E+02  0.45594000000E+02  0.51100000000E-03 0.  1.
         23    2    1    2    0    0 -0.17763568394E-14  0.35527136788E-14  0.00000000000E+00  0.91188000000E+02  0.91188000000E+02 0.  0.
    9900012    2    3    3    0    0  0.15565851763E+02 -0.18115432823E+02 -0.28023472047E+02  0.54367087015E+02  0.40000006468E+02 0.  0.
         12    1    3    3    0    0 -0.15565851763E+02  0.18115432823E+02  0.28023472047E+02  0.36820912985E+02  0.00000000000E+00 0. -1.
         11    1    4    4    0    0  0.13662022798E+02 -0.28755170644E+02 -0.10303991113E+02  0.33461663719E+02  0.51100000000E-03 0. -1.
        -11    1    4    4    0    0  0.17010812611E+01  0.57568120736E+01 -0.11715371501E+02  0.13163756772E+02  0.51100000000E-03 0.  1.
         12    1    4    4    0    0  0.20274770419E+00  0.48829257473E+01 -0.60041094329E+01  0.77416665239E+01  0.00000000000E+00 0. -1.
</event>
<event>
 8    1  0.1254059E-006  0.9118800E+02  0.7816164E-02  0.1184000E+00
        -11   -1    0    0    0    0  0.00000000000E+00  0.00000000000E+00  0.45593999997E+02  0.45594000000E+02  0.51100000000E-03 0.  1.
         11   -1    0    0    0    0 -0.00000000000E+00 -0.00000000000E+00 -0.45593999997E+02  0.45594000000E+02  0.51100000000E-03 0. -1.
         23    2    1    2    0    0 -0.93675067703E-15  0.44408920985E-15  0.00000000000E+00  0.91188000000E+02  0.91188000000E+02 0.  0.
    9900012    2    3    3    0    0  0.55483717714E-01  0.39883242708E+01  0.36604240958E+02  0.54367078433E+02  0.39999986904E+02 0.  0.
         12    1    3    3    0    0 -0.55483717714E-01 -0.39883242708E+01 -0.36604240958E+02  0.36820921567E+02  0.00000000000E+00 0. -1.
         11    1    4    4    0    0 -0.11394017990E+02 -0.53238283410E+01  0.73531145514E+01  0.14568290498E+02  0.51100000000E-03 0. -1.
        -11    1    4    4    0    0 -0.53406159453E+01  0.72630640525E+01  0.15786329998E+02  0.18179177461E+02  0.51100000000E-03 0.  1.
        -12    1    4    4    0    0  0.16790117653E+02  0.20490885592E+01  0.13464796408E+02  0.21619610474E+02  0.00000000000E+00 0.  1.
</event>
<event>
 8    1  0.1254059E-006  0.9118800E+02  0.7816164E-02  0.1184000E+00
        -11   -1    0    0    0    0  0.00000000000E+00  0.00000000000E+00  0.45593999997E+02  0.45594000000E+02  0.51100000000E-03 0.  1.
         11   -1    0    0    0    0 -0.00000000000E+00 -0.00000000000E+00 -0.45593999997E+02  0.45594000000E+02  0.51100000000E-03 0. -1.
         23    2    1    2    0    0  0.35527136788E-14  0.71054273576E-14 -0.17763568394E-14  0.91188000000E+02  0.91188000000E+02 0.  0.
    9900012    2    3    3    0    0 -0.18525108329E+02 -0.30821975824E+02  0.79124225254E+01  0.54367078467E+02  0.39999986982E+02 0.  0.
         12    1    3    3    0    0  0.18525108329E+02  0.30821975824E+02 -0.79124225254E+01  0.36820921533E+02  0.00000000000E+00 0. -1.
         11    1    4    4    0    0 -0.14929524751E+02 -0.29878405752E+01 -0.88302845286E+01  0.17600904116E+02  0.51100000000E-03 0. -1.
        -11    1    4    4    0    0  0.16065348304E+01  0.32612577894E+00 -0.19659936339E+01  0.25597740945E+01  0.51100000000E-03 0.  1.
        -12    1    4    4    0    0 -0.52021184086E+01 -0.28160261028E+02  0.18708700688E+02  0.34206400257E+02  0.00000000000E+00 0.  1.
</event>
<event>
 8    1  0.1254059E-006  0.9118800E+02  0.7816164E-02  0.1184000E+00
        -11   -1    0    0    0    0  0.00000000000E+00  0.00000000000E+00  0.45593999997E+02  0.45594000000E+02  0.51100000000E-03 0.  1.
         11   -1    0    0    0    0 -0.00000000000E+00 -0.00000000000E+00 -0.45593999997E+02  0.45594000000E+02  0.51100000000E-03 0. -1.
         23    2    1    2    0    0  0.00000000000E+00 -0.35527136788E-14  0.35527136788E-14  0.91188000000E+02  0.91188000000E+02 0.  0.
    9900012    2    3    3    0    0 -0.18601052461E+02 -0.23236971935E+02  0.21675502525E+02  0.54367035495E+02  0.39999889017E+02 0.  0.
         12    1    3    3    0    0  0.18601052461E+02  0.23236971935E+02 -0.21675502525E+02  0.36820964505E+02  0.00000000000E+00 0. -1.
         11    1    4    4    0    0 -0.16433513192E+01  0.42570793368E+01  0.13198951650E+02  0.13965516566E+02  0.51100000000E-03 0. -1.
        -11    1    4    4    0    0 -0.12033177134E+02 -0.28570755901E+02  0.13011278941E+02  0.33621106833E+02  0.51100000000E-03 0.  1.
         12    1    4    4    0    0 -0.49245240077E+01  0.10767046290E+01 -0.45347280659E+01  0.67804120960E+01  0.00000000000E+00 0. -1.
</event>
<event>
 8    1  0.1254059E-006  0.9118800E+02  0.7816164E-02  0.1184000E+00
        -11   -1    0    0    0    0  0.00000000000E+00  0.00000000000E+00  0.45593999997E+02  0.45594000000E+02  0.51100000000E-03 0.  1.
         11   -1    0    0    0    0 -0.00000000000E+00 -0.00000000000E+00 -0.45593999997E+02  0.45594000000E+02  0.51100000000E-03 0. -1.
         23    2    1    2    0    0 -0.88817841970E-15  0.00000000000E+00  0.00000000000E+00  0.91188000000E+02  0.91188000000E+02 0.  0.
    9900012    2    3    3    0    0 -0.53905622617E+00  0.87474733918E+01  0.35762694100E+02  0.54367093416E+02  0.40000021061E+02 0.  0.
         12    1    3    3    0    0  0.53905622617E+00 -0.87474733918E+01 -0.35762694100E+02  0.36820906584E+02  0.00000000000E+00 0. -1.
         11    1    4    4    0    0  0.43560268190E-01 -0.53007950006E+01 -0.34893885126E+01  0.63463499422E+01  0.51100000000E-03 0. -1.
        -11    1    4    4    0    0 -0.10476885695E+02  0.38457811470E+00  0.11660732237E+02  0.15680743310E+02  0.51100000000E-03 0.  1.
        -12    1    4    4    0    0  0.98942692009E+01  0.13663690278E+02  0.27591350376E+02  0.32340000163E+02  0.00000000000E+00 0.  1.
</event>
<event>
 8    1  0.1254059E-006  0.9118800E+02  0.7816164E-02  0.1184000E+00
        -11   -1    0    0    0    0  0.00000000000E+00  0.00000000000E+00  0.45593999997E+02  0.45594000000E+02  0.51100000000E-03 0. -1.
         11   -1    0    0    0    0 -0.00000000000E+00 -0.00000000000E+00 -0.45593999997E+02  0.45594000000E+02  0.51100000000E-03 0.  1.
         23    2    1    2    0    0  0.00000000000E+00  0.88817841970E-15 -0.17763568394E-14  0.91188000000E+02  0.91188000000E+02 0.  0.
    9900012    2    3    3    0    0  0.35723699548E+02  0.54461317242E+01 -0.70665835356E+01  0.54367086608E+02  0.40000005541E+02 0.  0.
         12    1    3    3    0    0 -0.35723699548E+02 -0.54461317242E+01  0.70665835356E+01  0.36820913392E+02  0.00000000000E+00 0. -1.
         11    1    4    4    0    0  0.15234803249E+02  0.17971044944E+02  0.25077255030E+01  0.23692749395E+02  0.51100000000E-03 0. -1.
        -11    1    4    4    0    0  0.22867932760E+02 -0.84170827609E+01 -0.75188393668E+01  0.25501423031E+02  0.51100000000E-03 0.  1.
         12    1    4    4    0    0 -0.23790364620E+01 -0.41078304588E+01 -0.20554696717E+01  0.51729141823E+01  0.00000000000E+00 0. -1.
</event>
<event>
 8    1  0.1254059E-006  0.9118800E+02  0.7816164E-02  0.1184000E+00
        -11   -1    0    0    0    0  0.00000000000E+00  0.00000000000E+00  0.45593999997E+02  0.45594000000E+02  0.51100000000E-03 0.  1.
         11   -1    0    0    0    0 -0.00000000000E+00 -0.00000000000E+00 -0.45593999997E+02  0.45594000000E+02  0.51100000000E-03 0. -1.
         23    2    1    2    0    0  0.00000000000E+00  0.00000000000E+00 -0.22204460493E-14  0.91188000000E+02  0.91188000000E+02 0.  0.
    9900012    2    3    3    0    0  0.55516921793E+01 -0.36200903561E+02  0.38016075193E+01  0.54367096638E+02  0.40000028405E+02 0.  0.
        -12    1    3    3    0    0 -0.55516921793E+01  0.36200903561E+02 -0.38016075193E+01  0.36820903362E+02  0.00000000000E+00 0.  1.
         11    1    4    4    0    0 -0.40767415227E+01 -0.11407597495E+02  0.82510828610E+01  0.14657198596E+02  0.51100000000E-03 0. -1.
        -11    1    4    4    0    0  0.12192002787E+01 -0.98405506296E+01  0.12255849818E+02  0.15764794354E+02  0.51100000000E-03 0.  1.
         12    1    4    4    0    0  0.84092334233E+01 -0.14952755436E+02 -0.16705325160E+02  0.23945103687E+02  0.00000000000E+00 0. -1.
</event>
<event>
 8    1  0.1254059E-006  0.9118800E+02  0.7816164E-02  0.1184000E+00
        -11   -1    0    0    0    0  0.00000000000E+00  0.00000000000E+00  0.45593999997E+02  0.45594000000E+02  0.51100000000E-03 0. -1.
         11   -1    0    0    0    0 -0.00000000000E+00 -0.00000000000E+00 -0.45593999997E+02  0.45594000000E+02  0.51100000000E-03 0.  1.
         23    2    1    2    0    0  0.00000000000E+00  0.00000000000E+00 -0.35527136788E-14  0.91188000000E+02  0.91188000000E+02 0.  0.
    9900012    2    3    3    0    0 -0.16787747050E+02 -0.17506567497E+02  0.27703277639E+02  0.54367082732E+02  0.39999996704E+02 0.  0.
        -12    1    3    3    0    0  0.16787747050E+02  0.17506567497E+02 -0.27703277639E+02  0.36820917268E+02  0.00000000000E+00 0.  1.
         11    1    4    4    0    0 -0.21118264413E+01 -0.90702785298E+01  0.70873532998E+01  0.11703005622E+02  0.51100000000E-03 0. -1.
        -11    1    4    4    0    0 -0.39443491114E+01 -0.37194702724E+01 -0.91709440559E+01  0.10653570489E+02  0.51100000000E-03 0.  1.
         12    1    4    4    0    0 -0.10731571497E+02 -0.47168186952E+01  0.29786868395E+02  0.32010506621E+02  0.00000000000E+00 0. -1.
</event>
<event>
 8    1  0.1254059E-006  0.9118800E+02  0.7816164E-02  0.1184000E+00
        -11   -1    0    0    0    0  0.00000000000E+00  0.00000000000E+00  0.45593999997E+02  0.45594000000E+02  0.51100000000E-03 0.  1.
         11   -1    0    0    0    0 -0.00000000000E+00 -0.00000000000E+00 -0.45593999997E+02  0.45594000000E+02  0.51100000000E-03 0. -1.
         23    2    1    2    0    0  0.00000000000E+00  0.35527136788E-14  0.35527136788E-14  0.91188000000E+02  0.91188000000E+02 0.  0.
    9900012    2    3    3    0    0  0.13037156965E+02  0.20464273431E+02  0.27695220285E+02  0.54367093230E+02  0.40000020636E+02 0.  0.
         12    1    3    3    0    0 -0.13037156965E+02 -0.20464273431E+02 -0.27695220285E+02  0.36820906770E+02  0.00000000000E+00 0. -1.
         11    1    4    4    0    0  0.42229188614E+01  0.29836379752E+01 -0.48871856654E+01  0.71147539146E+01  0.51100000000E-03 0. -1.
        -11    1    4    4    0    0 -0.47906705207E+01  0.13293099776E+02  0.30313372952E+01  0.14451506210E+02  0.51100000000E-03 0.  1.
        -12    1    4    4    0    0  0.13604908624E+02  0.41875356798E+01  0.29551068655E+02  0.32800833105E+02  0.00000000000E+00 0.  1.
</event>
<event>
 8    1  0.1254059E-006  0.9118800E+02  0.7816164E-02  0.1184000E+00
        -11   -1    0    0    0    0  0.00000000000E+00  0.00000000000E+00  0.45593999997E+02  0.45594000000E+02  0.51100000000E-03 0.  1.
         11   -1    0    0    0    0 -0.00000000000E+00 -0.00000000000E+00 -0.45593999997E+02  0.45594000000E+02  0.51100000000E-03 0. -1.
         23    2    1    2    0    0  0.00000000000E+00  0.00000000000E+00 -0.35527136788E-14  0.91188000000E+02  0.91188000000E+02 0.  0.
    9900012    2    3    3    0    0  0.19620932872E+02 -0.92190726743E+01  0.29762504878E+02  0.54367095552E+02  0.40000025930E+02 0.  0.
         12    1    3    3    0    0 -0.19620932872E+02  0.92190726743E+01 -0.29762504878E+02  0.36820904448E+02  0.00000000000E+00 0. -1.
         11    1    4    4    0    0  0.46406209132E+01  0.11385840453E+02  0.18825721869E+01  0.12438520957E+02  0.51100000000E-03 0. -1.
        -11    1    4    4    0    0  0.14681068487E+02 -0.15608472330E+02  0.29682180773E+02  0.36608606039E+02  0.51100000000E-03 0.  1.
         12    1    4    4    0    0  0.29924347148E+00 -0.49964407972E+01 -0.18022480818E+01  0.53199685566E+01  0.00000000000E+00 0. -1.
</event>
<event>
 8    1  0.1254059E-006  0.9118800E+02  0.7816164E-02  0.1184000E+00
        -11   -1    0    0    0    0  0.00000000000E+00  0.00000000000E+00  0.45593999997E+02  0.45594000000E+02  0.51100000000E-03 0.  1.
         11   -1    0    0    0    0 -0.00000000000E+00 -0.00000000000E+00 -0.45593999997E+02  0.45594000000E+02  0.51100000000E-03 0. -1.
         23    2    1    2    0    0  0.00000000000E+00 -0.35527136788E-14 -0.88817841970E-15  0.91188000000E+02  0.91188000000E+02 0.  0.
    9900012    2    3    3    0    0  0.18087160764E+02 -0.31906381582E+02  0.32584816859E+01  0.54367078324E+02  0.39999986655E+02 0.  0.
         12    1    3    3    0    0 -0.18087160764E+02  0.31906381582E+02 -0.32584816859E+01  0.36820921676E+02  0.00000000000E+00 0. -1.
         11    1    4    4    0    0  0.94307202528E+01 -0.27043794256E+01  0.83121248011E+01  0.12858599128E+02  0.51100000000E-03 0. -1.
        -11    1    4    4    0    0  0.93653848517E+01 -0.33502779418E+02 -0.86626086263E+01  0.35849511163E+02  0.51100000000E-03 0.  1.
        -12    1    4    4    0    0 -0.70894434020E+00  0.43007772618E+01  0.36089655111E+01  0.56589680326E+01  0.00000000000E+00 0.  1.
</event>
<event>
 8    1  0.1254059E-006  0.9118800E+02  0.7816164E-02  0.1184000E+00
        -11   -1    0    0    0    0  0.00000000000E+00  0.00000000000E+00  0.45593999997E+02  0.45594000000E+02  0.51100000000E-03 0.  1.
         11   -1    0    0    0    0 -0.00000000000E+00 -0.00000000000E+00 -0.45593999997E+02  0.45594000000E+02  0.51100000000E-03 0. -1.
         23    2    1    2    0    0  0.00000000000E+00  0.35527136788E-14  0.00000000000E+00  0.91188000000E+02  0.91188000000E+02 0.  0.
    9900012    2    3    3    0    0  0.30920861897E+02 -0.19647277679E+02  0.36983780427E+01  0.54366902504E+02  0.39999585836E+02 0.  0.
         12    1    3    3    0    0 -0.30920861897E+02  0.19647277679E+02 -0.36983780427E+01  0.36821097496E+02  0.00000000000E+00 0. -1.
         11    1    4    4    0    0  0.15402400091E+01  0.47888130252E+01  0.59910389459E+01  0.78228906032E+01  0.51100000000E-03 0. -1.
        -11    1    4    4    0    0  0.61756073166E+01  0.87947991321E+00  0.85027301701E+01  0.10545521858E+02  0.51100000000E-03 0.  1.
         12    1    4    4    0    0  0.23205014572E+02 -0.25315570617E+02 -0.10795391073E+02  0.35998490043E+02  0.00000000000E+00 0. -1.
</event>
<event>
 8    1  0.1254059E-006  0.9118800E+02  0.7816164E-02  0.1184000E+00
        -11   -1    0    0    0    0  0.00000000000E+00  0.00000000000E+00  0.45593999997E+02  0.45594000000E+02  0.51100000000E-03 0. -1.
         11   -1    0    0    0    0 -0.00000000000E+00 -0.00000000000E+00 -0.45593999997E+02  0.45594000000E+02  0.51100000000E-03 0.  1.
         23    2    1    2    0    0  0.00000000000E+00 -0.17763568394E-14 -0.17763568394E-14  0.91188000000E+02  0.91188000000E+02 0.  0.
    9900012    2    3    3    0    0 -0.32974901254E+02 -0.15852125902E+02  0.41407833405E+01  0.54367080742E+02  0.39999992168E+02 0.  0.
        -12    1    3    3    0    0  0.32974901254E+02  0.15852125902E+02 -0.41407833405E+01  0.36820919258E+02  0.00000000000E+00 0.  1.
         11    1    4    4    0    0 -0.13023502416E+02 -0.12291619723E+02  0.45018051145E+01  0.18465150422E+02  0.51100000000E-03 0. -1.
        -11    1    4    4    0    0 -0.76777091592E+01 -0.25821811681E+01 -0.14833144894E+02  0.16900800728E+02  0.51100000000E-03 0.  1.
        -12    1    4    4    0    0 -0.12273689679E+02 -0.97832501088E+00  0.14472123120E+02  0.19001129592E+02  0.00000000000E+00 0.  1.
</event>
<event>
 8    1  0.1254059E-006  0.9118800E+02  0.7816164E-02  0.1184000E+00
        -11   -1    0    0    0    0  0.00000000000E+00  0.00000000000E+00  0.45593999997E+02  0.45594000000E+02  0.51100000000E-03 0.  1.
         11   -1    0    0    0    0 -0.00000000000E+00 -0.00000000000E+00 -0.45593999997E+02  0.45594000000E+02  0.51100000000E-03 0. -1.
         23    2    1    2    0    0  0.00000000000E+00  0.00000000000E+00  0.00000000000E+00  0.91188000000E+02  0.91188000000E+02 0.  0.
    9900012    2    3    3    0    0  0.23833459423E+02  0.11860369902E+02 -0.25437762932E+02  0.54367055617E+02  0.39999934890E+02 0.  0.
        -12    1    3    3    0    0 -0.23833459423E+02 -0.11860369902E+02  0.25437762932E+02  0.36820944383E+02  0.00000000000E+00 0.  1.
         11    1    4    4    0    0  0.97949859372E+01  0.87833107685E+01 -0.15715245675E+02  0.20495298106E+02  0.51100000000E-03 0. -1.
        -11    1    4    4    0    0  0.23046734360E+02  0.10669629827E+01 -0.83731575592E+01  0.24543841232E+02  0.51100000000E-03 0.  1.
         12    1    4    4    0    0 -0.90082608743E+01  0.20100961511E+01 -0.13493596977E+01  0.93279162791E+01  0.00000000000E+00 0. -1.
</event>
<event>
 8    1  0.1254059E-006  0.9118800E+02  0.7816164E-02  0.1184000E+00
        -11   -1    0    0    0    0  0.00000000000E+00  0.00000000000E+00  0.45593999997E+02  0.45594000000E+02  0.51100000000E-03 0.  1.
         11   -1    0    0    0    0 -0.00000000000E+00 -0.00000000000E+00 -0.45593999997E+02  0.45594000000E+02  0.51100000000E-03 0. -1.
         23    2    1    2    0    0  0.88817841970E-15 -0.44408920985E-15 -0.71054273576E-14  0.91188000000E+02  0.91188000000E+02 0.  0.
    9900012    2    3    3    0    0  0.17329642282E+01  0.20032168404E+01  0.36725505791E+02  0.54367098078E+02  0.40000031689E+02 0.  0.
         12    1    3    3    0    0 -0.17329642282E+01 -0.20032168404E+01 -0.36725505791E+02  0.36820901922E+02  0.00000000000E+00 0. -1.
         11    1    4    4    0    0  0.26431403176E+01  0.13314986465E+02  0.52556368672E+01  0.14556674567E+02  0.51100000000E-03 0. -1.
        -11    1    4    4    0    0  0.40857485244E+01  0.14296524996E+01 -0.11134554515E+01  0.44695671578E+01  0.51100000000E-03 0.  1.
        -12    1    4    4    0    0 -0.49959246139E+01 -0.12741422124E+02  0.32583324375E+02  0.35340856354E+02  0.00000000000E+00 0.  1.
</event>
<event>
 8    1  0.1254059E-006  0.9118800E+02  0.7816164E-02  0.1184000E+00
        -11   -1    0    0    0    0  0.00000000000E+00  0.00000000000E+00  0.45593999997E+02  0.45594000000E+02  0.51100000000E-03 0.  1.
         11   -1    0    0    0    0 -0.00000000000E+00 -0.00000000000E+00 -0.45593999997E+02  0.45594000000E+02  0.51100000000E-03 0. -1.
         23    2    1    2    0    0  0.00000000000E+00  0.00000000000E+00 -0.35527136788E-14  0.91188000000E+02  0.91188000000E+02 0.  0.
    9900012    2    3    3    0    0 -0.12959577884E+02  0.28793523366E+02  0.18941031517E+02  0.54367077664E+02  0.39999985151E+02 0.  0.
         12    1    3    3    0    0  0.12959577884E+02 -0.28793523366E+02 -0.18941031517E+02  0.36820922336E+02  0.00000000000E+00 0. -1.
         11    1    4    4    0    0 -0.16881211687E+02  0.13957245948E+02  0.11222912633E+02  0.24611659649E+02  0.51100000000E-03 0. -1.
        -11    1    4    4    0    0  0.13261533504E+01  0.15722974812E+02  0.15124904876E+02  0.21857112514E+02  0.51100000000E-03 0.  1.
        -12    1    4    4    0    0  0.25954804526E+01 -0.88669739470E+00 -0.74067859923E+01  0.78983055009E+01  0.00000000000E+00 0.  1.
</event>
<event>
 8    1  0.1254059E-006  0.9118800E+02  0.7816164E-02  0.1184000E+00
        -11   -1    0    0    0    0  0.00000000000E+00  0.00000000000E+00  0.45593999997E+02  0.45594000000E+02  0.51100000000E-03 0.  1.
         11   -1    0    0    0    0 -0.00000000000E+00 -0.00000000000E+00 -0.45593999997E+02  0.45594000000E+02  0.51100000000E-03 0. -1.
         23    2    1    2    0    0  0.13322676296E-14 -0.35527136788E-14  0.00000000000E+00  0.91188000000E+02  0.91188000000E+02 0.  0.
    9900012    2    3    3    0    0 -0.36370598099E+01 -0.22969192463E+02  0.28547613027E+02  0.54367106258E+02  0.40000050336E+02 0.  0.
         12    1    3    3    0    0  0.36370598099E+01  0.22969192463E+02 -0.28547613027E+02  0.36820893742E+02  0.00000000000E+00 0. -1.
         11    1    4    4    0    0 -0.14662749513E+02 -0.14332332804E+01  0.88357066826E+01  0.17179059746E+02  0.51100000000E-03 0. -1.
        -11    1    4    4    0    0  0.30821897804E+01  0.24083284799E+01  0.89376107545E+01  0.97560661216E+01  0.51100000000E-03 0.  1.
         12    1    4    4    0    0  0.79434999223E+01 -0.23944287662E+02  0.10774295590E+02  0.27431980390E+02  0.00000000000E+00 0. -1.
</event>
<event>
 8    1  0.1254059E-006  0.9118800E+02  0.7816164E-02  0.1184000E+00
        -11   -1    0    0    0    0  0.00000000000E+00  0.00000000000E+00  0.45593999997E+02  0.45594000000E+02  0.51100000000E-03 0. -1.
         11   -1    0    0    0    0 -0.00000000000E+00 -0.00000000000E+00 -0.45593999997E+02  0.45594000000E+02  0.51100000000E-03 0.  1.
         23    2    1    2    0    0  0.35527136788E-14 -0.88817841970E-15 -0.71054273576E-14  0.91188000000E+02  0.91188000000E+02 0.  0.
    9900012    2    3    3    0    0  0.22611706793E+02 -0.15446366655E+01 -0.29019044749E+02  0.54367080068E+02  0.39999990631E+02 0.  0.
         12    1    3    3    0    0 -0.22611706793E+02  0.15446366655E+01  0.29019044749E+02  0.36820919932E+02  0.00000000000E+00 0. -1.
         11    1    4    4    0    0 -0.67058048637E+01  0.16081979566E+01 -0.71709465195E+01  0.99486980950E+01  0.51100000000E-03 0. -1.
        -11    1    4    4    0    0  0.20900612792E+02 -0.33040026254E+01 -0.27186009918E+02  0.34450416310E+02  0.51100000000E-03 0.  1.
         12    1    4    4    0    0  0.84168988646E+01  0.15116800335E+00  0.53379116886E+01  0.99679656629E+01  0.00000000000E+00 0. -1.
</event>
<event>
 8    1  0.1254059E-006  0.9118800E+02  0.7816164E-02  0.1184000E+00
        -11   -1    0    0    0    0  0.00000000000E+00  0.00000000000E+00  0.45593999997E+02  0.45594000000E+02  0.51100000000E-03 0.  1.
         11   -1    0    0    0    0 -0.00000000000E+00 -0.00000000000E+00 -0.45593999997E+02  0.45594000000E+02  0.51100000000E-03 0. -1.
         23    2    1    2    0    0 -0.88817841970E-15  0.00000000000E+00  0.00000000000E+00  0.91188000000E+02  0.91188000000E+02 0.  0.
    9900012    2    3    3    0    0 -0.73663097454E+01 -0.35784912889E+02 -0.45777106707E+01  0.54367109941E+02  0.40000058733E+02 0.  0.
        -12    1    3    3    0    0  0.73663097454E+01  0.35784912889E+02  0.45777106707E+01  0.36820890059E+02  0.00000000000E+00 0.  1.
         11    1    4    4    0    0 -0.87536306507E+01 -0.93437695987E+01 -0.14366972781E+02  0.19244271538E+02  0.51100000000E-03 0. -1.
        -11    1    4    4    0    0  0.32490673057E+01  0.21364873859E+01  0.45912882380E+01  0.60167220854E+01  0.51100000000E-03 0.  1.
        -12    1    4    4    0    0 -0.18617464004E+01 -0.28577630676E+02  0.51979738722E+01  0.29106116318E+02  0.00000000000E+00 0.  1.
</event>
<event>
 8    1  0.1254059E-006  0.9118800E+02  0.7816164E-02  0.1184000E+00
        -11   -1    0    0    0    0  0.00000000000E+00  0.00000000000E+00  0.45593999997E+02  0.45594000000E+02  0.51100000000E-03 0. -1.
         11   -1    0    0    0    0 -0.00000000000E+00 -0.00000000000E+00 -0.45593999997E+02  0.45594000000E+02  0.51100000000E-03 0.  1.
         23    2    1    2    0    0  0.00000000000E+00 -0.16653345369E-14  0.00000000000E+00  0.91188000000E+02  0.91188000000E+02 0.  0.
    9900012    2    3    3    0    0 -0.22841646218E+02  0.60466677055E+00  0.28873419831E+02  0.54367071215E+02  0.39999970449E+02 0.  0.
        -12    1    3    3    0    0  0.22841646218E+02 -0.60466677055E+00 -0.28873419831E+02  0.36820928785E+02  0.00000000000E+00 0.  1.
         11    1    4    4    0    0 -0.84048134168E+01  0.18945274752E+02  0.18747252439E+02  0.27946803007E+02  0.51100000000E-03 0. -1.
        -11    1    4    4    0    0 -0.96139949048E+01 -0.15817985707E+02  0.55930359134E+01  0.19337001341E+02  0.51100000000E-03 0.  1.
         12    1    4    4    0    0 -0.48228378968E+01 -0.25226222745E+01  0.45331314777E+01  0.70832668673E+01  0.00000000000E+00 0. -1.
</event>
<event>
 8    1  0.1254059E-006  0.9118800E+02  0.7816164E-02  0.1184000E+00
        -11   -1    0    0    0    0  0.00000000000E+00  0.00000000000E+00  0.45593999997E+02  0.45594000000E+02  0.51100000000E-03 0.  1.
         11   -1    0    0    0    0 -0.00000000000E+00 -0.00000000000E+00 -0.45593999997E+02  0.45594000000E+02  0.51100000000E-03 0. -1.
         23    2    1    2    0    0  0.00000000000E+00  0.35527136788E-14  0.00000000000E+00  0.91188000000E+02  0.91188000000E+02 0.  0.
    9900012    2    3    3    0    0 -0.24868500986E+02  0.26805975149E+02 -0.43332087315E+01  0.54367090955E+02  0.40000015450E+02 0.  0.
         12    1    3    3    0    0  0.24868500986E+02 -0.26805975149E+02  0.43332087315E+01  0.36820909045E+02  0.00000000000E+00 0. -1.
         11    1    4    4    0    0  0.61291909420E+01  0.44593077580E+01 -0.54493194580E+01  0.93352820043E+01  0.51100000000E-03 0. -1.
        -11    1    4    4    0    0 -0.89443304225E+01  0.10794544272E+02  0.11426370638E+02  0.18085496370E+02  0.51100000000E-03 0.  1.
        -12    1    4    4    0    0 -0.22053361506E+02  0.11552123119E+02 -0.10310259911E+02  0.26946312580E+02  0.00000000000E+00 0.  1.
</event>
<event>
 8    1  0.1254059E-006  0.9118800E+02  0.7816164E-02  0.1184000E+00
        -11   -1    0    0    0    0  0.00000000000E+00  0.00000000000E+00  0.45593999997E+02  0.45594000000E+02  0.51100000000E-03 0.  1.
         11   -1    0    0    0    0 -0.00000000000E+00 -0.00000000000E+00 -0.45593999997E+02  0.45594000000E+02  0.51100000000E-03 0. -1.
         23    2    1    2    0    0  0.35527136788E-14  0.35527136788E-14  0.35527136788E-14  0.91188000000E+02  0.91188000000E+02 0.  0.
    9900012    2    3    3    0    0  0.25799572089E+02  0.14329485253E+02  0.22018716424E+02  0.54367137157E+02  0.40000120776E+02 0.  0.
        -12    1    3    3    0    0 -0.25799572089E+02 -0.14329485253E+02 -0.22018716424E+02  0.36820862843E+02  0.00000000000E+00 0.  1.
         11    1    4    4    0    0 -0.39996211924E+01  0.12649123939E+02  0.79727456566E+00  0.13290333069E+02  0.51100000000E-03 0. -1.
        -11    1    4    4    0    0  0.18409639061E+02  0.70019042577E+01  0.45818349300E+01  0.20222133547E+02  0.51100000000E-03 0.  1.
        -12    1    4    4    0    0  0.11389554220E+02 -0.53215429438E+01  0.16639606928E+02  0.20854670541E+02  0.00000000000E+00 0.  1.
</event>
<event>
 8    1  0.1254059E-006  0.9118800E+02  0.7816164E-02  0.1184000E+00
        -11   -1    0    0    0    0  0.00000000000E+00  0.00000000000E+00  0.45593999997E+02  0.45594000000E+02  0.51100000000E-03 0. -1.
         11   -1    0    0    0    0 -0.00000000000E+00 -0.00000000000E+00 -0.45593999997E+02  0.45594000000E+02  0.51100000000E-03 0.  1.
         23    2    1    2    0    0  0.00000000000E+00 -0.35527136788E-14  0.00000000000E+00  0.91188000000E+02  0.91188000000E+02 0.  0.
    9900012    2    3    3    0    0 -0.16573229796E+02  0.22426183257E+02  0.24045111887E+02  0.54367176449E+02  0.40000210350E+02 0.  0.
        -12    1    3    3    0    0  0.16573229796E+02 -0.22426183257E+02 -0.24045111887E+02  0.36820823551E+02  0.00000000000E+00 0.  1.
         11    1    4    4    0    0 -0.11416148315E+02  0.12937881658E+02 -0.34123562940E+01  0.17588672487E+02  0.51100000000E-03 0. -1.
        -11    1    4    4    0    0 -0.72615941165E+00  0.62392250262E+01  0.30052563999E+02  0.30701984294E+02  0.51100000000E-03 0.  1.
        -12    1    4    4    0    0 -0.44309220694E+01  0.32490765730E+01 -0.25950958180E+01  0.60765196672E+01  0.00000000000E+00 0.  1.
</event>
<event>
 8    1  0.1254059E-006  0.9118800E+02  0.7816164E-02  0.1184000E+00
        -11   -1    0    0    0    0  0.00000000000E+00  0.00000000000E+00  0.45593999997E+02  0.45594000000E+02  0.51100000000E-03 0. -1.
         11   -1    0    0    0    0 -0.00000000000E+00 -0.00000000000E+00 -0.45593999997E+02  0.45594000000E+02  0.51100000000E-03 0.  1.
         23    2    1    2    0    0  0.00000000000E+00  0.00000000000E+00 -0.17763568394E-14  0.91188000000E+02  0.91188000000E+02 0.  0.
    9900012    2    3    3    0    0 -0.12401742016E+02  0.34282203730E+02  0.51679774487E+01  0.54367072682E+02  0.39999973794E+02 0.  0.
         12    1    3    3    0    0  0.12401742016E+02 -0.34282203730E+02 -0.51679774487E+01  0.36820927318E+02  0.00000000000E+00 0. -1.
         11    1    4    4    0    0 -0.13932618201E+02  0.19162377506E+02  0.16292848038E+02  0.28753633841E+02  0.51100000000E-03 0. -1.
        -11    1    4    4    0    0 -0.45312204385E+01  0.16170783195E+02 -0.92960561468E+01  0.19194865145E+02  0.51100000000E-03 0.  1.
         12    1    4    4    0    0  0.60620966234E+01 -0.10509569707E+01 -0.18288144423E+01  0.64185736959E+01  0.00000000000E+00 0. -1.
</event>
<event>
 8    1  0.1254059E-006  0.9118800E+02  0.7816164E-02  0.1184000E+00
        -11   -1    0    0    0    0  0.00000000000E+00  0.00000000000E+00  0.45593999997E+02  0.45594000000E+02  0.51100000000E-03 0. -1.
         11   -1    0    0    0    0 -0.00000000000E+00 -0.00000000000E+00 -0.45593999997E+02  0.45594000000E+02  0.51100000000E-03 0.  1.
         23    2    1    2    0    0 -0.88817841970E-15 -0.17763568394E-14  0.00000000000E+00  0.91188000000E+02  0.91188000000E+02 0.  0.
    9900012    2    3    3    0    0 -0.62768601466E+01 -0.11428886444E+02  0.34434893041E+02  0.54367078265E+02  0.39999986521E+02 0.  0.
        -12    1    3    3    0    0  0.62768601466E+01  0.11428886444E+02 -0.34434893041E+02  0.36820921735E+02  0.00000000000E+00 0.  1.
         11    1    4    4    0    0 -0.49400082939E+01  0.74148490676E+01  0.95706394208E+00  0.89610066560E+01  0.51100000000E-03 0. -1.
        -11    1    4    4    0    0  0.27528072612E+01 -0.16165637761E+02  0.59451584096E+01  0.17442783631E+02  0.51100000000E-03 0.  1.
        -12    1    4    4    0    0 -0.40896591139E+01 -0.26780977505E+01  0.27532670690E+02  0.27963287978E+02  0.00000000000E+00 0.  1.
</event>
<event>
 8    1  0.1254059E-006  0.9118800E+02  0.7816164E-02  0.1184000E+00
        -11   -1    0    0    0    0  0.00000000000E+00  0.00000000000E+00  0.45593999997E+02  0.45594000000E+02  0.51100000000E-03 0.  1.
         11   -1    0    0    0    0 -0.00000000000E+00 -0.00000000000E+00 -0.45593999997E+02  0.45594000000E+02  0.51100000000E-03 0. -1.
         23    2    1    2    0    0  0.00000000000E+00  0.44408920985E-15 -0.17763568394E-14  0.91188000000E+02  0.91188000000E+02 0.  0.
    9900012    2    3    3    0    0 -0.34870510261E+02 -0.51818072212E+00 -0.11813779814E+02  0.54366995253E+02  0.39999797278E+02 0.  0.
         12    1    3    3    0    0  0.34870510261E+02  0.51818072212E+00  0.11813779814E+02  0.36821004747E+02  0.00000000000E+00 0. -1.
         11    1    4    4    0    0 -0.10745103563E+01  0.39454585424E+01 -0.10597892333E+02  0.11359425064E+02  0.51100000000E-03 0. -1.
        -11    1    4    4    0    0 -0.27874120425E+02  0.79582481321E+01 -0.29492865646E+01  0.29137580447E+02  0.51100000000E-03 0.  1.
        -12    1    4    4    0    0 -0.59218794793E+01 -0.12421887397E+02  0.17333990842E+01  0.13869989742E+02  0.00000000000E+00 0.  1.
</event>
<event>
 8    1  0.1254059E-006  0.9118800E+02  0.7816164E-02  0.1184000E+00
        -11   -1    0    0    0    0  0.00000000000E+00  0.00000000000E+00  0.45593999997E+02  0.45594000000E+02  0.51100000000E-03 0.  1.
         11   -1    0    0    0    0 -0.00000000000E+00 -0.00000000000E+00 -0.45593999997E+02  0.45594000000E+02  0.51100000000E-03 0. -1.
         23    2    1    2    0    0  0.17763568394E-14 -0.71054273576E-14  0.00000000000E+00  0.91188000000E+02  0.91188000000E+02 0.  0.
    9900012    2    3    3    0    0 -0.57538427143E+01  0.35984751469E+02 -0.52707947628E+01  0.54366941872E+02  0.39999675584E+02 0.  0.
         12    1    3    3    0    0  0.57538427143E+01 -0.35984751469E+02  0.52707947628E+01  0.36821058128E+02  0.00000000000E+00 0. -1.
         11    1    4    4    0    0  0.83977832832E+01 -0.28063246222E+01 -0.16235923555E+01  0.90019039295E+01  0.51100000000E-03 0. -1.
        -11    1    4    4    0    0 -0.69758214103E+01  0.10166991280E+02 -0.91401095763E+01  0.15348335394E+02  0.51100000000E-03 0.  1.
        -12    1    4    4    0    0 -0.71758045872E+01  0.28624084811E+02  0.54929071690E+01  0.30016702548E+02  0.00000000000E+00 0.  1.
</event>
<event>
 8    1  0.1254059E-006  0.9118800E+02  0.7816164E-02  0.1184000E+00
        -11   -1    0    0    0    0  0.00000000000E+00  0.00000000000E+00  0.45593999997E+02  0.45594000000E+02  0.51100000000E-03 0. -1.
         11   -1    0    0    0    0 -0.00000000000E+00 -0.00000000000E+00 -0.45593999997E+02  0.45594000000E+02  0.51100000000E-03 0.  1.
         23    2    1    2    0    0  0.00000000000E+00  0.00000000000E+00 -0.35527136788E-14  0.91188000000E+02  0.91188000000E+02 0.  0.
    9900012    2    3    3    0    0  0.17588175135E+02 -0.13444960020E+02 -0.29422249025E+02  0.54367087570E+02  0.40000007733E+02 0.  0.
         12    1    3    3    0    0 -0.17588175135E+02  0.13444960020E+02  0.29422249025E+02  0.36820912430E+02  0.00000000000E+00 0. -1.
         11    1    4    4    0    0  0.12142179340E+02  0.18901060648E+01 -0.76651140812E-01  0.12288649060E+02  0.51100000000E-03 0. -1.
        -11    1    4    4    0    0  0.10827869913E+02 -0.86975072072E+00 -0.25536150682E+01  0.11158861203E+02  0.51100000000E-03 0.  1.
        -12    1    4    4    0    0 -0.53818741184E+01 -0.14465315364E+02 -0.26791982816E+02  0.30919577307E+02  0.00000000000E+00 0.  1.
</event>
<event>
 8    1  0.1254059E-006  0.9118800E+02  0.7816164E-02  0.1184000E+00
        -11   -1    0    0    0    0  0.00000000000E+00  0.00000000000E+00  0.45593999997E+02  0.45594000000E+02  0.51100000000E-03 0.  1.
         11   -1    0    0    0    0 -0.00000000000E+00 -0.00000000000E+00 -0.45593999997E+02  0.45594000000E+02  0.51100000000E-03 0. -1.
         23    2    1    2    0    0  0.00000000000E+00  0.00000000000E+00  0.00000000000E+00  0.91188000000E+02  0.91188000000E+02 0.  0.
    9900012    2    3    3    0    0  0.22656344969E+02  0.25469084522E+02  0.13921056218E+02  0.54367081489E+02  0.39999993871E+02 0.  0.
        -12    1    3    3    0    0 -0.22656344969E+02 -0.25469084522E+02 -0.13921056218E+02  0.36820918511E+02  0.00000000000E+00 0.  1.
         11    1    4    4    0    0  0.13263719242E+02  0.51855714888E+01  0.49507578731E+01  0.15077347365E+02  0.51100000000E-03 0. -1.
        -11    1    4    4    0    0  0.87425939325E+01  0.58523920582E+01  0.18989792977E+02  0.21709345431E+02  0.51100000000E-03 0.  1.
         12    1    4    4    0    0  0.65003179463E+00  0.14431120975E+02 -0.10019494632E+02  0.17580388693E+02  0.00000000000E+00 0. -1.
</event>
<event>
 8    1  0.1254059E-006  0.9118800E+02  0.7816164E-02  0.1184000E+00
        -11   -1    0    0    0    0  0.00000000000E+00  0.00000000000E+00  0.45593999997E+02  0.45594000000E+02  0.51100000000E-03 0.  1.
         11   -1    0    0    0    0 -0.00000000000E+00 -0.00000000000E+00 -0.45593999997E+02  0.45594000000E+02  0.51100000000E-03 0. -1.
         23    2    1    2    0    0 -0.35527136788E-14  0.88817841970E-15 -0.35527136788E-14  0.91188000000E+02  0.91188000000E+02 0.  0.
    9900012    2    3    3    0    0 -0.23631198774E+02  0.49451948616E+01  0.27800882654E+02  0.54367114839E+02  0.40000069898E+02 0.  0.
         12    1    3    3    0    0  0.23631198774E+02 -0.49451948616E+01 -0.27800882654E+02  0.36820885161E+02  0.00000000000E+00 0. -1.
         11    1    4    4    0    0 -0.88802566660E+01 -0.20919826429E+00  0.27618981539E+02  0.29012253685E+02  0.51100000000E-03 0. -1.
        -11    1    4    4    0    0  0.27265866396E+01  0.63917990226E+01 -0.29615851197E+01  0.75538305601E+01  0.51100000000E-03 0.  1.
        -12    1    4    4    0    0 -0.17477528748E+02 -0.12374058967E+01  0.31434862341E+01  0.17801030593E+02  0.00000000000E+00 0.  1.
</event>
<event>
 8    1  0.1254059E-006  0.9118800E+02  0.7816164E-02  0.1184000E+00
        -11   -1    0    0    0    0  0.00000000000E+00  0.00000000000E+00  0.45593999997E+02  0.45594000000E+02  0.51100000000E-03 0.  1.
         11   -1    0    0    0    0 -0.00000000000E+00 -0.00000000000E+00 -0.45593999997E+02  0.45594000000E+02  0.51100000000E-03 0. -1.
         23    2    1    2    0    0  0.00000000000E+00 -0.18179902028E-14  0.00000000000E+00  0.91188000000E+02  0.91188000000E+02 0.  0.
    9900012    2    3    3    0    0 -0.36312269082E+02 -0.34939807890E-01  0.60990323594E+01  0.54367077926E+02  0.39999985748E+02 0.  0.
        -12    1    3    3    0    0  0.36312269082E+02  0.34939807890E-01 -0.60990323594E+01  0.36820922074E+02  0.00000000000E+00 0.  1.
         11    1    4    4    0    0 -0.59586193059E+01 -0.65973488908E+01 -0.78867086369E+01  0.11884036764E+02  0.51100000000E-03 0. -1.
        -11    1    4    4    0    0 -0.26041562140E+02  0.11640669414E+02  0.17834481798E+01  0.28580567362E+02  0.51100000000E-03 0.  1.
        -12    1    4    4    0    0 -0.43120876362E+01 -0.50782603309E+01  0.12202292817E+02  0.13902473800E+02  0.00000000000E+00 0.  1.
</event>
<event>
 8    1  0.1254059E-006  0.9118800E+02  0.7816164E-02  0.1184000E+00
        -11   -1    0    0    0    0  0.00000000000E+00  0.00000000000E+00  0.45593999997E+02  0.45594000000E+02  0.51100000000E-03 0.  1.
         11   -1    0    0    0    0 -0.00000000000E+00 -0.00000000000E+00 -0.45593999997E+02  0.45594000000E+02  0.51100000000E-03 0. -1.
         23    2    1    2    0    0 -0.35527136788E-14  0.00000000000E+00  0.17763568394E-14  0.91188000000E+02  0.91188000000E+02 0.  0.
    9900012    2    3    3    0    0 -0.30954535609E+02 -0.12385416479E+02 -0.15626802041E+02  0.54367098895E+02  0.40000033552E+02 0.  0.
         12    1    3    3    0    0  0.30954535609E+02  0.12385416479E+02  0.15626802041E+02  0.36820901105E+02  0.00000000000E+00 0. -1.
         11    1    4    4    0    0 -0.33163265502E+02 -0.16773145994E+01 -0.10137915364E+02  0.34718768573E+02  0.51100000000E-03 0. -1.
        -11    1    4    4    0    0 -0.45521156982E+01 -0.43942848994E+00  0.22747174679E+01  0.51077582703E+01  0.51100000000E-03 0.  1.
         12    1    4    4    0    0  0.67608455912E+01 -0.10268673389E+02 -0.77636041446E+01  0.14540572052E+02  0.00000000000E+00 0. -1.
</event>
<event>
 8    1  0.1254059E-006  0.9118800E+02  0.7816164E-02  0.1184000E+00
        -11   -1    0    0    0    0  0.00000000000E+00  0.00000000000E+00  0.45593999997E+02  0.45594000000E+02  0.51100000000E-03 0. -1.
         11   -1    0    0    0    0 -0.00000000000E+00 -0.00000000000E+00 -0.45593999997E+02  0.45594000000E+02  0.51100000000E-03 0.  1.
         23    2    1    2    0    0  0.13877787808E-15  0.35527136788E-14 -0.71054273576E-14  0.91188000000E+02  0.91188000000E+02 0.  0.
    9900012    2    3    3    0    0  0.18899196134E+00 -0.19192689954E+02 -0.31422689668E+02  0.54367075356E+02  0.39999979890E+02 0.  0.
         12    1    3    3    0    0 -0.18899196134E+00  0.19192689954E+02  0.31422689668E+02  0.36820924644E+02  0.00000000000E+00 0. -1.
         11    1    4    4    0    0 -0.22132178625E+01 -0.14820593136E+01  0.67466903927E+01  0.72534588047E+01  0.51100000000E-03 0. -1.
        -11    1    4    4    0    0  0.71471360484E+01 -0.95839125892E+01 -0.55814678512E+01  0.13194154685E+02  0.51100000000E-03 0.  1.
         12    1    4    4    0    0 -0.47449262246E+01 -0.81267180512E+01 -0.32587912210E+02  0.33919461867E+02  0.00000000000E+00 0. -1.
</event>
<event>
 8    1  0.1254059E-006  0.9118800E+02  0.7816164E-02  0.1184000E+00
        -11   -1    0    0    0    0  0.00000000000E+00  0.00000000000E+00  0.45593999997E+02  0.45594000000E+02  0.51100000000E-03 0. -1.
         11   -1    0    0    0    0 -0.00000000000E+00 -0.00000000000E+00 -0.45593999997E+02  0.45594000000E+02  0.51100000000E-03 0.  1.
         23    2    1    2    0    0  0.00000000000E+00  0.00000000000E+00  0.00000000000E+00  0.91188000000E+02  0.91188000000E+02 0.  0.
    9900012    2    3    3    0    0 -0.20143310881E+02 -0.17307762749E+01  0.30773872787E+02  0.54367084665E+02  0.40000001111E+02 0.  0.
        -12    1    3    3    0    0  0.20143310881E+02  0.17307762749E+01 -0.30773872787E+02  0.36820915335E+02  0.00000000000E+00 0.  1.
         11    1    4    4    0    0 -0.65806824745E+01  0.26100522541E+01  0.32892516233E+02  0.33645733444E+02  0.51100000000E-03 0. -1.
        -11    1    4    4    0    0 -0.86667925036E+01  0.36695930052E+01  0.31884131964E+01  0.99370611398E+01  0.51100000000E-03 0.  1.
        -12    1    4    4    0    0 -0.48958359033E+01 -0.80104215341E+01 -0.53070566423E+01  0.10784290081E+02  0.00000000000E+00 0.  1.
</event>
<event>
 8    1  0.1254059E-006  0.9118800E+02  0.7816164E-02  0.1184000E+00
        -11   -1    0    0    0    0  0.00000000000E+00  0.00000000000E+00  0.45593999997E+02  0.45594000000E+02  0.51100000000E-03 0.  1.
         11   -1    0    0    0    0 -0.00000000000E+00 -0.00000000000E+00 -0.45593999997E+02  0.45594000000E+02  0.51100000000E-03 0. -1.
         23    2    1    2    0    0  0.88817841970E-15  0.17763568394E-14  0.00000000000E+00  0.91188000000E+02  0.91188000000E+02 0.  0.
    9900012    2    3    3    0    0 -0.31260164062E+01 -0.87942139529E+01  0.35618379249E+02  0.54367094010E+02  0.40000022414E+02 0.  0.
         12    1    3    3    0    0  0.31260164062E+01  0.87942139529E+01 -0.35618379249E+02  0.36820905990E+02  0.00000000000E+00 0. -1.
         11    1    4    4    0    0  0.39639159290E+01 -0.33210856556E+01 -0.49382940089E+01  0.71504536502E+01  0.51100000000E-03 0. -1.
        -11    1    4    4    0    0 -0.12590919199E+02  0.39836245764E+01  0.23373883917E+02  0.26846581918E+02  0.51100000000E-03 0.  1.
        -12    1    4    4    0    0  0.55009868642E+01 -0.94567528736E+01  0.17182789340E+02  0.20370058441E+02  0.00000000000E+00 0.  1.
</event>
<event>
 8    1  0.1254059E-006  0.9118800E+02  0.7816164E-02  0.1184000E+00
        -11   -1    0    0    0    0  0.00000000000E+00  0.00000000000E+00  0.45593999997E+02  0.45594000000E+02  0.51100000000E-03 0.  1.
         11   -1    0    0    0    0 -0.00000000000E+00 -0.00000000000E+00 -0.45593999997E+02  0.45594000000E+02  0.51100000000E-03 0. -1.
         23    2    1    2    0    0  0.00000000000E+00  0.35527136788E-14 -0.35527136788E-14  0.91188000000E+02  0.91188000000E+02 0.  0.
    9900012    2    3    3    0    0  0.90409142958E+01 -0.25780384424E+02  0.24686277050E+02  0.54367100677E+02  0.40000037613E+02 0.  0.
         12    1    3    3    0    0 -0.90409142958E+01  0.25780384424E+02 -0.24686277050E+02  0.36820899323E+02  0.00000000000E+00 0. -1.
         11    1    4    4    0    0  0.67433512340E+01  0.60395712596E+01 -0.30778421430E+00  0.90578108972E+01  0.51100000000E-03 0. -1.
        -11    1    4    4    0    0  0.76241592889E+01 -0.17558220429E+02  0.23049504546E+02  0.29961618273E+02  0.51100000000E-03 0.  1.
         12    1    4    4    0    0 -0.53265962271E+01 -0.14261735254E+02  0.19445567188E+01  0.15347671506E+02  0.00000000000E+00 0. -1.
</event>
<event>
 8    1  0.1254059E-006  0.9118800E+02  0.7816164E-02  0.1184000E+00
        -11   -1    0    0    0    0  0.00000000000E+00  0.00000000000E+00  0.45593999997E+02  0.45594000000E+02  0.51100000000E-03 0. -1.
         11   -1    0    0    0    0 -0.00000000000E+00 -0.00000000000E+00 -0.45593999997E+02  0.45594000000E+02  0.51100000000E-03 0.  1.
         23    2    1    2    0    0  0.35527136788E-14 -0.22204460493E-14  0.00000000000E+00  0.91188000000E+02  0.91188000000E+02 0.  0.
    9900012    2    3    3    0    0 -0.29594385623E+02  0.30847766297E+01 -0.21689518143E+02  0.54367099623E+02  0.40000035211E+02 0.  0.
        -12    1    3    3    0    0  0.29594385623E+02 -0.30847766297E+01  0.21689518143E+02  0.36820900377E+02  0.00000000000E+00 0.  1.
         11    1    4    4    0    0 -0.57408611399E+01 -0.95597246810E+01 -0.48446514798E+01  0.12157979718E+02  0.51100000000E-03 0. -1.
        -11    1    4    4    0    0 -0.25184439711E+00 -0.63739536569E+01 -0.87640335867E+01  0.10839695373E+02  0.51100000000E-03 0.  1.
        -12    1    4    4    0    0 -0.23601680086E+02  0.19018454968E+02 -0.80808330764E+01  0.31369424532E+02  0.00000000000E+00 0.  1.
</event>
<event>
 8    1  0.1254059E-006  0.9118800E+02  0.7816164E-02  0.1184000E+00
        -11   -1    0    0    0    0  0.00000000000E+00  0.00000000000E+00  0.45593999997E+02  0.45594000000E+02  0.51100000000E-03 0.  1.
         11   -1    0    0    0    0 -0.00000000000E+00 -0.00000000000E+00 -0.45593999997E+02  0.45594000000E+02  0.51100000000E-03 0. -1.
         23    2    1    2    0    0  0.17763568394E-14  0.00000000000E+00 -0.44408920985E-15  0.91188000000E+02  0.91188000000E+02 0.  0.
    9900012    2    3    3    0    0  0.12798772685E+02 -0.34499862902E+02 -0.13155614425E+01  0.54367084417E+02  0.40000000545E+02 0.  0.
        -12    1    3    3    0    0 -0.12798772685E+02  0.34499862902E+02  0.13155614425E+01  0.36820915583E+02  0.00000000000E+00 0.  1.
         11    1    4    4    0    0 -0.27554662825E+01 -0.24593356635E+02 -0.75998466701E+01  0.25887901705E+02  0.51100000000E-03 0. -1.
        -11    1    4    4    0    0  0.32495437679E+01 -0.13403406532E+02  0.73769446701E+01  0.15640657093E+02  0.51100000000E-03 0.  1.
         12    1    4    4    0    0  0.12304695200E+02  0.34969002653E+01 -0.10926594426E+01  0.12838525619E+02  0.00000000000E+00 0. -1.
</event>
<event>
 8    1  0.1254059E-006  0.9118800E+02  0.7816164E-02  0.1184000E+00
        -11   -1    0    0    0    0  0.00000000000E+00  0.00000000000E+00  0.45593999997E+02  0.45594000000E+02  0.51100000000E-03 0.  1.
         11   -1    0    0    0    0 -0.00000000000E+00 -0.00000000000E+00 -0.45593999997E+02  0.45594000000E+02  0.51100000000E-03 0. -1.
         23    2    1    2    0    0  0.00000000000E+00  0.17763568394E-14 -0.44408920985E-15  0.91188000000E+02  0.91188000000E+02 0.  0.
    9900012    2    3    3    0    0  0.34860074602E+02  0.11609090004E+02 -0.24041332071E+01  0.54367141395E+02  0.40000130437E+02 0.  0.
        -12    1    3    3    0    0 -0.34860074602E+02 -0.11609090004E+02  0.24041332071E+01  0.36820858605E+02  0.00000000000E+00 0.  1.
         11    1    4    4    0    0  0.14502250083E+02  0.21480690844E+02 -0.75685331611E+01  0.27000333907E+02  0.51100000000E-03 0. -1.
        -11    1    4    4    0    0  0.19734182928E+02 -0.97728930869E+01  0.87720271797E+01  0.23704342982E+02  0.51100000000E-03 0.  1.
         12    1    4    4    0    0  0.62364159113E+00 -0.98707753031E-01 -0.36076272257E+01  0.36624645055E+01  0.00000000000E+00 0. -1.
</event>
<event>
 8    1  0.1254059E-006  0.9118800E+02  0.7816164E-02  0.1184000E+00
        -11   -1    0    0    0    0  0.00000000000E+00  0.00000000000E+00  0.45593999997E+02  0.45594000000E+02  0.51100000000E-03 0.  1.
         11   -1    0    0    0    0 -0.00000000000E+00 -0.00000000000E+00 -0.45593999997E+02  0.45594000000E+02  0.51100000000E-03 0. -1.
         23    2    1    2    0    0  0.00000000000E+00  0.00000000000E+00  0.35527136788E-14  0.91188000000E+02  0.91188000000E+02 0.  0.
    9900012    2    3    3    0    0  0.24140447264E+02  0.27233678467E+02 -0.55985046424E+01  0.54367113384E+02  0.40000066582E+02 0.  0.
         12    1    3    3    0    0 -0.24140447264E+02 -0.27233678467E+02  0.55985046424E+01  0.36820886616E+02  0.00000000000E+00 0. -1.
         11    1    4    4    0    0  0.17344331594E+01  0.20857894145E+02 -0.16583755356E+02  0.26703575575E+02  0.51100000000E-03 0. -1.
        -11    1    4    4    0    0  0.78258802148E+01  0.73575689258E+01  0.53665836048E+01  0.12007432760E+02  0.51100000000E-03 0.  1.
         12    1    4    4    0    0  0.14580133889E+02 -0.98178460361E+00  0.56186671083E+01  0.15656105049E+02  0.00000000000E+00 0. -1.
</event>
<event>
 8    1  0.1254059E-006  0.9118800E+02  0.7816164E-02  0.1184000E+00
        -11   -1    0    0    0    0  0.00000000000E+00  0.00000000000E+00  0.45593999997E+02  0.45594000000E+02  0.51100000000E-03 0.  1.
         11   -1    0    0    0    0 -0.00000000000E+00 -0.00000000000E+00 -0.45593999997E+02  0.45594000000E+02  0.51100000000E-03 0. -1.
         23    2    1    2    0    0 -0.88817841970E-15 -0.35527136788E-14  0.00000000000E+00  0.91188000000E+02  0.91188000000E+02 0.  0.
    9900012    2    3    3    0    0 -0.28484259628E+01 -0.19528681982E+02  0.31085303884E+02  0.54367094688E+02  0.40000023961E+02 0.  0.
         12    1    3    3    0    0  0.28484259628E+01  0.19528681982E+02 -0.31085303884E+02  0.36820905312E+02  0.00000000000E+00 0. -1.
         11    1    4    4    0    0 -0.94549867332E+01  0.34816090732E+01  0.80004528485E+01  0.12865676115E+02  0.51100000000E-03 0. -1.
        -11    1    4    4    0    0 -0.42528233853E+01 -0.22827802708E+02  0.18597527107E+02  0.29750010050E+02  0.51100000000E-03 0.  1.
        -12    1    4    4    0    0  0.10859384156E+02 -0.18248834759E+00  0.44873239282E+01  0.11751408523E+02  0.00000000000E+00 0.  1.
</event>
<event>
 8    1  0.1254059E-006  0.9118800E+02  0.7816164E-02  0.1184000E+00
        -11   -1    0    0    0    0  0.00000000000E+00  0.00000000000E+00  0.45593999997E+02  0.45594000000E+02  0.51100000000E-03 0.  1.
         11   -1    0    0    0    0 -0.00000000000E+00 -0.00000000000E+00 -0.45593999997E+02  0.45594000000E+02  0.51100000000E-03 0. -1.
         23    2    1    2    0    0  0.00000000000E+00 -0.17763568394E-14  0.35527136788E-14  0.91188000000E+02  0.91188000000E+02 0.  0.
    9900012    2    3    3    0    0  0.30437299412E+02  0.92781040086E+01  0.18527476608E+02  0.54367084762E+02  0.40000001332E+02 0.  0.
         12    1    3    3    0    0 -0.30437299412E+02 -0.92781040086E+01 -0.18527476608E+02  0.36820915238E+02  0.00000000000E+00 0. -1.
         11    1    4    4    0    0  0.23238225406E+02 -0.11844008821E+02  0.72592700831E+01  0.27073837322E+02  0.51100000000E-03 0. -1.
        -11    1    4    4    0    0  0.47974090748E+01  0.14287446639E+02  0.12933386823E+02  0.19859978859E+02  0.51100000000E-03 0.  1.
         12    1    4    4    0    0  0.24016649310E+01  0.68346661898E+01 -0.16651802980E+01  0.74332685806E+01  0.00000000000E+00 0. -1.
</event>
<event>
 8    1  0.1254059E-006  0.9118800E+02  0.7816164E-02  0.1184000E+00
        -11   -1    0    0    0    0  0.00000000000E+00  0.00000000000E+00  0.45593999997E+02  0.45594000000E+02  0.51100000000E-03 0.  1.
         11   -1    0    0    0    0 -0.00000000000E+00 -0.00000000000E+00 -0.45593999997E+02  0.45594000000E+02  0.51100000000E-03 0. -1.
         23    2    1    2    0    0  0.00000000000E+00 -0.35527136788E-14  0.17763568394E-14  0.91188000000E+02  0.91188000000E+02 0.  0.
    9900012    2    3    3    0    0  0.18540535076E+02  0.27696497635E+02 -0.15650310264E+02  0.54367087009E+02  0.40000006455E+02 0.  0.
        -12    1    3    3    0    0 -0.18540535076E+02 -0.27696497635E+02  0.15650310264E+02  0.36820912991E+02  0.00000000000E+00 0.  1.
         11    1    4    4    0    0  0.23998306618E+02  0.24791488292E+02 -0.17859402873E+02  0.38852218514E+02  0.51100000000E-03 0. -1.
        -11    1    4    4    0    0  0.22772222467E+01 -0.27912100650E+01  0.43754229940E+01  0.56675322165E+01  0.51100000000E-03 0.  1.
         12    1    4    4    0    0 -0.77349937883E+01  0.56962194078E+01 -0.21663303852E+01  0.98473362786E+01  0.00000000000E+00 0. -1.
</event>
<event>
 8    1  0.1254059E-006  0.9118800E+02  0.7816164E-02  0.1184000E+00
        -11   -1    0    0    0    0  0.00000000000E+00  0.00000000000E+00  0.45593999997E+02  0.45594000000E+02  0.51100000000E-03 0. -1.
         11   -1    0    0    0    0 -0.00000000000E+00 -0.00000000000E+00 -0.45593999997E+02  0.45594000000E+02  0.51100000000E-03 0.  1.
         23    2    1    2    0    0  0.00000000000E+00 -0.35527136788E-14  0.00000000000E+00  0.91188000000E+02  0.91188000000E+02 0.  0.
    9900012    2    3    3    0    0  0.35713563674E+01 -0.29214738008E+02  0.22125227085E+02  0.54367066053E+02  0.39999958680E+02 0.  0.
        -12    1    3    3    0    0 -0.35713563674E+01  0.29214738008E+02 -0.22125227085E+02  0.36820933947E+02  0.00000000000E+00 0.  1.
         11    1    4    4    0    0 -0.23629990802E+01 -0.31486090450E+02  0.17099629666E+02  0.35907589608E+02  0.51100000000E-03 0.  1.
        -11    1    4    4    0    0 -0.36210044529E+01  0.33953261676E+01  0.70552379797E+01  0.86264880597E+01  0.51100000000E-03 0. -1.
         12    1    4    4    0    0  0.95553599006E+01 -0.11239737254E+01 -0.20296405605E+01  0.98329883845E+01  0.00000000000E+00 0. -1.
</event>
<event>
 8    1  0.1254059E-006  0.9118800E+02  0.7816164E-02  0.1184000E+00
        -11   -1    0    0    0    0  0.00000000000E+00  0.00000000000E+00  0.45593999997E+02  0.45594000000E+02  0.51100000000E-03 0.  1.
         11   -1    0    0    0    0 -0.00000000000E+00 -0.00000000000E+00 -0.45593999997E+02  0.45594000000E+02  0.51100000000E-03 0. -1.
         23    2    1    2    0    0 -0.17763568394E-14  0.00000000000E+00 -0.35527136788E-14  0.91188000000E+02  0.91188000000E+02 0.  0.
    9900012    2    3    3    0    0  0.11405730887E+02  0.26038808877E+02  0.23402360664E+02  0.54367071855E+02  0.39999971908E+02 0.  0.
         12    1    3    3    0    0 -0.11405730887E+02 -0.26038808877E+02 -0.23402360664E+02  0.36820928145E+02  0.00000000000E+00 0. -1.
         11    1    4    4    0    0  0.37745196465E+01  0.56039484027E+00 -0.30504906980E+01  0.48853387496E+01  0.51100000000E-03 0. -1.
        -11    1    4    4    0    0  0.21450548541E+00 -0.20267702502E+01  0.20217197661E+02  0.20319667609E+02  0.51100000000E-03 0.  1.
        -12    1    4    4    0    0  0.74167057551E+01  0.27505184287E+02  0.62356537016E+01  0.29162065496E+02  0.00000000000E+00 0.  1.
</event>
<event>
 8    1  0.1254059E-006  0.9118800E+02  0.7816164E-02  0.1184000E+00
        -11   -1    0    0    0    0  0.00000000000E+00  0.00000000000E+00  0.45593999997E+02  0.45594000000E+02  0.51100000000E-03 0. -1.
         11   -1    0    0    0    0 -0.00000000000E+00 -0.00000000000E+00 -0.45593999997E+02  0.45594000000E+02  0.51100000000E-03 0.  1.
         23    2    1    2    0    0  0.00000000000E+00  0.00000000000E+00  0.35527136788E-14  0.91188000000E+02  0.91188000000E+02 0.  0.
    9900012    2    3    3    0    0  0.29535101120E+02  0.56649536821E+01  0.21245378466E+02  0.54367081971E+02  0.39999994969E+02 0.  0.
        -12    1    3    3    0    0 -0.29535101120E+02 -0.56649536821E+01 -0.21245378466E+02  0.36820918029E+02  0.00000000000E+00 0.  1.
         11    1    4    4    0    0  0.10333083581E+02  0.55686831991E+01  0.11594933746E+02  0.16499252641E+02  0.51100000000E-03 0. -1.
        -11    1    4    4    0    0  0.26780391251E+02 -0.38556777475E+01  0.33786815899E+01  0.27266666390E+02  0.51100000000E-03 0.  1.
        -12    1    4    4    0    0 -0.75783737124E+01  0.39519482304E+01  0.62717631291E+01  0.10601162940E+02  0.00000000000E+00 0.  1.
</event>
<event>
 8    1  0.1254059E-006  0.9118800E+02  0.7816164E-02  0.1184000E+00
        -11   -1    0    0    0    0  0.00000000000E+00  0.00000000000E+00  0.45593999997E+02  0.45594000000E+02  0.51100000000E-03 0. -1.
         11   -1    0    0    0    0 -0.00000000000E+00 -0.00000000000E+00 -0.45593999997E+02  0.45594000000E+02  0.51100000000E-03 0.  1.
         23    2    1    2    0    0 -0.13322676296E-14  0.00000000000E+00  0.00000000000E+00  0.91188000000E+02  0.91188000000E+02 0.  0.
    9900012    2    3    3    0    0  0.31169972815E+01 -0.34990950956E+02 -0.11031691745E+02  0.54367074650E+02  0.39999978279E+02 0.  0.
         12    1    3    3    0    0 -0.31169972815E+01  0.34990950956E+02  0.11031691745E+02  0.36820925350E+02  0.00000000000E+00 0. -1.
         11    1    4    4    0    0 -0.40527669271E+01  0.47231882082E+01 -0.77135884344E+01  0.99112498411E+01  0.51100000000E-03 0. -1.
        -11    1    4    4    0    0  0.10504018643E+02 -0.31824038901E+02  0.32384179277E+01  0.33668846291E+02  0.51100000000E-03 0.  1.
        -12    1    4    4    0    0 -0.33342544340E+01 -0.78901002632E+01 -0.65565212384E+01  0.10786978518E+02  0.00000000000E+00 0.  1.
</event>
<event>
 8    1  0.1254059E-006  0.9118800E+02  0.7816164E-02  0.1184000E+00
        -11   -1    0    0    0    0  0.00000000000E+00  0.00000000000E+00  0.45593999997E+02  0.45594000000E+02  0.51100000000E-03 0.  1.
         11   -1    0    0    0    0 -0.00000000000E+00 -0.00000000000E+00 -0.45593999997E+02  0.45594000000E+02  0.51100000000E-03 0. -1.
         23    2    1    2    0    0 -0.35527136788E-14  0.35527136788E-14 -0.66613381478E-15  0.91188000000E+02  0.91188000000E+02 0.  0.
    9900012    2    3    3    0    0  0.30910254682E+02 -0.19983978734E+02  0.98836119589E+00  0.54367080560E+02  0.39999991754E+02 0.  0.
        -12    1    3    3    0    0 -0.30910254682E+02  0.19983978734E+02 -0.98836119589E+00  0.36820919440E+02  0.00000000000E+00 0.  1.
         11    1    4    4    0    0  0.14406008927E+02 -0.16149985471E+02 -0.61768106592E+01  0.22505735138E+02  0.51100000000E-03 0. -1.
        -11    1    4    4    0    0  0.13584661538E+02  0.46831958676E+01 -0.62785901375E+01  0.15681072891E+02  0.51100000000E-03 0.  1.
         12    1    4    4    0    0  0.29195842170E+01 -0.85171891302E+01  0.13443761993E+02  0.16180272532E+02  0.00000000000E+00 0. -1.
</event>
<event>
 8    1  0.1254059E-006  0.9118800E+02  0.7816164E-02  0.1184000E+00
        -11   -1    0    0    0    0  0.00000000000E+00  0.00000000000E+00  0.45593999997E+02  0.45594000000E+02  0.51100000000E-03 0. -1.
         11   -1    0    0    0    0 -0.00000000000E+00 -0.00000000000E+00 -0.45593999997E+02  0.45594000000E+02  0.51100000000E-03 0.  1.
         23    2    1    2    0    0 -0.35527136788E-14  0.00000000000E+00  0.17763568394E-14  0.91188000000E+02  0.91188000000E+02 0.  0.
    9900012    2    3    3    0    0 -0.28237828218E+02 -0.19005494516E+02  0.14042643428E+02  0.54367087481E+02  0.40000007531E+02 0.  0.
        -12    1    3    3    0    0  0.28237828218E+02  0.19005494516E+02 -0.14042643428E+02  0.36820912519E+02  0.00000000000E+00 0.  1.
         11    1    4    4    0    0 -0.18561703487E+02 -0.10164179698E+02  0.99780765820E+01  0.23396781783E+02  0.51100000000E-03 0. -1.
        -11    1    4    4    0    0 -0.36327668887E+01  0.19189551052E+01 -0.10855887620E+02  0.11607311500E+02  0.51100000000E-03 0.  1.
        -12    1    4    4    0    0 -0.60433578421E+01 -0.10760269924E+02  0.14920454466E+02  0.19362994198E+02  0.00000000000E+00 0.  1.
</event>
<event>
 8    1  0.1254059E-006  0.9118800E+02  0.7816164E-02  0.1184000E+00
        -11   -1    0    0    0    0  0.00000000000E+00  0.00000000000E+00  0.45593999997E+02  0.45594000000E+02  0.51100000000E-03 0. -1.
         11   -1    0    0    0    0 -0.00000000000E+00 -0.00000000000E+00 -0.45593999997E+02  0.45594000000E+02  0.51100000000E-03 0.  1.
         23    2    1    2    0    0  0.88817841970E-15  0.00000000000E+00  0.00000000000E+00  0.91188000000E+02  0.91188000000E+02 0.  0.
    9900012    2    3    3    0    0  0.50024913312E+01 -0.25136146730E+02 -0.26437191076E+02  0.54367138197E+02  0.40000123147E+02 0.  0.
         12    1    3    3    0    0 -0.50024913312E+01  0.25136146730E+02  0.26437191076E+02  0.36820861803E+02  0.00000000000E+00 0. -1.
         11    1    4    4    0    0 -0.14336565730E+02 -0.10688071836E+02 -0.23545054641E+02  0.29565885659E+02  0.51100000000E-03 0. -1.
        -11    1    4    4    0    0  0.70983231091E+01 -0.76671700356E+01  0.28202596287E+00  0.10452331138E+02  0.51100000000E-03 0.  1.
         12    1    4    4    0    0  0.12240733952E+02 -0.67809048589E+01 -0.31741623977E+01  0.14348921399E+02  0.00000000000E+00 0. -1.
</event>
<event>
 8    1  0.1254059E-006  0.9118800E+02  0.7816164E-02  0.1184000E+00
        -11   -1    0    0    0    0  0.00000000000E+00  0.00000000000E+00  0.45593999997E+02  0.45594000000E+02  0.51100000000E-03 0. -1.
         11   -1    0    0    0    0 -0.00000000000E+00 -0.00000000000E+00 -0.45593999997E+02  0.45594000000E+02  0.51100000000E-03 0.  1.
         23    2    1    2    0    0 -0.44408920985E-14  0.17763568394E-14  0.00000000000E+00  0.91188000000E+02  0.91188000000E+02 0.  0.
    9900012    2    3    3    0    0 -0.62514593089E+01  0.83877377841E+01 -0.35303627740E+02  0.54367068178E+02  0.39999963525E+02 0.  0.
         12    1    3    3    0    0  0.62514593089E+01 -0.83877377841E+01  0.35303627740E+02  0.36820931822E+02  0.00000000000E+00 0. -1.
         11    1    4    4    0    0  0.14398062495E+02 -0.68567607667E+00 -0.17089379480E+02  0.22356682369E+02  0.51100000000E-03 0. -1.
        -11    1    4    4    0    0 -0.16885695499E+02  0.16750736369E+01 -0.16219209431E+02  0.23473289906E+02  0.51100000000E-03 0.  1.
         12    1    4    4    0    0 -0.37638263044E+01  0.73983402239E+01 -0.19950388290E+01  0.85370959025E+01  0.00000000000E+00 0. -1.
</event>
<event>
 8    1  0.1254059E-006  0.9118800E+02  0.7816164E-02  0.1184000E+00
        -11   -1    0    0    0    0  0.00000000000E+00  0.00000000000E+00  0.45593999997E+02  0.45594000000E+02  0.51100000000E-03 0. -1.
         11   -1    0    0    0    0 -0.00000000000E+00 -0.00000000000E+00 -0.45593999997E+02  0.45594000000E+02  0.51100000000E-03 0.  1.
         23    2    1    2    0    0  0.00000000000E+00  0.00000000000E+00  0.00000000000E+00  0.91188000000E+02  0.91188000000E+02 0.  0.
    9900012    2    3    3    0    0  0.14146734974E+02 -0.33267539709E+02 -0.69940621822E+01  0.54367133436E+02  0.40000112294E+02 0.  0.
         12    1    3    3    0    0 -0.14146734974E+02  0.33267539709E+02  0.69940621822E+01  0.36820866564E+02  0.00000000000E+00 0. -1.
         11    1    4    4    0    0 -0.11358714121E+02 -0.22000580690E+02 -0.84772351917E+01  0.26170774806E+02  0.51100000000E-03 0. -1.
        -11    1    4    4    0    0  0.14771765632E+02 -0.72047166363E+01 -0.95773145598E+00  0.16462996432E+02  0.51100000000E-03 0.  1.
         12    1    4    4    0    0  0.10733683463E+02 -0.40622423820E+01  0.24409044655E+01  0.11733362198E+02  0.00000000000E+00 0. -1.
</event>
<event>
 8    1  0.1254059E-006  0.9118800E+02  0.7816164E-02  0.1184000E+00
        -11   -1    0    0    0    0  0.00000000000E+00  0.00000000000E+00  0.45593999997E+02  0.45594000000E+02  0.51100000000E-03 0. -1.
         11   -1    0    0    0    0 -0.00000000000E+00 -0.00000000000E+00 -0.45593999997E+02  0.45594000000E+02  0.51100000000E-03 0.  1.
         23    2    1    2    0    0  0.00000000000E+00  0.35527136788E-14  0.00000000000E+00  0.91188000000E+02  0.91188000000E+02 0.  0.
    9900012    2    3    3    0    0  0.22706848905E+02  0.20392643023E+02  0.20598978701E+02  0.54367098325E+02  0.40000032251E+02 0.  0.
        -12    1    3    3    0    0 -0.22706848905E+02 -0.20392643023E+02 -0.20598978701E+02  0.36820901675E+02  0.00000000000E+00 0.  1.
         11    1    4    4    0    0  0.11686794758E+02  0.21344487257E+01  0.22546451415E+02  0.25484887968E+02  0.51100000000E-03 0. -1.
        -11    1    4    4    0    0 -0.34051459976E+01 -0.53475344090E+00 -0.37859852125E+01  0.51200258591E+01  0.51100000000E-03 0.  1.
         12    1    4    4    0    0  0.14425200145E+02  0.18792947738E+02  0.18385124990E+01  0.23762184498E+02  0.00000000000E+00 0. -1.
</event>
<event>
 8    1  0.1254059E-006  0.9118800E+02  0.7816164E-02  0.1184000E+00
        -11   -1    0    0    0    0  0.00000000000E+00  0.00000000000E+00  0.45593999997E+02  0.45594000000E+02  0.51100000000E-03 0. -1.
         11   -1    0    0    0    0 -0.00000000000E+00 -0.00000000000E+00 -0.45593999997E+02  0.45594000000E+02  0.51100000000E-03 0.  1.
         23    2    1    2    0    0  0.00000000000E+00  0.71054273576E-14  0.38857805862E-15  0.91188000000E+02  0.91188000000E+02 0.  0.
    9900012    2    3    3    0    0 -0.23177980226E+02  0.28606413870E+02  0.48052574931E+00  0.54367128380E+02  0.40000100769E+02 0.  0.
        -12    1    3    3    0    0  0.23177980226E+02 -0.28606413870E+02 -0.48052574931E+00  0.36820871620E+02  0.00000000000E+00 0.  1.
         11    1    4    4    0    0 -0.63411508507E+01  0.12454394314E+01 -0.12499089320E+01  0.65820654880E+01  0.51100000000E-03 0. -1.
        -11    1    4    4    0    0 -0.79078065503E+00 -0.89643600304E+00 -0.12323029127E+02  0.12380871483E+02  0.51100000000E-03 0.  1.
         12    1    4    4    0    0 -0.16046048720E+02  0.28257410441E+02  0.14053463808E+02  0.35404191410E+02  0.00000000000E+00 0. -1.
</event>
<event>
 8    1  0.1254059E-006  0.9118800E+02  0.7816164E-02  0.1184000E+00
        -11   -1    0    0    0    0  0.00000000000E+00  0.00000000000E+00  0.45593999997E+02  0.45594000000E+02  0.51100000000E-03 0.  1.
         11   -1    0    0    0    0 -0.00000000000E+00 -0.00000000000E+00 -0.45593999997E+02  0.45594000000E+02  0.51100000000E-03 0. -1.
         23    2    1    2    0    0  0.00000000000E+00  0.17763568394E-14  0.88817841970E-15  0.91188000000E+02  0.91188000000E+02 0.  0.
    9900012    2    3    3    0    0  0.33846847961E+02  0.13622743316E+02  0.49590292929E+01  0.54367078992E+02  0.39999988178E+02 0.  0.
        -12    1    3    3    0    0 -0.33846847961E+02 -0.13622743316E+02 -0.49590292929E+01  0.36820921008E+02  0.00000000000E+00 0.  1.
         11    1    4    4    0    0 -0.29843382173E+01  0.81525661323E+01  0.21212634996E+01  0.89370223359E+01  0.51100000000E-03 0. -1.
        -11    1    4    4    0    0  0.40255357231E+01 -0.44364213607E+00 -0.91495308629E+01  0.10005781902E+02  0.51100000000E-03 0.  1.
         12    1    4    4    0    0  0.32805650455E+02  0.59138193195E+01  0.11987296656E+02  0.35424274754E+02  0.00000000000E+00 0. -1.
</event>
<event>
 8    1  0.1254059E-006  0.9118800E+02  0.7816164E-02  0.1184000E+00
        -11   -1    0    0    0    0  0.00000000000E+00  0.00000000000E+00  0.45593999997E+02  0.45594000000E+02  0.51100000000E-03 0. -1.
         11   -1    0    0    0    0 -0.00000000000E+00 -0.00000000000E+00 -0.45593999997E+02  0.45594000000E+02  0.51100000000E-03 0.  1.
         23    2    1    2    0    0  0.00000000000E+00 -0.88817841970E-15  0.00000000000E+00  0.91188000000E+02  0.91188000000E+02 0.  0.
    9900012    2    3    3    0    0 -0.34902647057E+02 -0.48344081682E+01 -0.10686984985E+02  0.54367110250E+02  0.40000059437E+02 0.  0.
        -12    1    3    3    0    0  0.34902647057E+02  0.48344081682E+01  0.10686984985E+02  0.36820889750E+02  0.00000000000E+00 0.  1.
         11    1    4    4    0    0  0.46294900281E+01  0.62279380716E+01  0.15222479446E+01  0.79080104710E+01  0.51100000000E-03 0. -1.
        -11    1    4    4    0    0 -0.27809714096E+02  0.96531376495E-01 -0.11960364206E+02  0.30272757202E+02  0.51100000000E-03 0.  1.
         12    1    4    4    0    0 -0.11722422989E+02 -0.11158877616E+02 -0.24886872337E+00  0.16186342577E+02  0.00000000000E+00 0. -1.
</event>
<event>
 8    1  0.1254059E-006  0.9118800E+02  0.7816164E-02  0.1184000E+00
        -11   -1    0    0    0    0  0.00000000000E+00  0.00000000000E+00  0.45593999997E+02  0.45594000000E+02  0.51100000000E-03 0.  1.
         11   -1    0    0    0    0 -0.00000000000E+00 -0.00000000000E+00 -0.45593999997E+02  0.45594000000E+02  0.51100000000E-03 0. -1.
         23    2    1    2    0    0  0.00000000000E+00  0.17763568394E-14 -0.10658141036E-13  0.91188000000E+02  0.91188000000E+02 0.  0.
    9900012    2    3    3    0    0  0.19095372043E+02  0.11093700982E+02 -0.29463143919E+02  0.54367078169E+02  0.39999986301E+02 0.  0.
        -12    1    3    3    0    0 -0.19095372043E+02 -0.11093700982E+02  0.29463143919E+02  0.36820921831E+02  0.00000000000E+00 0.  1.
         11    1    4    4    0    0 -0.14159125094E+01 -0.33935308691E+01 -0.12771313782E+02  0.13290120991E+02  0.51100000000E-03 0. -1.
        -11    1    4    4    0    0  0.84188250180E+01 -0.18409724703E+01  0.60887227390E+01  0.10551698402E+02  0.51100000000E-03 0.  1.
        -12    1    4    4    0    0  0.12092459534E+02  0.16328204322E+02 -0.22780552876E+02  0.30525258775E+02  0.00000000000E+00 0.  1.
</event>
<event>
 8    1  0.1254059E-006  0.9118800E+02  0.7816164E-02  0.1184000E+00
        -11   -1    0    0    0    0  0.00000000000E+00  0.00000000000E+00  0.45593999997E+02  0.45594000000E+02  0.51100000000E-03 0. -1.
         11   -1    0    0    0    0 -0.00000000000E+00 -0.00000000000E+00 -0.45593999997E+02  0.45594000000E+02  0.51100000000E-03 0.  1.
         23    2    1    2    0    0  0.71054273576E-14 -0.88817841970E-15 -0.17763568394E-14  0.91188000000E+02  0.91188000000E+02 0.  0.
    9900012    2    3    3    0    0  0.33058546682E+02  0.74651867214E+01  0.14393892837E+02  0.54367072900E+02  0.39999974290E+02 0.  0.
        -12    1    3    3    0    0 -0.33058546682E+02 -0.74651867214E+01 -0.14393892837E+02  0.36820927100E+02  0.00000000000E+00 0.  1.
         11    1    4    4    0    0  0.38034588105E+02 -0.13001877268E+00  0.18917388358E+02  0.42479576031E+02  0.51100000000E-03 0. -1.
        -11    1    4    4    0    0 -0.52557227837E+01  0.42025085608E+01 -0.69608351553E+00  0.67652222953E+01  0.51100000000E-03 0.  1.
         12    1    4    4    0    0  0.27968136027E+00  0.33926969332E+01 -0.38274120055E+01  0.51222745732E+01  0.00000000000E+00 0. -1.
</event>
<event>
 8    1  0.1254059E-006  0.9118800E+02  0.7816164E-02  0.1184000E+00
        -11   -1    0    0    0    0  0.00000000000E+00  0.00000000000E+00  0.45593999997E+02  0.45594000000E+02  0.51100000000E-03 0.  1.
         11   -1    0    0    0    0 -0.00000000000E+00 -0.00000000000E+00 -0.45593999997E+02  0.45594000000E+02  0.51100000000E-03 0. -1.
         23    2    1    2    0    0  0.00000000000E+00  0.35527136788E-14  0.00000000000E+00  0.91188000000E+02  0.91188000000E+02 0.  0.
    9900012    2    3    3    0    0 -0.14865836279E+01 -0.15831229740E+02  0.33210574545E+02  0.54367081658E+02  0.39999994256E+02 0.  0.
         12    1    3    3    0    0  0.14865836279E+01  0.15831229740E+02 -0.33210574545E+02  0.36820918342E+02  0.00000000000E+00 0. -1.
         11    1    4    4    0    0  0.35240863862E+00 -0.80214988405E+01  0.85873343940E+01  0.11756315229E+02  0.51100000000E-03 0. -1.
        -11    1    4    4    0    0 -0.18832040602E+01  0.13243310287E+02  0.66952529468E+01  0.14958547295E+02  0.51100000000E-03 0.  1.
        -12    1    4    4    0    0  0.44211793686E-01 -0.21053041186E+02  0.17927987204E+02  0.27652219134E+02  0.00000000000E+00 0.  1.
</event>
<event>
 8    1  0.1254059E-006  0.9118800E+02  0.7816164E-02  0.1184000E+00
        -11   -1    0    0    0    0  0.00000000000E+00  0.00000000000E+00  0.45593999997E+02  0.45594000000E+02  0.51100000000E-03 0. -1.
         11   -1    0    0    0    0 -0.00000000000E+00 -0.00000000000E+00 -0.45593999997E+02  0.45594000000E+02  0.51100000000E-03 0.  1.
         23    2    1    2    0    0 -0.17763568394E-14  0.35527136788E-14  0.00000000000E+00  0.91188000000E+02  0.91188000000E+02 0.  0.
    9900012    2    3    3    0    0 -0.13622977398E+02  0.16966612520E+02  0.29704018575E+02  0.54367079681E+02  0.39999989749E+02 0.  0.
        -12    1    3    3    0    0  0.13622977398E+02 -0.16966612520E+02 -0.29704018575E+02  0.36820920319E+02  0.00000000000E+00 0.  1.
         11    1    4    4    0    0 -0.18575865063E+01  0.25586215876E+01  0.23811243724E+02  0.24020251872E+02  0.51100000000E-03 0. -1.
        -11    1    4    4    0    0 -0.11355634360E+02 -0.24485429922E+01  0.68007125933E+01  0.13460887286E+02  0.51100000000E-03 0.  1.
         12    1    4    4    0    0 -0.40975653226E+00  0.16856533925E+02 -0.90793774218E+00  0.16885940522E+02  0.00000000000E+00 0. -1.
</event>
<event>
 8    1  0.1254059E-006  0.9118800E+02  0.7816164E-02  0.1184000E+00
        -11   -1    0    0    0    0  0.00000000000E+00  0.00000000000E+00  0.45593999997E+02  0.45594000000E+02  0.51100000000E-03 0. -1.
         11   -1    0    0    0    0 -0.00000000000E+00 -0.00000000000E+00 -0.45593999997E+02  0.45594000000E+02  0.51100000000E-03 0.  1.
         23    2    1    2    0    0  0.00000000000E+00  0.00000000000E+00  0.00000000000E+00  0.91188000000E+02  0.91188000000E+02 0.  0.
    9900012    2    3    3    0    0 -0.97234713589E+01 -0.19271944527E+02 -0.29829966092E+02  0.54367073638E+02  0.39999975972E+02 0.  0.
         12    1    3    3    0    0  0.97234713589E+01  0.19271944527E+02  0.29829966092E+02  0.36820926362E+02  0.00000000000E+00 0. -1.
         11    1    4    4    0    0  0.51382553987E+01 -0.11045275384E+02 -0.65506222457E+01  0.13831501326E+02  0.51100000000E-03 0. -1.
        -11    1    4    4    0    0 -0.18971788891E+02 -0.15023016713E+02 -0.12769177954E+02  0.27361865996E+02  0.51100000000E-03 0.  1.
        -12    1    4    4    0    0  0.41100621338E+01  0.67963475698E+01 -0.10510165892E+02  0.13173706316E+02  0.00000000000E+00 0.  1.
</event>
<event>
 8    1  0.1254059E-006  0.9118800E+02  0.7816164E-02  0.1184000E+00
        -11   -1    0    0    0    0  0.00000000000E+00  0.00000000000E+00  0.45593999997E+02  0.45594000000E+02  0.51100000000E-03 0. -1.
         11   -1    0    0    0    0 -0.00000000000E+00 -0.00000000000E+00 -0.45593999997E+02  0.45594000000E+02  0.51100000000E-03 0.  1.
         23    2    1    2    0    0 -0.44408920985E-15  0.00000000000E+00  0.00000000000E+00  0.91188000000E+02  0.91188000000E+02 0.  0.
    9900012    2    3    3    0    0 -0.32948644094E+01  0.29894556645E+02 -0.21242321178E+02  0.54367124704E+02  0.40000092388E+02 0.  0.
         12    1    3    3    0    0  0.32948644094E+01 -0.29894556645E+02  0.21242321178E+02  0.36820875296E+02  0.00000000000E+00 0. -1.
         11    1    4    4    0    0 -0.67955384545E+01  0.14975156113E+02 -0.90686020330E+01  0.18779621577E+02  0.51100000000E-03 0. -1.
        -11    1    4    4    0    0 -0.24822635021E+01  0.14090401413E+02 -0.20684911230E+02  0.25150876663E+02  0.51100000000E-03 0.  1.
         12    1    4    4    0    0  0.59829375472E+01  0.82899911923E+00  0.85111920850E+01  0.10436626464E+02  0.00000000000E+00 0. -1.
</event>
<event>
 8    1  0.1254059E-006  0.9118800E+02  0.7816164E-02  0.1184000E+00
        -11   -1    0    0    0    0  0.00000000000E+00  0.00000000000E+00  0.45593999997E+02  0.45594000000E+02  0.51100000000E-03 0.  1.
         11   -1    0    0    0    0 -0.00000000000E+00 -0.00000000000E+00 -0.45593999997E+02  0.45594000000E+02  0.51100000000E-03 0. -1.
         23    2    1    2    0    0  0.44408920985E-15 -0.35527136788E-14 -0.35527136788E-14  0.91188000000E+02  0.91188000000E+02 0.  0.
    9900012    2    3    3    0    0  0.35021924960E+01 -0.21420406844E+02 -0.29743578475E+02  0.54367086892E+02  0.40000006188E+02 0.  0.
        -12    1    3    3    0    0 -0.35021924960E+01  0.21420406844E+02  0.29743578475E+02  0.36820913108E+02  0.00000000000E+00 0.  1.
         11    1    4    4    0    0 -0.37411186211E+01 -0.24496871006E+02 -0.18740619279E+02  0.31069333254E+02  0.51100000000E-03 0. -1.
        -11    1    4    4    0    0  0.35709646766E+01  0.39207881039E+01  0.47383572976E+01  0.71117085302E+01  0.51100000000E-03 0.  1.
        -12    1    4    4    0    0  0.36723464405E+01 -0.84432394190E+00 -0.15741316493E+02  0.16186045108E+02  0.00000000000E+00 0.  1.
</event>
<event>
 8    1  0.1254059E-006  0.9118800E+02  0.7816164E-02  0.1184000E+00
        -11   -1    0    0    0    0  0.00000000000E+00  0.00000000000E+00  0.45593999997E+02  0.45594000000E+02  0.51100000000E-03 0. -1.
         11   -1    0    0    0    0 -0.00000000000E+00 -0.00000000000E+00 -0.45593999997E+02  0.45594000000E+02  0.51100000000E-03 0.  1.
         23    2    1    2    0    0  0.35527136788E-14  0.17763568394E-14  0.00000000000E+00  0.91188000000E+02  0.91188000000E+02 0.  0.
    9900012    2    3    3    0    0 -0.27929580361E+02  0.14946668592E+02  0.18770030683E+02  0.54367103582E+02  0.40000044236E+02 0.  0.
        -12    1    3    3    0    0  0.27929580361E+02 -0.14946668592E+02 -0.18770030683E+02  0.36820896418E+02  0.00000000000E+00 0.  1.
         11    1    4    4    0    0 -0.40729635904E+01 -0.60247304642E+01  0.11460416223E+02  0.13573044973E+02  0.51100000000E-03 0. -1.
        -11    1    4    4    0    0 -0.10363267509E+02 -0.32575272778E+01 -0.28966721244E+01  0.11242753536E+02  0.51100000000E-03 0.  1.
        -12    1    4    4    0    0 -0.13493349262E+02  0.24228926335E+02  0.10206286584E+02  0.29551305072E+02  0.00000000000E+00 0.  1.
</event>
<event>
 8    1  0.1254059E-006  0.9118800E+02  0.7816164E-02  0.1184000E+00
        -11   -1    0    0    0    0  0.00000000000E+00  0.00000000000E+00  0.45593999997E+02  0.45594000000E+02  0.51100000000E-03 0. -1.
         11   -1    0    0    0    0 -0.00000000000E+00 -0.00000000000E+00 -0.45593999997E+02  0.45594000000E+02  0.51100000000E-03 0.  1.
         23    2    1    2    0    0  0.00000000000E+00 -0.71054273576E-14  0.00000000000E+00  0.91188000000E+02  0.91188000000E+02 0.  0.
    9900012    2    3    3    0    0  0.60307170421E+01  0.34434546074E+02  0.11561648425E+02  0.54367092547E+02  0.40000019079E+02 0.  0.
        -12    1    3    3    0    0 -0.60307170421E+01 -0.34434546074E+02 -0.11561648425E+02  0.36820907453E+02  0.00000000000E+00 0.  1.
         11    1    4    4    0    0  0.13025435616E+02  0.32797781563E+02  0.28655334585E+01  0.35405758439E+02  0.51100000000E-03 0.  1.
        -11    1    4    4    0    0 -0.11229855853E+02  0.35781797150E+01  0.42718574352E+01  0.12536418897E+02  0.51100000000E-03 0. -1.
        -12    1    4    4    0    0  0.42351372791E+01 -0.19414152033E+01  0.44242575310E+01  0.64249152107E+01  0.00000000000E+00 0.  1.
</event>
<event>
 8    1  0.1254059E-006  0.9118800E+02  0.7816164E-02  0.1184000E+00
        -11   -1    0    0    0    0  0.00000000000E+00  0.00000000000E+00  0.45593999997E+02  0.45594000000E+02  0.51100000000E-03 0. -1.
         11   -1    0    0    0    0 -0.00000000000E+00 -0.00000000000E+00 -0.45593999997E+02  0.45594000000E+02  0.51100000000E-03 0.  1.
         23    2    1    2    0    0  0.88817841970E-15  0.88817841970E-15  0.00000000000E+00  0.91188000000E+02  0.91188000000E+02 0.  0.
    9900012    2    3    3    0    0 -0.67127472472E+01 -0.61349834368E+01 -0.35680256577E+02  0.54367086014E+02  0.40000004185E+02 0.  0.
         12    1    3    3    0    0  0.67127472472E+01  0.61349834368E+01  0.35680256577E+02  0.36820913986E+02  0.00000000000E+00 0. -1.
         11    1    4    4    0    0 -0.49917871127E+01 -0.30839707502E+01 -0.20175112064E+02  0.21011043792E+02  0.51100000000E-03 0. -1.
        -11    1    4    4    0    0 -0.99779436694E+01 -0.12963791277E+02 -0.10898900808E+02  0.19657194185E+02  0.51100000000E-03 0.  1.
         12    1    4    4    0    0  0.82569835348E+01  0.99127785901E+01 -0.46062437053E+01  0.13698848037E+02  0.00000000000E+00 0. -1.
</event>
<event>
 8    1  0.1254059E-006  0.9118800E+02  0.7816164E-02  0.1184000E+00
        -11   -1    0    0    0    0  0.00000000000E+00  0.00000000000E+00  0.45593999997E+02  0.45594000000E+02  0.51100000000E-03 0. -1.
         11   -1    0    0    0    0 -0.00000000000E+00 -0.00000000000E+00 -0.45593999997E+02  0.45594000000E+02  0.51100000000E-03 0.  1.
         23    2    1    2    0    0  0.17763568394E-14 -0.88817841970E-15 -0.71054273576E-14  0.91188000000E+02  0.91188000000E+02 0.  0.
    9900012    2    3    3    0    0  0.59819988218E+01 -0.72555075239E+01 -0.35599916451E+02  0.54367071838E+02  0.39999971870E+02 0.  0.
         12    1    3    3    0    0 -0.59819988218E+01  0.72555075239E+01  0.35599916451E+02  0.36820928162E+02  0.00000000000E+00 0. -1.
         11    1    4    4    0    0  0.14064872069E+02  0.16675673180E+01 -0.50016505856E+01  0.15020583075E+02  0.51100000000E-03 0. -1.
        -11    1    4    4    0    0 -0.12821742281E+02 -0.34263842257E+01 -0.77399536354E+01  0.15363725672E+02  0.51100000000E-03 0.  1.
         12    1    4    4    0    0  0.47388690338E+01 -0.54966906163E+01 -0.22858312230E+02  0.23982763091E+02  0.00000000000E+00 0. -1.
</event>
<event>
 8    1  0.1254059E-006  0.9118800E+02  0.7816164E-02  0.1184000E+00
        -11   -1    0    0    0    0  0.00000000000E+00  0.00000000000E+00  0.45593999997E+02  0.45594000000E+02  0.51100000000E-03 0.  1.
         11   -1    0    0    0    0 -0.00000000000E+00 -0.00000000000E+00 -0.45593999997E+02  0.45594000000E+02  0.51100000000E-03 0. -1.
         23    2    1    2    0    0  0.00000000000E+00  0.00000000000E+00  0.00000000000E+00  0.91188000000E+02  0.91188000000E+02 0.  0.
    9900012    2    3    3    0    0 -0.15036735680E+02  0.17515547865E+02  0.28685919729E+02  0.54367084373E+02  0.40000000446E+02 0.  0.
         12    1    3    3    0    0  0.15036735680E+02 -0.17515547865E+02 -0.28685919729E+02  0.36820915627E+02  0.00000000000E+00 0. -1.
         11    1    4    4    0    0  0.45910513187E+00  0.18986641078E+01 -0.10729517292E+01  0.22286607168E+01  0.51100000000E-03 0. -1.
        -11    1    4    4    0    0  0.72760797861E+01  0.18326554009E+02  0.11515291247E+02  0.22834313032E+02  0.51100000000E-03 0.  1.
        -12    1    4    4    0    0 -0.22771920598E+02 -0.27096702520E+01  0.18243580211E+02  0.29304110625E+02  0.00000000000E+00 0.  1.
</event>
<event>
 8    1  0.1254059E-006  0.9118800E+02  0.7816164E-02  0.1184000E+00
        -11   -1    0    0    0    0  0.00000000000E+00  0.00000000000E+00  0.45593999997E+02  0.45594000000E+02  0.51100000000E-03 0.  1.
         11   -1    0    0    0    0 -0.00000000000E+00 -0.00000000000E+00 -0.45593999997E+02  0.45594000000E+02  0.51100000000E-03 0. -1.
         23    2    1    2    0    0 -0.35527136788E-14  0.00000000000E+00  0.17763568394E-14  0.91188000000E+02  0.91188000000E+02 0.  0.
    9900012    2    3    3    0    0 -0.31402447881E+02 -0.11522076430E+02  0.15391785892E+02  0.54367094917E+02  0.40000024482E+02 0.  0.
         12    1    3    3    0    0  0.31402447881E+02  0.11522076430E+02 -0.15391785892E+02  0.36820905083E+02  0.00000000000E+00 0. -1.
         11    1    4    4    0    0 -0.53221248208E+01 -0.81170607898E+01 -0.11711968075E+02  0.15211242057E+02  0.51100000000E-03 0. -1.
        -11    1    4    4    0    0 -0.11024249377E+02  0.25826072366E+01  0.69079454028E+01  0.13263621090E+02  0.51100000000E-03 0.  1.
         12    1    4    4    0    0 -0.15056073683E+02 -0.59876228773E+01  0.20195808563E+02  0.25892231770E+02  0.00000000000E+00 0. -1.
</event>
<event>
 8    1  0.1254059E-006  0.9118800E+02  0.7816164E-02  0.1184000E+00
        -11   -1    0    0    0    0  0.00000000000E+00  0.00000000000E+00  0.45593999997E+02  0.45594000000E+02  0.51100000000E-03 0. -1.
         11   -1    0    0    0    0 -0.00000000000E+00 -0.00000000000E+00 -0.45593999997E+02  0.45594000000E+02  0.51100000000E-03 0.  1.
         23    2    1    2    0    0  0.11102230246E-15  0.00000000000E+00  0.00000000000E+00  0.91188000000E+02  0.91188000000E+02 0.  0.
    9900012    2    3    3    0    0 -0.94559753143E+00 -0.15925079917E+02  0.33185392321E+02  0.54367182674E+02  0.40000224542E+02 0.  0.
        -12    1    3    3    0    0  0.94559753143E+00  0.15925079917E+02 -0.33185392321E+02  0.36820817326E+02  0.00000000000E+00 0.  1.
         11    1    4    4    0    0  0.15945187126E+02 -0.10487298010E+02  0.11770941478E+02  0.22422922994E+02  0.51100000000E-03 0. -1.
        -11    1    4    4    0    0 -0.60138296922E+01  0.43000533462E+01  0.13364002188E+02  0.15272627839E+02  0.51100000000E-03 0.  1.
        -12    1    4    4    0    0 -0.10876954966E+02 -0.97378352534E+01  0.80504486542E+01  0.16671631842E+02  0.00000000000E+00 0.  1.
</event>
<event>
 8    1  0.1254059E-006  0.9118800E+02  0.7816164E-02  0.1184000E+00
        -11   -1    0    0    0    0  0.00000000000E+00  0.00000000000E+00  0.45593999997E+02  0.45594000000E+02  0.51100000000E-03 0.  1.
         11   -1    0    0    0    0 -0.00000000000E+00 -0.00000000000E+00 -0.45593999997E+02  0.45594000000E+02  0.51100000000E-03 0. -1.
         23    2    1    2    0    0 -0.88817841970E-15  0.00000000000E+00  0.00000000000E+00  0.91188000000E+02  0.91188000000E+02 0.  0.
    9900012    2    3    3    0    0  0.20585673715E+01 -0.64047108169E+01  0.36201108066E+02  0.54367105857E+02  0.40000049421E+02 0.  0.
         12    1    3    3    0    0 -0.20585673715E+01  0.64047108169E+01 -0.36201108066E+02  0.36820894143E+02  0.00000000000E+00 0. -1.
         11    1    4    4    0    0 -0.40824965607E+01  0.46995703990E+01  0.44176972071E+01  0.76333995689E+01  0.51100000000E-03 0. -1.
        -11    1    4    4    0    0  0.15796435985E+02 -0.15123526453E+02  0.13587341857E+02  0.25746151192E+02  0.51100000000E-03 0.  1.
        -12    1    4    4    0    0 -0.96553720531E+01  0.40192452367E+01  0.18196069003E+02  0.20987555096E+02  0.00000000000E+00 0.  1.
</event>
<event>
 8    1  0.1254059E-006  0.9118800E+02  0.7816164E-02  0.1184000E+00
        -11   -1    0    0    0    0  0.00000000000E+00  0.00000000000E+00  0.45593999997E+02  0.45594000000E+02  0.51100000000E-03 0.  1.
         11   -1    0    0    0    0 -0.00000000000E+00 -0.00000000000E+00 -0.45593999997E+02  0.45594000000E+02  0.51100000000E-03 0. -1.
         23    2    1    2    0    0  0.35527136788E-14  0.00000000000E+00  0.00000000000E+00  0.91188000000E+02  0.91188000000E+02 0.  0.
    9900012    2    3    3    0    0 -0.21537168559E+02 -0.21620488242E+02  0.20603031653E+02  0.54367081290E+02  0.39999993416E+02 0.  0.
         12    1    3    3    0    0  0.21537168559E+02  0.21620488242E+02 -0.20603031653E+02  0.36820918710E+02  0.00000000000E+00 0. -1.
         11    1    4    4    0    0  0.38047865715E+01 -0.97695629032E+00  0.11326452279E+01  0.40882428892E+01  0.51100000000E-03 0. -1.
        -11    1    4    4    0    0 -0.21880169656E+02 -0.26807012045E+02  0.60742883703E+01  0.35131961210E+02  0.51100000000E-03 0.  1.
        -12    1    4    4    0    0 -0.34617854748E+01  0.61634800937E+01  0.13396098055E+02  0.15146877191E+02  0.00000000000E+00 0.  1.
</event>
<event>
 8    1  0.1254059E-006  0.9118800E+02  0.7816164E-02  0.1184000E+00
        -11   -1    0    0    0    0  0.00000000000E+00  0.00000000000E+00  0.45593999997E+02  0.45594000000E+02  0.51100000000E-03 0.  1.
         11   -1    0    0    0    0 -0.00000000000E+00 -0.00000000000E+00 -0.45593999997E+02  0.45594000000E+02  0.51100000000E-03 0. -1.
         23    2    1    2    0    0 -0.35527136788E-14  0.00000000000E+00  0.00000000000E+00  0.91188000000E+02  0.91188000000E+02 0.  0.
    9900012    2    3    3    0    0  0.18227667833E+02 -0.31276911202E+02 -0.67296070044E+01  0.54367073078E+02  0.39999974697E+02 0.  0.
         12    1    3    3    0    0 -0.18227667833E+02  0.31276911202E+02  0.67296070044E+01  0.36820926922E+02  0.00000000000E+00 0. -1.
         11    1    4    4    0    0  0.24561155626E+02 -0.17127234876E+02  0.12537742436E+01  0.29969392558E+02  0.51100000000E-03 0. -1.
        -11    1    4    4    0    0  0.18773875834E+01 -0.12224562343E+02 -0.97889647975E+01  0.15773025730E+02  0.51100000000E-03 0.  1.
        -12    1    4    4    0    0 -0.82108753766E+01 -0.19251139828E+01  0.18055835494E+01  0.86246547903E+01  0.00000000000E+00 0.  1.
</event>
<event>
 8    1  0.1254059E-006  0.9118800E+02  0.7816164E-02  0.1184000E+00
        -11   -1    0    0    0    0  0.00000000000E+00  0.00000000000E+00  0.45593999997E+02  0.45594000000E+02  0.51100000000E-03 0. -1.
         11   -1    0    0    0    0 -0.00000000000E+00 -0.00000000000E+00 -0.45593999997E+02  0.45594000000E+02  0.51100000000E-03 0.  1.
         23    2    1    2    0    0  0.00000000000E+00  0.00000000000E+00  0.35527136788E-14  0.91188000000E+02  0.91188000000E+02 0.  0.
    9900012    2    3    3    0    0 -0.29791899067E+02  0.10254967239E+02 -0.19054081920E+02  0.54367086908E+02  0.40000006225E+02 0.  0.
         12    1    3    3    0    0  0.29791899067E+02 -0.10254967239E+02  0.19054081920E+02  0.36820913092E+02  0.00000000000E+00 0. -1.
         11    1    4    4    0    0 -0.20358327321E+01 -0.26369022215E+01  0.82070175638E+01  0.88573701397E+01  0.51100000000E-03 0. -1.
        -11    1    4    4    0    0 -0.72104143523E+01  0.58066828465E+01  0.15854163046E+01  0.93926133707E+01  0.51100000000E-03 0.  1.
         12    1    4    4    0    0 -0.20545651983E+02  0.70851866143E+01 -0.28846515788E+02  0.36117103398E+02  0.00000000000E+00 0. -1.
</event>
<event>
 8    1  0.1254059E-006  0.9118800E+02  0.7816164E-02  0.1184000E+00
        -11   -1    0    0    0    0  0.00000000000E+00  0.00000000000E+00  0.45593999997E+02  0.45594000000E+02  0.51100000000E-03 0. -1.
         11   -1    0    0    0    0 -0.00000000000E+00 -0.00000000000E+00 -0.45593999997E+02  0.45594000000E+02  0.51100000000E-03 0.  1.
         23    2    1    2    0    0  0.00000000000E+00  0.00000000000E+00 -0.17763568394E-14  0.91188000000E+02  0.91188000000E+02 0.  0.
    9900012    2    3    3    0    0 -0.83295146275E+01 -0.34199884040E+02  0.10805874578E+02  0.54367084644E+02  0.40000001062E+02 0.  0.
        -12    1    3    3    0    0  0.83295146275E+01  0.34199884040E+02 -0.10805874578E+02  0.36820915356E+02  0.00000000000E+00 0.  1.
         11    1    4    4    0    0 -0.74673941081E+01  0.28343361348E+01  0.12860466347E+02  0.15138924368E+02  0.51100000000E-03 0. -1.
        -11    1    4    4    0    0 -0.20490699804E+01 -0.21135452456E+02 -0.72844702084E+01  0.22449266019E+02  0.51100000000E-03 0.  1.
         12    1    4    4    0    0  0.11869494610E+01 -0.15898767719E+02  0.52298784392E+01  0.16778894257E+02  0.00000000000E+00 0. -1.
</event>
<event>
 8    1  0.1254059E-006  0.9118800E+02  0.7816164E-02  0.1184000E+00
        -11   -1    0    0    0    0  0.00000000000E+00  0.00000000000E+00  0.45593999997E+02  0.45594000000E+02  0.51100000000E-03 0.  1.
         11   -1    0    0    0    0 -0.00000000000E+00 -0.00000000000E+00 -0.45593999997E+02  0.45594000000E+02  0.51100000000E-03 0. -1.
         23    2    1    2    0    0  0.66613381478E-15 -0.88817841970E-15 -0.71054273576E-14  0.91188000000E+02  0.91188000000E+02 0.  0.
    9900012    2    3    3    0    0 -0.13403162363E+01  0.60477381960E+01  0.36296118898E+02  0.54367084314E+02  0.40000000311E+02 0.  0.
         12    1    3    3    0    0  0.13403162363E+01 -0.60477381960E+01 -0.36296118898E+02  0.36820915686E+02  0.00000000000E+00 0. -1.
         11    1    4    4    0    0  0.87118099947E+01 -0.29563827236E+01 -0.23051331053E+01  0.94841694991E+01  0.51100000000E-03 0. -1.
        -11    1    4    4    0    0  0.27382676292E+00  0.72766200527E+01  0.31782591152E+01  0.79451564964E+01  0.51100000000E-03 0.  1.
        -12    1    4    4    0    0 -0.10325952994E+02  0.17275008670E+01  0.35422992888E+02  0.36937758319E+02  0.00000000000E+00 0.  1.
</event>
<event>
 8    1  0.1254059E-006  0.9118800E+02  0.7816164E-02  0.1184000E+00
        -11   -1    0    0    0    0  0.00000000000E+00  0.00000000000E+00  0.45593999997E+02  0.45594000000E+02  0.51100000000E-03 0. -1.
         11   -1    0    0    0    0 -0.00000000000E+00 -0.00000000000E+00 -0.45593999997E+02  0.45594000000E+02  0.51100000000E-03 0.  1.
         23    2    1    2    0    0  0.00000000000E+00  0.00000000000E+00 -0.11102230246E-14  0.91188000000E+02  0.91188000000E+02 0.  0.
    9900012    2    3    3    0    0  0.36361644017E+02  0.55602438293E+01 -0.16412808389E+01  0.54367091947E+02  0.40000017712E+02 0.  0.
         12    1    3    3    0    0 -0.36361644017E+02 -0.55602438293E+01  0.16412808389E+01  0.36820908053E+02  0.00000000000E+00 0. -1.
         11    1    4    4    0    0  0.39825316369E+02  0.47409762596E+01  0.57846418813E+00  0.40110688113E+02  0.51100000000E-03 0.  1.
        -11    1    4    4    0    0 -0.63274555616E+01  0.95070078667E+00  0.39035718152E+01  0.74952250832E+01  0.51100000000E-03 0. -1.
        -12    1    4    4    0    0  0.28637832091E+01 -0.13143321691E+00 -0.61233168423E+01  0.67611787515E+01  0.00000000000E+00 0.  1.
</event>
<event>
 8    1  0.1254059E-006  0.9118800E+02  0.7816164E-02  0.1184000E+00
        -11   -1    0    0    0    0  0.00000000000E+00  0.00000000000E+00  0.45593999997E+02  0.45594000000E+02  0.51100000000E-03 0.  1.
         11   -1    0    0    0    0 -0.00000000000E+00 -0.00000000000E+00 -0.45593999997E+02  0.45594000000E+02  0.51100000000E-03 0. -1.
         23    2    1    2    0    0  0.00000000000E+00  0.35527136788E-14  0.00000000000E+00  0.91188000000E+02  0.91188000000E+02 0.  0.
    9900012    2    3    3    0    0 -0.88801790286E+01 -0.10573316055E+02  0.34133814674E+02  0.54367219235E+02  0.40000307888E+02 0.  0.
         12    1    3    3    0    0  0.88801790286E+01  0.10573316055E+02 -0.34133814674E+02  0.36820780765E+02  0.00000000000E+00 0. -1.
         11    1    4    4    0    0 -0.64651161591E+01  0.61604471377E+01  0.20982221020E+02  0.22803561895E+02  0.51100000000E-03 0.  1.
        -11    1    4    4    0    0 -0.85632680026E+01  0.10386386567E+01  0.86721726335E+01  0.12231717279E+02  0.51100000000E-03 0. -1.
         12    1    4    4    0    0  0.61482051331E+01 -0.17772401849E+02  0.44794210205E+01  0.19331940061E+02  0.00000000000E+00 0. -1.
</event>
<event>
 8    1  0.1254059E-006  0.9118800E+02  0.7816164E-02  0.1184000E+00
        -11   -1    0    0    0    0  0.00000000000E+00  0.00000000000E+00  0.45593999997E+02  0.45594000000E+02  0.51100000000E-03 0.  1.
         11   -1    0    0    0    0 -0.00000000000E+00 -0.00000000000E+00 -0.45593999997E+02  0.45594000000E+02  0.51100000000E-03 0. -1.
         23    2    1    2    0    0 -0.35527136788E-14  0.00000000000E+00  0.00000000000E+00  0.91188000000E+02  0.91188000000E+02 0.  0.
    9900012    2    3    3    0    0  0.27038261931E+02  0.17245478359E+02  0.18091538261E+02  0.54367110701E+02  0.40000060466E+02 0.  0.
         12    1    3    3    0    0 -0.27038261931E+02 -0.17245478359E+02 -0.18091538261E+02  0.36820889299E+02  0.00000000000E+00 0. -1.
         11    1    4    4    0    0  0.13499646934E+02  0.97857669575E+00  0.11707900248E+02  0.17896173003E+02  0.51100000000E-03 0. -1.
        -11    1    4    4    0    0  0.13824873351E+02  0.12460606741E+02  0.16988985443E+02  0.25199592659E+02  0.51100000000E-03 0.  1.
         12    1    4    4    0    0 -0.28625835325E+00  0.38062949215E+01 -0.10605347430E+02  0.11271345039E+02  0.00000000000E+00 0. -1.
</event>
<event>
 8    1  0.1254059E-006  0.9118800E+02  0.7816164E-02  0.1184000E+00
        -11   -1    0    0    0    0  0.00000000000E+00  0.00000000000E+00  0.45593999997E+02  0.45594000000E+02  0.51100000000E-03 0.  1.
         11   -1    0    0    0    0 -0.00000000000E+00 -0.00000000000E+00 -0.45593999997E+02  0.45594000000E+02  0.51100000000E-03 0. -1.
         23    2    1    2    0    0  0.00000000000E+00  0.88817841970E-15 -0.88817841970E-15  0.91188000000E+02  0.91188000000E+02 0.  0.
    9900012    2    3    3    0    0 -0.36061499973E+02  0.57008754308E+01  0.47799839899E+01  0.54367081924E+02  0.39999994863E+02 0.  0.
         12    1    3    3    0    0  0.36061499973E+02 -0.57008754308E+01 -0.47799839899E+01  0.36820918076E+02  0.00000000000E+00 0. -1.
         11    1    4    4    0    0 -0.67260856420E+01  0.26798291194E+01 -0.81529629217E+01  0.10903784519E+02  0.51100000000E-03 0. -1.
        -11    1    4    4    0    0 -0.10072816963E+02 -0.11932480084E+02  0.10796200158E+02  0.18984300372E+02  0.51100000000E-03 0.  1.
        -12    1    4    4    0    0 -0.19262597369E+02  0.14953526395E+02  0.21367467534E+01  0.24478997033E+02  0.00000000000E+00 0.  1.
</event>
<event>
 8    1  0.1254059E-006  0.9118800E+02  0.7816164E-02  0.1184000E+00
        -11   -1    0    0    0    0  0.00000000000E+00  0.00000000000E+00  0.45593999997E+02  0.45594000000E+02  0.51100000000E-03 0. -1.
         11   -1    0    0    0    0 -0.00000000000E+00 -0.00000000000E+00 -0.45593999997E+02  0.45594000000E+02  0.51100000000E-03 0.  1.
         23    2    1    2    0    0  0.00000000000E+00  0.00000000000E+00  0.00000000000E+00  0.91188000000E+02  0.91188000000E+02 0.  0.
    9900012    2    3    3    0    0  0.24206379916E+02  0.16058677042E+02  0.22626261464E+02  0.54367114013E+02  0.40000068016E+02 0.  0.
        -12    1    3    3    0    0 -0.24206379916E+02 -0.16058677042E+02 -0.22626261464E+02  0.36820885987E+02  0.00000000000E+00 0.  1.
         11    1    4    4    0    0  0.99897062829E+01  0.11485769127E+02  0.36062107589E+01  0.15643589113E+02  0.51100000000E-03 0. -1.
        -11    1    4    4    0    0  0.14761985871E+02  0.78702203802E+01 -0.25271102467E+01  0.16918713962E+02  0.51100000000E-03 0.  1.
        -12    1    4    4    0    0 -0.54531223718E+00 -0.32973124648E+01  0.21547160952E+02  0.21804810938E+02  0.00000000000E+00 0.  1.
</event>
<event>
 8    1  0.1254059E-006  0.9118800E+02  0.7816164E-02  0.1184000E+00
        -11   -1    0    0    0    0  0.00000000000E+00  0.00000000000E+00  0.45593999997E+02  0.45594000000E+02  0.51100000000E-03 0. -1.
         11   -1    0    0    0    0 -0.00000000000E+00 -0.00000000000E+00 -0.45593999997E+02  0.45594000000E+02  0.51100000000E-03 0.  1.
         23    2    1    2    0    0  0.71054273576E-14  0.88817841970E-15  0.00000000000E+00  0.91188000000E+02  0.91188000000E+02 0.  0.
    9900012    2    3    3    0    0  0.33971699609E+02  0.54328374756E+01  0.13122006277E+02  0.54367093628E+02  0.40000021544E+02 0.  0.
        -12    1    3    3    0    0 -0.33971699609E+02 -0.54328374756E+01 -0.13122006277E+02  0.36820906372E+02  0.00000000000E+00 0.  1.
         11    1    4    4    0    0 -0.33896505488E+01  0.32512332524E+01  0.94699164468E+01  0.10570693746E+02  0.51100000000E-03 0. -1.
        -11    1    4    4    0    0  0.15440696998E+02 -0.20567324205E+01 -0.91441802906E+01  0.18062704821E+02  0.51100000000E-03 0.  1.
         12    1    4    4    0    0  0.21920653160E+02  0.42383366436E+01  0.12796270121E+02  0.25733695060E+02  0.00000000000E+00 0. -1.
</event>
<event>
 8    1  0.1254059E-006  0.9118800E+02  0.7816164E-02  0.1184000E+00
        -11   -1    0    0    0    0  0.00000000000E+00  0.00000000000E+00  0.45593999997E+02  0.45594000000E+02  0.51100000000E-03 0. -1.
         11   -1    0    0    0    0 -0.00000000000E+00 -0.00000000000E+00 -0.45593999997E+02  0.45594000000E+02  0.51100000000E-03 0.  1.
         23    2    1    2    0    0  0.00000000000E+00 -0.17763568394E-14  0.00000000000E+00  0.91188000000E+02  0.91188000000E+02 0.  0.
    9900012    2    3    3    0    0  0.82091441902E+01  0.15202250606E+02 -0.32515880566E+02  0.54367068985E+02  0.39999965366E+02 0.  0.
         12    1    3    3    0    0 -0.82091441902E+01 -0.15202250606E+02  0.32515880566E+02  0.36820931015E+02  0.00000000000E+00 0. -1.
         11    1    4    4    0    0 -0.95562883656E+01  0.76871323514E+01  0.21612081397E+01  0.12453331763E+02  0.51100000000E-03 0. -1.
        -11    1    4    4    0    0  0.75721435629E+01  0.10300244600E+02 -0.21615485012E+02  0.25112976517E+02  0.51100000000E-03 0.  1.
         12    1    4    4    0    0  0.10193288993E+02 -0.27851263451E+01 -0.13061603693E+02  0.16800760706E+02  0.00000000000E+00 0. -1.
</event>
<event>
 8    1  0.1254059E-006  0.9118800E+02  0.7816164E-02  0.1184000E+00
        -11   -1    0    0    0    0  0.00000000000E+00  0.00000000000E+00  0.45593999997E+02  0.45594000000E+02  0.51100000000E-03 0. -1.
         11   -1    0    0    0    0 -0.00000000000E+00 -0.00000000000E+00 -0.45593999997E+02  0.45594000000E+02  0.51100000000E-03 0.  1.
         23    2    1    2    0    0  0.00000000000E+00  0.00000000000E+00  0.00000000000E+00  0.91188000000E+02  0.91188000000E+02 0.  0.
    9900012    2    3    3    0    0 -0.65155945280E+01 -0.89554770011E+01  0.35115894487E+02  0.54367087654E+02  0.40000007925E+02 0.  0.
        -12    1    3    3    0    0  0.65155945280E+01  0.89554770011E+01 -0.35115894487E+02  0.36820912346E+02  0.00000000000E+00 0.  1.
         11    1    4    4    0    0 -0.12317606581E+02 -0.12865134682E+02  0.37630526020E+02  0.41632818918E+02  0.51100000000E-03 0. -1.
        -11    1    4    4    0    0 -0.16568533923E+01 -0.21240838815E+01 -0.15095412461E+01  0.30879783895E+01  0.51100000000E-03 0.  1.
        -12    1    4    4    0    0  0.74588654448E+01  0.60337415627E+01 -0.10050902864E+01  0.96462903467E+01  0.00000000000E+00 0.  1.
</event>
<event>
 8    1  0.1254059E-006  0.9118800E+02  0.7816164E-02  0.1184000E+00
        -11   -1    0    0    0    0  0.00000000000E+00  0.00000000000E+00  0.45593999997E+02  0.45594000000E+02  0.51100000000E-03 0.  1.
         11   -1    0    0    0    0 -0.00000000000E+00 -0.00000000000E+00 -0.45593999997E+02  0.45594000000E+02  0.51100000000E-03 0. -1.
         23    2    1    2    0    0  0.35527136788E-14  0.00000000000E+00 -0.35527136788E-14  0.91188000000E+02  0.91188000000E+02 0.  0.
    9900012    2    3    3    0    0 -0.21065840615E+02  0.24374842500E+02 -0.17829103528E+02  0.54367088545E+02  0.40000009957E+02 0.  0.
        -12    1    3    3    0    0  0.21065840615E+02 -0.24374842500E+02  0.17829103528E+02  0.36820911455E+02  0.00000000000E+00 0.  1.
         11    1    4    4    0    0 -0.62018771624E+01 -0.53487933859E+01  0.56230542884E+01  0.99343651440E+01  0.51100000000E-03 0. -1.
        -11    1    4    4    0    0  0.33548836754E+01  0.12496580520E+01 -0.60163284591E+00  0.36302688695E+01  0.51100000000E-03 0.  1.
         12    1    4    4    0    0 -0.18218847128E+02  0.28473977834E+02 -0.22850524971E+02  0.40802454532E+02  0.00000000000E+00 0. -1.
</event>
<event>
 8    1  0.1254059E-006  0.9118800E+02  0.7816164E-02  0.1184000E+00
        -11   -1    0    0    0    0  0.00000000000E+00  0.00000000000E+00  0.45593999997E+02  0.45594000000E+02  0.51100000000E-03 0.  1.
         11   -1    0    0    0    0 -0.00000000000E+00 -0.00000000000E+00 -0.45593999997E+02  0.45594000000E+02  0.51100000000E-03 0. -1.
         23    2    1    2    0    0 -0.44408920985E-15 -0.17763568394E-14  0.00000000000E+00  0.91188000000E+02  0.91188000000E+02 0.  0.
    9900012    2    3    3    0    0  0.25286630103E+01  0.15504943491E+02 -0.33301385228E+02  0.54367086549E+02  0.40000005405E+02 0.  0.
        -12    1    3    3    0    0 -0.25286630103E+01 -0.15504943491E+02  0.33301385228E+02  0.36820913451E+02  0.00000000000E+00 0.  1.
         11    1    4    4    0    0 -0.86997767127E+00 -0.76908928419E+00 -0.10964424795E+02  0.11025741283E+02  0.51100000000E-03 0. -1.
        -11    1    4    4    0    0  0.50177034944E+01  0.21711317682E+02 -0.27688947235E+02  0.35542037971E+02  0.51100000000E-03 0.  1.
         12    1    4    4    0    0 -0.16190628129E+01 -0.54372849065E+01  0.53519868029E+01  0.77993072952E+01  0.00000000000E+00 0. -1.
</event>
<event>
 8    1  0.1254059E-006  0.9118800E+02  0.7816164E-02  0.1184000E+00
        -11   -1    0    0    0    0  0.00000000000E+00  0.00000000000E+00  0.45593999997E+02  0.45594000000E+02  0.51100000000E-03 0.  1.
         11   -1    0    0    0    0 -0.00000000000E+00 -0.00000000000E+00 -0.45593999997E+02  0.45594000000E+02  0.51100000000E-03 0. -1.
         23    2    1    2    0    0  0.00000000000E+00  0.00000000000E+00  0.00000000000E+00  0.91188000000E+02  0.91188000000E+02 0.  0.
    9900012    2    3    3    0    0 -0.17868821258E+02 -0.30694646538E+01 -0.32047818831E+02  0.54367094548E+02  0.40000023642E+02 0.  0.
        -12    1    3    3    0    0  0.17868821258E+02  0.30694646538E+01  0.32047818831E+02  0.36820905452E+02  0.00000000000E+00 0.  1.
         11    1    4    4    0    0  0.12227624760E+01  0.16408926345E+01 -0.55701201244E+01  0.59341313747E+01  0.51100000000E-03 0. -1.
        -11    1    4    4    0    0 -0.23668346030E+02 -0.66295215293E+01 -0.32424278444E+02  0.40687528708E+02  0.51100000000E-03 0.  1.
        -12    1    4    4    0    0  0.45767622961E+01  0.19191642410E+01  0.59465797365E+01  0.77454344656E+01  0.00000000000E+00 0.  1.
</event>
<event>
 8    1  0.1254059E-006  0.9118800E+02  0.7816164E-02  0.1184000E+00
        -11   -1    0    0    0    0  0.00000000000E+00  0.00000000000E+00  0.45593999997E+02  0.45594000000E+02  0.51100000000E-03 0. -1.
         11   -1    0    0    0    0 -0.00000000000E+00 -0.00000000000E+00 -0.45593999997E+02  0.45594000000E+02  0.51100000000E-03 0.  1.
         23    2    1    2    0    0  0.17763568394E-14  0.44408920985E-15  0.00000000000E+00  0.91188000000E+02  0.91188000000E+02 0.  0.
    9900012    2    3    3    0    0  0.13401702712E+02 -0.21024555209E+01 -0.34230884248E+02  0.54367090299E+02  0.40000013954E+02 0.  0.
         12    1    3    3    0    0 -0.13401702712E+02  0.21024555209E+01  0.34230884248E+02  0.36820909701E+02  0.00000000000E+00 0. -1.
         11    1    4    4    0    0  0.13097588958E+02 -0.96617441130E+01 -0.12609592309E+02  0.20588782244E+02  0.51100000000E-03 0. -1.
        -11    1    4    4    0    0 -0.10649617118E+01 -0.55259258692E+01 -0.19692747576E+02  0.20481071932E+02  0.51100000000E-03 0.  1.
        -12    1    4    4    0    0  0.13690754651E+01  0.13085214461E+02 -0.19285443634E+01  0.13297236122E+02  0.00000000000E+00 0.  1.
</event>
<event>
 8    1  0.1254059E-006  0.9118800E+02  0.7816164E-02  0.1184000E+00
        -11   -1    0    0    0    0  0.00000000000E+00  0.00000000000E+00  0.45593999997E+02  0.45594000000E+02  0.51100000000E-03 0.  1.
         11   -1    0    0    0    0 -0.00000000000E+00 -0.00000000000E+00 -0.45593999997E+02  0.45594000000E+02  0.51100000000E-03 0. -1.
         23    2    1    2    0    0 -0.35527136788E-14  0.00000000000E+00  0.00000000000E+00  0.91188000000E+02  0.91188000000E+02 0.  0.
    9900012    2    3    3    0    0  0.16635531005E+02 -0.32730210303E+02  0.27878583507E+01  0.54367085936E+02  0.40000004009E+02 0.  0.
         12    1    3    3    0    0 -0.16635531005E+02  0.32730210303E+02 -0.27878583507E+01  0.36820914064E+02  0.00000000000E+00 0. -1.
         11    1    4    4    0    0  0.19227585221E+02 -0.14613939381E+02  0.71374836852E+01  0.25183544852E+02  0.51100000000E-03 0. -1.
        -11    1    4    4    0    0 -0.70364176840E+01 -0.48976527476E+01  0.71065624304E+01  0.11135591861E+02  0.51100000000E-03 0.  1.
         12    1    4    4    0    0  0.44443634682E+01 -0.13218618174E+02 -0.11456187765E+02  0.18047949223E+02  0.00000000000E+00 0. -1.
</event>
<event>
 8    1  0.1254059E-006  0.9118800E+02  0.7816164E-02  0.1184000E+00
        -11   -1    0    0    0    0  0.00000000000E+00  0.00000000000E+00  0.45593999997E+02  0.45594000000E+02  0.51100000000E-03 0.  1.
         11   -1    0    0    0    0 -0.00000000000E+00 -0.00000000000E+00 -0.45593999997E+02  0.45594000000E+02  0.51100000000E-03 0. -1.
         23    2    1    2    0    0  0.88817841970E-15  0.00000000000E+00  0.71054273576E-14  0.91188000000E+02  0.91188000000E+02 0.  0.
    9900012    2    3    3    0    0  0.53083358168E+01  0.11354458232E+02  0.34621990258E+02  0.54367022822E+02  0.39999860128E+02 0.  0.
         12    1    3    3    0    0 -0.53083358168E+01 -0.11354458232E+02 -0.34621990258E+02  0.36820977178E+02  0.00000000000E+00 0. -1.
         11    1    4    4    0    0 -0.29022882872E+01  0.11176995757E+02 -0.12735938325E+00  0.11548364911E+02  0.51100000000E-03 0. -1.
        -11    1    4    4    0    0 -0.82338582081E+01  0.65098580001E+00  0.85935117072E+01  0.11919255313E+02  0.51100000000E-03 0.  1.
         12    1    4    4    0    0  0.16444482312E+02 -0.47352332440E+00  0.26155837934E+02  0.30899402598E+02  0.00000000000E+00 0. -1.
</event>
<event>
 8    1  0.1254059E-006  0.9118800E+02  0.7816164E-02  0.1184000E+00
        -11   -1    0    0    0    0  0.00000000000E+00  0.00000000000E+00  0.45593999997E+02  0.45594000000E+02  0.51100000000E-03 0.  1.
         11   -1    0    0    0    0 -0.00000000000E+00 -0.00000000000E+00 -0.45593999997E+02  0.45594000000E+02  0.51100000000E-03 0. -1.
         23    2    1    2    0    0 -0.71054273576E-14 -0.94368957093E-15 -0.17763568394E-14  0.91188000000E+02  0.91188000000E+02 0.  0.
    9900012    2    3    3    0    0  0.36548033831E+02 -0.45795695525E+00  0.44510345496E+01  0.54367079180E+02  0.39999988607E+02 0.  0.
         12    1    3    3    0    0 -0.36548033831E+02  0.45795695525E+00 -0.44510345496E+01  0.36820920820E+02  0.00000000000E+00 0. -1.
         11    1    4    4    0    0  0.41023277417E+01  0.95455011068E+01 -0.10431641245E+02  0.14722935291E+02  0.51100000000E-03 0. -1.
        -11    1    4    4    0    0  0.23373603629E+02 -0.23585326556E+00  0.10351800055E+02  0.25564442845E+02  0.51100000000E-03 0.  1.
        -12    1    4    4    0    0  0.90721024600E+01 -0.97676047965E+01  0.45308757393E+01  0.14079701043E+02  0.00000000000E+00 0.  1.
</event>
<event>
 8    1  0.1254059E-006  0.9118800E+02  0.7816164E-02  0.1184000E+00
        -11   -1    0    0    0    0  0.00000000000E+00  0.00000000000E+00  0.45593999997E+02  0.45594000000E+02  0.51100000000E-03 0. -1.
         11   -1    0    0    0    0 -0.00000000000E+00 -0.00000000000E+00 -0.45593999997E+02  0.45594000000E+02  0.51100000000E-03 0.  1.
         23    2    1    2    0    0  0.00000000000E+00 -0.17763568394E-14  0.88817841970E-15  0.91188000000E+02  0.91188000000E+02 0.  0.
    9900012    2    3    3    0    0  0.33355131221E+02 -0.13999218140E+02  0.68729233861E+01  0.54367082532E+02  0.39999996249E+02 0.  0.
         12    1    3    3    0    0 -0.33355131221E+02  0.13999218140E+02 -0.68729233861E+01  0.36820917468E+02  0.00000000000E+00 0. -1.
         11    1    4    4    0    0  0.17676403228E+02 -0.12190922221E+02 -0.57638286569E+01  0.22232758190E+02  0.51100000000E-03 0.  1.
        -11    1    4    4    0    0  0.12289829600E+02  0.51876315711E+01  0.18207130565E+02  0.22571022054E+02  0.51100000000E-03 0. -1.
         12    1    4    4    0    0  0.33888983926E+01 -0.69959274911E+01 -0.55703785222E+01  0.95633022882E+01  0.00000000000E+00 0. -1.
</event>
<event>
 8    1  0.1254059E-006  0.9118800E+02  0.7816164E-02  0.1184000E+00
        -11   -1    0    0    0    0  0.00000000000E+00  0.00000000000E+00  0.45593999997E+02  0.45594000000E+02  0.51100000000E-03 0. -1.
         11   -1    0    0    0    0 -0.00000000000E+00 -0.00000000000E+00 -0.45593999997E+02  0.45594000000E+02  0.51100000000E-03 0.  1.
         23    2    1    2    0    0 -0.88817841970E-15  0.00000000000E+00 -0.35527136788E-14  0.91188000000E+02  0.91188000000E+02 0.  0.
    9900012    2    3    3    0    0  0.50688588486E+01  0.31068807243E+02 -0.19100134225E+02  0.54367092339E+02  0.40000018606E+02 0.  0.
         12    1    3    3    0    0 -0.50688588486E+01 -0.31068807243E+02  0.19100134225E+02  0.36820907661E+02  0.00000000000E+00 0. -1.
         11    1    4    4    0    0  0.67901574738E+01  0.28863070878E+01 -0.72638143096E+01  0.10353743560E+02  0.51100000000E-03 0. -1.
        -11    1    4    4    0    0  0.69093070235E+01  0.31763296592E+02 -0.61727485952E+01  0.33086981721E+02  0.51100000000E-03 0.  1.
        -12    1    4    4    0    0 -0.86306056487E+01 -0.35807964370E+01 -0.56635713207E+01  0.10926367058E+02  0.00000000000E+00 0.  1.
</event>
<event>
 8    1  0.1254059E-006  0.9118800E+02  0.7816164E-02  0.1184000E+00
        -11   -1    0    0    0    0  0.00000000000E+00  0.00000000000E+00  0.45593999997E+02  0.45594000000E+02  0.51100000000E-03 0. -1.
         11   -1    0    0    0    0 -0.00000000000E+00 -0.00000000000E+00 -0.45593999997E+02  0.45594000000E+02  0.51100000000E-03 0.  1.
         23    2    1    2    0    0  0.71054273576E-14 -0.17763568394E-14  0.17763568394E-14  0.91188000000E+02  0.91188000000E+02 0.  0.
    9900012    2    3    3    0    0 -0.34013290035E+02 -0.13801779498E+02 -0.28960602589E+01  0.54367079570E+02  0.39999989496E+02 0.  0.
         12    1    3    3    0    0  0.34013290035E+02  0.13801779498E+02  0.28960602589E+01  0.36820920430E+02  0.00000000000E+00 0. -1.
         11    1    4    4    0    0  0.16839508198E+01 -0.65435706300E+00  0.94564012319E+01  0.96274294622E+01  0.51100000000E-03 0. -1.
        -11    1    4    4    0    0 -0.92528077647E+01 -0.12308579439E+02 -0.95839428291E+01  0.18137462329E+02  0.51100000000E-03 0.  1.
         12    1    4    4    0    0 -0.26444433090E+02 -0.83884299601E+00 -0.27685186617E+01  0.26602187778E+02  0.00000000000E+00 0. -1.
</event>
<event>
 8    1  0.1254059E-006  0.9118800E+02  0.7816164E-02  0.1184000E+00
        -11   -1    0    0    0    0  0.00000000000E+00  0.00000000000E+00  0.45593999997E+02  0.45594000000E+02  0.51100000000E-03 0. -1.
         11   -1    0    0    0    0 -0.00000000000E+00 -0.00000000000E+00 -0.45593999997E+02  0.45594000000E+02  0.51100000000E-03 0.  1.
         23    2    1    2    0    0  0.00000000000E+00  0.35527136788E-14  0.00000000000E+00  0.91188000000E+02  0.91188000000E+02 0.  0.
    9900012    2    3    3    0    0  0.73108225810E+01 -0.31850796673E+02  0.16966423055E+02  0.54367069990E+02  0.39999967657E+02 0.  0.
        -12    1    3    3    0    0 -0.73108225810E+01  0.31850796673E+02 -0.16966423055E+02  0.36820930010E+02  0.00000000000E+00 0.  1.
         11    1    4    4    0    0  0.74528143914E+01 -0.25568400668E+02  0.16679843699E+02  0.31424588163E+02  0.51100000000E-03 0. -1.
        -11    1    4    4    0    0 -0.90666185484E+01 -0.72591625716E+01  0.51802417818E+01  0.12717465090E+02  0.51100000000E-03 0.  1.
         12    1    4    4    0    0  0.89246267380E+01  0.97676656699E+00 -0.48936624265E+01  0.10225016738E+02  0.00000000000E+00 0. -1.
</event>
<event>
 8    1  0.1254059E-006  0.9118800E+02  0.7816164E-02  0.1184000E+00
        -11   -1    0    0    0    0  0.00000000000E+00  0.00000000000E+00  0.45593999997E+02  0.45594000000E+02  0.51100000000E-03 0. -1.
         11   -1    0    0    0    0 -0.00000000000E+00 -0.00000000000E+00 -0.45593999997E+02  0.45594000000E+02  0.51100000000E-03 0.  1.
         23    2    1    2    0    0 -0.35527136788E-14 -0.17763568394E-14 -0.71054273576E-14  0.91188000000E+02  0.91188000000E+02 0.  0.
    9900012    2    3    3    0    0 -0.29316446349E+02 -0.11577558772E+02 -0.19033696951E+02  0.54367142958E+02  0.40000134001E+02 0.  0.
         12    1    3    3    0    0  0.29316446349E+02  0.11577558772E+02  0.19033696951E+02  0.36820857042E+02  0.00000000000E+00 0. -1.
         11    1    4    4    0    0  0.35151725539E+01  0.51794991777E+01  0.52122067375E+01  0.81455969180E+01  0.51100000000E-03 0. -1.
        -11    1    4    4    0    0 -0.61199639709E+01  0.20405771727E+01 -0.22047647776E+01  0.68175437064E+01  0.51100000000E-03 0.  1.
        -12    1    4    4    0    0 -0.26711654932E+02 -0.18797635123E+02 -0.22041138911E+02  0.39404002334E+02  0.00000000000E+00 0.  1.
</event>
<event>
 8    1  0.1254059E-006  0.9118800E+02  0.7816164E-02  0.1184000E+00
        -11   -1    0    0    0    0  0.00000000000E+00  0.00000000000E+00  0.45593999997E+02  0.45594000000E+02  0.51100000000E-03 0.  1.
         11   -1    0    0    0    0 -0.00000000000E+00 -0.00000000000E+00 -0.45593999997E+02  0.45594000000E+02  0.51100000000E-03 0. -1.
         23    2    1    2    0    0  0.71054273576E-14  0.00000000000E+00  0.00000000000E+00  0.91188000000E+02  0.91188000000E+02 0.  0.
    9900012    2    3    3    0    0 -0.36554523132E+02  0.51988445033E+00 -0.43905545982E+01  0.54367076451E+02  0.39999982386E+02 0.  0.
         12    1    3    3    0    0  0.36554523132E+02 -0.51988445033E+00  0.43905545982E+01  0.36820923549E+02  0.00000000000E+00 0. -1.
         11    1    4    4    0    0  0.15846948907E+01  0.37687054515E+01  0.19960426411E+01  0.45495697778E+01  0.51100000000E-03 0. -1.
        -11    1    4    4    0    0 -0.33788779032E+02  0.39805064718E+01 -0.15509732025E+02  0.37390878673E+02  0.51100000000E-03 0.  1.
         12    1    4    4    0    0 -0.43504389917E+01 -0.72293274729E+01  0.91231347861E+01  0.12426628000E+02  0.00000000000E+00 0. -1.
</event>
<event>
 8    1  0.1254059E-006  0.9118800E+02  0.7816164E-02  0.1184000E+00
        -11   -1    0    0    0    0  0.00000000000E+00  0.00000000000E+00  0.45593999997E+02  0.45594000000E+02  0.51100000000E-03 0. -1.
         11   -1    0    0    0    0 -0.00000000000E+00 -0.00000000000E+00 -0.45593999997E+02  0.45594000000E+02  0.51100000000E-03 0.  1.
         23    2    1    2    0    0 -0.88817841970E-15 -0.44408920985E-15  0.00000000000E+00  0.91188000000E+02  0.91188000000E+02 0.  0.
    9900012    2    3    3    0    0 -0.44128636313E+01  0.32398581647E+01  0.36411685053E+02  0.54367070425E+02  0.39999968649E+02 0.  0.
        -12    1    3    3    0    0  0.44128636313E+01 -0.32398581647E+01 -0.36411685053E+02  0.36820929575E+02  0.00000000000E+00 0.  1.
         11    1    4    4    0    0  0.20814747655E+01 -0.72392478730E+01  0.41013127672E+01  0.85767134523E+01  0.51100000000E-03 0. -1.
        -11    1    4    4    0    0 -0.44546340485E+01  0.47089784703E+01 -0.48712219731E+01  0.81084552482E+01  0.51100000000E-03 0.  1.
         12    1    4    4    0    0 -0.20397043484E+01  0.57701275674E+01  0.37181594259E+02  0.37681901725E+02  0.00000000000E+00 0. -1.
</event>
<event>
 8    1  0.1254059E-006  0.9118800E+02  0.7816164E-02  0.1184000E+00
        -11   -1    0    0    0    0  0.00000000000E+00  0.00000000000E+00  0.45593999997E+02  0.45594000000E+02  0.51100000000E-03 0.  1.
         11   -1    0    0    0    0 -0.00000000000E+00 -0.00000000000E+00 -0.45593999997E+02  0.45594000000E+02  0.51100000000E-03 0. -1.
         23    2    1    2    0    0  0.00000000000E+00  0.00000000000E+00  0.00000000000E+00  0.91188000000E+02  0.91188000000E+02 0.  0.
    9900012    2    3    3    0    0 -0.15762020799E+02 -0.13232079249E+02 -0.30532741950E+02  0.54367115275E+02  0.40000070893E+02 0.  0.
        -12    1    3    3    0    0  0.15762020799E+02  0.13232079249E+02  0.30532741950E+02  0.36820884725E+02  0.00000000000E+00 0.  1.
         11    1    4    4    0    0  0.38301125343E+01 -0.80345782088E+00 -0.51500723086E+01  0.64682726860E+01  0.51100000000E-03 0. -1.
        -11    1    4    4    0    0  0.69445776112E+01 -0.54796623020E+01 -0.17085943763E+02  0.19240148952E+02  0.51100000000E-03 0.  1.
        -12    1    4    4    0    0 -0.26536710945E+02 -0.69489591264E+01 -0.82967258777E+01  0.28658693638E+02  0.00000000000E+00 0.  1.
</event>
<event>
 8    1  0.1254059E-006  0.9118800E+02  0.7816164E-02  0.1184000E+00
        -11   -1    0    0    0    0  0.00000000000E+00  0.00000000000E+00  0.45593999997E+02  0.45594000000E+02  0.51100000000E-03 0.  1.
         11   -1    0    0    0    0 -0.00000000000E+00 -0.00000000000E+00 -0.45593999997E+02  0.45594000000E+02  0.51100000000E-03 0. -1.
         23    2    1    2    0    0  0.00000000000E+00  0.88817841970E-15  0.00000000000E+00  0.91188000000E+02  0.91188000000E+02 0.  0.
    9900012    2    3    3    0    0 -0.19821689506E+02  0.74831331361E+01  0.30114478981E+02  0.54367102391E+02  0.40000041521E+02 0.  0.
         12    1    3    3    0    0  0.19821689506E+02 -0.74831331361E+01 -0.30114478981E+02  0.36820897609E+02  0.00000000000E+00 0. -1.
         11    1    4    4    0    0 -0.20217835589E+02 -0.85192778986E+01  0.14326215071E+02  0.26202660367E+02  0.51100000000E-03 0. -1.
        -11    1    4    4    0    0 -0.49374433938E+01  0.13549107098E+02  0.16871383399E+02  0.22194599083E+02  0.51100000000E-03 0.  1.
        -12    1    4    4    0    0  0.53335894763E+01  0.24533039365E+01 -0.10831194880E+01  0.59698429403E+01  0.00000000000E+00 0.  1.
</event>
<event>
 8    1  0.1254059E-006  0.9118800E+02  0.7816164E-02  0.1184000E+00
        -11   -1    0    0    0    0  0.00000000000E+00  0.00000000000E+00  0.45593999997E+02  0.45594000000E+02  0.51100000000E-03 0. -1.
         11   -1    0    0    0    0 -0.00000000000E+00 -0.00000000000E+00 -0.45593999997E+02  0.45594000000E+02  0.51100000000E-03 0.  1.
         23    2    1    2    0    0  0.00000000000E+00  0.00000000000E+00 -0.35527136788E-14  0.91188000000E+02  0.91188000000E+02 0.  0.
    9900012    2    3    3    0    0 -0.23154082487E+02 -0.16051759563E+02  0.23706744403E+02  0.54367078623E+02  0.39999987338E+02 0.  0.
        -12    1    3    3    0    0  0.23154082487E+02  0.16051759563E+02 -0.23706744403E+02  0.36820921377E+02  0.00000000000E+00 0.  1.
         11    1    4    4    0    0 -0.16027190748E+02 -0.26172692734E+02  0.11532448003E+02  0.32785332779E+02  0.51100000000E-03 0. -1.
        -11    1    4    4    0    0 -0.79990150999E+01  0.11753014320E+02  0.13256179616E+02  0.19438206873E+02  0.51100000000E-03 0.  1.
        -12    1    4    4    0    0  0.87212336133E+00 -0.16320811483E+01 -0.10818832156E+01  0.21435389719E+01  0.00000000000E+00 0.  1.
</event>
<event>
 8    1  0.1254059E-006  0.9118800E+02  0.7816164E-02  0.1184000E+00
        -11   -1    0    0    0    0  0.00000000000E+00  0.00000000000E+00  0.45593999997E+02  0.45594000000E+02  0.51100000000E-03 0. -1.
         11   -1    0    0    0    0 -0.00000000000E+00 -0.00000000000E+00 -0.45593999997E+02  0.45594000000E+02  0.51100000000E-03 0.  1.
         23    2    1    2    0    0  0.17763568394E-14  0.17763568394E-14  0.00000000000E+00  0.91188000000E+02  0.91188000000E+02 0.  0.
    9900012    2    3    3    0    0  0.11443841875E+02  0.11956189062E+02 -0.32891747973E+02  0.54367094818E+02  0.40000024256E+02 0.  0.
         12    1    3    3    0    0 -0.11443841875E+02 -0.11956189062E+02  0.32891747973E+02  0.36820905182E+02  0.00000000000E+00 0. -1.
         11    1    4    4    0    0  0.59870172844E+01  0.58186000517E+00 -0.59099427814E+00  0.60441882438E+01  0.51100000000E-03 0. -1.
        -11    1    4    4    0    0  0.26173632599E+01  0.19076556606E+02 -0.34774256998E+02  0.39749396881E+02  0.51100000000E-03 0.  1.
         12    1    4    4    0    0  0.28394613306E+01 -0.77022275485E+01  0.24735033039E+01  0.85735096927E+01  0.00000000000E+00 0. -1.
</event>
<event>
 8    1  0.1254059E-006  0.9118800E+02  0.7816164E-02  0.1184000E+00
        -11   -1    0    0    0    0  0.00000000000E+00  0.00000000000E+00  0.45593999997E+02  0.45594000000E+02  0.51100000000E-03 0. -1.
         11   -1    0    0    0    0 -0.00000000000E+00 -0.00000000000E+00 -0.45593999997E+02  0.45594000000E+02  0.51100000000E-03 0.  1.
         23    2    1    2    0    0  0.00000000000E+00  0.88817841970E-15  0.00000000000E+00  0.91188000000E+02  0.91188000000E+02 0.  0.
    9900012    2    3    3    0    0  0.29288331137E+02 -0.13748572934E+01 -0.22272933212E+02  0.54367080304E+02  0.39999991169E+02 0.  0.
         12    1    3    3    0    0 -0.29288331137E+02  0.13748572934E+01  0.22272933212E+02  0.36820919696E+02  0.00000000000E+00 0. -1.
         11    1    4    4    0    0 -0.33430056796E+01 -0.46310147070E+01 -0.11859126216E+02  0.13162859076E+02  0.51100000000E-03 0. -1.
        -11    1    4    4    0    0  0.13230942012E+02  0.12331696012E+02 -0.20168580287E+01  0.18198798577E+02  0.51100000000E-03 0.  1.
         12    1    4    4    0    0  0.19400394804E+02 -0.90755385980E+01 -0.83969489680E+01  0.23005422652E+02  0.00000000000E+00 0. -1.
</event>
<event>
 8    1  0.1254059E-006  0.9118800E+02  0.7816164E-02  0.1184000E+00
        -11   -1    0    0    0    0  0.00000000000E+00  0.00000000000E+00  0.45593999997E+02  0.45594000000E+02  0.51100000000E-03 0.  1.
         11   -1    0    0    0    0 -0.00000000000E+00 -0.00000000000E+00 -0.45593999997E+02  0.45594000000E+02  0.51100000000E-03 0. -1.
         23    2    1    2    0    0 -0.17763568394E-14  0.00000000000E+00  0.17763568394E-14  0.91188000000E+02  0.91188000000E+02 0.  0.
    9900012    2    3    3    0    0  0.11412986462E+02  0.32713268422E+02 -0.12464598126E+02  0.54367076638E+02  0.39999982811E+02 0.  0.
         12    1    3    3    0    0 -0.11412986462E+02 -0.32713268422E+02  0.12464598126E+02  0.36820923362E+02  0.00000000000E+00 0. -1.
         11    1    4    4    0    0 -0.80739431726E+00  0.13645230696E+02 -0.24387356021E+01  0.13884942849E+02  0.51100000000E-03 0. -1.
        -11    1    4    4    0    0  0.19061281295E+02  0.35566862332E+01  0.22940613274E+01  0.19525500741E+02  0.51100000000E-03 0.  1.
        -12    1    4    4    0    0 -0.68409005156E+01  0.15511351493E+02 -0.12319923851E+02  0.20956633048E+02  0.00000000000E+00 0.  1.
</event>
<event>
 8    1  0.1254059E-006  0.9118800E+02  0.7816164E-02  0.1184000E+00
        -11   -1    0    0    0    0  0.00000000000E+00  0.00000000000E+00  0.45593999997E+02  0.45594000000E+02  0.51100000000E-03 0. -1.
         11   -1    0    0    0    0 -0.00000000000E+00 -0.00000000000E+00 -0.45593999997E+02  0.45594000000E+02  0.51100000000E-03 0.  1.
         23    2    1    2    0    0  0.35527136788E-14  0.00000000000E+00  0.35527136788E-14  0.91188000000E+02  0.91188000000E+02 0.  0.
    9900012    2    3    3    0    0 -0.27519658162E+02 -0.18438754115E+02 -0.16076706179E+02  0.54367085831E+02  0.40000003769E+02 0.  0.
         12    1    3    3    0    0  0.27519658162E+02  0.18438754115E+02  0.16076706179E+02  0.36820914169E+02  0.00000000000E+00 0. -1.
         11    1    4    4    0    0 -0.39215046955E+01  0.75674717965E+00 -0.67252245587E+00  0.40500805036E+01  0.51100000000E-03 0. -1.
        -11    1    4    4    0    0  0.86415759105E+01 -0.77917623530E+01 -0.10681981187E+02  0.15795351123E+02  0.51100000000E-03 0.  1.
        -12    1    4    4    0    0 -0.32239729377E+02 -0.11403738941E+02 -0.47222025369E+01  0.34521654204E+02  0.00000000000E+00 0.  1.
</event>
<event>
 8    1  0.1254059E-006  0.9118800E+02  0.7816164E-02  0.1184000E+00
        -11   -1    0    0    0    0  0.00000000000E+00  0.00000000000E+00  0.45593999997E+02  0.45594000000E+02  0.51100000000E-03 0. -1.
         11   -1    0    0    0    0 -0.00000000000E+00 -0.00000000000E+00 -0.45593999997E+02  0.45594000000E+02  0.51100000000E-03 0.  1.
         23    2    1    2    0    0  0.66613381478E-15  0.00000000000E+00 -0.17763568394E-14  0.91188000000E+02  0.91188000000E+02 0.  0.
    9900012    2    3    3    0    0  0.18412101894E+01 -0.33383945496E+02 -0.15423862409E+02  0.54367171608E+02  0.40000199315E+02 0.  0.
         12    1    3    3    0    0 -0.18412101894E+01  0.33383945496E+02  0.15423862409E+02  0.36820828392E+02  0.00000000000E+00 0. -1.
         11    1    4    4    0    0  0.13133812239E+02 -0.20540522259E+02  0.52518952812E+01  0.24939777122E+02  0.51100000000E-03 0. -1.
        -11    1    4    4    0    0  0.21040308052E+01 -0.13262660988E+01 -0.58762119209E+01  0.63808928995E+01  0.51100000000E-03 0.  1.
        -12    1    4    4    0    0 -0.13396632855E+02 -0.11517157139E+02 -0.14799545769E+02  0.23046501587E+02  0.00000000000E+00 0.  1.
</event>
<event>
 8    1  0.1254059E-006  0.9118800E+02  0.7816164E-02  0.1184000E+00
        -11   -1    0    0    0    0  0.00000000000E+00  0.00000000000E+00  0.45593999997E+02  0.45594000000E+02  0.51100000000E-03 0.  1.
         11   -1    0    0    0    0 -0.00000000000E+00 -0.00000000000E+00 -0.45593999997E+02  0.45594000000E+02  0.51100000000E-03 0. -1.
         23    2    1    2    0    0  0.00000000000E+00  0.17763568394E-14  0.00000000000E+00  0.91188000000E+02  0.91188000000E+02 0.  0.
    9900012    2    3    3    0    0 -0.21319106172E+02  0.89811357910E+01 -0.28646369881E+02  0.54367087526E+02  0.40000007634E+02 0.  0.
        -12    1    3    3    0    0  0.21319106172E+02 -0.89811357910E+01  0.28646369881E+02  0.36820912474E+02  0.00000000000E+00 0.  1.
         11    1    4    4    0    0  0.49259004119E+00  0.11771096871E+02 -0.54303486687E+01  0.12972665625E+02  0.51100000000E-03 0. -1.
        -11    1    4    4    0    0  0.60277912081E+01 -0.21601997106E+01 -0.49199039488E+01  0.80750346603E+01  0.51100000000E-03 0.  1.
        -12    1    4    4    0    0 -0.27839487421E+02 -0.62976136895E+00 -0.18296117263E+02  0.33319387241E+02  0.00000000000E+00 0.  1.
</event>
<event>
 8    1  0.1254059E-006  0.9118800E+02  0.7816164E-02  0.1184000E+00
        -11   -1    0    0    0    0  0.00000000000E+00  0.00000000000E+00  0.45593999997E+02  0.45594000000E+02  0.51100000000E-03 0.  1.
         11   -1    0    0    0    0 -0.00000000000E+00 -0.00000000000E+00 -0.45593999997E+02  0.45594000000E+02  0.51100000000E-03 0. -1.
         23    2    1    2    0    0  0.00000000000E+00  0.44408920985E-15  0.00000000000E+00  0.91188000000E+02  0.91188000000E+02 0.  0.
    9900012    2    3    3    0    0 -0.68018608297E+01  0.29185910762E+01  0.36069369923E+02  0.54367042228E+02  0.39999904367E+02 0.  0.
         12    1    3    3    0    0  0.68018608297E+01 -0.29185910762E+01 -0.36069369923E+02  0.36820957772E+02  0.00000000000E+00 0. -1.
         11    1    4    4    0    0  0.10232193471E+01  0.42714813825E+01 -0.32044922881E+01  0.54370306343E+01  0.51100000000E-03 0. -1.
        -11    1    4    4    0    0 -0.99483458944E+01  0.11435637232E+02  0.14534374197E+02  0.20999795678E+02  0.51100000000E-03 0.  1.
         12    1    4    4    0    0  0.21232657176E+01 -0.12788527538E+02  0.24739488014E+02  0.27930215916E+02  0.00000000000E+00 0. -1.
</event>
<event>
 8    1  0.1254059E-006  0.9118800E+02  0.7816164E-02  0.1184000E+00
        -11   -1    0    0    0    0  0.00000000000E+00  0.00000000000E+00  0.45593999997E+02  0.45594000000E+02  0.51100000000E-03 0.  1.
         11   -1    0    0    0    0 -0.00000000000E+00 -0.00000000000E+00 -0.45593999997E+02  0.45594000000E+02  0.51100000000E-03 0. -1.
         23    2    1    2    0    0  0.00000000000E+00  0.00000000000E+00 -0.35527136788E-14  0.91188000000E+02  0.91188000000E+02 0.  0.
    9900012    2    3    3    0    0 -0.30055949140E+02 -0.11592293599E+02  0.17833640079E+02  0.54367081108E+02  0.39999993002E+02 0.  0.
         12    1    3    3    0    0  0.30055949140E+02  0.11592293599E+02 -0.17833640079E+02  0.36820918892E+02  0.00000000000E+00 0. -1.
         11    1    4    4    0    0 -0.10129056278E+02  0.28874734646E+01  0.47154549788E+01  0.11539965339E+02  0.51100000000E-03 0. -1.
        -11    1    4    4    0    0 -0.10690107996E+02  0.50880453453E+01  0.17126889459E+02  0.20820589742E+02  0.51100000000E-03 0.  1.
         12    1    4    4    0    0 -0.92367848654E+01 -0.19567812409E+02 -0.40087043595E+01  0.22006526027E+02  0.00000000000E+00 0. -1.
</event>
<event>
 8    1  0.1254059E-006  0.9118800E+02  0.7816164E-02  0.1184000E+00
        -11   -1    0    0    0    0  0.00000000000E+00  0.00000000000E+00  0.45593999997E+02  0.45594000000E+02  0.51100000000E-03 0. -1.
         11   -1    0    0    0    0 -0.00000000000E+00 -0.00000000000E+00 -0.45593999997E+02  0.45594000000E+02  0.51100000000E-03 0.  1.
         23    2    1    2    0    0  0.00000000000E+00  0.00000000000E+00 -0.35527136788E-14  0.91188000000E+02  0.91188000000E+02 0.  0.
    9900012    2    3    3    0    0  0.19619985473E+02 -0.23155869761E+02 -0.20848011824E+02  0.54367112839E+02  0.40000065338E+02 0.  0.
         12    1    3    3    0    0 -0.19619985473E+02  0.23155869761E+02  0.20848011824E+02  0.36820887161E+02  0.00000000000E+00 0. -1.
         11    1    4    4    0    0 -0.91175128347E+00 -0.13578702374E+02  0.27976249918E+01  0.13893853117E+02  0.51100000000E-03 0. -1.
        -11    1    4    4    0    0 -0.23401941667E+01 -0.95092220222E+01 -0.90965026731E+01  0.13365933314E+02  0.51100000000E-03 0.  1.
         12    1    4    4    0    0  0.22871930923E+02 -0.67945365066E-01 -0.14549134142E+02  0.27107326408E+02  0.00000000000E+00 0. -1.
</event>
<event>
 8    1  0.1254059E-006  0.9118800E+02  0.7816164E-02  0.1184000E+00
        -11   -1    0    0    0    0  0.00000000000E+00  0.00000000000E+00  0.45593999997E+02  0.45594000000E+02  0.51100000000E-03 0.  1.
         11   -1    0    0    0    0 -0.00000000000E+00 -0.00000000000E+00 -0.45593999997E+02  0.45594000000E+02  0.51100000000E-03 0. -1.
         23    2    1    2    0    0  0.35527136788E-14  0.53290705182E-14  0.00000000000E+00  0.91188000000E+02  0.91188000000E+02 0.  0.
    9900012    2    3    3    0    0  0.29426176267E+02 -0.10990362755E+02 -0.19211764398E+02  0.54367084551E+02  0.40000000852E+02 0.  0.
        -12    1    3    3    0    0 -0.29426176267E+02  0.10990362755E+02  0.19211764398E+02  0.36820915449E+02  0.00000000000E+00 0.  1.
         11    1    4    4    0    0 -0.55019713777E+01  0.85071765878E+01 -0.49500429020E+01  0.11275933111E+02  0.51100000000E-03 0. -1.
        -11    1    4    4    0    0  0.50178608463E+01 -0.23745855976E+01  0.54968349653E+00  0.55785066497E+01  0.51100000000E-03 0.  1.
         12    1    4    4    0    0  0.29910286798E+02 -0.17122953746E+02 -0.14811404992E+02  0.37512644790E+02  0.00000000000E+00 0. -1.
</event>
<event>
 8    1  0.1254059E-006  0.9118800E+02  0.7816164E-02  0.1184000E+00
        -11   -1    0    0    0    0  0.00000000000E+00  0.00000000000E+00  0.45593999997E+02  0.45594000000E+02  0.51100000000E-03 0.  1.
         11   -1    0    0    0    0 -0.00000000000E+00 -0.00000000000E+00 -0.45593999997E+02  0.45594000000E+02  0.51100000000E-03 0. -1.
         23    2    1    2    0    0  0.00000000000E+00  0.00000000000E+00 -0.22204460493E-15  0.91188000000E+02  0.91188000000E+02 0.  0.
    9900012    2    3    3    0    0 -0.81893709597E+01  0.35866659399E+02 -0.15154320878E+01  0.54367087632E+02  0.40000007875E+02 0.  0.
         12    1    3    3    0    0  0.81893709597E+01 -0.35866659399E+02  0.15154320878E+01  0.36820912368E+02  0.00000000000E+00 0. -1.
         11    1    4    4    0    0  0.50542696591E+01 -0.23223224681E+01  0.80436671985E+01  0.97795401576E+01  0.51100000000E-03 0. -1.
        -11    1    4    4    0    0 -0.79951340058E+01  0.12889635729E+02  0.36034069313E+01  0.15590042295E+02  0.51100000000E-03 0.  1.
        -12    1    4    4    0    0 -0.52485066130E+01  0.25299346138E+02 -0.13162506218E+02  0.28997505179E+02  0.00000000000E+00 0.  1.
</event>
<event>
 8    1  0.1254059E-006  0.9118800E+02  0.7816164E-02  0.1184000E+00
        -11   -1    0    0    0    0  0.00000000000E+00  0.00000000000E+00  0.45593999997E+02  0.45594000000E+02  0.51100000000E-03 0.  1.
         11   -1    0    0    0    0 -0.00000000000E+00 -0.00000000000E+00 -0.45593999997E+02  0.45594000000E+02  0.51100000000E-03 0. -1.
         23    2    1    2    0    0  0.00000000000E+00  0.00000000000E+00  0.00000000000E+00  0.91188000000E+02  0.91188000000E+02 0.  0.
    9900012    2    3    3    0    0  0.28763888404E+02 -0.14145539339E+02 -0.18119679885E+02  0.54367077165E+02  0.39999984013E+02 0.  0.
        -12    1    3    3    0    0 -0.28763888404E+02  0.14145539339E+02  0.18119679885E+02  0.36820922835E+02  0.00000000000E+00 0.  1.
         11    1    4    4    0    0  0.21211655151E+02 -0.45786978307E+01 -0.72905080325E+01  0.22892144848E+02  0.51100000000E-03 0. -1.
        -11    1    4    4    0    0  0.10156567793E+02  0.58259328402E+01 -0.10702034913E+02  0.15862878501E+02  0.51100000000E-03 0.  1.
         12    1    4    4    0    0 -0.26043345411E+01 -0.15392774349E+02 -0.12713693934E+00  0.15612053816E+02  0.00000000000E+00 0. -1.
</event>
<event>
 8    1  0.1254059E-006  0.9118800E+02  0.7816164E-02  0.1184000E+00
        -11   -1    0    0    0    0  0.00000000000E+00  0.00000000000E+00  0.45593999997E+02  0.45594000000E+02  0.51100000000E-03 0.  1.
         11   -1    0    0    0    0 -0.00000000000E+00 -0.00000000000E+00 -0.45593999997E+02  0.45594000000E+02  0.51100000000E-03 0. -1.
         23    2    1    2    0    0  0.00000000000E+00  0.17763568394E-14  0.00000000000E+00  0.91188000000E+02  0.91188000000E+02 0.  0.
    9900012    2    3    3    0    0  0.26066641643E+02  0.10433718035E+02 -0.23821151160E+02  0.54367088534E+02  0.40000009932E+02 0.  0.
        -12    1    3    3    0    0 -0.26066641643E+02 -0.10433718035E+02  0.23821151160E+02  0.36820911466E+02  0.00000000000E+00 0.  1.
         11    1    4    4    0    0  0.28069925407E+02 -0.76215041606E+01 -0.98155277541E+01  0.30697762515E+02  0.51100000000E-03 0. -1.
        -11    1    4    4    0    0  0.78548218793E+00  0.12978153884E+01 -0.31854325585E+01  0.35282131307E+01  0.51100000000E-03 0.  1.
        -12    1    4    4    0    0 -0.27887659523E+01  0.16757406807E+02 -0.10820190847E+02  0.20141112889E+02  0.00000000000E+00 0.  1.
</event>
<event>
 8    1  0.1254059E-006  0.9118800E+02  0.7816164E-02  0.1184000E+00
        -11   -1    0    0    0    0  0.00000000000E+00  0.00000000000E+00  0.45593999997E+02  0.45594000000E+02  0.51100000000E-03 0.  1.
         11   -1    0    0    0    0 -0.00000000000E+00 -0.00000000000E+00 -0.45593999997E+02  0.45594000000E+02  0.51100000000E-03 0. -1.
         23    2    1    2    0    0  0.00000000000E+00  0.00000000000E+00  0.00000000000E+00  0.91188000000E+02  0.91188000000E+02 0.  0.
    9900012    2    3    3    0    0 -0.25272362613E+02 -0.21636475108E+02  0.15778149430E+02  0.54367090633E+02  0.40000014717E+02 0.  0.
         12    1    3    3    0    0  0.25272362613E+02  0.21636475108E+02 -0.15778149430E+02  0.36820909367E+02  0.00000000000E+00 0. -1.
         11    1    4    4    0    0 -0.31086225759E+02 -0.18177676096E+02  0.63530602043E+01  0.36566962062E+02  0.51100000000E-03 0.  1.
        -11    1    4    4    0    0  0.11175329667E+01  0.20465904666E+01 -0.27693025029E+01  0.36202830115E+01  0.51100000000E-03 0. -1.
        -12    1    4    4    0    0  0.46963301796E+01 -0.55053894777E+01  0.12194391729E+02  0.14179845560E+02  0.00000000000E+00 0.  1.
</event>
<event>
 8    1  0.1254059E-006  0.9118800E+02  0.7816164E-02  0.1184000E+00
        -11   -1    0    0    0    0  0.00000000000E+00  0.00000000000E+00  0.45593999997E+02  0.45594000000E+02  0.51100000000E-03 0. -1.
         11   -1    0    0    0    0 -0.00000000000E+00 -0.00000000000E+00 -0.45593999997E+02  0.45594000000E+02  0.51100000000E-03 0.  1.
         23    2    1    2    0    0  0.00000000000E+00  0.00000000000E+00  0.00000000000E+00  0.91188000000E+02  0.91188000000E+02 0.  0.
    9900012    2    3    3    0    0 -0.26027823719E+02 -0.23425144866E+02  0.11383991060E+02  0.54367078339E+02  0.39999986690E+02 0.  0.
         12    1    3    3    0    0  0.26027823719E+02  0.23425144866E+02 -0.11383991060E+02  0.36820921661E+02  0.00000000000E+00 0. -1.
         11    1    4    4    0    0 -0.21521599457E+02  0.40987052781E+00  0.15433723511E+02  0.26486733637E+02  0.51100000000E-03 0. -1.
        -11    1    4    4    0    0 -0.59675957234E+01 -0.61775101217E+01 -0.53428752247E+01  0.10115342107E+02  0.51100000000E-03 0.  1.
         12    1    4    4    0    0  0.14613714620E+01 -0.17657505272E+02  0.12931427728E+01  0.17765002595E+02  0.00000000000E+00 0. -1.
</event>
<event>
 8    1  0.1254059E-006  0.9118800E+02  0.7816164E-02  0.1184000E+00
        -11   -1    0    0    0    0  0.00000000000E+00  0.00000000000E+00  0.45593999997E+02  0.45594000000E+02  0.51100000000E-03 0.  1.
         11   -1    0    0    0    0 -0.00000000000E+00 -0.00000000000E+00 -0.45593999997E+02  0.45594000000E+02  0.51100000000E-03 0. -1.
         23    2    1    2    0    0  0.00000000000E+00 -0.17763568394E-14 -0.35527136788E-14  0.91188000000E+02  0.91188000000E+02 0.  0.
    9900012    2    3    3    0    0 -0.18354391662E+02  0.83724885698E+01  0.30802562182E+02  0.54367080741E+02  0.39999992165E+02 0.  0.
         12    1    3    3    0    0  0.18354391662E+02 -0.83724885698E+01 -0.30802562182E+02  0.36820919259E+02  0.00000000000E+00 0. -1.
         11    1    4    4    0    0 -0.70869822102E+01 -0.29028902979E+01 -0.38156234403E+01  0.85563468506E+01  0.51100000000E-03 0. -1.
        -11    1    4    4    0    0  0.25413013129E+01  0.39252615814E+01 -0.26626036654E+01  0.53810175047E+01  0.51100000000E-03 0.  1.
         12    1    4    4    0    0 -0.13808710764E+02  0.73501172862E+01  0.37280789288E+02  0.40429716385E+02  0.00000000000E+00 0. -1.
</event>
<event>
 8    1  0.1254059E-006  0.9118800E+02  0.7816164E-02  0.1184000E+00
        -11   -1    0    0    0    0  0.00000000000E+00  0.00000000000E+00  0.45593999997E+02  0.45594000000E+02  0.51100000000E-03 0.  1.
         11   -1    0    0    0    0 -0.00000000000E+00 -0.00000000000E+00 -0.45593999997E+02  0.45594000000E+02  0.51100000000E-03 0. -1.
         23    2    1    2    0    0 -0.71054273576E-14  0.00000000000E+00 -0.17763568394E-14  0.91188000000E+02  0.91188000000E+02 0.  0.
    9900012    2    3    3    0    0  0.26748531839E+02  0.21674906317E+02  0.13057331805E+02  0.54367089728E+02  0.40000012653E+02 0.  0.
         12    1    3    3    0    0 -0.26748531839E+02 -0.21674906317E+02 -0.13057331805E+02  0.36820910272E+02  0.00000000000E+00 0. -1.
         11    1    4    4    0    0  0.13376867931E+02  0.10530884342E+01  0.98683898645E+00  0.13454495246E+02  0.51100000000E-03 0. -1.
        -11    1    4    4    0    0 -0.30243087424E+01  0.22132445389E+02  0.93854067125E+01  0.24229681006E+02  0.51100000000E-03 0.  1.
        -12    1    4    4    0    0  0.16395972651E+02 -0.15106275054E+01  0.26850861056E+01  0.16682913475E+02  0.00000000000E+00 0.  1.
</event>
<event>
 8    1  0.1254059E-006  0.9118800E+02  0.7816164E-02  0.1184000E+00
        -11   -1    0    0    0    0  0.00000000000E+00  0.00000000000E+00  0.45593999997E+02  0.45594000000E+02  0.51100000000E-03 0.  1.
         11   -1    0    0    0    0 -0.00000000000E+00 -0.00000000000E+00 -0.45593999997E+02  0.45594000000E+02  0.51100000000E-03 0. -1.
         23    2    1    2    0    0  0.00000000000E+00  0.00000000000E+00 -0.17763568394E-14  0.91188000000E+02  0.91188000000E+02 0.  0.
    9900012    2    3    3    0    0 -0.26737339941E+02 -0.20355192855E+02 -0.15051913835E+02  0.54367091084E+02  0.40000015744E+02 0.  0.
        -12    1    3    3    0    0  0.26737339941E+02  0.20355192855E+02  0.15051913835E+02  0.36820908916E+02  0.00000000000E+00 0.  1.
         11    1    4    4    0    0 -0.20163101444E+02  0.25155556615E+01 -0.11880353289E+02  0.23537660773E+02  0.51100000000E-03 0. -1.
        -11    1    4    4    0    0  0.64985594499E+01 -0.10042814583E+02  0.11313105481E+01  0.12015376127E+02  0.51100000000E-03 0.  1.
         12    1    4    4    0    0 -0.13072797948E+02 -0.12827933934E+02 -0.43028710941E+01  0.18814054184E+02  0.00000000000E+00 0. -1.
</event>
<event>
 8    1  0.1254059E-006  0.9118800E+02  0.7816164E-02  0.1184000E+00
        -11   -1    0    0    0    0  0.00000000000E+00  0.00000000000E+00  0.45593999997E+02  0.45594000000E+02  0.51100000000E-03 0.  1.
         11   -1    0    0    0    0 -0.00000000000E+00 -0.00000000000E+00 -0.45593999997E+02  0.45594000000E+02  0.51100000000E-03 0. -1.
         23    2    1    2    0    0  0.00000000000E+00  0.17763568394E-14  0.00000000000E+00  0.91188000000E+02  0.91188000000E+02 0.  0.
    9900012    2    3    3    0    0 -0.25520603729E+02  0.81905135325E+01  0.25246662281E+02  0.54367086338E+02  0.40000004925E+02 0.  0.
         12    1    3    3    0    0  0.25520603729E+02 -0.81905135325E+01 -0.25246662281E+02  0.36820913662E+02  0.00000000000E+00 0. -1.
         11    1    4    4    0    0 -0.81558317679E+01  0.64030144746E+01 -0.59449885445E+01  0.11952366931E+02  0.51100000000E-03 0. -1.
        -11    1    4    4    0    0  0.11039970956E+01 -0.75858982446E+01  0.11607773568E+02  0.13910609952E+02  0.51100000000E-03 0.  1.
         12    1    4    4    0    0 -0.18468769056E+02  0.93733973025E+01  0.19583877257E+02  0.28504109456E+02  0.00000000000E+00 0. -1.
</event>
<event>
 8    1  0.1254059E-006  0.9118800E+02  0.7816164E-02  0.1184000E+00
        -11   -1    0    0    0    0  0.00000000000E+00  0.00000000000E+00  0.45593999997E+02  0.45594000000E+02  0.51100000000E-03 0.  1.
         11   -1    0    0    0    0 -0.00000000000E+00 -0.00000000000E+00 -0.45593999997E+02  0.45594000000E+02  0.51100000000E-03 0. -1.
         23    2    1    2    0    0 -0.88817841970E-15 -0.27755575616E-15  0.71054273576E-14  0.91188000000E+02  0.91188000000E+02 0.  0.
    9900012    2    3    3    0    0  0.48959025737E+01  0.27047532374E+00 -0.36492963033E+02  0.54367090589E+02  0.40000014616E+02 0.  0.
        -12    1    3    3    0    0 -0.48959025737E+01 -0.27047532374E+00  0.36492963033E+02  0.36820909411E+02  0.00000000000E+00 0.  1.
         11    1    4    4    0    0 -0.10970522130E+02  0.11474182568E+02 -0.26234978283E+02  0.30664039316E+02  0.51100000000E-03 0. -1.
        -11    1    4    4    0    0 -0.59766695858E-01 -0.35360070852E+01 -0.28316740662E+01  0.45304852326E+01  0.51100000000E-03 0.  1.
        -12    1    4    4    0    0  0.15926191399E+02 -0.76677001586E+01 -0.74263106842E+01  0.19172566041E+02  0.00000000000E+00 0.  1.
</event>
<event>
 8    1  0.1254059E-006  0.9118800E+02  0.7816164E-02  0.1184000E+00
        -11   -1    0    0    0    0  0.00000000000E+00  0.00000000000E+00  0.45593999997E+02  0.45594000000E+02  0.51100000000E-03 0. -1.
         11   -1    0    0    0    0 -0.00000000000E+00 -0.00000000000E+00 -0.45593999997E+02  0.45594000000E+02  0.51100000000E-03 0.  1.
         23    2    1    2    0    0  0.00000000000E+00  0.35527136788E-14  0.17763568394E-14  0.91188000000E+02  0.91188000000E+02 0.  0.
    9900012    2    3    3    0    0  0.16111755076E+02 -0.30199338744E+02  0.13572095176E+02  0.54366939727E+02  0.39999670693E+02 0.  0.
         12    1    3    3    0    0 -0.16111755076E+02  0.30199338744E+02 -0.13572095176E+02  0.36821060273E+02  0.00000000000E+00 0. -1.
         11    1    4    4    0    0  0.11282152734E+02 -0.32898217131E+01  0.83527385948E+01  0.14417979731E+02  0.51100000000E-03 0. -1.
        -11    1    4    4    0    0 -0.37342782518E+00  0.17121536912E+01 -0.78601389563E+01  0.80531176122E+01  0.51100000000E-03 0.  1.
         12    1    4    4    0    0  0.52030301666E+01 -0.28621670722E+02  0.13079495537E+02  0.31895842383E+02  0.00000000000E+00 0. -1.
</event>
<event>
 8    1  0.1254059E-006  0.9118800E+02  0.7816164E-02  0.1184000E+00
        -11   -1    0    0    0    0  0.00000000000E+00  0.00000000000E+00  0.45593999997E+02  0.45594000000E+02  0.51100000000E-03 0. -1.
         11   -1    0    0    0    0 -0.00000000000E+00 -0.00000000000E+00 -0.45593999997E+02  0.45594000000E+02  0.51100000000E-03 0.  1.
         23    2    1    2    0    0  0.00000000000E+00  0.00000000000E+00  0.00000000000E+00  0.91188000000E+02  0.91188000000E+02 0.  0.
    9900012    2    3    3    0    0 -0.97392090589E+01  0.16803636369E+02 -0.31282020966E+02  0.54367092570E+02  0.40000019131E+02 0.  0.
         12    1    3    3    0    0  0.97392090589E+01 -0.16803636369E+02  0.31282020966E+02  0.36820907430E+02  0.00000000000E+00 0. -1.
         11    1    4    4    0    0 -0.91946611510E+01 -0.84851509132E+00  0.36153850900E+01  0.99162886784E+01  0.51100000000E-03 0. -1.
        -11    1    4    4    0    0  0.22410685197E+00  0.14833638825E+02 -0.37631104895E+02  0.40449809895E+02  0.51100000000E-03 0.  1.
        -12    1    4    4    0    0 -0.76865475986E+00  0.28185126349E+01  0.27336988394E+01  0.40009939962E+01  0.00000000000E+00 0.  1.
</event>
<event>
 8    1  0.1254059E-006  0.9118800E+02  0.7816164E-02  0.1184000E+00
        -11   -1    0    0    0    0  0.00000000000E+00  0.00000000000E+00  0.45593999997E+02  0.45594000000E+02  0.51100000000E-03 0.  1.
         11   -1    0    0    0    0 -0.00000000000E+00 -0.00000000000E+00 -0.45593999997E+02  0.45594000000E+02  0.51100000000E-03 0. -1.
         23    2    1    2    0    0  0.00000000000E+00 -0.88817841970E-15 -0.35527136788E-14  0.91188000000E+02  0.91188000000E+02 0.  0.
    9900012    2    3    3    0    0 -0.28996363233E+02  0.78280184664E+01 -0.21300536754E+02  0.54367084478E+02  0.40000000684E+02 0.  0.
        -12    1    3    3    0    0  0.28996363233E+02 -0.78280184664E+01  0.21300536754E+02  0.36820915522E+02  0.00000000000E+00 0.  1.
         11    1    4    4    0    0 -0.18109606581E+02 -0.44746109016E+01  0.38173267731E+01  0.19040797704E+02  0.51100000000E-03 0. -1.
        -11    1    4    4    0    0  0.39678558010E+01  0.13128012659E+01 -0.44402315657E-01  0.41796290085E+01  0.51100000000E-03 0.  1.
         12    1    4    4    0    0 -0.14854612453E+02  0.10989828102E+02 -0.25073461211E+02  0.31146657766E+02  0.00000000000E+00 0. -1.
</event>
<event>
 8    1  0.1254059E-006  0.9118800E+02  0.7816164E-02  0.1184000E+00
        -11   -1    0    0    0    0  0.00000000000E+00  0.00000000000E+00  0.45593999997E+02  0.45594000000E+02  0.51100000000E-03 0.  1.
         11   -1    0    0    0    0 -0.00000000000E+00 -0.00000000000E+00 -0.45593999997E+02  0.45594000000E+02  0.51100000000E-03 0. -1.
         23    2    1    2    0    0 -0.88817841970E-15 -0.35527136788E-14  0.00000000000E+00  0.91188000000E+02  0.91188000000E+02 0.  0.
    9900012    2    3    3    0    0 -0.27895394089E+01  0.29247675712E+02  0.22193968968E+02  0.54367077643E+02  0.39999985104E+02 0.  0.
         12    1    3    3    0    0  0.27895394089E+01 -0.29247675712E+02 -0.22193968968E+02  0.36820922357E+02  0.00000000000E+00 0. -1.
         11    1    4    4    0    0  0.42038962691E+00 -0.28242736236E+01  0.69277811847E+01  0.74931569677E+01  0.51100000000E-03 0. -1.
        -11    1    4    4    0    0 -0.16747942216E+02  0.15311936639E+02  0.92465469812E+01  0.24504032391E+02  0.51100000000E-03 0.  1.
         12    1    4    4    0    0  0.13538013181E+02  0.16760012697E+02  0.60196408018E+01  0.22369888284E+02  0.00000000000E+00 0. -1.
</event>
<event>
 8    1  0.1254059E-006  0.9118800E+02  0.7816164E-02  0.1184000E+00
        -11   -1    0    0    0    0  0.00000000000E+00  0.00000000000E+00  0.45593999997E+02  0.45594000000E+02  0.51100000000E-03 0. -1.
         11   -1    0    0    0    0 -0.00000000000E+00 -0.00000000000E+00 -0.45593999997E+02  0.45594000000E+02  0.51100000000E-03 0.  1.
         23    2    1    2    0    0  0.00000000000E+00 -0.35527136788E-14  0.88817841970E-15  0.91188000000E+02  0.91188000000E+02 0.  0.
    9900012    2    3    3    0    0 -0.22077836764E+02 -0.29204494743E+02 -0.39303484034E+01  0.54367068073E+02  0.39999963287E+02 0.  0.
         12    1    3    3    0    0  0.22077836764E+02  0.29204494743E+02  0.39303484034E+01  0.36820931927E+02  0.00000000000E+00 0. -1.
         11    1    4    4    0    0  0.56015401413E+01 -0.37133011736E+01 -0.86326742651E+01  0.10940243269E+02  0.51100000000E-03 0. -1.
        -11    1    4    4    0    0 -0.15994717373E+02 -0.82901812081E+01 -0.72758595858E+01  0.19429261985E+02  0.51100000000E-03 0.  1.
         12    1    4    4    0    0 -0.11684659532E+02 -0.17201012361E+02  0.11978185448E+02  0.23997562819E+02  0.00000000000E+00 0. -1.
</event>
<event>
 8    1  0.1254059E-006  0.9118800E+02  0.7816164E-02  0.1184000E+00
        -11   -1    0    0    0    0  0.00000000000E+00  0.00000000000E+00  0.45593999997E+02  0.45594000000E+02  0.51100000000E-03 0.  1.
         11   -1    0    0    0    0 -0.00000000000E+00 -0.00000000000E+00 -0.45593999997E+02  0.45594000000E+02  0.51100000000E-03 0. -1.
         23    2    1    2    0    0  0.35527136788E-14  0.00000000000E+00 -0.35527136788E-14  0.91188000000E+02  0.91188000000E+02 0.  0.
    9900012    2    3    3    0    0 -0.20836454800E+02  0.10111698694E+02  0.28624687028E+02  0.54367122681E+02  0.40000087775E+02 0.  0.
         12    1    3    3    0    0  0.20836454800E+02 -0.10111698694E+02 -0.28624687028E+02  0.36820877319E+02  0.00000000000E+00 0. -1.
         11    1    4    4    0    0 -0.16802802964E+02  0.14096488004E+02  0.68965856944E+01  0.22991477899E+02  0.51100000000E-03 0. -1.
        -11    1    4    4    0    0 -0.11835759967E+02 -0.56593157992E+00  0.19071337112E+02  0.22452647774E+02  0.51100000000E-03 0.  1.
        -12    1    4    4    0    0  0.78021081307E+01 -0.34188577309E+01  0.26567642219E+01  0.89229970076E+01  0.00000000000E+00 0.  1.
</event>
<event>
 8    1  0.1254059E-006  0.9118800E+02  0.7816164E-02  0.1184000E+00
        -11   -1    0    0    0    0  0.00000000000E+00  0.00000000000E+00  0.45593999997E+02  0.45594000000E+02  0.51100000000E-03 0.  1.
         11   -1    0    0    0    0 -0.00000000000E+00 -0.00000000000E+00 -0.45593999997E+02  0.45594000000E+02  0.51100000000E-03 0. -1.
         23    2    1    2    0    0 -0.33306690739E-15  0.00000000000E+00  0.00000000000E+00  0.91188000000E+02  0.91188000000E+02 0.  0.
    9900012    2    3    3    0    0  0.75985182516E+00 -0.14790477693E+02  0.33711203776E+02  0.54367070283E+02  0.39999968325E+02 0.  0.
         12    1    3    3    0    0 -0.75985182516E+00  0.14790477693E+02 -0.33711203776E+02  0.36820929717E+02  0.00000000000E+00 0. -1.
         11    1    4    4    0    0 -0.85361572344E+01 -0.17060935222E+02  0.40128311229E+01  0.19494725052E+02  0.51100000000E-03 0. -1.
        -11    1    4    4    0    0 -0.23382617920E+00  0.14254189877E+01 -0.15934053247E+01  0.21506823946E+01  0.51100000000E-03 0.  1.
        -12    1    4    4    0    0  0.95298352387E+01  0.84503854114E+00  0.31291777978E+02  0.32721662837E+02  0.00000000000E+00 0.  1.
</event>
<event>
 8    1  0.1254059E-006  0.9118800E+02  0.7816164E-02  0.1184000E+00
        -11   -1    0    0    0    0  0.00000000000E+00  0.00000000000E+00  0.45593999997E+02  0.45594000000E+02  0.51100000000E-03 0.  1.
         11   -1    0    0    0    0 -0.00000000000E+00 -0.00000000000E+00 -0.45593999997E+02  0.45594000000E+02  0.51100000000E-03 0. -1.
         23    2    1    2    0    0  0.00000000000E+00 -0.35527136788E-14  0.00000000000E+00  0.91188000000E+02  0.91188000000E+02 0.  0.
    9900012    2    3    3    0    0  0.25466119492E+02  0.24686364257E+02  0.98915677175E+01  0.54367042189E+02  0.39999904277E+02 0.  0.
         12    1    3    3    0    0 -0.25466119492E+02 -0.24686364257E+02 -0.98915677175E+01  0.36820957811E+02  0.00000000000E+00 0. -1.
         11    1    4    4    0    0 -0.13406720556E+00  0.13141151539E+02 -0.27585747658E+01  0.13428237888E+02  0.51100000000E-03 0. -1.
        -11    1    4    4    0    0  0.31387217896E+01  0.13075613279E+01  0.15702349901E+02  0.16066271620E+02  0.51100000000E-03 0.  1.
        -12    1    4    4    0    0  0.22461464908E+02  0.10237651391E+02 -0.30522074178E+01  0.24872532680E+02  0.00000000000E+00 0.  1.
</event>
<event>
 8    1  0.1254059E-006  0.9118800E+02  0.7816164E-02  0.1184000E+00
        -11   -1    0    0    0    0  0.00000000000E+00  0.00000000000E+00  0.45593999997E+02  0.45594000000E+02  0.51100000000E-03 0.  1.
         11   -1    0    0    0    0 -0.00000000000E+00 -0.00000000000E+00 -0.45593999997E+02  0.45594000000E+02  0.51100000000E-03 0. -1.
         23    2    1    2    0    0  0.00000000000E+00  0.35527136788E-14 -0.88817841970E-15  0.91188000000E+02  0.91188000000E+02 0.  0.
    9900012    2    3    3    0    0  0.26634169356E+02 -0.24553558082E+02 -0.65972745110E+01  0.54367079008E+02  0.39999988214E+02 0.  0.
        -12    1    3    3    0    0 -0.26634169356E+02  0.24553558082E+02  0.65972745110E+01  0.36820920992E+02  0.00000000000E+00 0.  1.
         11    1    4    4    0    0  0.78712184327E+01 -0.22333783135E+02 -0.13300281529E+00  0.23680617364E+02  0.51100000000E-03 0. -1.
        -11    1    4    4    0    0  0.10329426114E+02 -0.45227879955E+01  0.79718725220E+01  0.13809540429E+02  0.51100000000E-03 0.  1.
         12    1    4    4    0    0  0.84335248085E+01  0.23030130483E+01 -0.14436144218E+02  0.16876921214E+02  0.00000000000E+00 0. -1.
</event>
<event>
 8    1  0.1254059E-006  0.9118800E+02  0.7816164E-02  0.1184000E+00
        -11   -1    0    0    0    0  0.00000000000E+00  0.00000000000E+00  0.45593999997E+02  0.45594000000E+02  0.51100000000E-03 0. -1.
         11   -1    0    0    0    0 -0.00000000000E+00 -0.00000000000E+00 -0.45593999997E+02  0.45594000000E+02  0.51100000000E-03 0.  1.
         23    2    1    2    0    0  0.00000000000E+00  0.88817841970E-15 -0.71054273576E-14  0.91188000000E+02  0.91188000000E+02 0.  0.
    9900012    2    3    3    0    0  0.11035431441E+02  0.10925918603E+01 -0.35111308670E+02  0.54367102393E+02  0.40000041525E+02 0.  0.
         12    1    3    3    0    0 -0.11035431441E+02 -0.10925918603E+01  0.35111308670E+02  0.36820897607E+02  0.00000000000E+00 0. -1.
         11    1    4    4    0    0 -0.63810785684E+01  0.25156903331E+01 -0.47772480095E+01  0.83587654802E+01  0.51100000000E-03 0. -1.
        -11    1    4    4    0    0  0.20099096157E+02 -0.56293505715E+01 -0.68014825689E+01  0.21952754259E+02  0.51100000000E-03 0.  1.
        -12    1    4    4    0    0 -0.26825861468E+01  0.42062520987E+01 -0.23532578092E+02  0.24055582653E+02  0.00000000000E+00 0.  1.
</event>
<event>
 8    1  0.1254059E-006  0.9118800E+02  0.7816164E-02  0.1184000E+00
        -11   -1    0    0    0    0  0.00000000000E+00  0.00000000000E+00  0.45593999997E+02  0.45594000000E+02  0.51100000000E-03 0. -1.
         11   -1    0    0    0    0 -0.00000000000E+00 -0.00000000000E+00 -0.45593999997E+02  0.45594000000E+02  0.51100000000E-03 0.  1.
         23    2    1    2    0    0  0.00000000000E+00  0.00000000000E+00  0.00000000000E+00  0.91188000000E+02  0.91188000000E+02 0.  0.
    9900012    2    3    3    0    0 -0.15486881717E+02 -0.13916193772E+02  0.30368990193E+02  0.54367088554E+02  0.40000009976E+02 0.  0.
        -12    1    3    3    0    0  0.15486881717E+02  0.13916193772E+02 -0.30368990193E+02  0.36820911446E+02  0.00000000000E+00 0.  1.
         11    1    4    4    0    0  0.56691479167E+01 -0.71853265648E+01  0.37051803634E+01  0.98740324959E+01  0.51100000000E-03 0. -1.
        -11    1    4    4    0    0  0.16458682457E+01  0.39259071978E+00 -0.47416794150E+01  0.50345341087E+01  0.51100000000E-03 0.  1.
         12    1    4    4    0    0 -0.22801897879E+02 -0.71234579269E+01  0.31405489244E+02  0.39458521949E+02  0.00000000000E+00 0. -1.
</event>
<event>
 8    1  0.1254059E-006  0.9118800E+02  0.7816164E-02  0.1184000E+00
        -11   -1    0    0    0    0  0.00000000000E+00  0.00000000000E+00  0.45593999997E+02  0.45594000000E+02  0.51100000000E-03 0.  1.
         11   -1    0    0    0    0 -0.00000000000E+00 -0.00000000000E+00 -0.45593999997E+02  0.45594000000E+02  0.51100000000E-03 0. -1.
         23    2    1    2    0    0  0.71054273576E-14  0.44408920985E-15  0.00000000000E+00  0.91188000000E+02  0.91188000000E+02 0.  0.
    9900012    2    3    3    0    0 -0.33973322990E+02  0.25205654023E+01 -0.13972815898E+02  0.54367088698E+02  0.40000010306E+02 0.  0.
        -12    1    3    3    0    0  0.33973322990E+02 -0.25205654023E+01  0.13972815898E+02  0.36820911302E+02  0.00000000000E+00 0.  1.
         11    1    4    4    0    0  0.37500752508E+01  0.14534448791E+01  0.66307375584E+01  0.77551432761E+01  0.51100000000E-03 0.  1.
        -11    1    4    4    0    0 -0.66611699329E+01 -0.32502609588E+01 -0.11979379934E+02  0.14086906156E+02  0.51100000000E-03 0. -1.
        -12    1    4    4    0    0 -0.31062228308E+02  0.43173814820E+01 -0.86241735227E+01  0.32525039267E+02  0.00000000000E+00 0.  1.
</event>
<event>
 8    1  0.1254059E-006  0.9118800E+02  0.7816164E-02  0.1184000E+00
        -11   -1    0    0    0    0  0.00000000000E+00  0.00000000000E+00  0.45593999997E+02  0.45594000000E+02  0.51100000000E-03 0.  1.
         11   -1    0    0    0    0 -0.00000000000E+00 -0.00000000000E+00 -0.45593999997E+02  0.45594000000E+02  0.51100000000E-03 0. -1.
         23    2    1    2    0    0  0.17763568394E-14  0.00000000000E+00  0.44408920985E-15  0.91188000000E+02  0.91188000000E+02 0.  0.
    9900012    2    3    3    0    0  0.15646406384E+02  0.33322868972E+02  0.74614989185E+00  0.54367077022E+02  0.39999983687E+02 0.  0.
        -12    1    3    3    0    0 -0.15646406384E+02 -0.33322868972E+02 -0.74614989185E+00  0.36820922978E+02  0.00000000000E+00 0.  1.
         11    1    4    4    0    0  0.55802425489E+01  0.29534691776E+02  0.66509038346E+01  0.30784275975E+02  0.51100000000E-03 0. -1.
        -11    1    4    4    0    0 -0.45216924331E+01 -0.35051506739E+01 -0.43740566484E+01  0.72016772720E+01  0.51100000000E-03 0.  1.
        -12    1    4    4    0    0  0.14587856268E+02  0.72933278699E+01 -0.15306972944E+01  0.16381123775E+02  0.00000000000E+00 0.  1.
</event>
<event>
 8    1  0.1254059E-006  0.9118800E+02  0.7816164E-02  0.1184000E+00
        -11   -1    0    0    0    0  0.00000000000E+00  0.00000000000E+00  0.45593999997E+02  0.45594000000E+02  0.51100000000E-03 0.  1.
         11   -1    0    0    0    0 -0.00000000000E+00 -0.00000000000E+00 -0.45593999997E+02  0.45594000000E+02  0.51100000000E-03 0. -1.
         23    2    1    2    0    0 -0.17763568394E-14 -0.17763568394E-14  0.00000000000E+00  0.91188000000E+02  0.91188000000E+02 0.  0.
    9900012    2    3    3    0    0 -0.14444070819E+02 -0.10157673480E+02  0.32310520696E+02  0.54367092081E+02  0.40000018017E+02 0.  0.
         12    1    3    3    0    0  0.14444070819E+02  0.10157673480E+02 -0.32310520696E+02  0.36820907919E+02  0.00000000000E+00 0. -1.
         11    1    4    4    0    0  0.78711312456E+01  0.23714576175E+01 -0.25257726275E+01  0.85998863913E+01  0.51100000000E-03 0. -1.
        -11    1    4    4    0    0 -0.86343477810E+01 -0.57673618129E+01  0.26313177036E+02  0.28287766082E+02  0.51100000000E-03 0.  1.
         12    1    4    4    0    0 -0.13680854283E+02 -0.67617692845E+01  0.85231162869E+01  0.17479439608E+02  0.00000000000E+00 0. -1.
</event>
<event>
 8    1  0.1254059E-006  0.9118800E+02  0.7816164E-02  0.1184000E+00
        -11   -1    0    0    0    0  0.00000000000E+00  0.00000000000E+00  0.45593999997E+02  0.45594000000E+02  0.51100000000E-03 0. -1.
         11   -1    0    0    0    0 -0.00000000000E+00 -0.00000000000E+00 -0.45593999997E+02  0.45594000000E+02  0.51100000000E-03 0.  1.
         23    2    1    2    0    0  0.35527136788E-14 -0.17763568394E-14  0.00000000000E+00  0.91188000000E+02  0.91188000000E+02 0.  0.
    9900012    2    3    3    0    0 -0.31763371718E+02  0.14341351825E+02  0.11882389645E+02  0.54367118170E+02  0.40000077492E+02 0.  0.
        -12    1    3    3    0    0  0.31763371718E+02 -0.14341351825E+02 -0.11882389645E+02  0.36820881830E+02  0.00000000000E+00 0.  1.
         11    1    4    4    0    0 -0.12954872453E+02  0.19935892821E+02  0.78620276007E+01  0.25041565868E+02  0.51100000000E-03 0. -1.
        -11    1    4    4    0    0 -0.16403847565E+02 -0.90477665682E+01  0.10593095640E+02  0.21521198161E+02  0.51100000000E-03 0.  1.
         12    1    4    4    0    0 -0.24046516998E+01  0.34532255723E+01 -0.65727335950E+01  0.78043541412E+01  0.00000000000E+00 0. -1.
</event>
<event>
 8    1  0.1254059E-006  0.9118800E+02  0.7816164E-02  0.1184000E+00
        -11   -1    0    0    0    0  0.00000000000E+00  0.00000000000E+00  0.45593999997E+02  0.45594000000E+02  0.51100000000E-03 0.  1.
         11   -1    0    0    0    0 -0.00000000000E+00 -0.00000000000E+00 -0.45593999997E+02  0.45594000000E+02  0.51100000000E-03 0. -1.
         23    2    1    2    0    0 -0.88817841970E-15  0.00000000000E+00  0.00000000000E+00  0.91188000000E+02  0.91188000000E+02 0.  0.
    9900012    2    3    3    0    0 -0.21504937621E+01 -0.24377779809E+02  0.27511445122E+02  0.54367076811E+02  0.39999983205E+02 0.  0.
         12    1    3    3    0    0  0.21504937621E+01  0.24377779809E+02 -0.27511445122E+02  0.36820923189E+02  0.00000000000E+00 0. -1.
         11    1    4    4    0    0  0.66710784599E+01 -0.11724268165E+01  0.56810378028E+01  0.88403655601E+01  0.51100000000E-03 0. -1.
        -11    1    4    4    0    0 -0.11781911441E+02 -0.44522764642E+01 -0.42279310722E+01  0.13285766983E+02  0.51100000000E-03 0.  1.
        -12    1    4    4    0    0  0.29603392188E+01 -0.18753076528E+02  0.26058338391E+02  0.32240944268E+02  0.00000000000E+00 0.  1.
</event>
<event>
 8    1  0.1254059E-006  0.9118800E+02  0.7816164E-02  0.1184000E+00
        -11   -1    0    0    0    0  0.00000000000E+00  0.00000000000E+00  0.45593999997E+02  0.45594000000E+02  0.51100000000E-03 0. -1.
         11   -1    0    0    0    0 -0.00000000000E+00 -0.00000000000E+00 -0.45593999997E+02  0.45594000000E+02  0.51100000000E-03 0.  1.
         23    2    1    2    0    0 -0.35527136788E-14  0.00000000000E+00  0.00000000000E+00  0.91188000000E+02  0.91188000000E+02 0.  0.
    9900012    2    3    3    0    0  0.30941383701E+02 -0.19502466995E+02  0.42501836691E+01  0.54367088748E+02  0.40000010418E+02 0.  0.
        -12    1    3    3    0    0 -0.30941383701E+02  0.19502466995E+02 -0.42501836691E+01  0.36820911252E+02  0.00000000000E+00 0.  1.
         11    1    4    4    0    0  0.71687273344E+01 -0.23812273692E+02  0.41674454031E+01  0.25214730445E+02  0.51100000000E-03 0. -1.
        -11    1    4    4    0    0  0.23765344130E+02 -0.91284542058E+00  0.11938526899E+01  0.23812814888E+02  0.51100000000E-03 0.  1.
        -12    1    4    4    0    0  0.73122360813E-02  0.52226521174E+01 -0.11111144239E+01  0.53395434141E+01  0.00000000000E+00 0.  1.
</event>
<event>
 8    1  0.1254059E-006  0.9118800E+02  0.7816164E-02  0.1184000E+00
        -11   -1    0    0    0    0  0.00000000000E+00  0.00000000000E+00  0.45593999997E+02  0.45594000000E+02  0.51100000000E-03 0. -1.
         11   -1    0    0    0    0 -0.00000000000E+00 -0.00000000000E+00 -0.45593999997E+02  0.45594000000E+02  0.51100000000E-03 0.  1.
         23    2    1    2    0    0  0.88817841970E-15 -0.35527136788E-14  0.00000000000E+00  0.91188000000E+02  0.91188000000E+02 0.  0.
    9900012    2    3    3    0    0  0.58401393556E+01  0.30796147831E+02  0.19320184911E+02  0.54367088904E+02  0.40000010775E+02 0.  0.
        -12    1    3    3    0    0 -0.58401393556E+01 -0.30796147831E+02 -0.19320184911E+02  0.36820911096E+02  0.00000000000E+00 0.  1.
         11    1    4    4    0    0  0.45280637186E+01  0.16187372423E+01 -0.84012929927E+01  0.96801547255E+01  0.51100000000E-03 0. -1.
        -11    1    4    4    0    0 -0.36588588806E+01 -0.92712058677E+00  0.65138055368E+01  0.75283772304E+01  0.51100000000E-03 0.  1.
         12    1    4    4    0    0  0.49709345176E+01  0.30104531175E+02  0.21207672367E+02  0.37158556948E+02  0.00000000000E+00 0. -1.
</event>
<event>
 8    1  0.1254059E-006  0.9118800E+02  0.7816164E-02  0.1184000E+00
        -11   -1    0    0    0    0  0.00000000000E+00  0.00000000000E+00  0.45593999997E+02  0.45594000000E+02  0.51100000000E-03 0. -1.
         11   -1    0    0    0    0 -0.00000000000E+00 -0.00000000000E+00 -0.45593999997E+02  0.45594000000E+02  0.51100000000E-03 0.  1.
         23    2    1    2    0    0  0.00000000000E+00  0.00000000000E+00 -0.35527136788E-14  0.91188000000E+02  0.91188000000E+02 0.  0.
    9900012    2    3    3    0    0  0.19447927029E+02  0.11149195894E+02  0.29210481828E+02  0.54367099910E+02  0.40000035864E+02 0.  0.
        -12    1    3    3    0    0 -0.19447927029E+02 -0.11149195894E+02 -0.29210481828E+02  0.36820900090E+02  0.00000000000E+00 0.  1.
         11    1    4    4    0    0  0.19913095870E+02 -0.40480089527E+01  0.29888234115E+02  0.36141725227E+02  0.51100000000E-03 0. -1.
        -11    1    4    4    0    0  0.71424919873E+00  0.17458995886E+01 -0.39097763764E+01  0.43410446745E+01  0.51100000000E-03 0.  1.
         12    1    4    4    0    0 -0.11794180393E+01  0.13451305258E+02  0.32320240893E+01  0.13884330008E+02  0.00000000000E+00 0. -1.
</event>
<event>
 8    1  0.1254059E-006  0.9118800E+02  0.7816164E-02  0.1184000E+00
        -11   -1    0    0    0    0  0.00000000000E+00  0.00000000000E+00  0.45593999997E+02  0.45594000000E+02  0.51100000000E-03 0.  1.
         11   -1    0    0    0    0 -0.00000000000E+00 -0.00000000000E+00 -0.45593999997E+02  0.45594000000E+02  0.51100000000E-03 0. -1.
         23    2    1    2    0    0  0.00000000000E+00  0.00000000000E+00  0.00000000000E+00  0.91188000000E+02  0.91188000000E+02 0.  0.
    9900012    2    3    3    0    0 -0.30557507383E+01 -0.21382005745E+02 -0.29820251214E+02  0.54367147691E+02  0.40000144792E+02 0.  0.
        -12    1    3    3    0    0  0.30557507383E+01  0.21382005745E+02  0.29820251214E+02  0.36820852309E+02  0.00000000000E+00 0.  1.
         11    1    4    4    0    0 -0.84504759693E+00 -0.18735063097E+02 -0.65164756075E+01  0.19853995802E+02  0.51100000000E-03 0. -1.
        -11    1    4    4    0    0 -0.52212343869E+01 -0.13113368696E+02 -0.98889697346E+01  0.17234078152E+02  0.51100000000E-03 0.  1.
         12    1    4    4    0    0  0.30105312455E+01  0.10466426049E+02 -0.13414805872E+02  0.17279073737E+02  0.00000000000E+00 0. -1.
</event>
<event>
 8    1  0.1254059E-006  0.9118800E+02  0.7816164E-02  0.1184000E+00
        -11   -1    0    0    0    0  0.00000000000E+00  0.00000000000E+00  0.45593999997E+02  0.45594000000E+02  0.51100000000E-03 0. -1.
         11   -1    0    0    0    0 -0.00000000000E+00 -0.00000000000E+00 -0.45593999997E+02  0.45594000000E+02  0.51100000000E-03 0.  1.
         23    2    1    2    0    0  0.35527136788E-14 -0.35527136788E-14 -0.17763568394E-14  0.91188000000E+02  0.91188000000E+02 0.  0.
    9900012    2    3    3    0    0  0.31068684602E+02 -0.16397854027E+02 -0.11028491397E+02  0.54367076572E+02  0.39999982662E+02 0.  0.
         12    1    3    3    0    0 -0.31068684602E+02  0.16397854027E+02  0.11028491397E+02  0.36820923428E+02  0.00000000000E+00 0. -1.
         11    1    4    4    0    0  0.66822219664E+01  0.53161528491E+00 -0.53930610910E+01  0.86034768211E+01  0.51100000000E-03 0. -1.
        -11    1    4    4    0    0  0.32731642676E+02 -0.14080628828E+02 -0.65823524378E+00  0.35637870508E+02  0.51100000000E-03 0.  1.
         12    1    4    4    0    0 -0.83451800407E+01 -0.28488404839E+01 -0.49771950620E+01  0.10125729243E+02  0.00000000000E+00 0. -1.
</event>
<event>
 8    1  0.1254059E-006  0.9118800E+02  0.7816164E-02  0.1184000E+00
        -11   -1    0    0    0    0  0.00000000000E+00  0.00000000000E+00  0.45593999997E+02  0.45594000000E+02  0.51100000000E-03 0.  1.
         11   -1    0    0    0    0 -0.00000000000E+00 -0.00000000000E+00 -0.45593999997E+02  0.45594000000E+02  0.51100000000E-03 0. -1.
         23    2    1    2    0    0  0.00000000000E+00  0.71054273576E-14  0.53290705182E-14  0.91188000000E+02  0.91188000000E+02 0.  0.
    9900012    2    3    3    0    0 -0.13490057252E+02  0.30829620723E+02  0.14944326165E+02  0.54367081447E+02  0.39999993774E+02 0.  0.
         12    1    3    3    0    0  0.13490057252E+02 -0.30829620723E+02 -0.14944326165E+02  0.36820918553E+02  0.00000000000E+00 0. -1.
         11    1    4    4    0    0  0.77987895857E+01  0.16951267493E+02  0.87806890444E+01  0.20622004970E+02  0.51100000000E-03 0.  1.
        -11    1    4    4    0    0  0.89702727379E+00 -0.27033202688E+01 -0.34067135100E+01  0.44405287530E+01  0.51100000000E-03 0. -1.
        -12    1    4    4    0    0 -0.22185874111E+02  0.16581673498E+02  0.95703506305E+01  0.29304547724E+02  0.00000000000E+00 0.  1.
</event>
<event>
 8    1  0.1254059E-006  0.9118800E+02  0.7816164E-02  0.1184000E+00
        -11   -1    0    0    0    0  0.00000000000E+00  0.00000000000E+00  0.45593999997E+02  0.45594000000E+02  0.51100000000E-03 0. -1.
         11   -1    0    0    0    0 -0.00000000000E+00 -0.00000000000E+00 -0.45593999997E+02  0.45594000000E+02  0.51100000000E-03 0.  1.
         23    2    1    2    0    0 -0.26645352591E-14  0.00000000000E+00 -0.35527136788E-14  0.91188000000E+02  0.91188000000E+02 0.  0.
    9900012    2    3    3    0    0 -0.23678980448E+01  0.23214021053E+02 -0.28483030268E+02  0.54367072149E+02  0.39999972577E+02 0.  0.
         12    1    3    3    0    0  0.23678980448E+01 -0.23214021053E+02  0.28483030268E+02  0.36820927851E+02  0.00000000000E+00 0. -1.
         11    1    4    4    0    0  0.11936382060E+02  0.15304112873E+02  0.11721107225E+01  0.19443943307E+02  0.51100000000E-03 0. -1.
        -11    1    4    4    0    0 -0.58568619281E+00 -0.71173440575E+00 -0.70545459941E+01  0.71145072650E+01  0.51100000000E-03 0.  1.
         12    1    4    4    0    0 -0.13718593912E+02  0.86216425857E+01 -0.22600594996E+02  0.27808621577E+02  0.00000000000E+00 0. -1.
</event>
<event>
 8    1  0.1254059E-006  0.9118800E+02  0.7816164E-02  0.1184000E+00
        -11   -1    0    0    0    0  0.00000000000E+00  0.00000000000E+00  0.45593999997E+02  0.45594000000E+02  0.51100000000E-03 0.  1.
         11   -1    0    0    0    0 -0.00000000000E+00 -0.00000000000E+00 -0.45593999997E+02  0.45594000000E+02  0.51100000000E-03 0. -1.
         23    2    1    2    0    0  0.00000000000E+00  0.71054273576E-14 -0.35527136788E-14  0.91188000000E+02  0.91188000000E+02 0.  0.
    9900012    2    3    3    0    0  0.63643541458E+01  0.29586039393E+02  0.20974745252E+02  0.54367100106E+02  0.40000036311E+02 0.  0.
         12    1    3    3    0    0 -0.63643541458E+01 -0.29586039393E+02 -0.20974745252E+02  0.36820899894E+02  0.00000000000E+00 0. -1.
         11    1    4    4    0    0 -0.23291506496E+01 -0.11628143190E+01 -0.41913616768E+01  0.49340240024E+01  0.51100000000E-03 0. -1.
        -11    1    4    4    0    0 -0.20671276090E+01 -0.43213844478E+01  0.70400744933E+01  0.85152820992E+01  0.51100000000E-03 0.  1.
        -12    1    4    4    0    0  0.10760632404E+02  0.35070238160E+02  0.18126032435E+02  0.40917794004E+02  0.00000000000E+00 0.  1.
</event>
<event>
 8    1  0.1254059E-006  0.9118800E+02  0.7816164E-02  0.1184000E+00
        -11   -1    0    0    0    0  0.00000000000E+00  0.00000000000E+00  0.45593999997E+02  0.45594000000E+02  0.51100000000E-03 0.  1.
         11   -1    0    0    0    0 -0.00000000000E+00 -0.00000000000E+00 -0.45593999997E+02  0.45594000000E+02  0.51100000000E-03 0. -1.
         23    2    1    2    0    0 -0.17763568394E-14  0.00000000000E+00  0.99920072216E-15  0.91188000000E+02  0.91188000000E+02 0.  0.
    9900012    2    3    3    0    0  0.78128107009E+01 -0.35978522527E+02 -0.53490977866E+00  0.54367079007E+02  0.39999988212E+02 0.  0.
        -12    1    3    3    0    0 -0.78128107009E+01  0.35978522527E+02  0.53490977866E+00  0.36820920993E+02  0.00000000000E+00 0.  1.
         11    1    4    4    0    0 -0.54050400175E+01  0.44516172091E+01 -0.73044488853E+01  0.10118612906E+02  0.51100000000E-03 0. -1.
        -11    1    4    4    0    0  0.13429929962E+02 -0.31150502808E+02  0.80883792941E+01  0.34873180582E+02  0.51100000000E-03 0.  1.
         12    1    4    4    0    0 -0.21207924400E+00 -0.92796369282E+01 -0.13188401875E+01  0.93752855191E+01  0.00000000000E+00 0. -1.
</event>
<event>
 8    1  0.1254059E-006  0.9118800E+02  0.7816164E-02  0.1184000E+00
        -11   -1    0    0    0    0  0.00000000000E+00  0.00000000000E+00  0.45593999997E+02  0.45594000000E+02  0.51100000000E-03 0.  1.
         11   -1    0    0    0    0 -0.00000000000E+00 -0.00000000000E+00 -0.45593999997E+02  0.45594000000E+02  0.51100000000E-03 0. -1.
         23    2    1    2    0    0 -0.17763568394E-14 -0.17763568394E-14  0.00000000000E+00  0.91188000000E+02  0.91188000000E+02 0.  0.
    9900012    2    3    3    0    0 -0.14620026141E+02  0.91154500266E+01  0.32541409030E+02  0.54367083455E+02  0.39999998353E+02 0.  0.
         12    1    3    3    0    0  0.14620026141E+02 -0.91154500266E+01 -0.32541409030E+02  0.36820916545E+02  0.00000000000E+00 0. -1.
         11    1    4    4    0    0  0.65176337855E+01  0.14393346837E+02  0.18043013001E+02  0.23983292137E+02  0.51100000000E-03 0. -1.
        -11    1    4    4    0    0 -0.12703169903E+02 -0.61901932198E+01  0.16442180158E+02  0.21680274590E+02  0.51100000000E-03 0.  1.
        -12    1    4    4    0    0 -0.84344900228E+01  0.91229640972E+00 -0.19437841298E+01  0.87035167275E+01  0.00000000000E+00 0.  1.
</event>
<event>
 8    1  0.1254059E-006  0.9118800E+02  0.7816164E-02  0.1184000E+00
        -11   -1    0    0    0    0  0.00000000000E+00  0.00000000000E+00  0.45593999997E+02  0.45594000000E+02  0.51100000000E-03 0.  1.
         11   -1    0    0    0    0 -0.00000000000E+00 -0.00000000000E+00 -0.45593999997E+02  0.45594000000E+02  0.51100000000E-03 0. -1.
         23    2    1    2    0    0  0.00000000000E+00  0.00000000000E+00  0.00000000000E+00  0.91188000000E+02  0.91188000000E+02 0.  0.
    9900012    2    3    3    0    0  0.17308183479E+02 -0.15117496522E+02 -0.28769209572E+02  0.54367091051E+02  0.40000015669E+02 0.  0.
        -12    1    3    3    0    0 -0.17308183479E+02  0.15117496522E+02  0.28769209572E+02  0.36820908949E+02  0.00000000000E+00 0.  1.
         11    1    4    4    0    0  0.30228594028E+01 -0.16738963001E+01 -0.21966558268E+02  0.22236665447E+02  0.51100000000E-03 0. -1.
        -11    1    4    4    0    0  0.79150213334E+01 -0.44838452930E+01  0.90546268077E+01  0.12835057390E+02  0.51100000000E-03 0.  1.
        -12    1    4    4    0    0  0.63703027428E+01 -0.89597549290E+01 -0.15857278112E+02  0.19295368215E+02  0.00000000000E+00 0.  1.
</event>
<event>
 8    1  0.1254059E-006  0.9118800E+02  0.7816164E-02  0.1184000E+00
        -11   -1    0    0    0    0  0.00000000000E+00  0.00000000000E+00  0.45593999997E+02  0.45594000000E+02  0.51100000000E-03 0.  1.
         11   -1    0    0    0    0 -0.00000000000E+00 -0.00000000000E+00 -0.45593999997E+02  0.45594000000E+02  0.51100000000E-03 0. -1.
         23    2    1    2    0    0  0.00000000000E+00 -0.35527136788E-14  0.00000000000E+00  0.91188000000E+02  0.91188000000E+02 0.  0.
    9900012    2    3    3    0    0 -0.17992867358E+02  0.21628509927E+02 -0.23753833414E+02  0.54367077696E+02  0.39999985224E+02 0.  0.
        -12    1    3    3    0    0  0.17992867358E+02 -0.21628509927E+02  0.23753833414E+02  0.36820922304E+02  0.00000000000E+00 0.  1.
         11    1    4    4    0    0 -0.13617082935E+02  0.48006111440E+01  0.10834659596E+01  0.14479113017E+02  0.51100000000E-03 0. -1.
        -11    1    4    4    0    0  0.70255894911E+01  0.41522462813E+01  0.17095522665E+01  0.83380229126E+01  0.51100000000E-03 0.  1.
         12    1    4    4    0    0 -0.11401373914E+02  0.12675652502E+02 -0.26546851640E+02  0.31549941767E+02  0.00000000000E+00 0. -1.
</event>
<event>
 8    1  0.1254059E-006  0.9118800E+02  0.7816164E-02  0.1184000E+00
        -11   -1    0    0    0    0  0.00000000000E+00  0.00000000000E+00  0.45593999997E+02  0.45594000000E+02  0.51100000000E-03 0.  1.
         11   -1    0    0    0    0 -0.00000000000E+00 -0.00000000000E+00 -0.45593999997E+02  0.45594000000E+02  0.51100000000E-03 0. -1.
         23    2    1    2    0    0  0.35527136788E-14  0.35527136788E-14 -0.35527136788E-14  0.91188000000E+02  0.91188000000E+02 0.  0.
    9900012    2    3    3    0    0 -0.18060887169E+02  0.25157052884E+02 -0.19917499025E+02  0.54367085799E+02  0.40000003696E+02 0.  0.
         12    1    3    3    0    0  0.18060887169E+02 -0.25157052884E+02  0.19917499025E+02  0.36820914201E+02  0.00000000000E+00 0. -1.
         11    1    4    4    0    0 -0.12487924016E+01  0.24759171453E+02 -0.16591802909E+02  0.29830587951E+02  0.51100000000E-03 0. -1.
        -11    1    4    4    0    0  0.17479470499E+01 -0.45686792642E+01 -0.19773479894E+01  0.52761780145E+01  0.51100000000E-03 0.  1.
         12    1    4    4    0    0 -0.18560041818E+02  0.49665606954E+01 -0.13483481273E+01  0.19260319833E+02  0.00000000000E+00 0. -1.
</event>
<event>
 8    1  0.1254059E-006  0.9118800E+02  0.7816164E-02  0.1184000E+00
        -11   -1    0    0    0    0  0.00000000000E+00  0.00000000000E+00  0.45593999997E+02  0.45594000000E+02  0.51100000000E-03 0. -1.
         11   -1    0    0    0    0 -0.00000000000E+00 -0.00000000000E+00 -0.45593999997E+02  0.45594000000E+02  0.51100000000E-03 0.  1.
         23    2    1    2    0    0  0.00000000000E+00 -0.24424906542E-14  0.00000000000E+00  0.91188000000E+02  0.91188000000E+02 0.  0.
    9900012    2    3    3    0    0  0.34761308465E+02 -0.18247824534E+01  0.12004260216E+02  0.54367073062E+02  0.39999974660E+02 0.  0.
         12    1    3    3    0    0 -0.34761308465E+02  0.18247824534E+01 -0.12004260216E+02  0.36820926938E+02  0.00000000000E+00 0. -1.
         11    1    4    4    0    0  0.14965257218E+02 -0.16182488640E+02  0.32027436771E+01  0.22273065113E+02  0.51100000000E-03 0. -1.
        -11    1    4    4    0    0 -0.13150423020E+01 -0.31420442666E+01  0.49208636624E+00  0.34415007892E+01  0.51100000000E-03 0.  1.
         12    1    4    4    0    0  0.21111093549E+02  0.17499750453E+02  0.83094301731E+01  0.28652507161E+02  0.00000000000E+00 0. -1.
</event>
<event>
 8    1  0.1254059E-006  0.9118800E+02  0.7816164E-02  0.1184000E+00
        -11   -1    0    0    0    0  0.00000000000E+00  0.00000000000E+00  0.45593999997E+02  0.45594000000E+02  0.51100000000E-03 0. -1.
         11   -1    0    0    0    0 -0.00000000000E+00 -0.00000000000E+00 -0.45593999997E+02  0.45594000000E+02  0.51100000000E-03 0.  1.
         23    2    1    2    0    0 -0.17763568394E-14  0.00000000000E+00  0.00000000000E+00  0.91188000000E+02  0.91188000000E+02 0.  0.
    9900012    2    3    3    0    0  0.56615561105E+01  0.41629738793E+01 -0.36144103915E+02  0.54367084518E+02  0.40000000775E+02 0.  0.
         12    1    3    3    0    0 -0.56615561105E+01 -0.41629738793E+01  0.36144103915E+02  0.36820915482E+02  0.00000000000E+00 0. -1.
         11    1    4    4    0    0  0.22317608311E+00 -0.71557645452E+00 -0.35433552975E+01  0.36217708724E+01  0.51100000000E-03 0. -1.
        -11    1    4    4    0    0 -0.14692884326E+02  0.46556902114E+01 -0.24707586859E+02  0.29120802699E+02  0.51100000000E-03 0.  1.
         12    1    4    4    0    0  0.20131264354E+02  0.22286012238E+00 -0.78931617589E+01  0.21624510946E+02  0.00000000000E+00 0. -1.
</event>
<event>
 8    1  0.1254059E-006  0.9118800E+02  0.7816164E-02  0.1184000E+00
        -11   -1    0    0    0    0  0.00000000000E+00  0.00000000000E+00  0.45593999997E+02  0.45594000000E+02  0.51100000000E-03 0.  1.
         11   -1    0    0    0    0 -0.00000000000E+00 -0.00000000000E+00 -0.45593999997E+02  0.45594000000E+02  0.51100000000E-03 0. -1.
         23    2    1    2    0    0  0.00000000000E+00  0.88817841970E-15  0.17763568394E-14  0.91188000000E+02  0.91188000000E+02 0.  0.
    9900012    2    3    3    0    0 -0.32616293622E+02 -0.60119555940E+01 -0.15994221311E+02  0.54367063903E+02  0.39999953779E+02 0.  0.
        -12    1    3    3    0    0  0.32616293622E+02  0.60119555940E+01  0.15994221311E+02  0.36820936097E+02  0.00000000000E+00 0.  1.
         11    1    4    4    0    0 -0.86226347235E+01 -0.11774631612E+02 -0.19421446157E+02  0.24293710097E+02  0.51100000000E-03 0. -1.
        -11    1    4    4    0    0 -0.15164340884E+01 -0.47682474638E+01  0.12423144576E+01  0.51554923813E+01  0.51100000000E-03 0.  1.
         12    1    4    4    0    0 -0.22477224811E+02  0.10530923482E+02  0.21849103881E+01  0.24917861425E+02  0.00000000000E+00 0. -1.
</event>
<event>
 8    1  0.1254059E-006  0.9118800E+02  0.7816164E-02  0.1184000E+00
        -11   -1    0    0    0    0  0.00000000000E+00  0.00000000000E+00  0.45593999997E+02  0.45594000000E+02  0.51100000000E-03 0.  1.
         11   -1    0    0    0    0 -0.00000000000E+00 -0.00000000000E+00 -0.45593999997E+02  0.45594000000E+02  0.51100000000E-03 0. -1.
         23    2    1    2    0    0  0.00000000000E+00  0.35527136788E-14  0.35527136788E-14  0.91188000000E+02  0.91188000000E+02 0.  0.
    9900012    2    3    3    0    0  0.15283208362E+02 -0.22359474091E+02  0.24945081626E+02  0.54367086964E+02  0.40000006352E+02 0.  0.
         12    1    3    3    0    0 -0.15283208362E+02  0.22359474091E+02 -0.24945081626E+02  0.36820913036E+02  0.00000000000E+00 0. -1.
         11    1    4    4    0    0  0.79834911118E+01 -0.14024605338E+02  0.58083048279E+01  0.17151154202E+02  0.51100000000E-03 0. -1.
        -11    1    4    4    0    0  0.77258553095E+01  0.73326189052E+01  0.18718693653E+02  0.21537075767E+02  0.51100000000E-03 0.  1.
        -12    1    4    4    0    0 -0.42613805889E+00 -0.15667487658E+02  0.41808314524E+00  0.15678856995E+02  0.00000000000E+00 0.  1.
</event>
<event>
 8    1  0.1254059E-006  0.9118800E+02  0.7816164E-02  0.1184000E+00
        -11   -1    0    0    0    0  0.00000000000E+00  0.00000000000E+00  0.45593999997E+02  0.45594000000E+02  0.51100000000E-03 0.  1.
         11   -1    0    0    0    0 -0.00000000000E+00 -0.00000000000E+00 -0.45593999997E+02  0.45594000000E+02  0.51100000000E-03 0. -1.
         23    2    1    2    0    0 -0.88817841970E-15 -0.35527136788E-14  0.35527136788E-14  0.91188000000E+02  0.91188000000E+02 0.  0.
    9900012    2    3    3    0    0  0.77917577134E+01 -0.25100905700E+02 -0.25787870878E+02  0.54367065198E+02  0.39999956732E+02 0.  0.
         12    1    3    3    0    0 -0.77917577134E+01  0.25100905700E+02  0.25787870878E+02  0.36820934802E+02  0.00000000000E+00 0. -1.
         11    1    4    4    0    0  0.12623576750E+02 -0.28483373986E+01 -0.84523183326E+01  0.15456694387E+02  0.51100000000E-03 0. -1.
        -11    1    4    4    0    0 -0.51898935824E+01  0.28157565554E+01 -0.11860004951E+02  0.13248516826E+02  0.51100000000E-03 0.  1.
        -12    1    4    4    0    0  0.35807454564E+00 -0.25068324857E+02 -0.54755475943E+01  0.25661853986E+02  0.00000000000E+00 0.  1.
</event>
<event>
 8    1  0.1254059E-006  0.9118800E+02  0.7816164E-02  0.1184000E+00
        -11   -1    0    0    0    0  0.00000000000E+00  0.00000000000E+00  0.45593999997E+02  0.45594000000E+02  0.51100000000E-03 0. -1.
         11   -1    0    0    0    0 -0.00000000000E+00 -0.00000000000E+00 -0.45593999997E+02  0.45594000000E+02  0.51100000000E-03 0.  1.
         23    2    1    2    0    0  0.28865798640E-14  0.00000000000E+00  0.00000000000E+00  0.91188000000E+02  0.91188000000E+02 0.  0.
    9900012    2    3    3    0    0 -0.87076249443E+00  0.24269289544E+02  0.27677129546E+02  0.54367080101E+02  0.39999990707E+02 0.  0.
        -12    1    3    3    0    0  0.87076249443E+00 -0.24269289544E+02 -0.27677129546E+02  0.36820919899E+02  0.00000000000E+00 0.  1.
         11    1    4    4    0    0 -0.33455948286E+01  0.61939875653E+01  0.14896769595E+01  0.71956670588E+01  0.51100000000E-03 0. -1.
        -11    1    4    4    0    0 -0.15643290496E+02  0.11618159018E+02  0.93692903992E+01  0.21621233993E+02  0.51100000000E-03 0.  1.
        -12    1    4    4    0    0  0.18118122831E+02  0.64571429610E+01  0.16818162187E+02  0.25550179050E+02  0.00000000000E+00 0.  1.
</event>
<event>
 8    1  0.1254059E-006  0.9118800E+02  0.7816164E-02  0.1184000E+00
        -11   -1    0    0    0    0  0.00000000000E+00  0.00000000000E+00  0.45593999997E+02  0.45594000000E+02  0.51100000000E-03 0.  1.
         11   -1    0    0    0    0 -0.00000000000E+00 -0.00000000000E+00 -0.45593999997E+02  0.45594000000E+02  0.51100000000E-03 0. -1.
         23    2    1    2    0    0 -0.35527136788E-14  0.00000000000E+00  0.35527136788E-14  0.91188000000E+02  0.91188000000E+02 0.  0.
    9900012    2    3    3    0    0  0.26600184902E+02 -0.18862600346E+02 -0.17100013226E+02  0.54367109449E+02  0.40000057612E+02 0.  0.
        -12    1    3    3    0    0 -0.26600184902E+02  0.18862600346E+02  0.17100013226E+02  0.36820890551E+02  0.00000000000E+00 0.  1.
         11    1    4    4    0    0  0.25984494353E+02 -0.28060617924E+02 -0.53146071253E+01  0.38611361983E+02  0.51100000000E-03 0. -1.
        -11    1    4    4    0    0  0.10496903240E+01  0.50044265739E+01 -0.98892374400E+01  0.11132975906E+02  0.51100000000E-03 0.  1.
         12    1    4    4    0    0 -0.43399977524E+00  0.41935910039E+01 -0.18961686608E+01  0.46227715608E+01  0.00000000000E+00 0. -1.
</event>
<event>
 8    1  0.1254059E-006  0.9118800E+02  0.7816164E-02  0.1184000E+00
        -11   -1    0    0    0    0  0.00000000000E+00  0.00000000000E+00  0.45593999997E+02  0.45594000000E+02  0.51100000000E-03 0. -1.
         11   -1    0    0    0    0 -0.00000000000E+00 -0.00000000000E+00 -0.45593999997E+02  0.45594000000E+02  0.51100000000E-03 0.  1.
         23    2    1    2    0    0  0.00000000000E+00 -0.22204460493E-15 -0.71054273576E-14  0.91188000000E+02  0.91188000000E+02 0.  0.
    9900012    2    3    3    0    0 -0.95398396923E+01  0.75955764054E+00  0.35555433437E+02  0.54367159216E+02  0.40000171064E+02 0.  0.
        -12    1    3    3    0    0  0.95398396923E+01 -0.75955764054E+00 -0.35555433437E+02  0.36820840784E+02  0.00000000000E+00 0.  1.
         11    1    4    4    0    0  0.49216506335E+00  0.10078995180E+01 -0.30986245610E+01  0.32953850032E+01  0.51100000000E-03 0. -1.
        -11    1    4    4    0    0 -0.52176633669E+01  0.27379915645E+01 -0.45831541963E+01  0.74649789997E+01  0.51100000000E-03 0.  1.
         12    1    4    4    0    0 -0.48143413887E+01 -0.29863334420E+01  0.43237212194E+02  0.43606795213E+02  0.00000000000E+00 0. -1.
</event>
<event>
 8    1  0.1254059E-006  0.9118800E+02  0.7816164E-02  0.1184000E+00
        -11   -1    0    0    0    0  0.00000000000E+00  0.00000000000E+00  0.45593999997E+02  0.45594000000E+02  0.51100000000E-03 0.  1.
         11   -1    0    0    0    0 -0.00000000000E+00 -0.00000000000E+00 -0.45593999997E+02  0.45594000000E+02  0.51100000000E-03 0. -1.
         23    2    1    2    0    0 -0.16653345369E-15  0.71054273576E-14  0.71054273576E-14  0.91188000000E+02  0.91188000000E+02 0.  0.
    9900012    2    3    3    0    0  0.35689819466E+00 -0.18507107462E+02 -0.31829855195E+02  0.54367080883E+02  0.39999992488E+02 0.  0.
        -12    1    3    3    0    0 -0.35689819466E+00  0.18507107462E+02  0.31829855195E+02  0.36820919117E+02  0.00000000000E+00 0.  1.
         11    1    4    4    0    0  0.29609723304E+01  0.39791429960E+01  0.14376833903E+01  0.51640942978E+01  0.51100000000E-03 0. -1.
        -11    1    4    4    0    0  0.36323694159E+01 -0.91093667293E+01  0.28280564700E+01  0.10206496629E+02  0.51100000000E-03 0.  1.
         12    1    4    4    0    0 -0.62364435516E+01 -0.13376883729E+02 -0.36095595055E+02  0.38996489956E+02  0.00000000000E+00 0. -1.
</event>
<event>
 8    1  0.1254059E-006  0.9118800E+02  0.7816164E-02  0.1184000E+00
        -11   -1    0    0    0    0  0.00000000000E+00  0.00000000000E+00  0.45593999997E+02  0.45594000000E+02  0.51100000000E-03 0. -1.
         11   -1    0    0    0    0 -0.00000000000E+00 -0.00000000000E+00 -0.45593999997E+02  0.45594000000E+02  0.51100000000E-03 0.  1.
         23    2    1    2    0    0 -0.17763568394E-14  0.00000000000E+00  0.00000000000E+00  0.91188000000E+02  0.91188000000E+02 0.  0.
    9900012    2    3    3    0    0  0.97755855516E+01  0.32919722743E+02 -0.13285688758E+02  0.54367085507E+02  0.40000003030E+02 0.  0.
         12    1    3    3    0    0 -0.97755855516E+01 -0.32919722743E+02  0.13285688758E+02  0.36820914493E+02  0.00000000000E+00 0. -1.
         11    1    4    4    0    0 -0.56569064000E+01  0.31452907313E+01 -0.90764009000E+01  0.11147847207E+02  0.51100000000E-03 0. -1.
        -11    1    4    4    0    0 -0.72923248091E+01  0.29836147549E+01 -0.99935816616E+00  0.79422084543E+01  0.51100000000E-03 0.  1.
        -12    1    4    4    0    0  0.22724816761E+02  0.26790817257E+02 -0.32099296914E+01  0.35277029845E+02  0.00000000000E+00 0.  1.
</event>
<event>
 8    1  0.1254059E-006  0.9118800E+02  0.7816164E-02  0.1184000E+00
        -11   -1    0    0    0    0  0.00000000000E+00  0.00000000000E+00  0.45593999997E+02  0.45594000000E+02  0.51100000000E-03 0.  1.
         11   -1    0    0    0    0 -0.00000000000E+00 -0.00000000000E+00 -0.45593999997E+02  0.45594000000E+02  0.51100000000E-03 0. -1.
         23    2    1    2    0    0  0.00000000000E+00 -0.88817841970E-15  0.00000000000E+00  0.91188000000E+02  0.91188000000E+02 0.  0.
    9900012    2    3    3    0    0  0.14041449611E+02 -0.53523228209E+01  0.33615031043E+02  0.54367082320E+02  0.39999995766E+02 0.  0.
         12    1    3    3    0    0 -0.14041449611E+02  0.53523228209E+01 -0.33615031043E+02  0.36820917680E+02  0.00000000000E+00 0. -1.
         11    1    4    4    0    0  0.17388335544E+01  0.10641121550E+02  0.17984026414E+02  0.20968600724E+02  0.51100000000E-03 0. -1.
        -11    1    4    4    0    0  0.15127570404E+02 -0.10249612979E+02  0.18833455392E+02  0.26241131737E+02  0.51100000000E-03 0.  1.
        -12    1    4    4    0    0 -0.28249543476E+01 -0.57438313920E+01 -0.32024507639E+01  0.71573498602E+01  0.00000000000E+00 0.  1.
</event>
<event>
 8    1  0.1254059E-006  0.9118800E+02  0.7816164E-02  0.1184000E+00
        -11   -1    0    0    0    0  0.00000000000E+00  0.00000000000E+00  0.45593999997E+02  0.45594000000E+02  0.51100000000E-03 0. -1.
         11   -1    0    0    0    0 -0.00000000000E+00 -0.00000000000E+00 -0.45593999997E+02  0.45594000000E+02  0.51100000000E-03 0.  1.
         23    2    1    2    0    0 -0.88817841970E-15  0.35527136788E-14  0.00000000000E+00  0.91188000000E+02  0.91188000000E+02 0.  0.
    9900012    2    3    3    0    0 -0.19011145376E+01  0.11727634563E+02  0.34851627029E+02  0.54366979434E+02  0.39999761216E+02 0.  0.
        -12    1    3    3    0    0  0.19011145376E+01 -0.11727634563E+02 -0.34851627029E+02  0.36821020566E+02  0.00000000000E+00 0.  1.
         11    1    4    4    0    0 -0.10197982071E+02  0.18432500079E+02  0.11166198054E+02  0.23841977199E+02  0.51100000000E-03 0. -1.
        -11    1    4    4    0    0  0.12901702037E+02 -0.55848457778E+01  0.20333369849E+02  0.24720241655E+02  0.51100000000E-03 0.  1.
        -12    1    4    4    0    0 -0.46048345031E+01 -0.11200197383E+01  0.33520591257E+01  0.58047605805E+01  0.00000000000E+00 0.  1.
</event>
<event>
 8    1  0.1254059E-006  0.9118800E+02  0.7816164E-02  0.1184000E+00
        -11   -1    0    0    0    0  0.00000000000E+00  0.00000000000E+00  0.45593999997E+02  0.45594000000E+02  0.51100000000E-03 0.  1.
         11   -1    0    0    0    0 -0.00000000000E+00 -0.00000000000E+00 -0.45593999997E+02  0.45594000000E+02  0.51100000000E-03 0. -1.
         23    2    1    2    0    0  0.35527136788E-14  0.00000000000E+00 -0.35527136788E-14  0.91188000000E+02  0.91188000000E+02 0.  0.
    9900012    2    3    3    0    0 -0.17546732366E+02 -0.21273926390E+02 -0.24399024551E+02  0.54367079862E+02  0.39999990162E+02 0.  0.
        -12    1    3    3    0    0  0.17546732366E+02  0.21273926390E+02  0.24399024551E+02  0.36820920138E+02  0.00000000000E+00 0.  1.
         11    1    4    4    0    0 -0.15376080361E+02 -0.14921533698E+01 -0.14704748840E+02  0.21327916159E+02  0.51100000000E-03 0. -1.
        -11    1    4    4    0    0  0.34096814701E+01  0.14639151505E+01  0.52806858167E+01  0.64540389100E+01  0.51100000000E-03 0.  1.
        -12    1    4    4    0    0 -0.55803334751E+01 -0.21245688171E+02 -0.14974961527E+02  0.26585124793E+02  0.00000000000E+00 0.  1.
</event>
<event>
 8    1  0.1254059E-006  0.9118800E+02  0.7816164E-02  0.1184000E+00
        -11   -1    0    0    0    0  0.00000000000E+00  0.00000000000E+00  0.45593999997E+02  0.45594000000E+02  0.51100000000E-03 0.  1.
         11   -1    0    0    0    0 -0.00000000000E+00 -0.00000000000E+00 -0.45593999997E+02  0.45594000000E+02  0.51100000000E-03 0. -1.
         23    2    1    2    0    0  0.35527136788E-14  0.00000000000E+00 -0.35527136788E-14  0.91188000000E+02  0.91188000000E+02 0.  0.
    9900012    2    3    3    0    0 -0.17058525107E+02  0.19525862518E+02  0.26144361657E+02  0.54367078877E+02  0.39999987916E+02 0.  0.
         12    1    3    3    0    0  0.17058525107E+02 -0.19525862518E+02 -0.26144361657E+02  0.36820921123E+02  0.00000000000E+00 0. -1.
         11    1    4    4    0    0 -0.42014124437E+01  0.23362176395E+01  0.14365263002E+00  0.48094090822E+01  0.51100000000E-03 0. -1.
        -11    1    4    4    0    0 -0.95973284044E+01  0.22985676338E+02  0.32034074116E+02  0.40578712818E+02  0.51100000000E-03 0.  1.
         12    1    4    4    0    0 -0.32597842590E+01 -0.57960314597E+01 -0.60333650890E+01  0.89789569770E+01  0.00000000000E+00 0. -1.
</event>
<event>
 8    1  0.1254059E-006  0.9118800E+02  0.7816164E-02  0.1184000E+00
        -11   -1    0    0    0    0  0.00000000000E+00  0.00000000000E+00  0.45593999997E+02  0.45594000000E+02  0.51100000000E-03 0.  1.
         11   -1    0    0    0    0 -0.00000000000E+00 -0.00000000000E+00 -0.45593999997E+02  0.45594000000E+02  0.51100000000E-03 0. -1.
         23    2    1    2    0    0 -0.35527136788E-14  0.00000000000E+00  0.71054273576E-14  0.91188000000E+02  0.91188000000E+02 0.  0.
    9900012    2    3    3    0    0 -0.14058829802E+02 -0.88528677859E+01  0.32859642355E+02  0.54367081230E+02  0.39999993279E+02 0.  0.
         12    1    3    3    0    0  0.14058829802E+02  0.88528677859E+01 -0.32859642355E+02  0.36820918770E+02  0.00000000000E+00 0. -1.
         11    1    4    4    0    0  0.14631243502E+01  0.55434650375E+00  0.10845386187E+01  0.19037481942E+01  0.51100000000E-03 0. -1.
        -11    1    4    4    0    0  0.10563331332E+02 -0.32599390447E+01  0.20696447130E+02  0.23463889180E+02  0.51100000000E-03 0.  1.
         12    1    4    4    0    0 -0.26085285484E+02 -0.61472752450E+01  0.11078656606E+02  0.28999443855E+02  0.00000000000E+00 0. -1.
</event>
<event>
 8    1  0.1254059E-006  0.9118800E+02  0.7816164E-02  0.1184000E+00
        -11   -1    0    0    0    0  0.00000000000E+00  0.00000000000E+00  0.45593999997E+02  0.45594000000E+02  0.51100000000E-03 0.  1.
         11   -1    0    0    0    0 -0.00000000000E+00 -0.00000000000E+00 -0.45593999997E+02  0.45594000000E+02  0.51100000000E-03 0. -1.
         23    2    1    2    0    0  0.00000000000E+00  0.00000000000E+00 -0.88817841970E-15  0.91188000000E+02  0.91188000000E+02 0.  0.
    9900012    2    3    3    0    0 -0.33567585837E+02 -0.13685678783E+02 -0.64574969968E+01  0.54367083524E+02  0.39999998509E+02 0.  0.
        -12    1    3    3    0    0  0.33567585837E+02  0.13685678783E+02  0.64574969968E+01  0.36820916476E+02  0.00000000000E+00 0.  1.
         11    1    4    4    0    0 -0.10842497146E+02  0.28602659124E+01  0.88421553126E+01  0.14280216255E+02  0.51100000000E-03 0. -1.
        -11    1    4    4    0    0  0.24014965694E+01 -0.10091595378E+02 -0.89064374434E+00  0.10411567106E+02  0.51100000000E-03 0.  1.
         12    1    4    4    0    0 -0.25126585260E+02 -0.64543493175E+01 -0.14409008565E+02  0.29675300163E+02  0.00000000000E+00 0. -1.
</event>
<event>
 8    1  0.1254059E-006  0.9118800E+02  0.7816164E-02  0.1184000E+00
        -11   -1    0    0    0    0  0.00000000000E+00  0.00000000000E+00  0.45593999997E+02  0.45594000000E+02  0.51100000000E-03 0.  1.
         11   -1    0    0    0    0 -0.00000000000E+00 -0.00000000000E+00 -0.45593999997E+02  0.45594000000E+02  0.51100000000E-03 0. -1.
         23    2    1    2    0    0 -0.35527136788E-14  0.35527136788E-14  0.00000000000E+00  0.91188000000E+02  0.91188000000E+02 0.  0.
    9900012    2    3    3    0    0  0.17220938899E+02 -0.31963494432E+02  0.61281404346E+01  0.54367084503E+02  0.40000000741E+02 0.  0.
         12    1    3    3    0    0 -0.17220938899E+02  0.31963494432E+02 -0.61281404346E+01  0.36820915497E+02  0.00000000000E+00 0. -1.
         11    1    4    4    0    0  0.77387346467E+01 -0.24656090213E+01 -0.59987099608E+01  0.10097116580E+02  0.51100000000E-03 0. -1.
        -11    1    4    4    0    0  0.23721335780E+01  0.58819756793E+01  0.52658943757E+00  0.63641144160E+01  0.51100000000E-03 0.  1.
         12    1    4    4    0    0  0.71100706742E+01 -0.35379861090E+02  0.11600260958E+02  0.37905853506E+02  0.00000000000E+00 0. -1.
</event>
<event>
 8    1  0.1254059E-006  0.9118800E+02  0.7816164E-02  0.1184000E+00
        -11   -1    0    0    0    0  0.00000000000E+00  0.00000000000E+00  0.45593999997E+02  0.45594000000E+02  0.51100000000E-03 0.  1.
         11   -1    0    0    0    0 -0.00000000000E+00 -0.00000000000E+00 -0.45593999997E+02  0.45594000000E+02  0.51100000000E-03 0. -1.
         23    2    1    2    0    0 -0.22204460493E-14  0.00000000000E+00  0.00000000000E+00  0.91188000000E+02  0.91188000000E+02 0.  0.
    9900012    2    3    3    0    0 -0.14371065384E+00 -0.24162071976E+02 -0.27784073466E+02  0.54367066915E+02  0.39999960645E+02 0.  0.
        -12    1    3    3    0    0  0.14371065384E+00  0.24162071976E+02  0.27784073466E+02  0.36820933085E+02  0.00000000000E+00 0.  1.
         11    1    4    4    0    0  0.84736871266E+01  0.19844628046E+01 -0.83146224170E+01  0.12036378705E+02  0.51100000000E-03 0. -1.
        -11    1    4    4    0    0 -0.57732991000E+01 -0.17447873921E+01  0.48672708279E+01  0.77501994242E+01  0.51100000000E-03 0.  1.
         12    1    4    4    0    0 -0.28440986804E+01 -0.24401747388E+02 -0.24336721877E+02  0.34580488785E+02  0.00000000000E+00 0. -1.
</event>
<event>
 8    1  0.1254059E-006  0.9118800E+02  0.7816164E-02  0.1184000E+00
        -11   -1    0    0    0    0  0.00000000000E+00  0.00000000000E+00  0.45593999997E+02  0.45594000000E+02  0.51100000000E-03 0. -1.
         11   -1    0    0    0    0 -0.00000000000E+00 -0.00000000000E+00 -0.45593999997E+02  0.45594000000E+02  0.51100000000E-03 0.  1.
         23    2    1    2    0    0 -0.71054273576E-14  0.17763568394E-14  0.00000000000E+00  0.91188000000E+02  0.91188000000E+02 0.  0.
    9900012    2    3    3    0    0 -0.24838574826E+02  0.11887828669E+02 -0.24443674876E+02  0.54367238040E+02  0.40000350759E+02 0.  0.
         12    1    3    3    0    0  0.24838574826E+02 -0.11887828669E+02  0.24443674876E+02  0.36820761960E+02  0.00000000000E+00 0. -1.
         11    1    4    4    0    0  0.17632336409E+01  0.69417128656E+01 -0.14996465031E+02  0.16618975121E+02  0.51100000000E-03 0. -1.
        -11    1    4    4    0    0 -0.10424441373E+01  0.10214770469E+02 -0.99038756799E+00  0.10315478337E+02  0.51100000000E-03 0.  1.
         12    1    4    4    0    0 -0.25559364330E+02 -0.52686546662E+01 -0.84568222773E+01  0.27432784583E+02  0.00000000000E+00 0. -1.
</event>
<event>
 8    1  0.1254059E-006  0.9118800E+02  0.7816164E-02  0.1184000E+00
        -11   -1    0    0    0    0  0.00000000000E+00  0.00000000000E+00  0.45593999997E+02  0.45594000000E+02  0.51100000000E-03 0. -1.
         11   -1    0    0    0    0 -0.00000000000E+00 -0.00000000000E+00 -0.45593999997E+02  0.45594000000E+02  0.51100000000E-03 0.  1.
         23    2    1    2    0    0  0.00000000000E+00  0.17763568394E-14  0.35527136788E-14  0.91188000000E+02  0.91188000000E+02 0.  0.
    9900012    2    3    3    0    0  0.27930622624E+02  0.15300443613E+02 -0.18481221040E+02  0.54367098517E+02  0.40000032688E+02 0.  0.
         12    1    3    3    0    0 -0.27930622624E+02 -0.15300443613E+02  0.18481221040E+02  0.36820901483E+02  0.00000000000E+00 0. -1.
         11    1    4    4    0    0  0.13955874592E+02 -0.42944036964E+01  0.53614021526E+01  0.15554837577E+02  0.51100000000E-03 0.  1.
        -11    1    4    4    0    0  0.13254357907E+02  0.48282220717E+01 -0.18109777403E+02  0.22955473634E+02  0.51100000000E-03 0. -1.
         12    1    4    4    0    0  0.72039012548E+00  0.14766625237E+02 -0.57328457898E+01  0.15856787306E+02  0.00000000000E+00 0. -1.
</event>
<event>
 8    1  0.1254059E-006  0.9118800E+02  0.7816164E-02  0.1184000E+00
        -11   -1    0    0    0    0  0.00000000000E+00  0.00000000000E+00  0.45593999997E+02  0.45594000000E+02  0.51100000000E-03 0.  1.
         11   -1    0    0    0    0 -0.00000000000E+00 -0.00000000000E+00 -0.45593999997E+02  0.45594000000E+02  0.51100000000E-03 0. -1.
         23    2    1    2    0    0  0.00000000000E+00  0.00000000000E+00  0.00000000000E+00  0.91188000000E+02  0.91188000000E+02 0.  0.
    9900012    2    3    3    0    0  0.11106457259E+02 -0.33728074949E+02 -0.97387991290E+01  0.54367073327E+02  0.39999975263E+02 0.  0.
        -12    1    3    3    0    0 -0.11106457259E+02  0.33728074949E+02  0.97387991290E+01  0.36820926673E+02  0.00000000000E+00 0.  1.
         11    1    4    4    0    0  0.81158457001E+01 -0.11342315688E+01  0.45717375354E+01  0.93837208522E+01  0.51100000000E-03 0. -1.
        -11    1    4    4    0    0  0.88424189367E+01 -0.21916784926E+02  0.29965936931E+01  0.23822539918E+02  0.51100000000E-03 0.  1.
        -12    1    4    4    0    0 -0.58518073780E+01 -0.10677058454E+02 -0.17307130357E+02  0.21160812556E+02  0.00000000000E+00 0.  1.
</event>
<event>
 8    1  0.1254059E-006  0.9118800E+02  0.7816164E-02  0.1184000E+00
        -11   -1    0    0    0    0  0.00000000000E+00  0.00000000000E+00  0.45593999997E+02  0.45594000000E+02  0.51100000000E-03 0. -1.
         11   -1    0    0    0    0 -0.00000000000E+00 -0.00000000000E+00 -0.45593999997E+02  0.45594000000E+02  0.51100000000E-03 0.  1.
         23    2    1    2    0    0  0.00000000000E+00 -0.17763568394E-14  0.88817841970E-15  0.91188000000E+02  0.91188000000E+02 0.  0.
    9900012    2    3    3    0    0 -0.35713387201E+02 -0.49174908931E+01 -0.74934602323E+01  0.54367086265E+02  0.40000004758E+02 0.  0.
         12    1    3    3    0    0  0.35713387201E+02  0.49174908931E+01  0.74934602323E+01  0.36820913735E+02  0.00000000000E+00 0. -1.
         11    1    4    4    0    0 -0.87966321269E+01 -0.15448363728E+02 -0.10409949700E+02  0.20600964338E+02  0.51100000000E-03 0. -1.
        -11    1    4    4    0    0 -0.20686715329E+02  0.15115345876E+02  0.37184954161E+00  0.25623273491E+02  0.51100000000E-03 0.  1.
        -12    1    4    4    0    0 -0.62300397455E+01 -0.45844730409E+01  0.25446399257E+01  0.81428484356E+01  0.00000000000E+00 0.  1.
</event>
<event>
 8    1  0.1254059E-006  0.9118800E+02  0.7816164E-02  0.1184000E+00
        -11   -1    0    0    0    0  0.00000000000E+00  0.00000000000E+00  0.45593999997E+02  0.45594000000E+02  0.51100000000E-03 0. -1.
         11   -1    0    0    0    0 -0.00000000000E+00 -0.00000000000E+00 -0.45593999997E+02  0.45594000000E+02  0.51100000000E-03 0.  1.
         23    2    1    2    0    0  0.17763568394E-14  0.00000000000E+00 -0.71054273576E-14  0.91188000000E+02  0.91188000000E+02 0.  0.
    9900012    2    3    3    0    0 -0.46454531856E+01  0.13693256854E+02 -0.33862882065E+02  0.54367077954E+02  0.39999985812E+02 0.  0.
         12    1    3    3    0    0  0.46454531856E+01 -0.13693256854E+02  0.33862882065E+02  0.36820922046E+02  0.00000000000E+00 0. -1.
         11    1    4    4    0    0 -0.56986149555E+01  0.73539083068E+00  0.41222622971E+01  0.70716376316E+01  0.51100000000E-03 0. -1.
        -11    1    4    4    0    0  0.12254987519E+02  0.10317110038E+02 -0.16980666385E+02  0.23344603440E+02  0.51100000000E-03 0.  1.
        -12    1    4    4    0    0 -0.11201825749E+02  0.26407559853E+01 -0.21004477977E+02  0.23950836882E+02  0.00000000000E+00 0.  1.
</event>
<event>
 8    1  0.1254059E-006  0.9118800E+02  0.7816164E-02  0.1184000E+00
        -11   -1    0    0    0    0  0.00000000000E+00  0.00000000000E+00  0.45593999997E+02  0.45594000000E+02  0.51100000000E-03 0.  1.
         11   -1    0    0    0    0 -0.00000000000E+00 -0.00000000000E+00 -0.45593999997E+02  0.45594000000E+02  0.51100000000E-03 0. -1.
         23    2    1    2    0    0  0.00000000000E+00  0.00000000000E+00 -0.35527136788E-14  0.91188000000E+02  0.91188000000E+02 0.  0.
    9900012    2    3    3    0    0  0.11961008110E+02  0.21218122567E+02 -0.27613486734E+02  0.54367094391E+02  0.40000023284E+02 0.  0.
        -12    1    3    3    0    0 -0.11961008110E+02 -0.21218122567E+02  0.27613486734E+02  0.36820905609E+02  0.00000000000E+00 0.  1.
         11    1    4    4    0    0  0.14325230466E+01  0.23297472741E+02 -0.26087784343E+01  0.23486806586E+02  0.51100000000E-03 0. -1.
        -11    1    4    4    0    0  0.12547348797E+02 -0.33574899704E+01 -0.12084615060E+02  0.17741099800E+02  0.51100000000E-03 0.  1.
         12    1    4    4    0    0 -0.20188637330E+01  0.12781397956E+01 -0.12920093240E+02  0.13139188005E+02  0.00000000000E+00 0. -1.
</event>
<event>
 8    1  0.1254059E-006  0.9118800E+02  0.7816164E-02  0.1184000E+00
        -11   -1    0    0    0    0  0.00000000000E+00  0.00000000000E+00  0.45593999997E+02  0.45594000000E+02  0.51100000000E-03 0.  1.
         11   -1    0    0    0    0 -0.00000000000E+00 -0.00000000000E+00 -0.45593999997E+02  0.45594000000E+02  0.51100000000E-03 0. -1.
         23    2    1    2    0    0  0.55511151231E-16  0.00000000000E+00 -0.35527136788E-14  0.91188000000E+02  0.91188000000E+02 0.  0.
    9900012    2    3    3    0    0 -0.38347966449E+00 -0.32965583256E+02 -0.16398269938E+02  0.54367082127E+02  0.39999995325E+02 0.  0.
         12    1    3    3    0    0  0.38347966449E+00  0.32965583256E+02  0.16398269938E+02  0.36820917873E+02  0.00000000000E+00 0. -1.
         11    1    4    4    0    0  0.92020416094E+00  0.10821145505E+01 -0.20726735049E+01  0.25127123427E+01  0.51100000000E-03 0. -1.
        -11    1    4    4    0    0 -0.66694909439E-01 -0.34049738432E+02 -0.24282200348E+02  0.41821219369E+02  0.51100000000E-03 0.  1.
        -12    1    4    4    0    0 -0.12369889160E+01  0.20406254196E-02  0.99566039149E+01  0.10033150416E+02  0.00000000000E+00 0.  1.
</event>
<event>
 8    1  0.1254059E-006  0.9118800E+02  0.7816164E-02  0.1184000E+00
        -11   -1    0    0    0    0  0.00000000000E+00  0.00000000000E+00  0.45593999997E+02  0.45594000000E+02  0.51100000000E-03 0.  1.
         11   -1    0    0    0    0 -0.00000000000E+00 -0.00000000000E+00 -0.45593999997E+02  0.45594000000E+02  0.51100000000E-03 0. -1.
         23    2    1    2    0    0  0.00000000000E+00 -0.35527136788E-14  0.00000000000E+00  0.91188000000E+02  0.91188000000E+02 0.  0.
    9900012    2    3    3    0    0  0.24931894350E+02  0.21323288649E+02  0.16717973649E+02  0.54367182008E+02  0.40000223023E+02 0.  0.
        -12    1    3    3    0    0 -0.24931894350E+02 -0.21323288649E+02 -0.16717973649E+02  0.36820817992E+02  0.00000000000E+00 0.  1.
         11    1    4    4    0    0 -0.47350344746E+01  0.38119974689E+01  0.90850555410E+01  0.10931153216E+02  0.51100000000E-03 0.  1.
        -11    1    4    4    0    0  0.10400584426E+02  0.85349384218E+01 -0.92202739792E+01  0.16310450109E+02  0.51100000000E-03 0. -1.
         12    1    4    4    0    0  0.19266344399E+02  0.89763527582E+01  0.16853192087E+02  0.27125578683E+02  0.00000000000E+00 0. -1.
</event>
<event>
 8    1  0.1254059E-006  0.9118800E+02  0.7816164E-02  0.1184000E+00
        -11   -1    0    0    0    0  0.00000000000E+00  0.00000000000E+00  0.45593999997E+02  0.45594000000E+02  0.51100000000E-03 0.  1.
         11   -1    0    0    0    0 -0.00000000000E+00 -0.00000000000E+00 -0.45593999997E+02  0.45594000000E+02  0.51100000000E-03 0. -1.
         23    2    1    2    0    0  0.00000000000E+00  0.00000000000E+00  0.00000000000E+00  0.91188000000E+02  0.91188000000E+02 0.  0.
    9900012    2    3    3    0    0 -0.21406339801E+01  0.19984646552E+02  0.30851443009E+02  0.54367082746E+02  0.39999996737E+02 0.  0.
         12    1    3    3    0    0  0.21406339801E+01 -0.19984646552E+02 -0.30851443009E+02  0.36820917254E+02  0.00000000000E+00 0. -1.
         11    1    4    4    0    0  0.37756593458E+00 -0.62368992525E+01  0.68469806601E+01  0.92694451151E+01  0.51100000000E-03 0. -1.
        -11    1    4    4    0    0 -0.39448596788E+01  0.38048351267E+01  0.21856389784E+02  0.22533097055E+02  0.51100000000E-03 0.  1.
         12    1    4    4    0    0  0.14266597642E+01  0.22416710677E+02  0.21480725652E+01  0.22564540576E+02  0.00000000000E+00 0. -1.
</event>
<event>
 8    1  0.1254059E-006  0.9118800E+02  0.7816164E-02  0.1184000E+00
        -11   -1    0    0    0    0  0.00000000000E+00  0.00000000000E+00  0.45593999997E+02  0.45594000000E+02  0.51100000000E-03 0. -1.
         11   -1    0    0    0    0 -0.00000000000E+00 -0.00000000000E+00 -0.45593999997E+02  0.45594000000E+02  0.51100000000E-03 0.  1.
         23    2    1    2    0    0  0.35527136788E-14  0.53290705182E-14  0.00000000000E+00  0.91188000000E+02  0.91188000000E+02 0.  0.
    9900012    2    3    3    0    0 -0.24248445609E+02 -0.93483404645E+01  0.26084509643E+02  0.54367078947E+02  0.39999988075E+02 0.  0.
        -12    1    3    3    0    0  0.24248445609E+02  0.93483404645E+01 -0.26084509643E+02  0.36820921053E+02  0.00000000000E+00 0.  1.
         11    1    4    4    0    0 -0.15434466202E+02  0.86877486296E+01  0.12947333958E+02  0.21939306736E+02  0.51100000000E-03 0. -1.
        -11    1    4    4    0    0  0.45019095621E+01 -0.88645659066E+00 -0.29061498766E+01  0.54312707868E+01  0.51100000000E-03 0.  1.
         12    1    4    4    0    0 -0.13315888969E+02 -0.17149632503E+02  0.16043325562E+02  0.26996501424E+02  0.00000000000E+00 0. -1.
</event>
<event>
 8    1  0.1254059E-006  0.9118800E+02  0.7816164E-02  0.1184000E+00
        -11   -1    0    0    0    0  0.00000000000E+00  0.00000000000E+00  0.45593999997E+02  0.45594000000E+02  0.51100000000E-03 0. -1.
         11   -1    0    0    0    0 -0.00000000000E+00 -0.00000000000E+00 -0.45593999997E+02  0.45594000000E+02  0.51100000000E-03 0.  1.
         23    2    1    2    0    0  0.00000000000E+00  0.35527136788E-14  0.00000000000E+00  0.91188000000E+02  0.91188000000E+02 0.  0.
    9900012    2    3    3    0    0  0.81161815888E+01 -0.18132418408E+02 -0.31001981748E+02  0.54367083754E+02  0.39999999034E+02 0.  0.
         12    1    3    3    0    0 -0.81161815888E+01  0.18132418408E+02  0.31001981748E+02  0.36820916246E+02  0.00000000000E+00 0. -1.
         11    1    4    4    0    0 -0.10468114753E+01 -0.21813436074E+02 -0.14919638372E+02  0.26448391578E+02  0.51100000000E-03 0. -1.
        -11    1    4    4    0    0 -0.45332427823E+01 -0.48853304924E+01 -0.48726239602E+01  0.82558590505E+01  0.51100000000E-03 0.  1.
         12    1    4    4    0    0  0.13696235846E+02  0.85663481590E+01 -0.11209719416E+02  0.19662833126E+02  0.00000000000E+00 0. -1.
</event>
<event>
 8    1  0.1254059E-006  0.9118800E+02  0.7816164E-02  0.1184000E+00
        -11   -1    0    0    0    0  0.00000000000E+00  0.00000000000E+00  0.45593999997E+02  0.45594000000E+02  0.51100000000E-03 0.  1.
         11   -1    0    0    0    0 -0.00000000000E+00 -0.00000000000E+00 -0.45593999997E+02  0.45594000000E+02  0.51100000000E-03 0. -1.
         23    2    1    2    0    0  0.17763568394E-14  0.35527136788E-14  0.35527136788E-14  0.91188000000E+02  0.91188000000E+02 0.  0.
    9900012    2    3    3    0    0 -0.12529108888E+02 -0.22008790433E+02 -0.26728527527E+02  0.54367087333E+02  0.40000007194E+02 0.  0.
         12    1    3    3    0    0  0.12529108888E+02  0.22008790433E+02  0.26728527527E+02  0.36820912667E+02  0.00000000000E+00 0. -1.
         11    1    4    4    0    0 -0.13566892970E+02 -0.29312964378E+01 -0.15233436559E+01  0.13963296882E+02  0.51100000000E-03 0. -1.
        -11    1    4    4    0    0 -0.72534729827E+01 -0.20220910306E+02 -0.11557714155E+02  0.24394237858E+02  0.51100000000E-03 0.  1.
         12    1    4    4    0    0  0.82912570650E+01  0.11434163111E+01 -0.13647469716E+02  0.16009552593E+02  0.00000000000E+00 0. -1.
</event>
<event>
 8    1  0.1254059E-006  0.9118800E+02  0.7816164E-02  0.1184000E+00
        -11   -1    0    0    0    0  0.00000000000E+00  0.00000000000E+00  0.45593999997E+02  0.45594000000E+02  0.51100000000E-03 0.  1.
         11   -1    0    0    0    0 -0.00000000000E+00 -0.00000000000E+00 -0.45593999997E+02  0.45594000000E+02  0.51100000000E-03 0. -1.
         23    2    1    2    0    0  0.00000000000E+00  0.35527136788E-14  0.22204460493E-15  0.91188000000E+02  0.91188000000E+02 0.  0.
    9900012    2    3    3    0    0 -0.23065060688E+02 -0.28680500483E+02 -0.11008712593E+01  0.54367081353E+02  0.39999993560E+02 0.  0.
         12    1    3    3    0    0  0.23065060688E+02  0.28680500483E+02  0.11008712593E+01  0.36820918647E+02  0.00000000000E+00 0. -1.
         11    1    4    4    0    0 -0.25579428789E+01 -0.13244971232E+02  0.26041077696E+00  0.13492225493E+02  0.51100000000E-03 0.  1.
        -11    1    4    4    0    0 -0.22020946164E+02 -0.89836195594E+01  0.11491840064E+02  0.26413819843E+02  0.51100000000E-03 0. -1.
        -12    1    4    4    0    0  0.15138283549E+01 -0.64519096911E+01 -0.12853122101E+02  0.14461036017E+02  0.00000000000E+00 0.  1.
</event>
<event>
 8    1  0.1254059E-006  0.9118800E+02  0.7816164E-02  0.1184000E+00
        -11   -1    0    0    0    0  0.00000000000E+00  0.00000000000E+00  0.45593999997E+02  0.45594000000E+02  0.51100000000E-03 0.  1.
         11   -1    0    0    0    0 -0.00000000000E+00 -0.00000000000E+00 -0.45593999997E+02  0.45594000000E+02  0.51100000000E-03 0. -1.
         23    2    1    2    0    0  0.00000000000E+00  0.00000000000E+00  0.00000000000E+00  0.91188000000E+02  0.91188000000E+02 0.  0.
    9900012    2    3    3    0    0 -0.16075420898E+02 -0.28533278895E+02  0.16828917476E+02  0.54367087125E+02  0.40000006718E+02 0.  0.
         12    1    3    3    0    0  0.16075420898E+02  0.28533278895E+02 -0.16828917476E+02  0.36820912875E+02  0.00000000000E+00 0. -1.
         11    1    4    4    0    0 -0.98616135255E+01 -0.21361618179E+02 -0.39750792296E+01  0.23861504724E+02  0.51100000000E-03 0. -1.
        -11    1    4    4    0    0 -0.11481937535E+02 -0.10772416082E+02  0.12948123092E+02  0.20384644458E+02  0.51100000000E-03 0.  1.
         12    1    4    4    0    0  0.52681301619E+01  0.36007553667E+01  0.78558736132E+01  0.10120937943E+02  0.00000000000E+00 0. -1.
</event>
<event>
 8    1  0.1254059E-006  0.9118800E+02  0.7816164E-02  0.1184000E+00
        -11   -1    0    0    0    0  0.00000000000E+00  0.00000000000E+00  0.45593999997E+02  0.45594000000E+02  0.51100000000E-03 0.  1.
         11   -1    0    0    0    0 -0.00000000000E+00 -0.00000000000E+00 -0.45593999997E+02  0.45594000000E+02  0.51100000000E-03 0. -1.
         23    2    1    2    0    0  0.00000000000E+00  0.00000000000E+00  0.35527136788E-14  0.91188000000E+02  0.91188000000E+02 0.  0.
    9900012    2    3    3    0    0  0.17298329059E+02  0.14107641761E+02 -0.29283465276E+02  0.54367094486E+02  0.40000023500E+02 0.  0.
        -12    1    3    3    0    0 -0.17298329059E+02 -0.14107641761E+02  0.29283465276E+02  0.36820905514E+02  0.00000000000E+00 0.  1.
         11    1    4    4    0    0  0.16095942807E+02  0.59402385658E+01 -0.26669657688E+02  0.31711771482E+02  0.51100000000E-03 0. -1.
        -11    1    4    4    0    0  0.76651574902E+01 -0.24437052800E+01  0.35410445194E+01  0.87900700449E+01  0.51100000000E-03 0.  1.
        -12    1    4    4    0    0 -0.64627712383E+01  0.10611108475E+02 -0.61548521073E+01  0.13865252959E+02  0.00000000000E+00 0.  1.
</event>
<event>
 8    1  0.1254059E-006  0.9118800E+02  0.7816164E-02  0.1184000E+00
        -11   -1    0    0    0    0  0.00000000000E+00  0.00000000000E+00  0.45593999997E+02  0.45594000000E+02  0.51100000000E-03 0. -1.
         11   -1    0    0    0    0 -0.00000000000E+00 -0.00000000000E+00 -0.45593999997E+02  0.45594000000E+02  0.51100000000E-03 0.  1.
         23    2    1    2    0    0  0.00000000000E+00 -0.35527136788E-14 -0.88817841970E-15  0.91188000000E+02  0.91188000000E+02 0.  0.
    9900012    2    3    3    0    0  0.24714033267E+02 -0.27216448512E+02  0.20657082577E+01  0.54367005166E+02  0.39999819877E+02 0.  0.
         12    1    3    3    0    0 -0.24714033267E+02  0.27216448512E+02 -0.20657082577E+01  0.36820994834E+02  0.00000000000E+00 0. -1.
         11    1    4    4    0    0  0.11474537718E+02 -0.34572071048E+02  0.89589504648E+01  0.37512076803E+02  0.51100000000E-03 0. -1.
        -11    1    4    4    0    0  0.37423034202E+01  0.19297974122E+01 -0.64924602151E+00  0.42603372635E+01  0.51100000000E-03 0.  1.
         12    1    4    4    0    0  0.94971921287E+01  0.54258251236E+01 -0.62439961856E+01  0.12594591100E+02  0.00000000000E+00 0. -1.
</event>
<event>
 8    1  0.1254059E-006  0.9118800E+02  0.7816164E-02  0.1184000E+00
        -11   -1    0    0    0    0  0.00000000000E+00  0.00000000000E+00  0.45593999997E+02  0.45594000000E+02  0.51100000000E-03 0.  1.
         11   -1    0    0    0    0 -0.00000000000E+00 -0.00000000000E+00 -0.45593999997E+02  0.45594000000E+02  0.51100000000E-03 0. -1.
         23    2    1    2    0    0 -0.88817841970E-15  0.00000000000E+00  0.00000000000E+00  0.91188000000E+02  0.91188000000E+02 0.  0.
    9900012    2    3    3    0    0 -0.29165227140E+01 -0.24606416142E+02  0.27235952108E+02  0.54367096870E+02  0.40000028934E+02 0.  0.
         12    1    3    3    0    0  0.29165227140E+01  0.24606416142E+02 -0.27235952108E+02  0.36820903130E+02  0.00000000000E+00 0. -1.
         11    1    4    4    0    0  0.70020158424E+01  0.28995890360E+01  0.27224862361E+01  0.80528115588E+01  0.51100000000E-03 0. -1.
        -11    1    4    4    0    0 -0.11565355762E+02 -0.32058437317E+01  0.35135248412E+00  0.12006595552E+02  0.51100000000E-03 0.  1.
         12    1    4    4    0    0  0.16468172055E+01 -0.24300161446E+02  0.24162113388E+02  0.34307689759E+02  0.00000000000E+00 0. -1.
</event>
<event>
 8    1  0.1254059E-006  0.9118800E+02  0.7816164E-02  0.1184000E+00
        -11   -1    0    0    0    0  0.00000000000E+00  0.00000000000E+00  0.45593999997E+02  0.45594000000E+02  0.51100000000E-03 0. -1.
         11   -1    0    0    0    0 -0.00000000000E+00 -0.00000000000E+00 -0.45593999997E+02  0.45594000000E+02  0.51100000000E-03 0.  1.
         23    2    1    2    0    0  0.17763568394E-14  0.22204460493E-15  0.00000000000E+00  0.91188000000E+02  0.91188000000E+02 0.  0.
    9900012    2    3    3    0    0 -0.10488402887E+02 -0.15166893333E+01 -0.35262877927E+02  0.54367115962E+02  0.40000072458E+02 0.  0.
         12    1    3    3    0    0  0.10488402887E+02  0.15166893333E+01  0.35262877927E+02  0.36820884038E+02  0.00000000000E+00 0. -1.
         11    1    4    4    0    0  0.89754059874E+01 -0.22918819104E+01 -0.14917700904E+02  0.17559852957E+02  0.51100000000E-03 0. -1.
        -11    1    4    4    0    0 -0.10176574645E+02 -0.58639401837E+01  0.18099349055E+01  0.11883784355E+02  0.51100000000E-03 0.  1.
         12    1    4    4    0    0 -0.92872342300E+01  0.66391327609E+01 -0.22155111928E+02  0.24923478650E+02  0.00000000000E+00 0. -1.
</event>
<event>
 8    1  0.1254059E-006  0.9118800E+02  0.7816164E-02  0.1184000E+00
        -11   -1    0    0    0    0  0.00000000000E+00  0.00000000000E+00  0.45593999997E+02  0.45594000000E+02  0.51100000000E-03 0.  1.
         11   -1    0    0    0    0 -0.00000000000E+00 -0.00000000000E+00 -0.45593999997E+02  0.45594000000E+02  0.51100000000E-03 0. -1.
         23    2    1    2    0    0  0.88817841970E-15  0.00000000000E+00 -0.35527136788E-14  0.91188000000E+02  0.91188000000E+02 0.  0.
    9900012    2    3    3    0    0 -0.45883435185E+01 -0.32796293929E+02  0.16097489476E+02  0.54367096166E+02  0.40000027330E+02 0.  0.
         12    1    3    3    0    0  0.45883435185E+01  0.32796293929E+02 -0.16097489476E+02  0.36820903834E+02  0.00000000000E+00 0. -1.
         11    1    4    4    0    0  0.74976865844E+01  0.31145858352E+01 -0.62042078670E-01  0.81191008445E+01  0.51100000000E-03 0. -1.
        -11    1    4    4    0    0 -0.28471098616E+01 -0.33627825984E+02  0.13664440351E+02  0.36409526848E+02  0.51100000000E-03 0.  1.
         12    1    4    4    0    0 -0.92389202413E+01 -0.22830537800E+01  0.24950912037E+01  0.98384684735E+01  0.00000000000E+00 0. -1.
</event>
<event>
 8    1  0.1254059E-006  0.9118800E+02  0.7816164E-02  0.1184000E+00
        -11   -1    0    0    0    0  0.00000000000E+00  0.00000000000E+00  0.45593999997E+02  0.45594000000E+02  0.51100000000E-03 0.  1.
         11   -1    0    0    0    0 -0.00000000000E+00 -0.00000000000E+00 -0.45593999997E+02  0.45594000000E+02  0.51100000000E-03 0. -1.
         23    2    1    2    0    0  0.00000000000E+00  0.00000000000E+00  0.17763568394E-14  0.91188000000E+02  0.91188000000E+02 0.  0.
    9900012    2    3    3    0    0 -0.41691826091E+01 -0.33889244396E+02 -0.13781030650E+02  0.54367085085E+02  0.40000002069E+02 0.  0.
        -12    1    3    3    0    0  0.41691826091E+01  0.33889244396E+02  0.13781030650E+02  0.36820914915E+02  0.00000000000E+00 0.  1.
         11    1    4    4    0    0 -0.77129621034E+01 -0.25613060911E+02  0.66488090267E+01  0.27563115488E+02  0.51100000000E-03 0. -1.
        -11    1    4    4    0    0  0.21678844350E+01  0.72479353906E+00  0.17166524613E+01  0.28586613182E+01  0.51100000000E-03 0.  1.
        -12    1    4    4    0    0  0.13758950593E+01 -0.90009770242E+01 -0.22146492138E+02  0.23945308280E+02  0.00000000000E+00 0.  1.
</event>
<event>
 8    1  0.1254059E-006  0.9118800E+02  0.7816164E-02  0.1184000E+00
        -11   -1    0    0    0    0  0.00000000000E+00  0.00000000000E+00  0.45593999997E+02  0.45594000000E+02  0.51100000000E-03 0.  1.
         11   -1    0    0    0    0 -0.00000000000E+00 -0.00000000000E+00 -0.45593999997E+02  0.45594000000E+02  0.51100000000E-03 0. -1.
         23    2    1    2    0    0  0.00000000000E+00  0.00000000000E+00  0.00000000000E+00  0.91188000000E+02  0.91188000000E+02 0.  0.
    9900012    2    3    3    0    0 -0.43619350020E+01 -0.24208388592E+02 -0.27399171698E+02  0.54366984738E+02  0.39999773306E+02 0.  0.
        -12    1    3    3    0    0  0.43619350020E+01  0.24208388592E+02  0.27399171698E+02  0.36821015262E+02  0.00000000000E+00 0.  1.
         11    1    4    4    0    0 -0.47248618874E+01 -0.19211936866E+01 -0.16233424781E+02  0.17015856882E+02  0.51100000000E-03 0. -1.
        -11    1    4    4    0    0  0.25982520071E+01 -0.50356267651E+00 -0.14903265618E+02  0.15136439978E+02  0.51100000000E-03 0.  1.
         12    1    4    4    0    0 -0.22353251217E+01 -0.21783632229E+02  0.37375187011E+01  0.22214687878E+02  0.00000000000E+00 0. -1.
</event>
<event>
 8    1  0.1254059E-006  0.9118800E+02  0.7816164E-02  0.1184000E+00
        -11   -1    0    0    0    0  0.00000000000E+00  0.00000000000E+00  0.45593999997E+02  0.45594000000E+02  0.51100000000E-03 0.  1.
         11   -1    0    0    0    0 -0.00000000000E+00 -0.00000000000E+00 -0.45593999997E+02  0.45594000000E+02  0.51100000000E-03 0. -1.
         23    2    1    2    0    0  0.00000000000E+00  0.71054273576E-14  0.88817841970E-15  0.91188000000E+02  0.91188000000E+02 0.  0.
    9900012    2    3    3    0    0 -0.16702842304E+01 -0.36243903117E+02 -0.62745803159E+01  0.54367072245E+02  0.39999972798E+02 0.  0.
        -12    1    3    3    0    0  0.16702842304E+01  0.36243903117E+02  0.62745803159E+01  0.36820927755E+02  0.00000000000E+00 0.  1.
         11    1    4    4    0    0 -0.37940932770E+01 -0.52449327605E+01 -0.81961720225E+01  0.10444218474E+02  0.51100000000E-03 0. -1.
        -11    1    4    4    0    0  0.49497002695E+01  0.20831331140E+01 -0.76695495004E+01  0.93627435150E+01  0.51100000000E-03 0.  1.
         12    1    4    4    0    0 -0.28258912229E+01 -0.33082103471E+02  0.95911412070E+01  0.34560110256E+02  0.00000000000E+00 0. -1.
</event>
<event>
 8    1  0.1254059E-006  0.9118800E+02  0.7816164E-02  0.1184000E+00
        -11   -1    0    0    0    0  0.00000000000E+00  0.00000000000E+00  0.45593999997E+02  0.45594000000E+02  0.51100000000E-03 0.  1.
         11   -1    0    0    0    0 -0.00000000000E+00 -0.00000000000E+00 -0.45593999997E+02  0.45594000000E+02  0.51100000000E-03 0. -1.
         23    2    1    2    0    0  0.17763568394E-14 -0.35527136788E-14  0.17763568394E-14  0.91188000000E+02  0.91188000000E+02 0.  0.
    9900012    2    3    3    0    0 -0.15637855766E+02  0.31746585974E+02 -0.10168207589E+02  0.54367072533E+02  0.39999973453E+02 0.  0.
         12    1    3    3    0    0  0.15637855766E+02 -0.31746585974E+02  0.10168207589E+02  0.36820927467E+02  0.00000000000E+00 0. -1.
         11    1    4    4    0    0 -0.90674554436E+01 -0.31897171601E+01  0.24023133362E+01  0.99077824669E+01  0.51100000000E-03 0. -1.
        -11    1    4    4    0    0  0.10678110170E+01  0.27860165983E+02  0.32809335775E+00  0.27882552151E+02  0.51100000000E-03 0.  1.
         12    1    4    4    0    0 -0.76382113396E+01  0.70761371515E+01 -0.12898614283E+02  0.16576737915E+02  0.00000000000E+00 0. -1.
</event>
<event>
 8    1  0.1254059E-006  0.9118800E+02  0.7816164E-02  0.1184000E+00
        -11   -1    0    0    0    0  0.00000000000E+00  0.00000000000E+00  0.45593999997E+02  0.45594000000E+02  0.51100000000E-03 0.  1.
         11   -1    0    0    0    0 -0.00000000000E+00 -0.00000000000E+00 -0.45593999997E+02  0.45594000000E+02  0.51100000000E-03 0. -1.
         23    2    1    2    0    0 -0.17763568394E-14  0.00000000000E+00  0.00000000000E+00  0.91188000000E+02  0.91188000000E+02 0.  0.
    9900012    2    3    3    0    0  0.10148944494E+02 -0.35010352380E+02 -0.52013995212E+01  0.54367076532E+02  0.39999982569E+02 0.  0.
        -12    1    3    3    0    0 -0.10148944494E+02  0.35010352380E+02  0.52013995212E+01  0.36820923468E+02  0.00000000000E+00 0.  1.
         11    1    4    4    0    0  0.29853535616E+01 -0.17727007191E+02 -0.81815403477E+01  0.19750866375E+02  0.51100000000E-03 0. -1.
        -11    1    4    4    0    0 -0.37514050641E-01  0.16592091990E+01 -0.10270345745E+02  0.10403575561E+02  0.51100000000E-03 0.  1.
        -12    1    4    4    0    0  0.72011049828E+01 -0.18942554388E+02  0.13250486571E+02  0.24212634596E+02  0.00000000000E+00 0.  1.
</event>
<event>
 8    1  0.1254059E-006  0.9118800E+02  0.7816164E-02  0.1184000E+00
        -11   -1    0    0    0    0  0.00000000000E+00  0.00000000000E+00  0.45593999997E+02  0.45594000000E+02  0.51100000000E-03 0. -1.
         11   -1    0    0    0    0 -0.00000000000E+00 -0.00000000000E+00 -0.45593999997E+02  0.45594000000E+02  0.51100000000E-03 0.  1.
         23    2    1    2    0    0 -0.35527136788E-14 -0.17763568394E-14 -0.71054273576E-14  0.91188000000E+02  0.91188000000E+02 0.  0.
    9900012    2    3    3    0    0 -0.20964120734E+02 -0.96192110781E+01 -0.28701182650E+02  0.54367062133E+02  0.39999949744E+02 0.  0.
        -12    1    3    3    0    0  0.20964120734E+02  0.96192110781E+01  0.28701182650E+02  0.36820937867E+02  0.00000000000E+00 0.  1.
         11    1    4    4    0    0  0.42991419449E+01 -0.72887633775E+01 -0.92617575040E+01  0.12545471110E+02  0.51100000000E-03 0. -1.
        -11    1    4    4    0    0 -0.18338356705E+02  0.26015218244E+01  0.21233959161E+01  0.18643284392E+02  0.51100000000E-03 0.  1.
        -12    1    4    4    0    0 -0.69249059735E+01 -0.49319695250E+01 -0.21562821062E+02  0.23178306631E+02  0.00000000000E+00 0.  1.
</event>
<event>
 8    1  0.1254059E-006  0.9118800E+02  0.7816164E-02  0.1184000E+00
        -11   -1    0    0    0    0  0.00000000000E+00  0.00000000000E+00  0.45593999997E+02  0.45594000000E+02  0.51100000000E-03 0.  1.
         11   -1    0    0    0    0 -0.00000000000E+00 -0.00000000000E+00 -0.45593999997E+02  0.45594000000E+02  0.51100000000E-03 0. -1.
         23    2    1    2    0    0  0.00000000000E+00 -0.35527136788E-14  0.77715611724E-15  0.91188000000E+02  0.91188000000E+02 0.  0.
    9900012    2    3    3    0    0  0.20562362440E+02 -0.30536162515E+02  0.71463053808E+00  0.54367100133E+02  0.40000036372E+02 0.  0.
        -12    1    3    3    0    0 -0.20562362440E+02  0.30536162515E+02 -0.71463053808E+00  0.36820899867E+02  0.00000000000E+00 0.  1.
         11    1    4    4    0    0  0.52809120348E+01 -0.17038695512E+02  0.15720287514E+02  0.23776724258E+02  0.51100000000E-03 0. -1.
        -11    1    4    4    0    0  0.51912597203E+01  0.31521653775E+00  0.27939416653E+01  0.59037826213E+01  0.51100000000E-03 0.  1.
         12    1    4    4    0    0  0.10090190685E+02 -0.13812683541E+02 -0.17799598641E+02  0.24686593253E+02  0.00000000000E+00 0. -1.
</event>
<event>
 8    1  0.1254059E-006  0.9118800E+02  0.7816164E-02  0.1184000E+00
        -11   -1    0    0    0    0  0.00000000000E+00  0.00000000000E+00  0.45593999997E+02  0.45594000000E+02  0.51100000000E-03 0. -1.
         11   -1    0    0    0    0 -0.00000000000E+00 -0.00000000000E+00 -0.45593999997E+02  0.45594000000E+02  0.51100000000E-03 0.  1.
         23    2    1    2    0    0  0.00000000000E+00  0.00000000000E+00  0.35527136788E-14  0.91188000000E+02  0.91188000000E+02 0.  0.
    9900012    2    3    3    0    0 -0.87779904850E+01  0.32685189051E+02  0.14505348604E+02  0.54367084227E+02  0.40000000111E+02 0.  0.
         12    1    3    3    0    0  0.87779904850E+01 -0.32685189051E+02 -0.14505348604E+02  0.36820915773E+02  0.00000000000E+00 0. -1.
         11    1    4    4    0    0  0.81920854762E+01  0.35714012276E+01  0.16421114394E+02  0.18695405034E+02  0.51100000000E-03 0. -1.
        -11    1    4    4    0    0  0.14321773667E+01  0.26696314154E+01 -0.16581603509E+01  0.34536299619E+01  0.51100000000E-03 0.  1.
        -12    1    4    4    0    0 -0.18402253328E+02  0.26444156408E+02 -0.25760543874E+00  0.32218049231E+02  0.00000000000E+00 0.  1.
</event>
<event>
 8    1  0.1254059E-006  0.9118800E+02  0.7816164E-02  0.1184000E+00
        -11   -1    0    0    0    0  0.00000000000E+00  0.00000000000E+00  0.45593999997E+02  0.45594000000E+02  0.51100000000E-03 0. -1.
         11   -1    0    0    0    0 -0.00000000000E+00 -0.00000000000E+00 -0.45593999997E+02  0.45594000000E+02  0.51100000000E-03 0.  1.
         23    2    1    2    0    0  0.00000000000E+00  0.00000000000E+00  0.35527136788E-14  0.91188000000E+02  0.91188000000E+02 0.  0.
    9900012    2    3    3    0    0  0.41054247549E+01 -0.30915049059E+02 -0.19575132648E+02  0.54367074035E+02  0.39999976877E+02 0.  0.
         12    1    3    3    0    0 -0.41054247549E+01  0.30915049059E+02  0.19575132648E+02  0.36820925965E+02  0.00000000000E+00 0. -1.
         11    1    4    4    0    0  0.11451273203E+02 -0.51635823556E+01 -0.21180706391E+02  0.24625526679E+02  0.51100000000E-03 0. -1.
        -11    1    4    4    0    0 -0.75651835471E+01 -0.11586634873E+02  0.57446125982E+01  0.14982746209E+02  0.51100000000E-03 0.  1.
         12    1    4    4    0    0  0.21933509850E+00 -0.14164831830E+02 -0.41390388550E+01  0.14758801147E+02  0.00000000000E+00 0. -1.
</event>
<event>
 8    1  0.1254059E-006  0.9118800E+02  0.7816164E-02  0.1184000E+00
        -11   -1    0    0    0    0  0.00000000000E+00  0.00000000000E+00  0.45593999997E+02  0.45594000000E+02  0.51100000000E-03 0.  1.
         11   -1    0    0    0    0 -0.00000000000E+00 -0.00000000000E+00 -0.45593999997E+02  0.45594000000E+02  0.51100000000E-03 0. -1.
         23    2    1    2    0    0  0.00000000000E+00 -0.35527136788E-14  0.00000000000E+00  0.91188000000E+02  0.91188000000E+02 0.  0.
    9900012    2    3    3    0    0  0.15536207731E+02 -0.97318789767E+01 -0.31932686011E+02  0.54367086717E+02  0.40000005789E+02 0.  0.
        -12    1    3    3    0    0 -0.15536207731E+02  0.97318789767E+01  0.31932686011E+02  0.36820913283E+02  0.00000000000E+00 0.  1.
         11    1    4    4    0    0  0.14087314182E+02  0.86627341352E+01 -0.61202012166E+01  0.17633838118E+02  0.51100000000E-03 0. -1.
        -11    1    4    4    0    0  0.45658970184E+01 -0.19477869034E+02 -0.13870934961E+02  0.24344149906E+02  0.51100000000E-03 0.  1.
         12    1    4    4    0    0 -0.31170034695E+01  0.10832559221E+01 -0.11941549833E+02  0.12389098694E+02  0.00000000000E+00 0. -1.
</event>
<event>
 8    1  0.1254059E-006  0.9118800E+02  0.7816164E-02  0.1184000E+00
        -11   -1    0    0    0    0  0.00000000000E+00  0.00000000000E+00  0.45593999997E+02  0.45594000000E+02  0.51100000000E-03 0.  1.
         11   -1    0    0    0    0 -0.00000000000E+00 -0.00000000000E+00 -0.45593999997E+02  0.45594000000E+02  0.51100000000E-03 0. -1.
         23    2    1    2    0    0  0.00000000000E+00  0.00000000000E+00  0.00000000000E+00  0.91188000000E+02  0.91188000000E+02 0.  0.
    9900012    2    3    3    0    0  0.22862788761E+02  0.19895549127E+02  0.20910277013E+02  0.54367086517E+02  0.40000005332E+02 0.  0.
         12    1    3    3    0    0 -0.22862788761E+02 -0.19895549127E+02 -0.20910277013E+02  0.36820913483E+02  0.00000000000E+00 0. -1.
         11    1    4    4    0    0  0.29624533729E+02  0.18589895747E+02  0.10237222773E+02  0.36441706230E+02  0.51100000000E-03 0. -1.
        -11    1    4    4    0    0 -0.83016804207E+01 -0.11539452973E+01  0.17767499011E+01  0.85677492977E+01  0.51100000000E-03 0.  1.
         12    1    4    4    0    0  0.15399354525E+01  0.24595986768E+01  0.88963043382E+01  0.93576309891E+01  0.00000000000E+00 0. -1.
</event>
<event>
 8    1  0.1254059E-006  0.9118800E+02  0.7816164E-02  0.1184000E+00
        -11   -1    0    0    0    0  0.00000000000E+00  0.00000000000E+00  0.45593999997E+02  0.45594000000E+02  0.51100000000E-03 0.  1.
         11   -1    0    0    0    0 -0.00000000000E+00 -0.00000000000E+00 -0.45593999997E+02  0.45594000000E+02  0.51100000000E-03 0. -1.
         23    2    1    2    0    0  0.00000000000E+00  0.00000000000E+00  0.35527136788E-14  0.91188000000E+02  0.91188000000E+02 0.  0.
    9900012    2    3    3    0    0 -0.22717278705E+02 -0.34435298396E+01  0.28772342839E+02  0.54367077117E+02  0.39999983905E+02 0.  0.
         12    1    3    3    0    0  0.22717278705E+02  0.34435298396E+01 -0.28772342839E+02  0.36820922883E+02  0.00000000000E+00 0. -1.
         11    1    4    4    0    0 -0.16293789546E+01 -0.10884173993E+02 -0.95458669590E+00  0.11046780314E+02  0.51100000000E-03 0. -1.
        -11    1    4    4    0    0 -0.41362026001E+01 -0.74260688788E+01  0.50212053284E+01  0.98725464877E+01  0.51100000000E-03 0.  1.
        -12    1    4    4    0    0 -0.16951697150E+02  0.14866713032E+02  0.24705724206E+02  0.33447750316E+02  0.00000000000E+00 0.  1.
</event>
<event>
 8    1  0.1254059E-006  0.9118800E+02  0.7816164E-02  0.1184000E+00
        -11   -1    0    0    0    0  0.00000000000E+00  0.00000000000E+00  0.45593999997E+02  0.45594000000E+02  0.51100000000E-03 0.  1.
         11   -1    0    0    0    0 -0.00000000000E+00 -0.00000000000E+00 -0.45593999997E+02  0.45594000000E+02  0.51100000000E-03 0. -1.
         23    2    1    2    0    0  0.00000000000E+00  0.00000000000E+00 -0.88817841970E-15  0.91188000000E+02  0.91188000000E+02 0.  0.
    9900012    2    3    3    0    0 -0.21412854905E+02 -0.29179882457E+02 -0.67678390010E+01  0.54367088277E+02  0.40000009346E+02 0.  0.
        -12    1    3    3    0    0  0.21412854905E+02  0.29179882457E+02  0.67678390010E+01  0.36820911723E+02  0.00000000000E+00 0.  1.
         11    1    4    4    0    0 -0.17553049153E+02 -0.17449851251E+02  0.50807073803E+00  0.24756109940E+02  0.51100000000E-03 0. -1.
        -11    1    4    4    0    0 -0.11208343441E+02 -0.11536522269E+02  0.36010439319E+01  0.16482894964E+02  0.51100000000E-03 0.  1.
        -12    1    4    4    0    0  0.73485376893E+01 -0.19350893713E+00 -0.10876953671E+02  0.13128083373E+02  0.00000000000E+00 0.  1.
</event>
<event>
 8    1  0.1254059E-006  0.9118800E+02  0.7816164E-02  0.1184000E+00
        -11   -1    0    0    0    0  0.00000000000E+00  0.00000000000E+00  0.45593999997E+02  0.45594000000E+02  0.51100000000E-03 0.  1.
         11   -1    0    0    0    0 -0.00000000000E+00 -0.00000000000E+00 -0.45593999997E+02  0.45594000000E+02  0.51100000000E-03 0. -1.
         23    2    1    2    0    0  0.35527136788E-14  0.35527136788E-14 -0.17763568394E-14  0.91188000000E+02  0.91188000000E+02 0.  0.
    9900012    2    3    3    0    0 -0.24924244181E+02 -0.23646215632E+02  0.13244545418E+02  0.54367089568E+02  0.40000012289E+02 0.  0.
         12    1    3    3    0    0  0.24924244181E+02  0.23646215632E+02 -0.13244545418E+02  0.36820910432E+02  0.00000000000E+00 0. -1.
         11    1    4    4    0    0 -0.12571421809E+02  0.78908289433E+01  0.56812120064E+01  0.15892828503E+02  0.51100000000E-03 0. -1.
        -11    1    4    4    0    0 -0.86842810275E+01 -0.32728292252E+02  0.69892741101E+01  0.34574669970E+02  0.51100000000E-03 0.  1.
        -12    1    4    4    0    0 -0.36685413446E+01  0.11912476771E+01  0.57405930183E+00  0.38995910949E+01  0.00000000000E+00 0.  1.
</event>
<event>
 8    1  0.1254059E-006  0.9118800E+02  0.7816164E-02  0.1184000E+00
        -11   -1    0    0    0    0  0.00000000000E+00  0.00000000000E+00  0.45593999997E+02  0.45594000000E+02  0.51100000000E-03 0.  1.
         11   -1    0    0    0    0 -0.00000000000E+00 -0.00000000000E+00 -0.45593999997E+02  0.45594000000E+02  0.51100000000E-03 0. -1.
         23    2    1    2    0    0  0.00000000000E+00  0.00000000000E+00  0.35527136788E-14  0.91188000000E+02  0.91188000000E+02 0.  0.
    9900012    2    3    3    0    0  0.11316519543E+02 -0.20314721380E+02  0.28548702339E+02  0.54367083057E+02  0.39999997445E+02 0.  0.
         12    1    3    3    0    0 -0.11316519543E+02  0.20314721380E+02 -0.28548702339E+02  0.36820916943E+02  0.00000000000E+00 0. -1.
         11    1    4    4    0    0 -0.32233604678E+01 -0.17738708086E+02  0.20602156939E+02  0.27377010211E+02  0.51100000000E-03 0. -1.
        -11    1    4    4    0    0  0.72893727352E+01 -0.74625292432E+01  0.13173219852E+02  0.16803512106E+02  0.51100000000E-03 0.  1.
         12    1    4    4    0    0  0.72505072756E+01  0.48865159493E+01 -0.52266744526E+01  0.10186560740E+02  0.00000000000E+00 0. -1.
</event>
<event>
 8    1  0.1254059E-006  0.9118800E+02  0.7816164E-02  0.1184000E+00
        -11   -1    0    0    0    0  0.00000000000E+00  0.00000000000E+00  0.45593999997E+02  0.45594000000E+02  0.51100000000E-03 0.  1.
         11   -1    0    0    0    0 -0.00000000000E+00 -0.00000000000E+00 -0.45593999997E+02  0.45594000000E+02  0.51100000000E-03 0. -1.
         23    2    1    2    0    0  0.35527136788E-14 -0.88817841970E-15  0.00000000000E+00  0.91188000000E+02  0.91188000000E+02 0.  0.
    9900012    2    3    3    0    0  0.25098227344E+02 -0.54735801597E+01 -0.26379899247E+02  0.54367079590E+02  0.39999989541E+02 0.  0.
        -12    1    3    3    0    0 -0.25098227344E+02  0.54735801597E+01  0.26379899247E+02  0.36820920410E+02  0.00000000000E+00 0.  1.
         11    1    4    4    0    0  0.16569488030E+02 -0.32876200873E+01  0.36561504407E+01  0.17283628546E+02  0.51100000000E-03 0. -1.
        -11    1    4    4    0    0 -0.36384946007E+00  0.81211165547E+01 -0.11678178028E+02  0.14229011309E+02  0.51100000000E-03 0.  1.
         12    1    4    4    0    0  0.88925887744E+01 -0.10307076627E+02 -0.18357871659E+02  0.22854439734E+02  0.00000000000E+00 0. -1.
</event>
<event>
 8    1  0.1254059E-006  0.9118800E+02  0.7816164E-02  0.1184000E+00
        -11   -1    0    0    0    0  0.00000000000E+00  0.00000000000E+00  0.45593999997E+02  0.45594000000E+02  0.51100000000E-03 0.  1.
         11   -1    0    0    0    0 -0.00000000000E+00 -0.00000000000E+00 -0.45593999997E+02  0.45594000000E+02  0.51100000000E-03 0. -1.
         23    2    1    2    0    0  0.00000000000E+00  0.53290705182E-14  0.00000000000E+00  0.91188000000E+02  0.91188000000E+02 0.  0.
    9900012    2    3    3    0    0 -0.31387248570E+02 -0.15852092009E+02  0.10923886276E+02  0.54367089022E+02  0.40000011044E+02 0.  0.
         12    1    3    3    0    0  0.31387248570E+02  0.15852092009E+02 -0.10923886276E+02  0.36820910978E+02  0.00000000000E+00 0. -1.
         11    1    4    4    0    0 -0.14198920477E+01  0.57078819235E+01 -0.29620819832E+01  0.65855857307E+01  0.51100000000E-03 0. -1.
        -11    1    4    4    0    0 -0.91133054204E+01  0.61556716469E+01  0.41683877042E+01  0.11760955974E+02  0.51100000000E-03 0.  1.
         12    1    4    4    0    0 -0.20854051102E+02 -0.27715645579E+02  0.97175805550E+01  0.36020547318E+02  0.00000000000E+00 0. -1.
</event>
<event>
 8    1  0.1254059E-006  0.9118800E+02  0.7816164E-02  0.1184000E+00
        -11   -1    0    0    0    0  0.00000000000E+00  0.00000000000E+00  0.45593999997E+02  0.45594000000E+02  0.51100000000E-03 0. -1.
         11   -1    0    0    0    0 -0.00000000000E+00 -0.00000000000E+00 -0.45593999997E+02  0.45594000000E+02  0.51100000000E-03 0.  1.
         23    2    1    2    0    0  0.35527136788E-14  0.35527136788E-14  0.00000000000E+00  0.91188000000E+02  0.91188000000E+02 0.  0.
    9900012    2    3    3    0    0  0.24884222851E+02  0.20332507019E+02  0.17976316161E+02  0.54367036796E+02  0.39999891983E+02 0.  0.
        -12    1    3    3    0    0 -0.24884222851E+02 -0.20332507019E+02 -0.17976316161E+02  0.36820963204E+02  0.00000000000E+00 0.  1.
         11    1    4    4    0    0  0.29681781412E+02  0.65857155167E+01  0.35050265595E+01  0.30604983387E+02  0.51100000000E-03 0. -1.
        -11    1    4    4    0    0  0.38206274621E+00  0.11097074230E+02  0.14079185268E+02  0.17930825037E+02  0.51100000000E-03 0.  1.
        -12    1    4    4    0    0 -0.51796213081E+01  0.26497172720E+01  0.39210433341E+00  0.58312283719E+01  0.00000000000E+00 0.  1.
</event>
<event>
 8    1  0.1254059E-006  0.9118800E+02  0.7816164E-02  0.1184000E+00
        -11   -1    0    0    0    0  0.00000000000E+00  0.00000000000E+00  0.45593999997E+02  0.45594000000E+02  0.51100000000E-03 0.  1.
         11   -1    0    0    0    0 -0.00000000000E+00 -0.00000000000E+00 -0.45593999997E+02  0.45594000000E+02  0.51100000000E-03 0. -1.
         23    2    1    2    0    0  0.00000000000E+00  0.00000000000E+00 -0.35527136788E-14  0.91188000000E+02  0.91188000000E+02 0.  0.
    9900012    2    3    3    0    0  0.14667941888E+02 -0.22235359870E+02 -0.25420885213E+02  0.54367066378E+02  0.39999959422E+02 0.  0.
        -12    1    3    3    0    0 -0.14667941888E+02  0.22235359870E+02  0.25420885213E+02  0.36820933622E+02  0.00000000000E+00 0.  1.
         11    1    4    4    0    0  0.20915446556E+01 -0.11381190849E+02 -0.54510380590E+01  0.12791398687E+02  0.51100000000E-03 0. -1.
        -11    1    4    4    0    0 -0.34346480195E+01 -0.30109188453E+01 -0.23036491451E+02  0.23484939385E+02  0.51100000000E-03 0.  1.
        -12    1    4    4    0    0  0.16011045252E+02 -0.78432501760E+01  0.30666442967E+01  0.18090728305E+02  0.00000000000E+00 0.  1.
</event>
<event>
 8    1  0.1254059E-006  0.9118800E+02  0.7816164E-02  0.1184000E+00
        -11   -1    0    0    0    0  0.00000000000E+00  0.00000000000E+00  0.45593999997E+02  0.45594000000E+02  0.51100000000E-03 0. -1.
         11   -1    0    0    0    0 -0.00000000000E+00 -0.00000000000E+00 -0.45593999997E+02  0.45594000000E+02  0.51100000000E-03 0.  1.
         23    2    1    2    0    0  0.00000000000E+00  0.00000000000E+00  0.00000000000E+00  0.91188000000E+02  0.91188000000E+02 0.  0.
    9900012    2    3    3    0    0 -0.29465484260E+02 -0.20657469754E+02  0.77996479227E+01  0.54367077591E+02  0.39999984984E+02 0.  0.
         12    1    3    3    0    0  0.29465484260E+02  0.20657469754E+02 -0.77996479227E+01  0.36820922409E+02  0.00000000000E+00 0. -1.
         11    1    4    4    0    0 -0.13044513234E+02 -0.10178425910E+02 -0.95247264384E+01  0.19091361751E+02  0.51100000000E-03 0. -1.
        -11    1    4    4    0    0 -0.10217190162E+02 -0.17010402835E+02  0.58491143532E+01  0.20687119625E+02  0.51100000000E-03 0.  1.
         12    1    4    4    0    0 -0.62037808641E+01  0.65313589902E+01  0.11475260008E+02  0.14588596215E+02  0.00000000000E+00 0. -1.
</event>
<event>
 8    1  0.1254059E-006  0.9118800E+02  0.7816164E-02  0.1184000E+00
        -11   -1    0    0    0    0  0.00000000000E+00  0.00000000000E+00  0.45593999997E+02  0.45594000000E+02  0.51100000000E-03 0. -1.
         11   -1    0    0    0    0 -0.00000000000E+00 -0.00000000000E+00 -0.45593999997E+02  0.45594000000E+02  0.51100000000E-03 0.  1.
         23    2    1    2    0    0 -0.35527136788E-14  0.35527136788E-14  0.00000000000E+00  0.91188000000E+02  0.91188000000E+02 0.  0.
    9900012    2    3    3    0    0 -0.31934956037E+02  0.10594010274E+02 -0.14956809142E+02  0.54367073743E+02  0.39999976211E+02 0.  0.
         12    1    3    3    0    0  0.31934956037E+02 -0.10594010274E+02  0.14956809142E+02  0.36820926257E+02  0.00000000000E+00 0. -1.
         11    1    4    4    0    0 -0.41112250040E+01 -0.61273506920E+01  0.12858521793E+01  0.74899942339E+01  0.51100000000E-03 0.  1.
        -11    1    4    4    0    0 -0.14105635148E+02 -0.69049388475E+01 -0.13536240749E+01  0.15763230057E+02  0.51100000000E-03 0. -1.
        -12    1    4    4    0    0 -0.13718095884E+02  0.23626299814E+02 -0.14889037246E+02  0.31113849452E+02  0.00000000000E+00 0.  1.
</event>
<event>
 8    1  0.1254059E-006  0.9118800E+02  0.7816164E-02  0.1184000E+00
        -11   -1    0    0    0    0  0.00000000000E+00  0.00000000000E+00  0.45593999997E+02  0.45594000000E+02  0.51100000000E-03 0. -1.
         11   -1    0    0    0    0 -0.00000000000E+00 -0.00000000000E+00 -0.45593999997E+02  0.45594000000E+02  0.51100000000E-03 0.  1.
         23    2    1    2    0    0  0.00000000000E+00  0.00000000000E+00 -0.17763568394E-14  0.91188000000E+02  0.91188000000E+02 0.  0.
    9900012    2    3    3    0    0 -0.81430894925E+01  0.34739793159E+02 -0.90893575010E+01  0.54367088075E+02  0.40000008883E+02 0.  0.
         12    1    3    3    0    0  0.81430894925E+01 -0.34739793159E+02  0.90893575010E+01  0.36820911925E+02  0.00000000000E+00 0. -1.
         11    1    4    4    0    0 -0.21959326591E+00  0.96870101812E+01  0.15038654230E+02  0.17889871681E+02  0.51100000000E-03 0. -1.
        -11    1    4    4    0    0 -0.50337857387E+01  0.92629793408E+01 -0.55124739587E+01  0.11896602647E+02  0.51100000000E-03 0.  1.
        -12    1    4    4    0    0 -0.28897104879E+01  0.15789803637E+02 -0.18615537772E+02  0.24580613747E+02  0.00000000000E+00 0.  1.
</event>
<event>
 8    1  0.1254059E-006  0.9118800E+02  0.7816164E-02  0.1184000E+00
        -11   -1    0    0    0    0  0.00000000000E+00  0.00000000000E+00  0.45593999997E+02  0.45594000000E+02  0.51100000000E-03 0.  1.
         11   -1    0    0    0    0 -0.00000000000E+00 -0.00000000000E+00 -0.45593999997E+02  0.45594000000E+02  0.51100000000E-03 0. -1.
         23    2    1    2    0    0  0.00000000000E+00  0.00000000000E+00  0.00000000000E+00  0.91188000000E+02  0.91188000000E+02 0.  0.
    9900012    2    3    3    0    0 -0.90192910284E+01  0.31182422918E+02 -0.17380689110E+02  0.54367089315E+02  0.40000011712E+02 0.  0.
        -12    1    3    3    0    0  0.90192910284E+01 -0.31182422918E+02  0.17380689110E+02  0.36820910685E+02  0.00000000000E+00 0.  1.
         11    1    4    4    0    0  0.38462501808E+01  0.74450793406E+01  0.77649829293E+01  0.11424439023E+02  0.51100000000E-03 0.  1.
        -11    1    4    4    0    0 -0.15384256424E+02  0.72956436371E+01 -0.18184071202E+02  0.24911086037E+02  0.51100000000E-03 0. -1.
         12    1    4    4    0    0  0.25187152147E+01  0.16441699941E+02 -0.69616008368E+01  0.18031564255E+02  0.00000000000E+00 0. -1.
</event>
<event>
 8    1  0.1254059E-006  0.9118800E+02  0.7816164E-02  0.1184000E+00
        -11   -1    0    0    0    0  0.00000000000E+00  0.00000000000E+00  0.45593999997E+02  0.45594000000E+02  0.51100000000E-03 0.  1.
         11   -1    0    0    0    0 -0.00000000000E+00 -0.00000000000E+00 -0.45593999997E+02  0.45594000000E+02  0.51100000000E-03 0. -1.
         23    2    1    2    0    0  0.00000000000E+00  0.00000000000E+00 -0.35527136788E-14  0.91188000000E+02  0.91188000000E+02 0.  0.
    9900012    2    3    3    0    0 -0.32280882406E+02 -0.28771717428E+01 -0.17477042245E+02  0.54367075354E+02  0.39999979885E+02 0.  0.
        -12    1    3    3    0    0  0.32280882406E+02  0.28771717428E+01  0.17477042245E+02  0.36820924646E+02  0.00000000000E+00 0.  1.
         11    1    4    4    0    0 -0.76079040671E+01 -0.16633851190E+02 -0.72228352915E+01  0.19665567869E+02  0.51100000000E-03 0. -1.
        -11    1    4    4    0    0 -0.12491032529E+02  0.96718215221E+01  0.31772785963E+01  0.16114128110E+02  0.51100000000E-03 0.  1.
        -12    1    4    4    0    0 -0.12181945810E+02  0.40848579247E+01 -0.13431485550E+02  0.18587379375E+02  0.00000000000E+00 0.  1.
</event>
<event>
 8    1  0.1254059E-006  0.9118800E+02  0.7816164E-02  0.1184000E+00
        -11   -1    0    0    0    0  0.00000000000E+00  0.00000000000E+00  0.45593999997E+02  0.45594000000E+02  0.51100000000E-03 0. -1.
         11   -1    0    0    0    0 -0.00000000000E+00 -0.00000000000E+00 -0.45593999997E+02  0.45594000000E+02  0.51100000000E-03 0.  1.
         23    2    1    2    0    0  0.88817841970E-15 -0.44408920985E-14 -0.71054273576E-14  0.91188000000E+02  0.91188000000E+02 0.  0.
    9900012    2    3    3    0    0  0.77976122787E+01  0.36678788072E+01  0.35798378952E+02  0.54367081654E+02  0.39999994248E+02 0.  0.
        -12    1    3    3    0    0 -0.77976122787E+01 -0.36678788072E+01 -0.35798378952E+02  0.36820918346E+02  0.00000000000E+00 0.  1.
         11    1    4    4    0    0  0.71412202289E+00  0.78793006199E+00  0.45864634331E+01  0.47081260742E+01  0.51100000000E-03 0. -1.
        -11    1    4    4    0    0 -0.30457825926E+00  0.19763938193E+02  0.12455099655E+02  0.23363123261E+02  0.51100000000E-03 0.  1.
        -12    1    4    4    0    0  0.73880685150E+01 -0.16883989447E+02  0.18756815864E+02  0.26295832320E+02  0.00000000000E+00 0.  1.
</event>
<event>
 8    1  0.1254059E-006  0.9118800E+02  0.7816164E-02  0.1184000E+00
        -11   -1    0    0    0    0  0.00000000000E+00  0.00000000000E+00  0.45593999997E+02  0.45594000000E+02  0.51100000000E-03 0.  1.
         11   -1    0    0    0    0 -0.00000000000E+00 -0.00000000000E+00 -0.45593999997E+02  0.45594000000E+02  0.51100000000E-03 0. -1.
         23    2    1    2    0    0  0.35527136788E-14  0.00000000000E+00  0.00000000000E+00  0.91188000000E+02  0.91188000000E+02 0.  0.
    9900012    2    3    3    0    0  0.13230252289E+02 -0.12282569911E+02 -0.32091740349E+02  0.54367069840E+02  0.39999967314E+02 0.  0.
        -12    1    3    3    0    0 -0.13230252289E+02  0.12282569911E+02  0.32091740349E+02  0.36820930160E+02  0.00000000000E+00 0.  1.
         11    1    4    4    0    0 -0.52816647740E+01 -0.17504105670E+02 -0.25418761610E+02  0.31311389942E+02  0.51100000000E-03 0. -1.
        -11    1    4    4    0    0  0.14839207258E+02  0.22796830285E+00 -0.13806870604E+01  0.14905044066E+02  0.51100000000E-03 0.  1.
         12    1    4    4    0    0  0.36727098054E+01  0.49935674556E+01 -0.52922916782E+01  0.81506358313E+01  0.00000000000E+00 0. -1.
</event>
<event>
 8    1  0.1254059E-006  0.9118800E+02  0.7816164E-02  0.1184000E+00
        -11   -1    0    0    0    0  0.00000000000E+00  0.00000000000E+00  0.45593999997E+02  0.45594000000E+02  0.51100000000E-03 0.  1.
         11   -1    0    0    0    0 -0.00000000000E+00 -0.00000000000E+00 -0.45593999997E+02  0.45594000000E+02  0.51100000000E-03 0. -1.
         23    2    1    2    0    0 -0.17763568394E-14 -0.71054273576E-14  0.00000000000E+00  0.91188000000E+02  0.91188000000E+02 0.  0.
    9900012    2    3    3    0    0  0.11823124697E+02  0.34435206794E+02 -0.54961310271E+01  0.54367120043E+02  0.40000081761E+02 0.  0.
        -12    1    3    3    0    0 -0.11823124697E+02 -0.34435206794E+02  0.54961310271E+01  0.36820879957E+02  0.00000000000E+00 0.  1.
         11    1    4    4    0    0 -0.55216365950E+00  0.84146883064E+00 -0.53876469370E+01  0.54808479526E+01  0.51100000000E-03 0. -1.
        -11    1    4    4    0    0 -0.10511362319E+02  0.17242620451E+02  0.36096849737E+01  0.20514056733E+02  0.51100000000E-03 0.  1.
         12    1    4    4    0    0  0.22886650675E+02  0.16351117513E+02 -0.37181690638E+01  0.28372215357E+02  0.00000000000E+00 0. -1.
</event>
<event>
 8    1  0.1254059E-006  0.9118800E+02  0.7816164E-02  0.1184000E+00
        -11   -1    0    0    0    0  0.00000000000E+00  0.00000000000E+00  0.45593999997E+02  0.45594000000E+02  0.51100000000E-03 0. -1.
         11   -1    0    0    0    0 -0.00000000000E+00 -0.00000000000E+00 -0.45593999997E+02  0.45594000000E+02  0.51100000000E-03 0.  1.
         23    2    1    2    0    0  0.00000000000E+00  0.00000000000E+00 -0.35527136788E-14  0.91188000000E+02  0.91188000000E+02 0.  0.
    9900012    2    3    3    0    0  0.10370442323E+02  0.29188196919E+02  0.19906871486E+02  0.54367075980E+02  0.39999981311E+02 0.  0.
        -12    1    3    3    0    0 -0.10370442323E+02 -0.29188196919E+02 -0.19906871486E+02  0.36820924020E+02  0.00000000000E+00 0.  1.
         11    1    4    4    0    0 -0.11419165530E+01 -0.10786760644E+00  0.26006692003E+01  0.28423738996E+01  0.51100000000E-03 0. -1.
        -11    1    4    4    0    0  0.16712873464E+02  0.23609442639E+02 -0.36884981016E+01  0.29160434490E+02  0.51100000000E-03 0.  1.
        -12    1    4    4    0    0 -0.52005145882E+01  0.56866218862E+01  0.20994700388E+02  0.22364267590E+02  0.00000000000E+00 0.  1.
</event>
<event>
 8    1  0.1254059E-006  0.9118800E+02  0.7816164E-02  0.1184000E+00
        -11   -1    0    0    0    0  0.00000000000E+00  0.00000000000E+00  0.45593999997E+02  0.45594000000E+02  0.51100000000E-03 0.  1.
         11   -1    0    0    0    0 -0.00000000000E+00 -0.00000000000E+00 -0.45593999997E+02  0.45594000000E+02  0.51100000000E-03 0. -1.
         23    2    1    2    0    0  0.00000000000E+00  0.53290705182E-14  0.00000000000E+00  0.91188000000E+02  0.91188000000E+02 0.  0.
    9900012    2    3    3    0    0  0.33312620667E+02 -0.10977548618E+02  0.11203910870E+02  0.54367287240E+02  0.40000462919E+02 0.  0.
         12    1    3    3    0    0 -0.33312620667E+02  0.10977548618E+02 -0.11203910870E+02  0.36820712760E+02  0.00000000000E+00 0. -1.
         11    1    4    4    0    0  0.92135083567E+01 -0.20423699250E+02  0.11740228496E+02  0.25295240515E+02  0.51100000000E-03 0. -1.
        -11    1    4    4    0    0  0.22489893298E+02  0.11243081123E+02 -0.33501188215E+01  0.25365832730E+02  0.51100000000E-03 0.  1.
        -12    1    4    4    0    0  0.16092190117E+01 -0.17969304906E+01  0.28138011955E+01  0.37062139959E+01  0.00000000000E+00 0.  1.
</event>
<event>
 8    1  0.1254059E-006  0.9118800E+02  0.7816164E-02  0.1184000E+00
        -11   -1    0    0    0    0  0.00000000000E+00  0.00000000000E+00  0.45593999997E+02  0.45594000000E+02  0.51100000000E-03 0.  1.
         11   -1    0    0    0    0 -0.00000000000E+00 -0.00000000000E+00 -0.45593999997E+02  0.45594000000E+02  0.51100000000E-03 0. -1.
         23    2    1    2    0    0  0.00000000000E+00 -0.17763568394E-14  0.00000000000E+00  0.91188000000E+02  0.91188000000E+02 0.  0.
    9900012    2    3    3    0    0 -0.14510395620E+02 -0.93671382438E+01  0.32519077480E+02  0.54367010605E+02  0.39999832275E+02 0.  0.
         12    1    3    3    0    0  0.14510395620E+02  0.93671382438E+01 -0.32519077480E+02  0.36820989395E+02  0.00000000000E+00 0. -1.
         11    1    4    4    0    0 -0.61478316604E+01 -0.14089261079E+01 -0.19595143336E+01  0.66045895850E+01  0.51100000000E-03 0. -1.
        -11    1    4    4    0    0  0.72608118135E+01 -0.71743714481E+01  0.34293800602E+00  0.10213158209E+02  0.51100000000E-03 0.  1.
        -12    1    4    4    0    0 -0.15623375773E+02 -0.78384068785E+00  0.34135653807E+02  0.37549262811E+02  0.00000000000E+00 0.  1.
</event>
<event>
 8    1  0.1254059E-006  0.9118800E+02  0.7816164E-02  0.1184000E+00
        -11   -1    0    0    0    0  0.00000000000E+00  0.00000000000E+00  0.45593999997E+02  0.45594000000E+02  0.51100000000E-03 0.  1.
         11   -1    0    0    0    0 -0.00000000000E+00 -0.00000000000E+00 -0.45593999997E+02  0.45594000000E+02  0.51100000000E-03 0. -1.
         23    2    1    2    0    0  0.88817841970E-15 -0.88817841970E-15 -0.71054273576E-14  0.91188000000E+02  0.91188000000E+02 0.  0.
    9900012    2    3    3    0    0 -0.32664487043E+01  0.31890881206E+01  0.36536819063E+02  0.54367094017E+02  0.40000022430E+02 0.  0.
         12    1    3    3    0    0  0.32664487043E+01 -0.31890881206E+01 -0.36536819063E+02  0.36820905983E+02  0.00000000000E+00 0. -1.
         11    1    4    4    0    0 -0.88258792719E+01  0.72526748944E+00  0.38239707089E+02  0.39251717878E+02  0.51100000000E-03 0. -1.
        -11    1    4    4    0    0  0.76610422330E+00 -0.55355805805E+01  0.22391239471E+00  0.55928262145E+01  0.51100000000E-03 0.  1.
         12    1    4    4    0    0  0.47933263444E+01  0.79994012116E+01 -0.19268004209E+01  0.95225499237E+01  0.00000000000E+00 0. -1.
</event>
<event>
 8    1  0.1254059E-006  0.9118800E+02  0.7816164E-02  0.1184000E+00
        -11   -1    0    0    0    0  0.00000000000E+00  0.00000000000E+00  0.45593999997E+02  0.45594000000E+02  0.51100000000E-03 0.  1.
         11   -1    0    0    0    0 -0.00000000000E+00 -0.00000000000E+00 -0.45593999997E+02  0.45594000000E+02  0.51100000000E-03 0. -1.
         23    2    1    2    0    0  0.35527136788E-14  0.00000000000E+00  0.77715611724E-15  0.91188000000E+02  0.91188000000E+02 0.  0.
    9900012    2    3    3    0    0  0.16294535451E+02 -0.33015755955E+02 -0.47661803771E+00  0.54367093010E+02  0.40000020135E+02 0.  0.
        -12    1    3    3    0    0 -0.16294535451E+02  0.33015755955E+02  0.47661803771E+00  0.36820906990E+02  0.00000000000E+00 0.  1.
         11    1    4    4    0    0  0.41060935632E+01 -0.67727542830E+01 -0.97743880375E+01  0.12580495487E+02  0.51100000000E-03 0. -1.
        -11    1    4    4    0    0  0.18724636325E+02 -0.24627991925E+02  0.13601627190E+02  0.33795772727E+02  0.51100000000E-03 0.  1.
         12    1    4    4    0    0 -0.65361944371E+01 -0.16150097466E+01 -0.43038571905E+01  0.79908247958E+01  0.00000000000E+00 0. -1.
</event>
<event>
 8    1  0.1254059E-006  0.9118800E+02  0.7816164E-02  0.1184000E+00
        -11   -1    0    0    0    0  0.00000000000E+00  0.00000000000E+00  0.45593999997E+02  0.45594000000E+02  0.51100000000E-03 0.  1.
         11   -1    0    0    0    0 -0.00000000000E+00 -0.00000000000E+00 -0.45593999997E+02  0.45594000000E+02  0.51100000000E-03 0. -1.
         23    2    1    2    0    0  0.00000000000E+00 -0.17763568394E-14  0.00000000000E+00  0.91188000000E+02  0.91188000000E+02 0.  0.
    9900012    2    3    3    0    0  0.15239334490E+02 -0.14279527593E+02 -0.30325526704E+02  0.54367084832E+02  0.40000001491E+02 0.  0.
        -12    1    3    3    0    0 -0.15239334490E+02  0.14279527593E+02  0.30325526704E+02  0.36820915168E+02  0.00000000000E+00 0.  1.
         11    1    4    4    0    0  0.18564180060E+02  0.13560992761E+01 -0.48612974556E+01  0.19237983256E+02  0.51100000000E-03 0. -1.
        -11    1    4    4    0    0  0.52143036722E+00  0.39886941579E+01 -0.59930500971E+01  0.72179097003E+01  0.51100000000E-03 0.  1.
         12    1    4    4    0    0 -0.38462759378E+01 -0.19624321027E+02 -0.19471179151E+02  0.27911191875E+02  0.00000000000E+00 0. -1.
</event>
<event>
 8    1  0.1254059E-006  0.9118800E+02  0.7816164E-02  0.1184000E+00
        -11   -1    0    0    0    0  0.00000000000E+00  0.00000000000E+00  0.45593999997E+02  0.45594000000E+02  0.51100000000E-03 0.  1.
         11   -1    0    0    0    0 -0.00000000000E+00 -0.00000000000E+00 -0.45593999997E+02  0.45594000000E+02  0.51100000000E-03 0. -1.
         23    2    1    2    0    0  0.00000000000E+00 -0.17763568394E-14  0.71054273576E-14  0.91188000000E+02  0.91188000000E+02 0.  0.
    9900012    2    3    3    0    0  0.84348425384E+01  0.11274776195E+02 -0.34022246983E+02  0.54367076102E+02  0.39999981591E+02 0.  0.
        -12    1    3    3    0    0 -0.84348425384E+01 -0.11274776195E+02  0.34022246983E+02  0.36820923898E+02  0.00000000000E+00 0.  1.
         11    1    4    4    0    0 -0.67601242795E+01  0.11567953769E+02 -0.14496438977E+02  0.19739898124E+02  0.51100000000E-03 0.  1.
        -11    1    4    4    0    0 -0.42335267002E+01  0.35897098634E+01 -0.12376285408E+02  0.13563967192E+02  0.51100000000E-03 0. -1.
         12    1    4    4    0    0  0.19428493518E+02 -0.38828874371E+01 -0.71495225972E+01  0.21063210786E+02  0.00000000000E+00 0. -1.
</event>
<event>
 8    1  0.1254059E-006  0.9118800E+02  0.7816164E-02  0.1184000E+00
        -11   -1    0    0    0    0  0.00000000000E+00  0.00000000000E+00  0.45593999997E+02  0.45594000000E+02  0.51100000000E-03 0.  1.
         11   -1    0    0    0    0 -0.00000000000E+00 -0.00000000000E+00 -0.45593999997E+02  0.45594000000E+02  0.51100000000E-03 0. -1.
         23    2    1    2    0    0  0.35527136788E-14  0.00000000000E+00  0.00000000000E+00  0.91188000000E+02  0.91188000000E+02 0.  0.
    9900012    2    3    3    0    0  0.23699023727E+02 -0.19497610252E+02 -0.20346487761E+02  0.54367080737E+02  0.39999992157E+02 0.  0.
        -12    1    3    3    0    0 -0.23699023727E+02  0.19497610252E+02  0.20346487761E+02  0.36820919263E+02  0.00000000000E+00 0.  1.
         11    1    4    4    0    0  0.16472610278E+02 -0.58545798555E+01  0.48400722147E+01  0.18139715928E+02  0.51100000000E-03 0. -1.
        -11    1    4    4    0    0 -0.16807040798E+01 -0.41186359820E+00 -0.19064488516E+02  0.19142860822E+02  0.51100000000E-03 0.  1.
        -12    1    4    4    0    0  0.89071175293E+01 -0.13231166798E+02 -0.61220714596E+01  0.17084503987E+02  0.00000000000E+00 0.  1.
</event>
<event>
 8    1  0.1254059E-006  0.9118800E+02  0.7816164E-02  0.1184000E+00
        -11   -1    0    0    0    0  0.00000000000E+00  0.00000000000E+00  0.45593999997E+02  0.45594000000E+02  0.51100000000E-03 0.  1.
         11   -1    0    0    0    0 -0.00000000000E+00 -0.00000000000E+00 -0.45593999997E+02  0.45594000000E+02  0.51100000000E-03 0. -1.
         23    2    1    2    0    0  0.35527136788E-14  0.00000000000E+00  0.00000000000E+00  0.91188000000E+02  0.91188000000E+02 0.  0.
    9900012    2    3    3    0    0 -0.15949737221E+02  0.16645923438E+02 -0.28710619971E+02  0.54367074107E+02  0.39999977043E+02 0.  0.
        -12    1    3    3    0    0  0.15949737221E+02 -0.16645923438E+02  0.28710619971E+02  0.36820925893E+02  0.00000000000E+00 0.  1.
         11    1    4    4    0    0  0.44923793383E+00  0.16612807267E+02 -0.15567544553E+02  0.22771377291E+02  0.51100000000E-03 0. -1.
        -11    1    4    4    0    0 -0.20873924393E+02  0.55771689154E+01 -0.97452455002E+01  0.23702222317E+02  0.51100000000E-03 0.  1.
         12    1    4    4    0    0  0.44749492383E+01 -0.55440527454E+01 -0.33978299171E+01  0.78934744995E+01  0.00000000000E+00 0. -1.
</event>
<event>
 8    1  0.1254059E-006  0.9118800E+02  0.7816164E-02  0.1184000E+00
        -11   -1    0    0    0    0  0.00000000000E+00  0.00000000000E+00  0.45593999997E+02  0.45594000000E+02  0.51100000000E-03 0.  1.
         11   -1    0    0    0    0 -0.00000000000E+00 -0.00000000000E+00 -0.45593999997E+02  0.45594000000E+02  0.51100000000E-03 0. -1.
         23    2    1    2    0    0 -0.17763568394E-14 -0.17763568394E-14 -0.71054273576E-14  0.91188000000E+02  0.91188000000E+02 0.  0.
    9900012    2    3    3    0    0  0.91928158923E+01  0.15524121658E+02  0.32097875396E+02  0.54367084446E+02  0.40000000612E+02 0.  0.
         12    1    3    3    0    0 -0.91928158923E+01 -0.15524121658E+02 -0.32097875396E+02  0.36820915554E+02  0.00000000000E+00 0. -1.
         11    1    4    4    0    0 -0.90706118618E+01  0.10155624286E+02  0.62337869115E+01  0.14975740506E+02  0.51100000000E-03 0. -1.
        -11    1    4    4    0    0  0.61281621984E+01  0.37246377462E+01  0.26176715267E+02  0.27141254958E+02  0.51100000000E-03 0.  1.
        -12    1    4    4    0    0  0.12135265556E+02  0.16438596258E+01 -0.31262678179E+00  0.12250088983E+02  0.00000000000E+00 0.  1.
</event>
<event>
 8    1  0.1254059E-006  0.9118800E+02  0.7816164E-02  0.1184000E+00
        -11   -1    0    0    0    0  0.00000000000E+00  0.00000000000E+00  0.45593999997E+02  0.45594000000E+02  0.51100000000E-03 0. -1.
         11   -1    0    0    0    0 -0.00000000000E+00 -0.00000000000E+00 -0.45593999997E+02  0.45594000000E+02  0.51100000000E-03 0.  1.
         23    2    1    2    0    0  0.00000000000E+00  0.00000000000E+00  0.18388068845E-15  0.91188000000E+02  0.91188000000E+02 0.  0.
    9900012    2    3    3    0    0  0.10507747709E+02  0.35289754720E+02 -0.71977949942E-02  0.54367087438E+02  0.40000007432E+02 0.  0.
         12    1    3    3    0    0 -0.10507747709E+02 -0.35289754720E+02  0.71977949942E-02  0.36820912562E+02  0.00000000000E+00 0. -1.
         11    1    4    4    0    0 -0.91771815165E+00  0.26782850413E+01  0.90001128935E+01  0.94349059204E+01  0.51100000000E-03 0. -1.
        -11    1    4    4    0    0 -0.73541091776E+01  0.50714641527E+01  0.31180935034E+01  0.94617745590E+01  0.51100000000E-03 0.  1.
        -12    1    4    4    0    0  0.18779575038E+02  0.27540005526E+02 -0.12125404192E+02  0.35470406958E+02  0.00000000000E+00 0.  1.
</event>
<event>
 8    1  0.1254059E-006  0.9118800E+02  0.7816164E-02  0.1184000E+00
        -11   -1    0    0    0    0  0.00000000000E+00  0.00000000000E+00  0.45593999997E+02  0.45594000000E+02  0.51100000000E-03 0.  1.
         11   -1    0    0    0    0 -0.00000000000E+00 -0.00000000000E+00 -0.45593999997E+02  0.45594000000E+02  0.51100000000E-03 0. -1.
         23    2    1    2    0    0  0.00000000000E+00  0.35527136788E-14  0.00000000000E+00  0.91188000000E+02  0.91188000000E+02 0.  0.
    9900012    2    3    3    0    0 -0.28013236480E+02  0.21691884736E+02 -0.10025021219E+02  0.54367077525E+02  0.39999984833E+02 0.  0.
        -12    1    3    3    0    0  0.28013236480E+02 -0.21691884736E+02  0.10025021219E+02  0.36820922475E+02  0.00000000000E+00 0.  1.
         11    1    4    4    0    0 -0.14276871637E+02  0.19349565882E+02 -0.66836946283E+01  0.24958095635E+02  0.51100000000E-03 0. -1.
        -11    1    4    4    0    0 -0.16433340223E+02 -0.41608537073E+01 -0.10030904763E+02  0.19697371020E+02  0.51100000000E-03 0.  1.
        -12    1    4    4    0    0  0.26969753802E+01  0.65031725605E+01  0.66895781725E+01  0.97116108694E+01  0.00000000000E+00 0.  1.
</event>
<event>
 8    1  0.1254059E-006  0.9118800E+02  0.7816164E-02  0.1184000E+00
        -11   -1    0    0    0    0  0.00000000000E+00  0.00000000000E+00  0.45593999997E+02  0.45594000000E+02  0.51100000000E-03 0.  1.
         11   -1    0    0    0    0 -0.00000000000E+00 -0.00000000000E+00 -0.45593999997E+02  0.45594000000E+02  0.51100000000E-03 0. -1.
         23    2    1    2    0    0 -0.44408920985E-15  0.00000000000E+00  0.00000000000E+00  0.91188000000E+02  0.91188000000E+02 0.  0.
    9900012    2    3    3    0    0 -0.65953639396E+00 -0.35694336073E+02 -0.90145900361E+01  0.54367035191E+02  0.39999888325E+02 0.  0.
        -12    1    3    3    0    0  0.65953639396E+00  0.35694336073E+02  0.90145900361E+01  0.36820964809E+02  0.00000000000E+00 0.  1.
         11    1    4    4    0    0  0.31466112992E+01  0.10736525746E+01 -0.88525641709E+01  0.94563092790E+01  0.51100000000E-03 0. -1.
        -11    1    4    4    0    0 -0.23236299631E+01 -0.94859917369E+01  0.11600351969E+02  0.15164150536E+02  0.51100000000E-03 0.  1.
         12    1    4    4    0    0 -0.14825177300E+01 -0.27281996911E+02 -0.11762377834E+02  0.29746575375E+02  0.00000000000E+00 0. -1.
</event>
<event>
 8    1  0.1254059E-006  0.9118800E+02  0.7816164E-02  0.1184000E+00
        -11   -1    0    0    0    0  0.00000000000E+00  0.00000000000E+00  0.45593999997E+02  0.45594000000E+02  0.51100000000E-03 0.  1.
         11   -1    0    0    0    0 -0.00000000000E+00 -0.00000000000E+00 -0.45593999997E+02  0.45594000000E+02  0.51100000000E-03 0. -1.
         23    2    1    2    0    0  0.00000000000E+00 -0.26645352591E-14  0.00000000000E+00  0.91188000000E+02  0.91188000000E+02 0.  0.
    9900012    2    3    3    0    0 -0.29635569299E+02 -0.61333920342E+01 -0.20973630417E+02  0.54367100522E+02  0.40000037259E+02 0.  0.
         12    1    3    3    0    0  0.29635569299E+02  0.61333920342E+01  0.20973630417E+02  0.36820899478E+02  0.00000000000E+00 0. -1.
         11    1    4    4    0    0 -0.10237817513E+02  0.16084112041E+02 -0.90909721327E+01  0.21122436937E+02  0.51100000000E-03 0. -1.
        -11    1    4    4    0    0 -0.11525020092E+02 -0.13966394591E+02 -0.12203017997E+02  0.21835748544E+02  0.51100000000E-03 0.  1.
         12    1    4    4    0    0 -0.78727316946E+01 -0.82511094846E+01  0.32035971217E+00  0.11408915041E+02  0.00000000000E+00 0. -1.
</event>
<event>
 8    1  0.1254059E-006  0.9118800E+02  0.7816164E-02  0.1184000E+00
        -11   -1    0    0    0    0  0.00000000000E+00  0.00000000000E+00  0.45593999997E+02  0.45594000000E+02  0.51100000000E-03 0. -1.
         11   -1    0    0    0    0 -0.00000000000E+00 -0.00000000000E+00 -0.45593999997E+02  0.45594000000E+02  0.51100000000E-03 0.  1.
         23    2    1    2    0    0  0.35527136788E-14  0.00000000000E+00  0.17763568394E-14  0.91188000000E+02  0.91188000000E+02 0.  0.
    9900012    2    3    3    0    0 -0.23334751859E+02 -0.25651697098E+02 -0.12379801797E+02  0.54367086094E+02  0.40000004369E+02 0.  0.
         12    1    3    3    0    0  0.23334751859E+02  0.25651697098E+02  0.12379801797E+02  0.36820913906E+02  0.00000000000E+00 0. -1.
         11    1    4    4    0    0  0.91449052238E-01 -0.30663981809E+01 -0.16735580098E+01  0.34945611178E+01  0.51100000000E-03 0. -1.
        -11    1    4    4    0    0 -0.17532775632E+02 -0.32979408209E+02 -0.10947158574E+02  0.38921457684E+02  0.51100000000E-03 0.  1.
         12    1    4    4    0    0 -0.58934252790E+01  0.10394109292E+02  0.24091478605E+00  0.11951067292E+02  0.00000000000E+00 0. -1.
</event>
<event>
 8    1  0.1254059E-006  0.9118800E+02  0.7816164E-02  0.1184000E+00
        -11   -1    0    0    0    0  0.00000000000E+00  0.00000000000E+00  0.45593999997E+02  0.45594000000E+02  0.51100000000E-03 0.  1.
         11   -1    0    0    0    0 -0.00000000000E+00 -0.00000000000E+00 -0.45593999997E+02  0.45594000000E+02  0.51100000000E-03 0. -1.
         23    2    1    2    0    0  0.00000000000E+00  0.00000000000E+00  0.00000000000E+00  0.91188000000E+02  0.91188000000E+02 0.  0.
    9900012    2    3    3    0    0  0.11970895261E+02 -0.50395616794E+01 -0.34454050407E+02  0.54367067031E+02  0.39999960911E+02 0.  0.
        -12    1    3    3    0    0 -0.11970895261E+02  0.50395616794E+01  0.34454050407E+02  0.36820932969E+02  0.00000000000E+00 0.  1.
         11    1    4    4    0    0 -0.69080577590E+01 -0.81677787778E+00 -0.11192865320E+02  0.13178339138E+02  0.51100000000E-03 0. -1.
        -11    1    4    4    0    0 -0.73925113764E+01 -0.16273857470E+01 -0.45652498764E+01  0.88396332229E+01  0.51100000000E-03 0.  1.
         12    1    4    4    0    0  0.26271464396E+02 -0.25953980546E+01 -0.18695935211E+02  0.32349094670E+02  0.00000000000E+00 0. -1.
</event>
<event>
 8    1  0.1254059E-006  0.9118800E+02  0.7816164E-02  0.1184000E+00
        -11   -1    0    0    0    0  0.00000000000E+00  0.00000000000E+00  0.45593999997E+02  0.45594000000E+02  0.51100000000E-03 0. -1.
         11   -1    0    0    0    0 -0.00000000000E+00 -0.00000000000E+00 -0.45593999997E+02  0.45594000000E+02  0.51100000000E-03 0.  1.
         23    2    1    2    0    0 -0.44408920985E-15  0.35527136788E-14  0.00000000000E+00  0.91188000000E+02  0.91188000000E+02 0.  0.
    9900012    2    3    3    0    0 -0.27507737899E+01  0.27291878770E+02 -0.24563502827E+02  0.54367094601E+02  0.40000023761E+02 0.  0.
         12    1    3    3    0    0  0.27507737899E+01 -0.27291878770E+02  0.24563502827E+02  0.36820905399E+02  0.00000000000E+00 0. -1.
         11    1    4    4    0    0  0.30393784356E+01  0.12960085337E+02 -0.11485946562E+02  0.17582053404E+02  0.51100000000E-03 0. -1.
        -11    1    4    4    0    0 -0.80440075710E+01  0.23543575375E+02 -0.10006045102E+02  0.26816542247E+02  0.51100000000E-03 0.  1.
        -12    1    4    4    0    0  0.22538553454E+01 -0.92117819424E+01 -0.30715111639E+01  0.99684989493E+01  0.00000000000E+00 0.  1.
</event>
<event>
 8    1  0.1254059E-006  0.9118800E+02  0.7816164E-02  0.1184000E+00
        -11   -1    0    0    0    0  0.00000000000E+00  0.00000000000E+00  0.45593999997E+02  0.45594000000E+02  0.51100000000E-03 0.  1.
         11   -1    0    0    0    0 -0.00000000000E+00 -0.00000000000E+00 -0.45593999997E+02  0.45594000000E+02  0.51100000000E-03 0. -1.
         23    2    1    2    0    0  0.35527136788E-14  0.00000000000E+00  0.00000000000E+00  0.91188000000E+02  0.91188000000E+02 0.  0.
    9900012    2    3    3    0    0  0.23175051978E+02 -0.15996280363E+02  0.23723708452E+02  0.54367104270E+02  0.40000045805E+02 0.  0.
         12    1    3    3    0    0 -0.23175051978E+02  0.15996280363E+02 -0.23723708452E+02  0.36820895730E+02  0.00000000000E+00 0. -1.
         11    1    4    4    0    0  0.47530024799E+00 -0.71657531719E+00  0.62018038143E+01  0.62611309939E+01  0.51100000000E-03 0. -1.
        -11    1    4    4    0    0  0.11523881875E+02  0.11059842154E+02  0.85670214278E+01  0.18124950161E+02  0.51100000000E-03 0.  1.
         12    1    4    4    0    0  0.11175869855E+02 -0.26339547200E+02  0.89548832096E+01  0.29981023115E+02  0.00000000000E+00 0. -1.
</event>
<event>
 8    1  0.1254059E-006  0.9118800E+02  0.7816164E-02  0.1184000E+00
        -11   -1    0    0    0    0  0.00000000000E+00  0.00000000000E+00  0.45593999997E+02  0.45594000000E+02  0.51100000000E-03 0. -1.
         11   -1    0    0    0    0 -0.00000000000E+00 -0.00000000000E+00 -0.45593999997E+02  0.45594000000E+02  0.51100000000E-03 0.  1.
         23    2    1    2    0    0  0.00000000000E+00 -0.88817841970E-15  0.00000000000E+00  0.91188000000E+02  0.91188000000E+02 0.  0.
    9900012    2    3    3    0    0 -0.35940124235E+02  0.46197816835E+01  0.65379134455E+01  0.54367092556E+02  0.40000019099E+02 0.  0.
        -12    1    3    3    0    0  0.35940124235E+02 -0.46197816835E+01 -0.65379134455E+01  0.36820907444E+02  0.00000000000E+00 0.  1.
         11    1    4    4    0    0 -0.32260868521E+02  0.36455394818E+01  0.31012709648E+01  0.32613976723E+02  0.51100000000E-03 0. -1.
        -11    1    4    4    0    0 -0.53296443226E+01  0.65160795670E+01 -0.62412365675E+01  0.10479381455E+02  0.51100000000E-03 0.  1.
        -12    1    4    4    0    0  0.16503886089E+01 -0.55418373653E+01  0.96778790483E+01  0.11273734378E+02  0.00000000000E+00 0.  1.
</event>
<event>
 8    1  0.1254059E-006  0.9118800E+02  0.7816164E-02  0.1184000E+00
        -11   -1    0    0    0    0  0.00000000000E+00  0.00000000000E+00  0.45593999997E+02  0.45594000000E+02  0.51100000000E-03 0. -1.
         11   -1    0    0    0    0 -0.00000000000E+00 -0.00000000000E+00 -0.45593999997E+02  0.45594000000E+02  0.51100000000E-03 0.  1.
         23    2    1    2    0    0  0.00000000000E+00  0.00000000000E+00  0.00000000000E+00  0.91188000000E+02  0.91188000000E+02 0.  0.
    9900012    2    3    3    0    0 -0.22722132658E+02 -0.94457836476E+01 -0.27390900043E+02  0.54367088192E+02  0.40000009151E+02 0.  0.
         12    1    3    3    0    0  0.22722132658E+02  0.94457836476E+01  0.27390900043E+02  0.36820911808E+02  0.00000000000E+00 0. -1.
         11    1    4    4    0    0  0.73452101332E+01 -0.80440120130E+01 -0.98557828692E-01  0.10893482229E+02  0.51100000000E-03 0. -1.
        -11    1    4    4    0    0 -0.30023369951E+02 -0.48287966345E+01 -0.24365190255E+02  0.38966428071E+02  0.51100000000E-03 0.  1.
        -12    1    4    4    0    0 -0.43972840154E-01  0.34270249999E+01 -0.29271519587E+01  0.45071778920E+01  0.00000000000E+00 0.  1.
</event>
<event>
 8    1  0.1254059E-006  0.9118800E+02  0.7816164E-02  0.1184000E+00
        -11   -1    0    0    0    0  0.00000000000E+00  0.00000000000E+00  0.45593999997E+02  0.45594000000E+02  0.51100000000E-03 0.  1.
         11   -1    0    0    0    0 -0.00000000000E+00 -0.00000000000E+00 -0.45593999997E+02  0.45594000000E+02  0.51100000000E-03 0. -1.
         23    2    1    2    0    0  0.88817841970E-15 -0.17763568394E-14  0.00000000000E+00  0.91188000000E+02  0.91188000000E+02 0.  0.
    9900012    2    3    3    0    0  0.66160363115E+01  0.13018944641E+02  0.33801129943E+02  0.54367065174E+02  0.39999956678E+02 0.  0.
         12    1    3    3    0    0 -0.66160363115E+01 -0.13018944641E+02 -0.33801129943E+02  0.36820934826E+02  0.00000000000E+00 0. -1.
         11    1    4    4    0    0  0.16581194843E+02 -0.74919530843E+01  0.12406576330E+02  0.22022454903E+02  0.51100000000E-03 0. -1.
        -11    1    4    4    0    0  0.23037327406E+00  0.78583905028E+01  0.86891367828E+01  0.11717869748E+02  0.51100000000E-03 0.  1.
         12    1    4    4    0    0 -0.10195531805E+02  0.12652507223E+02  0.12705416829E+02  0.20626740524E+02  0.00000000000E+00 0. -1.
</event>
<event>
 8    1  0.1254059E-006  0.9118800E+02  0.7816164E-02  0.1184000E+00
        -11   -1    0    0    0    0  0.00000000000E+00  0.00000000000E+00  0.45593999997E+02  0.45594000000E+02  0.51100000000E-03 0.  1.
         11   -1    0    0    0    0 -0.00000000000E+00 -0.00000000000E+00 -0.45593999997E+02  0.45594000000E+02  0.51100000000E-03 0. -1.
         23    2    1    2    0    0 -0.35527136788E-14  0.35527136788E-14  0.17763568394E-14  0.91188000000E+02  0.91188000000E+02 0.  0.
    9900012    2    3    3    0    0  0.28869679265E+02 -0.19056329046E+02 -0.12616551338E+02  0.54367089837E+02  0.40000012901E+02 0.  0.
        -12    1    3    3    0    0 -0.28869679265E+02  0.19056329046E+02  0.12616551338E+02  0.36820910163E+02  0.00000000000E+00 0.  1.
         11    1    4    4    0    0  0.15362167861E+02  0.93760971383E+01 -0.14153227665E+01  0.18052992487E+02  0.51100000000E-03 0. -1.
        -11    1    4    4    0    0  0.13669936995E+02 -0.27093912289E+02 -0.59917600854E+01  0.30932967038E+02  0.51100000000E-03 0.  1.
        -12    1    4    4    0    0 -0.16242559128E+00 -0.13385138946E+01 -0.52094684863E+01  0.53811303114E+01  0.00000000000E+00 0.  1.
</event>
<event>
 8    1  0.1254059E-006  0.9118800E+02  0.7816164E-02  0.1184000E+00
        -11   -1    0    0    0    0  0.00000000000E+00  0.00000000000E+00  0.45593999997E+02  0.45594000000E+02  0.51100000000E-03 0. -1.
         11   -1    0    0    0    0 -0.00000000000E+00 -0.00000000000E+00 -0.45593999997E+02  0.45594000000E+02  0.51100000000E-03 0.  1.
         23    2    1    2    0    0  0.00000000000E+00  0.00000000000E+00  0.00000000000E+00  0.91188000000E+02  0.91188000000E+02 0.  0.
    9900012    2    3    3    0    0 -0.19034959307E+02  0.17537524385E+02  0.26189230180E+02  0.54367214908E+02  0.40000298026E+02 0.  0.
        -12    1    3    3    0    0  0.19034959307E+02 -0.17537524385E+02 -0.26189230180E+02  0.36820785092E+02  0.00000000000E+00 0.  1.
         11    1    4    4    0    0  0.21061108868E+01  0.15308343464E+02  0.17246361834E+02  0.23156383125E+02  0.51100000000E-03 0. -1.
        -11    1    4    4    0    0  0.43372681054E+01  0.33271468030E+00  0.11368350317E+01  0.44961080755E+01  0.51100000000E-03 0.  1.
         12    1    4    4    0    0 -0.25478338299E+02  0.18964662406E+01  0.78060333140E+01  0.26714723707E+02  0.00000000000E+00 0. -1.
</event>
<event>
 8    1  0.1254059E-006  0.9118800E+02  0.7816164E-02  0.1184000E+00
        -11   -1    0    0    0    0  0.00000000000E+00  0.00000000000E+00  0.45593999997E+02  0.45594000000E+02  0.51100000000E-03 0.  1.
         11   -1    0    0    0    0 -0.00000000000E+00 -0.00000000000E+00 -0.45593999997E+02  0.45594000000E+02  0.51100000000E-03 0. -1.
         23    2    1    2    0    0 -0.71054273576E-14 -0.53290705182E-14  0.00000000000E+00  0.91188000000E+02  0.91188000000E+02 0.  0.
    9900012    2    3    3    0    0 -0.34817434100E+02 -0.11454621282E+02 -0.35096787516E+01  0.54367083241E+02  0.39999997864E+02 0.  0.
         12    1    3    3    0    0  0.34817434100E+02  0.11454621282E+02  0.35096787516E+01  0.36820916759E+02  0.00000000000E+00 0. -1.
         11    1    4    4    0    0 -0.19614533244E+02  0.15330581237E+01 -0.30147917999E+01  0.19903998379E+02  0.51100000000E-03 0. -1.
        -11    1    4    4    0    0 -0.12802202985E+02 -0.16099880768E+02  0.10278873631E+02  0.22994734297E+02  0.51100000000E-03 0.  1.
         12    1    4    4    0    0 -0.24006978710E+01  0.31122013621E+01 -0.10773760583E+02  0.11468350565E+02  0.00000000000E+00 0. -1.
</event>
<event>
 8    1  0.1254059E-006  0.9118800E+02  0.7816164E-02  0.1184000E+00
        -11   -1    0    0    0    0  0.00000000000E+00  0.00000000000E+00  0.45593999997E+02  0.45594000000E+02  0.51100000000E-03 0.  1.
         11   -1    0    0    0    0 -0.00000000000E+00 -0.00000000000E+00 -0.45593999997E+02  0.45594000000E+02  0.51100000000E-03 0. -1.
         23    2    1    2    0    0 -0.17763568394E-14  0.00000000000E+00 -0.35527136788E-14  0.91188000000E+02  0.91188000000E+02 0.  0.
    9900012    2    3    3    0    0 -0.12975256316E+02  0.27406647821E+02 -0.20887702930E+02  0.54367112519E+02  0.40000064608E+02 0.  0.
        -12    1    3    3    0    0  0.12975256316E+02 -0.27406647821E+02  0.20887702930E+02  0.36820887481E+02  0.00000000000E+00 0.  1.
         11    1    4    4    0    0 -0.77431842454E+01  0.59382112905E+01 -0.14375002690E+02  0.17374117479E+02  0.51100000000E-03 0. -1.
        -11    1    4    4    0    0 -0.76885139170E+01 -0.49389948138E+01 -0.50277660002E+01  0.10430021440E+02  0.51100000000E-03 0.  1.
        -12    1    4    4    0    0  0.24564418467E+01  0.26407431344E+02 -0.14849342399E+01  0.26562973599E+02  0.00000000000E+00 0.  1.
</event>
<event>
 8    1  0.1254059E-006  0.9118800E+02  0.7816164E-02  0.1184000E+00
        -11   -1    0    0    0    0  0.00000000000E+00  0.00000000000E+00  0.45593999997E+02  0.45594000000E+02  0.51100000000E-03 0. -1.
         11   -1    0    0    0    0 -0.00000000000E+00 -0.00000000000E+00 -0.45593999997E+02  0.45594000000E+02  0.51100000000E-03 0.  1.
         23    2    1    2    0    0  0.35527136788E-14  0.00000000000E+00  0.00000000000E+00  0.91188000000E+02  0.91188000000E+02 0.  0.
    9900012    2    3    3    0    0 -0.18444301652E+02  0.23753569047E+02 -0.21245159192E+02  0.54367067163E+02  0.39999961212E+02 0.  0.
         12    1    3    3    0    0  0.18444301652E+02 -0.23753569047E+02  0.21245159192E+02  0.36820932837E+02  0.00000000000E+00 0. -1.
         11    1    4    4    0    0  0.18061794177E+00 -0.28103137024E+01 -0.76706761030E+01  0.81712764049E+01  0.51100000000E-03 0. -1.
        -11    1    4    4    0    0 -0.15168435674E+02  0.96300028079E+00 -0.13550912870E+02  0.20362614032E+02  0.51100000000E-03 0.  1.
         12    1    4    4    0    0 -0.34564839200E+01  0.25600882468E+02 -0.23570219048E-01  0.25833176727E+02  0.00000000000E+00 0. -1.
</event>
<event>
 8    1  0.1254059E-006  0.9118800E+02  0.7816164E-02  0.1184000E+00
        -11   -1    0    0    0    0  0.00000000000E+00  0.00000000000E+00  0.45593999997E+02  0.45594000000E+02  0.51100000000E-03 0.  1.
         11   -1    0    0    0    0 -0.00000000000E+00 -0.00000000000E+00 -0.45593999997E+02  0.45594000000E+02  0.51100000000E-03 0. -1.
         23    2    1    2    0    0  0.00000000000E+00  0.95756735874E-15  0.00000000000E+00  0.91188000000E+02  0.91188000000E+02 0.  0.
    9900012    2    3    3    0    0  0.89203866630E+01 -0.70198170863E-01 -0.35723953773E+02  0.54367094265E+02  0.40000022996E+02 0.  0.
        -12    1    3    3    0    0 -0.89203866630E+01  0.70198170863E-01  0.35723953773E+02  0.36820905735E+02  0.00000000000E+00 0.  1.
         11    1    4    4    0    0  0.75069060565E+01 -0.12935976696E+02 -0.38292479965E+02  0.41109696590E+02  0.51100000000E-03 0. -1.
        -11    1    4    4    0    0  0.42074947069E+00  0.55320378265E+01  0.17187295544E+01  0.58081411978E+01  0.51100000000E-03 0.  1.
         12    1    4    4    0    0  0.99273113578E+00  0.73337406983E+01  0.84979663781E+00  0.74492564773E+01  0.00000000000E+00 0. -1.
</event>
<event>
 8    1  0.1254059E-006  0.9118800E+02  0.7816164E-02  0.1184000E+00
        -11   -1    0    0    0    0  0.00000000000E+00  0.00000000000E+00  0.45593999997E+02  0.45594000000E+02  0.51100000000E-03 0. -1.
         11   -1    0    0    0    0 -0.00000000000E+00 -0.00000000000E+00 -0.45593999997E+02  0.45594000000E+02  0.51100000000E-03 0.  1.
         23    2    1    2    0    0  0.00000000000E+00  0.35527136788E-14  0.88817841970E-15  0.91188000000E+02  0.91188000000E+02 0.  0.
    9900012    2    3    3    0    0  0.24177894831E+02  0.27282133810E+02 -0.51860145514E+01  0.54367079715E+02  0.39999989827E+02 0.  0.
         12    1    3    3    0    0 -0.24177894831E+02 -0.27282133810E+02  0.51860145514E+01  0.36820920285E+02  0.00000000000E+00 0. -1.
         11    1    4    4    0    0  0.54383014827E+01 -0.80918914966E+01  0.48273494103E+01  0.10879206478E+02  0.51100000000E-03 0. -1.
        -11    1    4    4    0    0  0.59681875073E+01  0.20677133244E+02  0.15529381946E+00  0.21521784725E+02  0.51100000000E-03 0.  1.
         12    1    4    4    0    0  0.12771405841E+02  0.14696892062E+02 -0.10168657781E+02  0.21966088512E+02  0.00000000000E+00 0. -1.
</event>
<event>
 8    1  0.1254059E-006  0.9118800E+02  0.7816164E-02  0.1184000E+00
        -11   -1    0    0    0    0  0.00000000000E+00  0.00000000000E+00  0.45593999997E+02  0.45594000000E+02  0.51100000000E-03 0.  1.
         11   -1    0    0    0    0 -0.00000000000E+00 -0.00000000000E+00 -0.45593999997E+02  0.45594000000E+02  0.51100000000E-03 0. -1.
         23    2    1    2    0    0  0.00000000000E+00  0.00000000000E+00  0.00000000000E+00  0.91188000000E+02  0.91188000000E+02 0.  0.
    9900012    2    3    3    0    0 -0.25277060020E+02  0.26717707382E+02  0.17361054114E+01  0.54367085929E+02  0.40000003993E+02 0.  0.
         12    1    3    3    0    0  0.25277060020E+02 -0.26717707382E+02 -0.17361054114E+01  0.36820914071E+02  0.00000000000E+00 0. -1.
         11    1    4    4    0    0 -0.51917513401E+01  0.43634818131E+01  0.10200526234E+02  0.12249285335E+02  0.51100000000E-03 0. -1.
        -11    1    4    4    0    0 -0.88595811549E+01  0.27510714229E+02 -0.61618410719E+01  0.29551647353E+02  0.51100000000E-03 0.  1.
         12    1    4    4    0    0 -0.11225727525E+02 -0.51564886597E+01 -0.23025797511E+01  0.12566153241E+02  0.00000000000E+00 0. -1.
</event>
<event>
 8    1  0.1254059E-006  0.9118800E+02  0.7816164E-02  0.1184000E+00
        -11   -1    0    0    0    0  0.00000000000E+00  0.00000000000E+00  0.45593999997E+02  0.45594000000E+02  0.51100000000E-03 0.  1.
         11   -1    0    0    0    0 -0.00000000000E+00 -0.00000000000E+00 -0.45593999997E+02  0.45594000000E+02  0.51100000000E-03 0. -1.
         23    2    1    2    0    0  0.35527136788E-14  0.00000000000E+00  0.00000000000E+00  0.91188000000E+02  0.91188000000E+02 0.  0.
    9900012    2    3    3    0    0 -0.29736932580E+02 -0.11247673373E+02 -0.18573690116E+02  0.54367118967E+02  0.40000079308E+02 0.  0.
        -12    1    3    3    0    0  0.29736932580E+02  0.11247673373E+02  0.18573690116E+02  0.36820881033E+02  0.00000000000E+00 0.  1.
         11    1    4    4    0    0 -0.12611801225E+02 -0.19434367436E+02 -0.16783633780E+02  0.28608434611E+02  0.51100000000E-03 0.  1.
        -11    1    4    4    0    0 -0.72060556060E+00  0.81583276426E+01  0.29139392348E+01  0.86930215934E+01  0.51100000000E-03 0. -1.
         12    1    4    4    0    0 -0.16404525794E+02  0.28366420482E-01 -0.47039955705E+01  0.17065662762E+02  0.00000000000E+00 0. -1.
</event>
<event>
 8    1  0.1254059E-006  0.9118800E+02  0.7816164E-02  0.1184000E+00
        -11   -1    0    0    0    0  0.00000000000E+00  0.00000000000E+00  0.45593999997E+02  0.45594000000E+02  0.51100000000E-03 0. -1.
         11   -1    0    0    0    0 -0.00000000000E+00 -0.00000000000E+00 -0.45593999997E+02  0.45594000000E+02  0.51100000000E-03 0.  1.
         23    2    1    2    0    0  0.00000000000E+00  0.00000000000E+00  0.35527136788E-14  0.91188000000E+02  0.91188000000E+02 0.  0.
    9900012    2    3    3    0    0 -0.33532924625E+02 -0.44672729784E+01  0.14538415557E+02  0.54367094407E+02  0.40000023320E+02 0.  0.
        -12    1    3    3    0    0  0.33532924625E+02  0.44672729784E+01 -0.14538415557E+02  0.36820905593E+02  0.00000000000E+00 0.  1.
         11    1    4    4    0    0 -0.20461286256E+02 -0.97755812906E+01  0.46983478767E+01  0.23158166979E+02  0.51100000000E-03 0. -1.
        -11    1    4    4    0    0  0.41876014661E+01 -0.16273405232E+01 -0.54978801059E+01  0.71000654320E+01  0.51100000000E-03 0.  1.
        -12    1    4    4    0    0 -0.17259239835E+02  0.69356488355E+01  0.15337947786E+02  0.24108861996E+02  0.00000000000E+00 0.  1.
</event>
<event>
 8    1  0.1254059E-006  0.9118800E+02  0.7816164E-02  0.1184000E+00
        -11   -1    0    0    0    0  0.00000000000E+00  0.00000000000E+00  0.45593999997E+02  0.45594000000E+02  0.51100000000E-03 0. -1.
         11   -1    0    0    0    0 -0.00000000000E+00 -0.00000000000E+00 -0.45593999997E+02  0.45594000000E+02  0.51100000000E-03 0.  1.
         23    2    1    2    0    0  0.17763568394E-14 -0.17763568394E-14  0.71054273576E-14  0.91188000000E+02  0.91188000000E+02 0.  0.
    9900012    2    3    3    0    0 -0.15104345533E+02  0.54962860751E+01 -0.33127457384E+02  0.54367097685E+02  0.40000030792E+02 0.  0.
         12    1    3    3    0    0  0.15104345533E+02 -0.54962860751E+01  0.33127457384E+02  0.36820902315E+02  0.00000000000E+00 0. -1.
         11    1    4    4    0    0 -0.77711838878E+01  0.13263321318E+02 -0.59578575272E+01  0.16486450739E+02  0.51100000000E-03 0. -1.
        -11    1    4    4    0    0  0.60941548658E+01  0.20942685077E+01 -0.53642576128E+00  0.64662537043E+01  0.51100000000E-03 0.  1.
         12    1    4    4    0    0 -0.13427316511E+02 -0.98613037503E+01 -0.26633174095E+02  0.31414393241E+02  0.00000000000E+00 0. -1.
</event>
<event>
 8    1  0.1254059E-006  0.9118800E+02  0.7816164E-02  0.1184000E+00
        -11   -1    0    0    0    0  0.00000000000E+00  0.00000000000E+00  0.45593999997E+02  0.45594000000E+02  0.51100000000E-03 0.  1.
         11   -1    0    0    0    0 -0.00000000000E+00 -0.00000000000E+00 -0.45593999997E+02  0.45594000000E+02  0.51100000000E-03 0. -1.
         23    2    1    2    0    0  0.00000000000E+00 -0.66613381478E-15  0.00000000000E+00  0.91188000000E+02  0.91188000000E+02 0.  0.
    9900012    2    3    3    0    0 -0.30213658734E+02  0.18061157224E+01 -0.20967896737E+02  0.54367083096E+02  0.39999997534E+02 0.  0.
        -12    1    3    3    0    0  0.30213658734E+02 -0.18061157224E+01  0.20967896737E+02  0.36820916904E+02  0.00000000000E+00 0.  1.
         11    1    4    4    0    0 -0.28646381338E+02  0.10935552152E+02 -0.23376872995E+02  0.38557485082E+02  0.51100000000E-03 0. -1.
        -11    1    4    4    0    0 -0.16117221936E+01 -0.90395918386E+01 -0.35538725740E+01  0.98459067420E+01  0.51100000000E-03 0.  1.
        -12    1    4    4    0    0  0.44444797556E-01 -0.89844590773E-01  0.59628488319E+01  0.59636912715E+01  0.00000000000E+00 0.  1.
</event>
<event>
 8    1  0.1254059E-006  0.9118800E+02  0.7816164E-02  0.1184000E+00
        -11   -1    0    0    0    0  0.00000000000E+00  0.00000000000E+00  0.45593999997E+02  0.45594000000E+02  0.51100000000E-03 0. -1.
         11   -1    0    0    0    0 -0.00000000000E+00 -0.00000000000E+00 -0.45593999997E+02  0.45594000000E+02  0.51100000000E-03 0.  1.
         23    2    1    2    0    0  0.88817841970E-15  0.00000000000E+00  0.00000000000E+00  0.91188000000E+02  0.91188000000E+02 0.  0.
    9900012    2    3    3    0    0 -0.23591074572E+01 -0.17386542091E+02 -0.32371630479E+02  0.54367086191E+02  0.40000004589E+02 0.  0.
         12    1    3    3    0    0  0.23591074572E+01  0.17386542091E+02  0.32371630479E+02  0.36820913809E+02  0.00000000000E+00 0. -1.
         11    1    4    4    0    0  0.90122587984E+01 -0.98792845513E+01 -0.17586453861E+01  0.13487546321E+02  0.51100000000E-03 0. -1.
        -11    1    4    4    0    0  0.15436063437E+01  0.69483661571E+01 -0.12308804250E+02  0.14218620718E+02  0.51100000000E-03 0.  1.
         12    1    4    4    0    0 -0.12914972599E+02 -0.14455623697E+02 -0.18304180843E+02  0.26660919152E+02  0.00000000000E+00 0. -1.
</event>
<event>
 8    1  0.1254059E-006  0.9118800E+02  0.7816164E-02  0.1184000E+00
        -11   -1    0    0    0    0  0.00000000000E+00  0.00000000000E+00  0.45593999997E+02  0.45594000000E+02  0.51100000000E-03 0. -1.
         11   -1    0    0    0    0 -0.00000000000E+00 -0.00000000000E+00 -0.45593999997E+02  0.45594000000E+02  0.51100000000E-03 0.  1.
         23    2    1    2    0    0  0.00000000000E+00 -0.44408920985E-15  0.00000000000E+00  0.91188000000E+02  0.91188000000E+02 0.  0.
    9900012    2    3    3    0    0 -0.35084223533E+02  0.38504524787E+01  0.10490501725E+02  0.54367090836E+02  0.40000015179E+02 0.  0.
        -12    1    3    3    0    0  0.35084223533E+02 -0.38504524787E+01 -0.10490501725E+02  0.36820909164E+02  0.00000000000E+00 0.  1.
         11    1    4    4    0    0 -0.26121705707E+02 -0.16956075850E+01  0.18277742823E+02  0.31926391545E+02  0.51100000000E-03 0. -1.
        -11    1    4    4    0    0 -0.25144975420E+01  0.11082160529E+02 -0.71834056335E+00  0.11386526833E+02  0.51100000000E-03 0.  1.
         12    1    4    4    0    0 -0.64480202840E+01 -0.55361004657E+01 -0.70689005351E+01  0.11054172458E+02  0.00000000000E+00 0. -1.
</event>
<event>
 8    1  0.1254059E-006  0.9118800E+02  0.7816164E-02  0.1184000E+00
        -11   -1    0    0    0    0  0.00000000000E+00  0.00000000000E+00  0.45593999997E+02  0.45594000000E+02  0.51100000000E-03 0. -1.
         11   -1    0    0    0    0 -0.00000000000E+00 -0.00000000000E+00 -0.45593999997E+02  0.45594000000E+02  0.51100000000E-03 0.  1.
         23    2    1    2    0    0  0.00000000000E+00  0.71054273576E-14  0.00000000000E+00  0.91188000000E+02  0.91188000000E+02 0.  0.
    9900012    2    3    3    0    0  0.11545643977E+02 -0.32014110337E+02  0.14056121169E+02  0.54367086135E+02  0.40000004462E+02 0.  0.
        -12    1    3    3    0    0 -0.11545643977E+02  0.32014110337E+02 -0.14056121169E+02  0.36820913865E+02  0.00000000000E+00 0.  1.
         11    1    4    4    0    0  0.89701122083E-02  0.38473791359E+01  0.10423160213E+01  0.39860794808E+01  0.51100000000E-03 0. -1.
        -11    1    4    4    0    0  0.94336308396E+01 -0.96566445082E+01  0.19107105204E+02  0.23394991847E+02  0.51100000000E-03 0.  1.
         12    1    4    4    0    0  0.21030430252E+01 -0.26204844965E+02 -0.60933000562E+01  0.26986014807E+02  0.00000000000E+00 0. -1.
</event>
<event>
 8    1  0.1254059E-006  0.9118800E+02  0.7816164E-02  0.1184000E+00
        -11   -1    0    0    0    0  0.00000000000E+00  0.00000000000E+00  0.45593999997E+02  0.45594000000E+02  0.51100000000E-03 0.  1.
         11   -1    0    0    0    0 -0.00000000000E+00 -0.00000000000E+00 -0.45593999997E+02  0.45594000000E+02  0.51100000000E-03 0. -1.
         23    2    1    2    0    0 -0.17763568394E-14  0.00000000000E+00  0.00000000000E+00  0.91188000000E+02  0.91188000000E+02 0.  0.
    9900012    2    3    3    0    0 -0.12759428637E+02 -0.24185048597E+02  0.24658871206E+02  0.54367088496E+02  0.40000009845E+02 0.  0.
        -12    1    3    3    0    0  0.12759428637E+02  0.24185048597E+02 -0.24658871206E+02  0.36820911504E+02  0.00000000000E+00 0.  1.
         11    1    4    4    0    0 -0.58176545025E+01 -0.17886167096E+02  0.10425138805E+02  0.21504501777E+02  0.51100000000E-03 0. -1.
        -11    1    4    4    0    0 -0.20562186393E+01 -0.17068481802E+02  0.51378574300E+01  0.17943207220E+02  0.51100000000E-03 0.  1.
        -12    1    4    4    0    0 -0.48855554953E+01  0.10769600301E+02  0.90958749711E+01  0.14919379499E+02  0.00000000000E+00 0.  1.
</event>
<event>
 8    1  0.1254059E-006  0.9118800E+02  0.7816164E-02  0.1184000E+00
        -11   -1    0    0    0    0  0.00000000000E+00  0.00000000000E+00  0.45593999997E+02  0.45594000000E+02  0.51100000000E-03 0.  1.
         11   -1    0    0    0    0 -0.00000000000E+00 -0.00000000000E+00 -0.45593999997E+02  0.45594000000E+02  0.51100000000E-03 0. -1.
         23    2    1    2    0    0  0.00000000000E+00 -0.71054273576E-14  0.00000000000E+00  0.91188000000E+02  0.91188000000E+02 0.  0.
    9900012    2    3    3    0    0  0.14329567321E+02 -0.24809827262E+02 -0.23128232915E+02  0.54367093084E+02  0.40000020302E+02 0.  0.
         12    1    3    3    0    0 -0.14329567321E+02  0.24809827262E+02  0.23128232915E+02  0.36820906916E+02  0.00000000000E+00 0. -1.
         11    1    4    4    0    0  0.37781535477E+01 -0.21993878789E+02 -0.16515095191E+02  0.27762447980E+02  0.51100000000E-03 0. -1.
        -11    1    4    4    0    0  0.74385773122E+01  0.53471000395E+01 -0.12913820789E+02  0.15833214421E+02  0.51100000000E-03 0.  1.
        -12    1    4    4    0    0  0.31128364608E+01 -0.81630485129E+01  0.63006830655E+01  0.10771430682E+02  0.00000000000E+00 0.  1.
</event>
<event>
 8    1  0.1254059E-006  0.9118800E+02  0.7816164E-02  0.1184000E+00
        -11   -1    0    0    0    0  0.00000000000E+00  0.00000000000E+00  0.45593999997E+02  0.45594000000E+02  0.51100000000E-03 0. -1.
         11   -1    0    0    0    0 -0.00000000000E+00 -0.00000000000E+00 -0.45593999997E+02  0.45594000000E+02  0.51100000000E-03 0.  1.
         23    2    1    2    0    0  0.00000000000E+00 -0.17763568394E-14  0.00000000000E+00  0.91188000000E+02  0.91188000000E+02 0.  0.
    9900012    2    3    3    0    0 -0.34265842093E+02  0.12502089236E+02 -0.50328324666E+01  0.54367087841E+02  0.40000008351E+02 0.  0.
         12    1    3    3    0    0  0.34265842093E+02 -0.12502089236E+02  0.50328324666E+01  0.36820912159E+02  0.00000000000E+00 0. -1.
         11    1    4    4    0    0  0.17227029857E+01 -0.16597548700E+00  0.10471799395E+01  0.20228295840E+01  0.51100000000E-03 0. -1.
        -11    1    4    4    0    0 -0.12101423483E+02  0.22066035320E+02  0.24723038428E+01  0.25287677861E+02  0.51100000000E-03 0.  1.
        -12    1    4    4    0    0 -0.23887121596E+02 -0.93979705974E+01 -0.85523162489E+01  0.27056580396E+02  0.00000000000E+00 0.  1.
</event>
<event>
 8    1  0.1254059E-006  0.9118800E+02  0.7816164E-02  0.1184000E+00
        -11   -1    0    0    0    0  0.00000000000E+00  0.00000000000E+00  0.45593999997E+02  0.45594000000E+02  0.51100000000E-03 0. -1.
         11   -1    0    0    0    0 -0.00000000000E+00 -0.00000000000E+00 -0.45593999997E+02  0.45594000000E+02  0.51100000000E-03 0.  1.
         23    2    1    2    0    0 -0.35527136788E-14  0.00000000000E+00  0.71054273576E-14  0.91188000000E+02  0.91188000000E+02 0.  0.
    9900012    2    3    3    0    0 -0.16474574284E+02  0.18606129914E+02  0.27169462481E+02  0.54367090726E+02  0.40000014929E+02 0.  0.
        -12    1    3    3    0    0  0.16474574284E+02 -0.18606129914E+02 -0.27169462481E+02  0.36820909274E+02  0.00000000000E+00 0.  1.
         11    1    4    4    0    0 -0.99479658477E+01  0.89136978585E+00  0.23072435364E+02  0.25141476458E+02  0.51100000000E-03 0. -1.
        -11    1    4    4    0    0 -0.42023404028E+01  0.91624494499E+01  0.13141847471E+02  0.16562557169E+02  0.51100000000E-03 0.  1.
        -12    1    4    4    0    0 -0.23242680339E+01  0.85523106786E+01 -0.90448203542E+01  0.12663057098E+02  0.00000000000E+00 0.  1.
</event>
<event>
 8    1  0.1254059E-006  0.9118800E+02  0.7816164E-02  0.1184000E+00
        -11   -1    0    0    0    0  0.00000000000E+00  0.00000000000E+00  0.45593999997E+02  0.45594000000E+02  0.51100000000E-03 0. -1.
         11   -1    0    0    0    0 -0.00000000000E+00 -0.00000000000E+00 -0.45593999997E+02  0.45594000000E+02  0.51100000000E-03 0.  1.
         23    2    1    2    0    0 -0.35527136788E-14 -0.71054273576E-14  0.00000000000E+00  0.91188000000E+02  0.91188000000E+02 0.  0.
    9900012    2    3    3    0    0  0.27011828834E+02  0.20934914902E+02  0.13706775610E+02  0.54367010652E+02  0.39999832383E+02 0.  0.
        -12    1    3    3    0    0 -0.27011828834E+02 -0.20934914902E+02 -0.13706775610E+02  0.36820989348E+02  0.00000000000E+00 0.  1.
         11    1    4    4    0    0  0.10005578467E+02  0.67832604226E+01 -0.95093042088E+01  0.15380217463E+02  0.51100000000E-03 0. -1.
        -11    1    4    4    0    0  0.12071638144E+02 -0.88943233697E+00  0.16228031362E+01  0.12212658500E+02  0.51100000000E-03 0.  1.
         12    1    4    4    0    0  0.49346122229E+01  0.15041086816E+02  0.21593276683E+02  0.26774134688E+02  0.00000000000E+00 0. -1.
</event>
<event>
 8    1  0.1254059E-006  0.9118800E+02  0.7816164E-02  0.1184000E+00
        -11   -1    0    0    0    0  0.00000000000E+00  0.00000000000E+00  0.45593999997E+02  0.45594000000E+02  0.51100000000E-03 0. -1.
         11   -1    0    0    0    0 -0.00000000000E+00 -0.00000000000E+00 -0.45593999997E+02  0.45594000000E+02  0.51100000000E-03 0.  1.
         23    2    1    2    0    0  0.00000000000E+00 -0.35527136788E-14  0.17763568394E-14  0.91188000000E+02  0.91188000000E+02 0.  0.
    9900012    2    3    3    0    0 -0.22236388440E+02 -0.28307618782E+02  0.77459213151E+01  0.54367115315E+02  0.40000070984E+02 0.  0.
        -12    1    3    3    0    0  0.22236388440E+02  0.28307618782E+02 -0.77459213151E+01  0.36820884685E+02  0.00000000000E+00 0.  1.
         11    1    4    4    0    0 -0.27887843812E+02 -0.28080276768E+02  0.12275045866E+02  0.41435619062E+02  0.51100000000E-03 0. -1.
        -11    1    4    4    0    0 -0.13004101988E-01  0.10101292696E+01  0.31507363751E+01  0.33087263734E+01  0.51100000000E-03 0.  1.
         12    1    4    4    0    0  0.56644594737E+01 -0.12374712839E+01 -0.76798609258E+01  0.96227698791E+01  0.00000000000E+00 0. -1.
</event>
<event>
 8    1  0.1254059E-006  0.9118800E+02  0.7816164E-02  0.1184000E+00
        -11   -1    0    0    0    0  0.00000000000E+00  0.00000000000E+00  0.45593999997E+02  0.45594000000E+02  0.51100000000E-03 0.  1.
         11   -1    0    0    0    0 -0.00000000000E+00 -0.00000000000E+00 -0.45593999997E+02  0.45594000000E+02  0.51100000000E-03 0. -1.
         23    2    1    2    0    0  0.00000000000E+00  0.88817841970E-15 -0.71054273576E-14  0.91188000000E+02  0.91188000000E+02 0.  0.
    9900012    2    3    3    0    0  0.62440473099E+01  0.63373656191E+01 -0.35729944412E+02  0.54367092115E+02  0.40000018094E+02 0.  0.
        -12    1    3    3    0    0 -0.62440473099E+01 -0.63373656191E+01  0.35729944412E+02  0.36820907885E+02  0.00000000000E+00 0.  1.
         11    1    4    4    0    0 -0.94759842560E+01 -0.55533671937E+00 -0.12710346818E+02  0.15863656356E+02  0.51100000000E-03 0. -1.
        -11    1    4    4    0    0 -0.54062033558E+01  0.56520393640E+01 -0.87067869199E+00  0.78696038872E+01  0.51100000000E-03 0.  1.
         12    1    4    4    0    0  0.21126234922E+02  0.12406629745E+01 -0.22148918902E+02  0.30633831871E+02  0.00000000000E+00 0. -1.
</event>
<event>
 8    1  0.1254059E-006  0.9118800E+02  0.7816164E-02  0.1184000E+00
        -11   -1    0    0    0    0  0.00000000000E+00  0.00000000000E+00  0.45593999997E+02  0.45594000000E+02  0.51100000000E-03 0. -1.
         11   -1    0    0    0    0 -0.00000000000E+00 -0.00000000000E+00 -0.45593999997E+02  0.45594000000E+02  0.51100000000E-03 0.  1.
         23    2    1    2    0    0 -0.88817841970E-15  0.00000000000E+00  0.00000000000E+00  0.91188000000E+02  0.91188000000E+02 0.  0.
    9900012    2    3    3    0    0  0.16720136479E+01 -0.34091142570E+02 -0.13812237137E+02  0.54367088467E+02  0.40000009779E+02 0.  0.
         12    1    3    3    0    0 -0.16720136479E+01  0.34091142570E+02  0.13812237137E+02  0.36820911533E+02  0.00000000000E+00 0. -1.
         11    1    4    4    0    0  0.83169368949E+01 -0.58168374206E+01  0.32641142338E+01  0.10661213762E+02  0.51100000000E-03 0. -1.
        -11    1    4    4    0    0  0.35823350309E+01 -0.32060549086E+01 -0.15894749478E+02  0.16605871660E+02  0.51100000000E-03 0.  1.
         12    1    4    4    0    0 -0.10227258278E+02 -0.25068250241E+02 -0.11816018934E+01  0.27100003045E+02  0.00000000000E+00 0. -1.
</event>
<event>
 8    1  0.1254059E-006  0.9118800E+02  0.7816164E-02  0.1184000E+00
        -11   -1    0    0    0    0  0.00000000000E+00  0.00000000000E+00  0.45593999997E+02  0.45594000000E+02  0.51100000000E-03 0. -1.
         11   -1    0    0    0    0 -0.00000000000E+00 -0.00000000000E+00 -0.45593999997E+02  0.45594000000E+02  0.51100000000E-03 0.  1.
         23    2    1    2    0    0  0.00000000000E+00  0.00000000000E+00 -0.35527136788E-14  0.91188000000E+02  0.91188000000E+02 0.  0.
    9900012    2    3    3    0    0 -0.27362005954E+02 -0.16816762578E+02  0.18008257316E+02  0.54367079249E+02  0.39999988763E+02 0.  0.
        -12    1    3    3    0    0  0.27362005954E+02  0.16816762578E+02 -0.18008257316E+02  0.36820920751E+02  0.00000000000E+00 0.  1.
         11    1    4    4    0    0 -0.14278601975E+02 -0.14724427541E+02  0.96564811550E+01  0.22670131657E+02  0.51100000000E-03 0. -1.
        -11    1    4    4    0    0 -0.13240535831E+02 -0.11890674351E+02 -0.14266841787E+01  0.17853160886E+02  0.51100000000E-03 0.  1.
        -12    1    4    4    0    0  0.15713185280E+00  0.97983393145E+01  0.97784603392E+01  0.13843786705E+02  0.00000000000E+00 0.  1.
</event>
<event>
 8    1  0.1254059E-006  0.9118800E+02  0.7816164E-02  0.1184000E+00
        -11   -1    0    0    0    0  0.00000000000E+00  0.00000000000E+00  0.45593999997E+02  0.45594000000E+02  0.51100000000E-03 0.  1.
         11   -1    0    0    0    0 -0.00000000000E+00 -0.00000000000E+00 -0.45593999997E+02  0.45594000000E+02  0.51100000000E-03 0. -1.
         23    2    1    2    0    0  0.17763568394E-14  0.00000000000E+00 -0.35527136788E-14  0.91188000000E+02  0.91188000000E+02 0.  0.
    9900012    2    3    3    0    0  0.15164016688E+02  0.16277646968E+02 -0.29340594838E+02  0.54367086128E+02  0.40000004446E+02 0.  0.
        -12    1    3    3    0    0 -0.15164016688E+02 -0.16277646968E+02  0.29340594838E+02  0.36820913872E+02  0.00000000000E+00 0.  1.
         11    1    4    4    0    0  0.61323245501E+01  0.28309059772E+01 -0.11271962199E+02  0.13140645536E+02  0.51100000000E-03 0. -1.
        -11    1    4    4    0    0 -0.89589258197E+01  0.26625112124E+01 -0.17965196009E+02  0.20250915675E+02  0.51100000000E-03 0.  1.
        -12    1    4    4    0    0  0.17990617957E+02  0.10784229778E+02 -0.10343663067E+00  0.20975524917E+02  0.00000000000E+00 0.  1.
</event>
<event>
 8    1  0.1254059E-006  0.9118800E+02  0.7816164E-02  0.1184000E+00
        -11   -1    0    0    0    0  0.00000000000E+00  0.00000000000E+00  0.45593999997E+02  0.45594000000E+02  0.51100000000E-03 0.  1.
         11   -1    0    0    0    0 -0.00000000000E+00 -0.00000000000E+00 -0.45593999997E+02  0.45594000000E+02  0.51100000000E-03 0. -1.
         23    2    1    2    0    0  0.00000000000E+00 -0.44408920985E-15 -0.44408920985E-15  0.91188000000E+02  0.91188000000E+02 0.  0.
    9900012    2    3    3    0    0 -0.36496322841E+02 -0.31576777230E+01  0.37184035283E+01  0.54367095145E+02  0.40000025003E+02 0.  0.
        -12    1    3    3    0    0  0.36496322841E+02  0.31576777230E+01 -0.37184035283E+01  0.36820904855E+02  0.00000000000E+00 0.  1.
         11    1    4    4    0    0 -0.22514762186E+02 -0.13886659256E+02 -0.27207381232E+01  0.26592409402E+02  0.51100000000E-03 0. -1.
        -11    1    4    4    0    0 -0.11650667181E+02  0.10085901099E+02 -0.49081657134E+01  0.16172616908E+02  0.51100000000E-03 0.  1.
        -12    1    4    4    0    0 -0.23308934739E+01  0.64308043431E+00  0.11347307365E+02  0.11602068836E+02  0.00000000000E+00 0.  1.
</event>
<event>
 8    1  0.1254059E-006  0.9118800E+02  0.7816164E-02  0.1184000E+00
        -11   -1    0    0    0    0  0.00000000000E+00  0.00000000000E+00  0.45593999997E+02  0.45594000000E+02  0.51100000000E-03 0. -1.
         11   -1    0    0    0    0 -0.00000000000E+00 -0.00000000000E+00 -0.45593999997E+02  0.45594000000E+02  0.51100000000E-03 0.  1.
         23    2    1    2    0    0  0.00000000000E+00  0.35527136788E-14 -0.17763568394E-14  0.91188000000E+02  0.91188000000E+02 0.  0.
    9900012    2    3    3    0    0  0.24556080006E+02 -0.26479502809E+02  0.71844422899E+01  0.54367063764E+02  0.39999953462E+02 0.  0.
        -12    1    3    3    0    0 -0.24556080006E+02  0.26479502809E+02 -0.71844422899E+01  0.36820936236E+02  0.00000000000E+00 0.  1.
         11    1    4    4    0    0  0.10993081818E+02 -0.21311129337E+02 -0.27241088774E+01  0.24133645620E+02  0.51100000000E-03 0. -1.
        -11    1    4    4    0    0 -0.71934541970E+01 -0.85283439745E+00  0.13387343667E+01  0.73664998309E+01  0.51100000000E-03 0.  1.
        -12    1    4    4    0    0  0.20756452385E+02 -0.43155390753E+01  0.85698168006E+01  0.22866918313E+02  0.00000000000E+00 0.  1.
</event>
<event>
 8    1  0.1254059E-006  0.9118800E+02  0.7816164E-02  0.1184000E+00
        -11   -1    0    0    0    0  0.00000000000E+00  0.00000000000E+00  0.45593999997E+02  0.45594000000E+02  0.51100000000E-03 0.  1.
         11   -1    0    0    0    0 -0.00000000000E+00 -0.00000000000E+00 -0.45593999997E+02  0.45594000000E+02  0.51100000000E-03 0. -1.
         23    2    1    2    0    0 -0.88817841970E-15 -0.35527136788E-14  0.71054273576E-14  0.91188000000E+02  0.91188000000E+02 0.  0.
    9900012    2    3    3    0    0  0.55718278420E+01  0.16617761952E+02  0.32381854214E+02  0.54367085290E+02  0.40000002535E+02 0.  0.
         12    1    3    3    0    0 -0.55718278420E+01 -0.16617761952E+02 -0.32381854214E+02  0.36820914710E+02  0.00000000000E+00 0. -1.
         11    1    4    4    0    0  0.18090035035E+02  0.88954330452E+01  0.39873177816E+01  0.20549374686E+02  0.51100000000E-03 0. -1.
        -11    1    4    4    0    0  0.12928400660E+00  0.49612546024E+01  0.47957577225E+01  0.69014530338E+01  0.51100000000E-03 0.  1.
         12    1    4    4    0    0 -0.12647491200E+02  0.27610743047E+01  0.23598778709E+02  0.26916257570E+02  0.00000000000E+00 0. -1.
</event>
<event>
 8    1  0.1254059E-006  0.9118800E+02  0.7816164E-02  0.1184000E+00
        -11   -1    0    0    0    0  0.00000000000E+00  0.00000000000E+00  0.45593999997E+02  0.45594000000E+02  0.51100000000E-03 0.  1.
         11   -1    0    0    0    0 -0.00000000000E+00 -0.00000000000E+00 -0.45593999997E+02  0.45594000000E+02  0.51100000000E-03 0. -1.
         23    2    1    2    0    0  0.00000000000E+00  0.44408920985E-15  0.88817841970E-15  0.91188000000E+02  0.91188000000E+02 0.  0.
    9900012    2    3    3    0    0 -0.35786895777E+02  0.39648584228E+01  0.77044031988E+01  0.54367084200E+02  0.40000000051E+02 0.  0.
         12    1    3    3    0    0  0.35786895777E+02 -0.39648584228E+01 -0.77044031988E+01  0.36820915800E+02  0.00000000000E+00 0. -1.
         11    1    4    4    0    0 -0.58292579859E+01  0.13621277958E+02  0.36630068479E+01  0.15262276413E+02  0.51100000000E-03 0. -1.
        -11    1    4    4    0    0 -0.23184859450E+02  0.40908270750E+01  0.31640669899E+01  0.23754660470E+02  0.51100000000E-03 0.  1.
        -12    1    4    4    0    0 -0.67727783417E+01 -0.13747246611E+02  0.87732936103E+00  0.15350147317E+02  0.00000000000E+00 0.  1.
</event>
<event>
 8    1  0.1254059E-006  0.9118800E+02  0.7816164E-02  0.1184000E+00
        -11   -1    0    0    0    0  0.00000000000E+00  0.00000000000E+00  0.45593999997E+02  0.45594000000E+02  0.51100000000E-03 0. -1.
         11   -1    0    0    0    0 -0.00000000000E+00 -0.00000000000E+00 -0.45593999997E+02  0.45594000000E+02  0.51100000000E-03 0.  1.
         23    2    1    2    0    0  0.00000000000E+00  0.00000000000E+00  0.00000000000E+00  0.91188000000E+02  0.91188000000E+02 0.  0.
    9900012    2    3    3    0    0 -0.36059363724E+02  0.67172672309E+01 -0.32219361943E+01  0.54367078447E+02  0.39999986935E+02 0.  0.
         12    1    3    3    0    0  0.36059363724E+02 -0.67172672309E+01  0.32219361943E+01  0.36820921553E+02  0.00000000000E+00 0. -1.
         11    1    4    4    0    0  0.34935776994E+01 -0.18395241839E+01 -0.72054384637E+01  0.82162812805E+01  0.51100000000E-03 0. -1.
        -11    1    4    4    0    0 -0.26289984978E+02  0.14524044876E+02 -0.26778525343E+01  0.30154304571E+02  0.51100000000E-03 0.  1.
         12    1    4    4    0    0 -0.13262956445E+02 -0.59672534610E+01  0.66613548037E+01  0.15996492595E+02  0.00000000000E+00 0. -1.
</event>
<event>
 8    1  0.1254059E-006  0.9118800E+02  0.7816164E-02  0.1184000E+00
        -11   -1    0    0    0    0  0.00000000000E+00  0.00000000000E+00  0.45593999997E+02  0.45594000000E+02  0.51100000000E-03 0.  1.
         11   -1    0    0    0    0 -0.00000000000E+00 -0.00000000000E+00 -0.45593999997E+02  0.45594000000E+02  0.51100000000E-03 0. -1.
         23    2    1    2    0    0  0.00000000000E+00 -0.35527136788E-14 -0.35527136788E-14  0.91188000000E+02  0.91188000000E+02 0.  0.
    9900012    2    3    3    0    0  0.13121706998E+02  0.26247163169E+02  0.22241547818E+02  0.54367092647E+02  0.40000019308E+02 0.  0.
         12    1    3    3    0    0 -0.13121706998E+02 -0.26247163169E+02 -0.22241547818E+02  0.36820907353E+02  0.00000000000E+00 0. -1.
         11    1    4    4    0    0  0.18534268116E+02  0.20154814996E+02  0.24229194226E+01  0.27488292070E+02  0.51100000000E-03 0. -1.
        -11    1    4    4    0    0  0.37581703855E+01  0.50895803936E+00  0.14324503223E+02  0.14818038864E+02  0.51100000000E-03 0.  1.
         12    1    4    4    0    0 -0.91707315038E+01  0.55833901336E+01  0.54941251721E+01  0.12060761713E+02  0.00000000000E+00 0. -1.
</event>
<event>
 8    1  0.1254059E-006  0.9118800E+02  0.7816164E-02  0.1184000E+00
        -11   -1    0    0    0    0  0.00000000000E+00  0.00000000000E+00  0.45593999997E+02  0.45594000000E+02  0.51100000000E-03 0.  1.
         11   -1    0    0    0    0 -0.00000000000E+00 -0.00000000000E+00 -0.45593999997E+02  0.45594000000E+02  0.51100000000E-03 0. -1.
         23    2    1    2    0    0 -0.17763568394E-14  0.00000000000E+00  0.00000000000E+00  0.91188000000E+02  0.91188000000E+02 0.  0.
    9900012    2    3    3    0    0  0.95187862122E+00 -0.27985980245E+02  0.23909382882E+02  0.54367085386E+02  0.40000002755E+02 0.  0.
         12    1    3    3    0    0 -0.95187862122E+00  0.27985980245E+02 -0.23909382882E+02  0.36820914614E+02  0.00000000000E+00 0. -1.
         11    1    4    4    0    0 -0.11077157184E+01  0.50495760759E+01  0.55370594398E+01  0.75752412609E+01  0.51100000000E-03 0. -1.
        -11    1    4    4    0    0  0.14222996709E+02 -0.16171108253E+02  0.51254907050E+01  0.22137502857E+02  0.51100000000E-03 0.  1.
        -12    1    4    4    0    0 -0.12163402369E+02 -0.16864448068E+02  0.13246832737E+02  0.24654341269E+02  0.00000000000E+00 0.  1.
</event>
<event>
 8    1  0.1254059E-006  0.9118800E+02  0.7816164E-02  0.1184000E+00
        -11   -1    0    0    0    0  0.00000000000E+00  0.00000000000E+00  0.45593999997E+02  0.45594000000E+02  0.51100000000E-03 0.  1.
         11   -1    0    0    0    0 -0.00000000000E+00 -0.00000000000E+00 -0.45593999997E+02  0.45594000000E+02  0.51100000000E-03 0. -1.
         23    2    1    2    0    0  0.00000000000E+00  0.11102230246E-15  0.00000000000E+00  0.91188000000E+02  0.91188000000E+02 0.  0.
    9900012    2    3    3    0    0  0.28659203033E+02  0.98259939875E+00  0.23096833935E+02  0.54367093468E+02  0.40000021178E+02 0.  0.
         12    1    3    3    0    0 -0.28659203033E+02 -0.98259939875E+00 -0.23096833935E+02  0.36820906532E+02  0.00000000000E+00 0. -1.
         11    1    4    4    0    0 -0.36970516007E+01  0.10340734133E+01 -0.75018814262E+01  0.84270827430E+01  0.51100000000E-03 0. -1.
        -11    1    4    4    0    0  0.22171423565E+02 -0.30059818210E+01  0.26214964677E+02  0.34464943390E+02  0.51100000000E-03 0.  1.
        -12    1    4    4    0    0  0.10184831069E+02  0.29545078064E+01  0.43837506840E+01  0.11475067335E+02  0.00000000000E+00 0.  1.
</event>
<event>
 8    1  0.1254059E-006  0.9118800E+02  0.7816164E-02  0.1184000E+00
        -11   -1    0    0    0    0  0.00000000000E+00  0.00000000000E+00  0.45593999997E+02  0.45594000000E+02  0.51100000000E-03 0. -1.
         11   -1    0    0    0    0 -0.00000000000E+00 -0.00000000000E+00 -0.45593999997E+02  0.45594000000E+02  0.51100000000E-03 0.  1.
         23    2    1    2    0    0  0.00000000000E+00  0.71054273576E-14  0.19984014443E-14  0.91188000000E+02  0.91188000000E+02 0.  0.
    9900012    2    3    3    0    0 -0.17910569196E+02 -0.32171154708E+02 -0.82424970783E-01  0.54367102699E+02  0.40000042223E+02 0.  0.
        -12    1    3    3    0    0  0.17910569196E+02  0.32171154708E+02  0.82424970783E-01  0.36820897301E+02  0.00000000000E+00 0.  1.
         11    1    4    4    0    0 -0.20405269582E+02 -0.21655368928E+02 -0.38926317870E+01  0.30008042465E+02  0.51100000000E-03 0. -1.
        -11    1    4    4    0    0  0.51032638146E+01 -0.93502596615E+01  0.11786286585E+02  0.15886699123E+02  0.51100000000E-03 0.  1.
        -12    1    4    4    0    0 -0.26085634286E+01 -0.11655261189E+01 -0.79760797693E+01  0.84723611101E+01  0.00000000000E+00 0.  1.
</event>
<event>
 8    1  0.1254059E-006  0.9118800E+02  0.7816164E-02  0.1184000E+00
        -11   -1    0    0    0    0  0.00000000000E+00  0.00000000000E+00  0.45593999997E+02  0.45594000000E+02  0.51100000000E-03 0.  1.
         11   -1    0    0    0    0 -0.00000000000E+00 -0.00000000000E+00 -0.45593999997E+02  0.45594000000E+02  0.51100000000E-03 0. -1.
         23    2    1    2    0    0  0.00000000000E+00  0.00000000000E+00  0.00000000000E+00  0.91188000000E+02  0.91188000000E+02 0.  0.
    9900012    2    3    3    0    0  0.15157311682E+02 -0.63168789239E+01  0.32956542570E+02  0.54367071780E+02  0.39999971738E+02 0.  0.
         12    1    3    3    0    0 -0.15157311682E+02  0.63168789239E+01 -0.32956542570E+02  0.36820928220E+02  0.00000000000E+00 0. -1.
         11    1    4    4    0    0  0.11509187010E+02  0.14251482724E+02  0.12666827030E+02  0.22271386413E+02  0.51100000000E-03 0. -1.
        -11    1    4    4    0    0 -0.41838751627E+01 -0.10244227925E+02  0.13533335914E+02  0.17481424381E+02  0.51100000000E-03 0.  1.
         12    1    4    4    0    0  0.78319998343E+01 -0.10324133723E+02  0.67563796264E+01  0.14614260987E+02  0.00000000000E+00 0. -1.
</event>
<event>
 8    1  0.1254059E-006  0.9118800E+02  0.7816164E-02  0.1184000E+00
        -11   -1    0    0    0    0  0.00000000000E+00  0.00000000000E+00  0.45593999997E+02  0.45594000000E+02  0.51100000000E-03 0. -1.
         11   -1    0    0    0    0 -0.00000000000E+00 -0.00000000000E+00 -0.45593999997E+02  0.45594000000E+02  0.51100000000E-03 0.  1.
         23    2    1    2    0    0  0.00000000000E+00  0.35527136788E-14  0.00000000000E+00  0.91188000000E+02  0.91188000000E+02 0.  0.
    9900012    2    3    3    0    0 -0.27135368953E+01 -0.17365181258E+02  0.32355318402E+02  0.54367089752E+02  0.40000012708E+02 0.  0.
        -12    1    3    3    0    0  0.27135368953E+01  0.17365181258E+02 -0.32355318402E+02  0.36820910248E+02  0.00000000000E+00 0.  1.
         11    1    4    4    0    0 -0.46928399483E+01 -0.28714045487E+02  0.13076354482E+02  0.31898435727E+02  0.51100000000E-03 0. -1.
        -11    1    4    4    0    0  0.25002672570E+00  0.29939456460E+01  0.52559994831E+01  0.60540692697E+01  0.51100000000E-03 0.  1.
         12    1    4    4    0    0  0.17292763273E+01  0.83549185825E+01  0.14022964436E+02  0.16414584756E+02  0.00000000000E+00 0. -1.
</event>
<event>
 8    1  0.1254059E-006  0.9118800E+02  0.7816164E-02  0.1184000E+00
        -11   -1    0    0    0    0  0.00000000000E+00  0.00000000000E+00  0.45593999997E+02  0.45594000000E+02  0.51100000000E-03 0.  1.
         11   -1    0    0    0    0 -0.00000000000E+00 -0.00000000000E+00 -0.45593999997E+02  0.45594000000E+02  0.51100000000E-03 0. -1.
         23    2    1    2    0    0  0.00000000000E+00  0.71054273576E-14 -0.17763568394E-14  0.91188000000E+02  0.91188000000E+02 0.  0.
    9900012    2    3    3    0    0  0.83789060223E+01  0.33478107673E+02 -0.12837087392E+02  0.54367074262E+02  0.39999977396E+02 0.  0.
        -12    1    3    3    0    0 -0.83789060223E+01 -0.33478107673E+02  0.12837087392E+02  0.36820925738E+02  0.00000000000E+00 0.  1.
         11    1    4    4    0    0 -0.75197393776E+00  0.47238240053E+01 -0.19383568876E+02  0.19965037457E+02  0.51100000000E-03 0. -1.
        -11    1    4    4    0    0 -0.29332662957E+01  0.21819684656E+01 -0.17638803252E+01  0.40591023157E+01  0.51100000000E-03 0.  1.
        -12    1    4    4    0    0  0.12064146256E+02  0.26572315202E+02  0.83103618087E+01  0.30342934490E+02  0.00000000000E+00 0.  1.
</event>
<event>
 8    1  0.1254059E-006  0.9118800E+02  0.7816164E-02  0.1184000E+00
        -11   -1    0    0    0    0  0.00000000000E+00  0.00000000000E+00  0.45593999997E+02  0.45594000000E+02  0.51100000000E-03 0. -1.
         11   -1    0    0    0    0 -0.00000000000E+00 -0.00000000000E+00 -0.45593999997E+02  0.45594000000E+02  0.51100000000E-03 0.  1.
         23    2    1    2    0    0  0.35527136788E-14  0.71054273576E-14  0.88817841970E-15  0.91188000000E+02  0.91188000000E+02 0.  0.
    9900012    2    3    3    0    0  0.23866468192E+02  0.27344475196E+02 -0.62008366570E+01  0.54367095571E+02  0.40000025973E+02 0.  0.
         12    1    3    3    0    0 -0.23866468192E+02 -0.27344475196E+02  0.62008366570E+01  0.36820904429E+02  0.00000000000E+00 0. -1.
         11    1    4    4    0    0  0.14607483170E+02  0.78589879401E+01 -0.12669451807E+02  0.20872404398E+02  0.51100000000E-03 0. -1.
        -11    1    4    4    0    0  0.14356462110E+02  0.16949395854E+02  0.12261800358E+02  0.25372066774E+02  0.51100000000E-03 0.  1.
         12    1    4    4    0    0 -0.50974770876E+01  0.25360914028E+01 -0.57931852085E+01  0.81226243987E+01  0.00000000000E+00 0. -1.
</event>
<event>
 8    1  0.1254059E-006  0.9118800E+02  0.7816164E-02  0.1184000E+00
        -11   -1    0    0    0    0  0.00000000000E+00  0.00000000000E+00  0.45593999997E+02  0.45594000000E+02  0.51100000000E-03 0.  1.
         11   -1    0    0    0    0 -0.00000000000E+00 -0.00000000000E+00 -0.45593999997E+02  0.45594000000E+02  0.51100000000E-03 0. -1.
         23    2    1    2    0    0  0.17763568394E-14  0.00000000000E+00  0.00000000000E+00  0.91188000000E+02  0.91188000000E+02 0.  0.
    9900012    2    3    3    0    0  0.11697025397E+02  0.18846003879E+02 -0.29390270698E+02  0.54367078270E+02  0.39999986533E+02 0.  0.
        -12    1    3    3    0    0 -0.11697025397E+02 -0.18846003879E+02  0.29390270698E+02  0.36820921730E+02  0.00000000000E+00 0.  1.
         11    1    4    4    0    0 -0.37480172517E+01  0.13242262079E+02 -0.58832285082E+01  0.14967214711E+02  0.51100000000E-03 0. -1.
        -11    1    4    4    0    0  0.21762769985E+02 -0.17207779285E+01 -0.14702356382E+02  0.26319926245E+02  0.51100000000E-03 0.  1.
        -12    1    4    4    0    0 -0.63177273368E+01  0.73245197284E+01 -0.88046858074E+01  0.13079937313E+02  0.00000000000E+00 0.  1.
</event>
<event>
 8    1  0.1254059E-006  0.9118800E+02  0.7816164E-02  0.1184000E+00
        -11   -1    0    0    0    0  0.00000000000E+00  0.00000000000E+00  0.45593999997E+02  0.45594000000E+02  0.51100000000E-03 0.  1.
         11   -1    0    0    0    0 -0.00000000000E+00 -0.00000000000E+00 -0.45593999997E+02  0.45594000000E+02  0.51100000000E-03 0. -1.
         23    2    1    2    0    0 -0.88817841970E-15  0.00000000000E+00  0.00000000000E+00  0.91188000000E+02  0.91188000000E+02 0.  0.
    9900012    2    3    3    0    0 -0.78349166108E+01 -0.19025838413E+02  0.30535403452E+02  0.54367091407E+02  0.40000016480E+02 0.  0.
         12    1    3    3    0    0  0.78349166108E+01  0.19025838413E+02 -0.30535403452E+02  0.36820908593E+02  0.00000000000E+00 0. -1.
         11    1    4    4    0    0  0.38859230180E+01 -0.68335958967E+01 -0.67338830305E+00  0.78899862261E+01  0.51100000000E-03 0. -1.
        -11    1    4    4    0    0 -0.14760866147E+02  0.52023814919E+01  0.20621611597E+02  0.25888198233E+02  0.51100000000E-03 0.  1.
        -12    1    4    4    0    0  0.30400265185E+01 -0.17394624008E+02  0.10587180158E+02  0.20588906948E+02  0.00000000000E+00 0.  1.
</event>
<event>
 8    1  0.1254059E-006  0.9118800E+02  0.7816164E-02  0.1184000E+00
        -11   -1    0    0    0    0  0.00000000000E+00  0.00000000000E+00  0.45593999997E+02  0.45594000000E+02  0.51100000000E-03 0.  1.
         11   -1    0    0    0    0 -0.00000000000E+00 -0.00000000000E+00 -0.45593999997E+02  0.45594000000E+02  0.51100000000E-03 0. -1.
         23    2    1    2    0    0  0.00000000000E+00 -0.17763568394E-14 -0.17763568394E-14  0.91188000000E+02  0.91188000000E+02 0.  0.
    9900012    2    3    3    0    0  0.34522207825E+02 -0.94702168777E+01 -0.86204383003E+01  0.54367084785E+02  0.40000001384E+02 0.  0.
        -12    1    3    3    0    0 -0.34522207825E+02  0.94702168777E+01  0.86204383003E+01  0.36820915215E+02  0.00000000000E+00 0.  1.
         11    1    4    4    0    0  0.20247419527E+02  0.50218508874E+01 -0.73648160385E+01  0.22122782360E+02  0.51100000000E-03 0. -1.
        -11    1    4    4    0    0  0.50099946528E+01  0.70110312623E+01 -0.18886498350E+01  0.88216554140E+01  0.51100000000E-03 0.  1.
         12    1    4    4    0    0  0.92647936451E+01 -0.21503099027E+02  0.63302757321E+00  0.23422647010E+02  0.00000000000E+00 0. -1.
</event>
<event>
 8    1  0.1254059E-006  0.9118800E+02  0.7816164E-02  0.1184000E+00
        -11   -1    0    0    0    0  0.00000000000E+00  0.00000000000E+00  0.45593999997E+02  0.45594000000E+02  0.51100000000E-03 0.  1.
         11   -1    0    0    0    0 -0.00000000000E+00 -0.00000000000E+00 -0.45593999997E+02  0.45594000000E+02  0.51100000000E-03 0. -1.
         23    2    1    2    0    0  0.35527136788E-14  0.00000000000E+00  0.17763568394E-14  0.91188000000E+02  0.91188000000E+02 0.  0.
    9900012    2    3    3    0    0  0.20564749021E+02 -0.28014243156E+02  0.12168514709E+02  0.54367089200E+02  0.40000011449E+02 0.  0.
         12    1    3    3    0    0 -0.20564749021E+02  0.28014243156E+02 -0.12168514709E+02  0.36820910800E+02  0.00000000000E+00 0. -1.
         11    1    4    4    0    0  0.27705743613E+02 -0.17940184720E+02  0.95031544455E+01  0.34347756864E+02  0.51100000000E-03 0. -1.
        -11    1    4    4    0    0  0.29580244376E+01  0.19385742149E+01  0.24888080179E+01  0.43245975733E+01  0.51100000000E-03 0.  1.
         12    1    4    4    0    0 -0.10099019029E+02 -0.12012632652E+02  0.17655224577E+00  0.15694734763E+02  0.00000000000E+00 0. -1.
</event>
<event>
 8    1  0.1254059E-006  0.9118800E+02  0.7816164E-02  0.1184000E+00
        -11   -1    0    0    0    0  0.00000000000E+00  0.00000000000E+00  0.45593999997E+02  0.45594000000E+02  0.51100000000E-03 0.  1.
         11   -1    0    0    0    0 -0.00000000000E+00 -0.00000000000E+00 -0.45593999997E+02  0.45594000000E+02  0.51100000000E-03 0. -1.
         23    2    1    2    0    0 -0.35527136788E-14  0.17763568394E-14 -0.17763568394E-14  0.91188000000E+02  0.91188000000E+02 0.  0.
    9900012    2    3    3    0    0 -0.30574889248E+02  0.14496504377E+02 -0.14519181667E+02  0.54367093874E+02  0.40000022104E+02 0.  0.
        -12    1    3    3    0    0  0.30574889248E+02 -0.14496504377E+02  0.14519181667E+02  0.36820906126E+02  0.00000000000E+00 0.  1.
         11    1    4    4    0    0 -0.18904450420E+02  0.15276613141E+02 -0.58120180638E+01  0.24990652432E+02  0.51100000000E-03 0. -1.
        -11    1    4    4    0    0  0.41449821720E+01  0.26692786113E+01  0.58192510738E+01  0.76269003424E+01  0.51100000000E-03 0.  1.
         12    1    4    4    0    0 -0.15815421000E+02 -0.34493873755E+01 -0.14526414677E+02  0.21749541099E+02  0.00000000000E+00 0. -1.
</event>
<event>
 8    1  0.1254059E-006  0.9118800E+02  0.7816164E-02  0.1184000E+00
        -11   -1    0    0    0    0  0.00000000000E+00  0.00000000000E+00  0.45593999997E+02  0.45594000000E+02  0.51100000000E-03 0. -1.
         11   -1    0    0    0    0 -0.00000000000E+00 -0.00000000000E+00 -0.45593999997E+02  0.45594000000E+02  0.51100000000E-03 0.  1.
         23    2    1    2    0    0  0.17763568394E-14 -0.17763568394E-14  0.00000000000E+00  0.91188000000E+02  0.91188000000E+02 0.  0.
    9900012    2    3    3    0    0 -0.23607585147E+01 -0.10666745097E+02  0.35162875870E+02  0.54367075634E+02  0.39999980522E+02 0.  0.
        -12    1    3    3    0    0  0.23607585147E+01  0.10666745097E+02 -0.35162875870E+02  0.36820924366E+02  0.00000000000E+00 0.  1.
         11    1    4    4    0    0  0.43263075196E+01 -0.76173875370E+01  0.11803798347E+02  0.14699360031E+02  0.51100000000E-03 0. -1.
        -11    1    4    4    0    0 -0.16006548249E+02  0.59222398687E+01  0.20020325710E+02  0.26307716619E+02  0.51100000000E-03 0.  1.
        -12    1    4    4    0    0  0.93194822142E+01 -0.89715974289E+01  0.33387518127E+01  0.13359998983E+02  0.00000000000E+00 0.  1.
</event>
<event>
 8    1  0.1254059E-006  0.9118800E+02  0.7816164E-02  0.1184000E+00
        -11   -1    0    0    0    0  0.00000000000E+00  0.00000000000E+00  0.45593999997E+02  0.45594000000E+02  0.51100000000E-03 0.  1.
         11   -1    0    0    0    0 -0.00000000000E+00 -0.00000000000E+00 -0.45593999997E+02  0.45594000000E+02  0.51100000000E-03 0. -1.
         23    2    1    2    0    0  0.13322676296E-14 -0.66613381478E-15  0.00000000000E+00  0.91188000000E+02  0.91188000000E+02 0.  0.
    9900012    2    3    3    0    0 -0.20570669619E+01 -0.11615326594E+01  0.36745050837E+02  0.54367089587E+02  0.40000012332E+02 0.  0.
         12    1    3    3    0    0  0.20570669619E+01  0.11615326594E+01 -0.36745050837E+02  0.36820910413E+02  0.00000000000E+00 0. -1.
         11    1    4    4    0    0  0.69690810934E+01 -0.70023084182E+01  0.49755173931E+01  0.11061473142E+02  0.51100000000E-03 0. -1.
        -11    1    4    4    0    0 -0.26332196787E+01  0.15323854456E+02  0.26474387212E+02  0.30702565687E+02  0.51100000000E-03 0.  1.
         12    1    4    4    0    0 -0.63929283765E+01 -0.94830786971E+01  0.52951462320E+01  0.12603050758E+02  0.00000000000E+00 0. -1.
</event>
<event>
 8    1  0.1254059E-006  0.9118800E+02  0.7816164E-02  0.1184000E+00
        -11   -1    0    0    0    0  0.00000000000E+00  0.00000000000E+00  0.45593999997E+02  0.45594000000E+02  0.51100000000E-03 0.  1.
         11   -1    0    0    0    0 -0.00000000000E+00 -0.00000000000E+00 -0.45593999997E+02  0.45594000000E+02  0.51100000000E-03 0. -1.
         23    2    1    2    0    0  0.35527136788E-14  0.88817841970E-15  0.71054273576E-14  0.91188000000E+02  0.91188000000E+02 0.  0.
    9900012    2    3    3    0    0  0.13605543661E+02  0.76814492326E+01  0.33341649940E+02  0.54367067076E+02  0.39999961014E+02 0.  0.
         12    1    3    3    0    0 -0.13605543661E+02 -0.76814492326E+01 -0.33341649940E+02  0.36820932924E+02  0.00000000000E+00 0. -1.
         11    1    4    4    0    0  0.56032069922E+01 -0.49372068106E+01 -0.35146991337E+01  0.82537900355E+01  0.51100000000E-03 0. -1.
        -11    1    4    4    0    0 -0.89716689127E+00  0.38118298708E+01 -0.26116262909E+01  0.47069679773E+01  0.51100000000E-03 0.  1.
        -12    1    4    4    0    0  0.88995035605E+01  0.88068261724E+01  0.39467975365E+02  0.41406309063E+02  0.00000000000E+00 0.  1.
</event>
<event>
 8    1  0.1254059E-006  0.9118800E+02  0.7816164E-02  0.1184000E+00
        -11   -1    0    0    0    0  0.00000000000E+00  0.00000000000E+00  0.45593999997E+02  0.45594000000E+02  0.51100000000E-03 0.  1.
         11   -1    0    0    0    0 -0.00000000000E+00 -0.00000000000E+00 -0.45593999997E+02  0.45594000000E+02  0.51100000000E-03 0. -1.
         23    2    1    2    0    0 -0.35527136788E-14  0.35527136788E-14 -0.17763568394E-14  0.91188000000E+02  0.91188000000E+02 0.  0.
    9900012    2    3    3    0    0 -0.29394845399E+02  0.16825296190E+02 -0.14444111857E+02  0.54367083455E+02  0.39999998352E+02 0.  0.
        -12    1    3    3    0    0  0.29394845399E+02 -0.16825296190E+02  0.14444111857E+02  0.36820916545E+02  0.00000000000E+00 0.  1.
         11    1    4    4    0    0 -0.19372595822E+01 -0.77920389253E+01 -0.12498880100E+02  0.14855667246E+02  0.51100000000E-03 0. -1.
        -11    1    4    4    0    0 -0.76519305716E+01  0.55882653875E+01  0.56279861525E+01  0.11020661500E+02  0.51100000000E-03 0.  1.
        -12    1    4    4    0    0 -0.19805655245E+02  0.19029069727E+02 -0.75732179092E+01  0.28490754708E+02  0.00000000000E+00 0.  1.
</event>
<event>
 8    1  0.1254059E-006  0.9118800E+02  0.7816164E-02  0.1184000E+00
        -11   -1    0    0    0    0  0.00000000000E+00  0.00000000000E+00  0.45593999997E+02  0.45594000000E+02  0.51100000000E-03 0.  1.
         11   -1    0    0    0    0 -0.00000000000E+00 -0.00000000000E+00 -0.45593999997E+02  0.45594000000E+02  0.51100000000E-03 0. -1.
         23    2    1    2    0    0  0.35527136788E-14  0.00000000000E+00  0.00000000000E+00  0.91188000000E+02  0.91188000000E+02 0.  0.
    9900012    2    3    3    0    0  0.11876271519E+02 -0.25553614441E+02  0.23701180101E+02  0.54367095960E+02  0.40000026859E+02 0.  0.
         12    1    3    3    0    0 -0.11876271519E+02  0.25553614441E+02 -0.23701180101E+02  0.36820904040E+02  0.00000000000E+00 0. -1.
         11    1    4    4    0    0 -0.64900649964E+01 -0.11146716198E+02  0.24775166954E+02  0.27931686729E+02  0.51100000000E-03 0.  1.
        -11    1    4    4    0    0  0.15580768777E+02 -0.16651080819E+02 -0.47761446016E+00  0.22808922902E+02  0.51100000000E-03 0. -1.
         12    1    4    4    0    0  0.27855677386E+01  0.22441825763E+01 -0.59637239313E+00  0.36264863288E+01  0.00000000000E+00 0. -1.
</event>
<event>
 8    1  0.1254059E-006  0.9118800E+02  0.7816164E-02  0.1184000E+00
        -11   -1    0    0    0    0  0.00000000000E+00  0.00000000000E+00  0.45593999997E+02  0.45594000000E+02  0.51100000000E-03 0. -1.
         11   -1    0    0    0    0 -0.00000000000E+00 -0.00000000000E+00 -0.45593999997E+02  0.45594000000E+02  0.51100000000E-03 0.  1.
         23    2    1    2    0    0  0.00000000000E+00 -0.71054273576E-14 -0.17763568394E-14  0.91188000000E+02  0.91188000000E+02 0.  0.
    9900012    2    3    3    0    0  0.10983501861E+02  0.32600313845E+02  0.13128560490E+02  0.54367124447E+02  0.40000091802E+02 0.  0.
         12    1    3    3    0    0 -0.10983501861E+02 -0.32600313845E+02 -0.13128560490E+02  0.36820875553E+02  0.00000000000E+00 0. -1.
         11    1    4    4    0    0  0.18942993314E+02  0.14244611978E+02  0.24882841829E+01  0.23831439833E+02  0.51100000000E-03 0. -1.
        -11    1    4    4    0    0  0.99059224247E+00  0.14091129004E+02 -0.22181579645E+01  0.14299000476E+02  0.51100000000E-03 0.  1.
         12    1    4    4    0    0 -0.89500836953E+01  0.42645728630E+01  0.12858434272E+02  0.16236684138E+02  0.00000000000E+00 0. -1.
</event>
<event>
 8    1  0.1254059E-006  0.9118800E+02  0.7816164E-02  0.1184000E+00
        -11   -1    0    0    0    0  0.00000000000E+00  0.00000000000E+00  0.45593999997E+02  0.45594000000E+02  0.51100000000E-03 0.  1.
         11   -1    0    0    0    0 -0.00000000000E+00 -0.00000000000E+00 -0.45593999997E+02  0.45594000000E+02  0.51100000000E-03 0. -1.
         23    2    1    2    0    0  0.00000000000E+00 -0.35527136788E-14 -0.88817841970E-15  0.91188000000E+02  0.91188000000E+02 0.  0.
    9900012    2    3    3    0    0 -0.32902433153E+02 -0.14991679910E+02  0.69612839096E+01  0.54367081386E+02  0.39999993636E+02 0.  0.
        -12    1    3    3    0    0  0.32902433153E+02  0.14991679910E+02 -0.69612839096E+01  0.36820918614E+02  0.00000000000E+00 0.  1.
         11    1    4    4    0    0 -0.35816122924E+02 -0.96236053987E+01 -0.68522766814E+01  0.37714216659E+02  0.51100000000E-03 0. -1.
        -11    1    4    4    0    0  0.14512185675E+01 -0.26385448616E+01  0.13144174932E+02  0.13484705752E+02  0.51100000000E-03 0.  1.
         12    1    4    4    0    0  0.14624712043E+01 -0.27295296496E+01  0.66938565872E+00  0.31681589751E+01  0.00000000000E+00 0. -1.
</event>
<event>
 8    1  0.1254059E-006  0.9118800E+02  0.7816164E-02  0.1184000E+00
        -11   -1    0    0    0    0  0.00000000000E+00  0.00000000000E+00  0.45593999997E+02  0.45594000000E+02  0.51100000000E-03 0. -1.
         11   -1    0    0    0    0 -0.00000000000E+00 -0.00000000000E+00 -0.45593999997E+02  0.45594000000E+02  0.51100000000E-03 0.  1.
         23    2    1    2    0    0  0.00000000000E+00  0.00000000000E+00  0.00000000000E+00  0.91188000000E+02  0.91188000000E+02 0.  0.
    9900012    2    3    3    0    0  0.18734275839E+02 -0.15735051030E+02  0.27517573178E+02  0.54367058190E+02  0.39999940757E+02 0.  0.
        -12    1    3    3    0    0 -0.18734275839E+02  0.15735051030E+02 -0.27517573178E+02  0.36820941810E+02  0.00000000000E+00 0.  1.
         11    1    4    4    0    0  0.69694005482E+01 -0.14585384007E+02  0.76822225485E+01  0.17897556095E+02  0.51100000000E-03 0. -1.
        -11    1    4    4    0    0  0.45767989328E+01 -0.12739084380E+02  0.15009393960E+01  0.13619257639E+02  0.51100000000E-03 0.  1.
        -12    1    4    4    0    0  0.71880763581E+01  0.11589417357E+02  0.18334411234E+02  0.22850244456E+02  0.00000000000E+00 0.  1.
</event>
<event>
 8    1  0.1254059E-006  0.9118800E+02  0.7816164E-02  0.1184000E+00
        -11   -1    0    0    0    0  0.00000000000E+00  0.00000000000E+00  0.45593999997E+02  0.45594000000E+02  0.51100000000E-03 0.  1.
         11   -1    0    0    0    0 -0.00000000000E+00 -0.00000000000E+00 -0.45593999997E+02  0.45594000000E+02  0.51100000000E-03 0. -1.
         23    2    1    2    0    0  0.44408920985E-15  0.88817841970E-15  0.00000000000E+00  0.91188000000E+02  0.91188000000E+02 0.  0.
    9900012    2    3    3    0    0  0.19445295742E+01  0.15656714713E+01  0.36736193700E+02  0.54367075921E+02  0.39999981178E+02 0.  0.
         12    1    3    3    0    0 -0.19445295742E+01 -0.15656714713E+01 -0.36736193700E+02  0.36820924079E+02  0.00000000000E+00 0. -1.
         11    1    4    4    0    0 -0.11860880189E+02 -0.12732025435E+02  0.88463980955E+01  0.19520340931E+02  0.51100000000E-03 0. -1.
        -11    1    4    4    0    0  0.11270980392E+02  0.11975869792E+02  0.18023343591E+02  0.24398716579E+02  0.51100000000E-03 0.  1.
         12    1    4    4    0    0  0.25344293716E+01  0.23218271144E+01  0.98664520140E+01  0.10448018412E+02  0.00000000000E+00 0. -1.
</event>
<event>
 8    1  0.1254059E-006  0.9118800E+02  0.7816164E-02  0.1184000E+00
        -11   -1    0    0    0    0  0.00000000000E+00  0.00000000000E+00  0.45593999997E+02  0.45594000000E+02  0.51100000000E-03 0. -1.
         11   -1    0    0    0    0 -0.00000000000E+00 -0.00000000000E+00 -0.45593999997E+02  0.45594000000E+02  0.51100000000E-03 0.  1.
         23    2    1    2    0    0  0.44408920985E-15  0.35527136788E-14  0.00000000000E+00  0.91188000000E+02  0.91188000000E+02 0.  0.
    9900012    2    3    3    0    0 -0.35201759499E+01 -0.25235079418E+02 -0.26581586171E+02  0.54367060369E+02  0.39999945723E+02 0.  0.
         12    1    3    3    0    0  0.35201759499E+01  0.25235079418E+02  0.26581586171E+02  0.36820939631E+02  0.00000000000E+00 0. -1.
         11    1    4    4    0    0  0.60470932235E+01  0.71986146719E+01 -0.74256536970E+01  0.11980305620E+02  0.51100000000E-03 0. -1.
        -11    1    4    4    0    0 -0.39176984533E+01 -0.30599441058E+01 -0.98955216532E+01  0.11073977070E+02  0.51100000000E-03 0.  1.
         12    1    4    4    0    0 -0.56495707201E+01 -0.29373749984E+02 -0.92604108209E+01  0.31312777679E+02  0.00000000000E+00 0. -1.
</event>
<event>
 8    1  0.1254059E-006  0.9118800E+02  0.7816164E-02  0.1184000E+00
        -11   -1    0    0    0    0  0.00000000000E+00  0.00000000000E+00  0.45593999997E+02  0.45594000000E+02  0.51100000000E-03 0.  1.
         11   -1    0    0    0    0 -0.00000000000E+00 -0.00000000000E+00 -0.45593999997E+02  0.45594000000E+02  0.51100000000E-03 0. -1.
         23    2    1    2    0    0 -0.88817841970E-15  0.35527136788E-14  0.00000000000E+00  0.91188000000E+02  0.91188000000E+02 0.  0.
    9900012    2    3    3    0    0  0.11279011332E+01 -0.24828277248E+02  0.27167329186E+02  0.54367091712E+02  0.40000017176E+02 0.  0.
         12    1    3    3    0    0 -0.11279011332E+01  0.24828277248E+02 -0.27167329186E+02  0.36820908288E+02  0.00000000000E+00 0. -1.
         11    1    4    4    0    0 -0.63248620313E+01 -0.17230056104E+02  0.29060579079E+02  0.34371441194E+02  0.51100000000E-03 0.  1.
        -11    1    4    4    0    0  0.68345286742E+01 -0.21791296708E+01  0.67011969717E+01  0.98165895012E+01  0.51100000000E-03 0. -1.
        -12    1    4    4    0    0  0.61823449028E+00 -0.54190914728E+01 -0.85944468649E+01  0.10179061017E+02  0.00000000000E+00 0.  1.
</event>
<event>
 8    1  0.1254059E-006  0.9118800E+02  0.7816164E-02  0.1184000E+00
        -11   -1    0    0    0    0  0.00000000000E+00  0.00000000000E+00  0.45593999997E+02  0.45594000000E+02  0.51100000000E-03 0.  1.
         11   -1    0    0    0    0 -0.00000000000E+00 -0.00000000000E+00 -0.45593999997E+02  0.45594000000E+02  0.51100000000E-03 0. -1.
         23    2    1    2    0    0  0.71054273576E-14 -0.17763568394E-14  0.00000000000E+00  0.91188000000E+02  0.91188000000E+02 0.  0.
    9900012    2    3    3    0    0  0.20826513404E+02 -0.15643775431E+02 -0.26025132160E+02  0.54367097319E+02  0.40000029958E+02 0.  0.
        -12    1    3    3    0    0 -0.20826513404E+02  0.15643775431E+02  0.26025132160E+02  0.36820902681E+02  0.00000000000E+00 0.  1.
         11    1    4    4    0    0  0.42642127279E+01 -0.11691317287E+02 -0.19518680902E+01  0.12596832912E+02  0.51100000000E-03 0. -1.
        -11    1    4    4    0    0 -0.13253721114E+01 -0.13641393912E+02 -0.82427595977E+01  0.15993352530E+02  0.51100000000E-03 0.  1.
         12    1    4    4    0    0  0.17887672788E+02  0.96889357685E+01 -0.15830504472E+02  0.25776911877E+02  0.00000000000E+00 0. -1.
</event>
<event>
 8    1  0.1254059E-006  0.9118800E+02  0.7816164E-02  0.1184000E+00
        -11   -1    0    0    0    0  0.00000000000E+00  0.00000000000E+00  0.45593999997E+02  0.45594000000E+02  0.51100000000E-03 0. -1.
         11   -1    0    0    0    0 -0.00000000000E+00 -0.00000000000E+00 -0.45593999997E+02  0.45594000000E+02  0.51100000000E-03 0.  1.
         23    2    1    2    0    0  0.00000000000E+00  0.17763568394E-14  0.00000000000E+00  0.91188000000E+02  0.91188000000E+02 0.  0.
    9900012    2    3    3    0    0  0.16605213949E+02 -0.99760608576E+01  0.31313340064E+02  0.54367079500E+02  0.39999989335E+02 0.  0.
        -12    1    3    3    0    0 -0.16605213949E+02  0.99760608576E+01 -0.31313340064E+02  0.36820920500E+02  0.00000000000E+00 0.  1.
         11    1    4    4    0    0  0.68396682110E+00 -0.12341973659E+02  0.15213094965E+02  0.19601795405E+02  0.51100000000E-03 0.  1.
        -11    1    4    4    0    0  0.82771557439E+01 -0.77295901475E+01  0.18677413825E+02  0.21842702638E+02  0.51100000000E-03 0. -1.
        -12    1    4    4    0    0  0.76440913838E+01  0.10095502949E+02 -0.25771687259E+01  0.12922581457E+02  0.00000000000E+00 0.  1.
</event>
<event>
 8    1  0.1254059E-006  0.9118800E+02  0.7816164E-02  0.1184000E+00
        -11   -1    0    0    0    0  0.00000000000E+00  0.00000000000E+00  0.45593999997E+02  0.45594000000E+02  0.51100000000E-03 0. -1.
         11   -1    0    0    0    0 -0.00000000000E+00 -0.00000000000E+00 -0.45593999997E+02  0.45594000000E+02  0.51100000000E-03 0.  1.
         23    2    1    2    0    0 -0.35527136788E-14  0.00000000000E+00  0.00000000000E+00  0.91188000000E+02  0.91188000000E+02 0.  0.
    9900012    2    3    3    0    0 -0.31571932855E+02 -0.17187139534E+02 -0.79747202923E+01  0.54367070173E+02  0.39999968074E+02 0.  0.
         12    1    3    3    0    0  0.31571932855E+02  0.17187139534E+02  0.79747202923E+01  0.36820929827E+02  0.00000000000E+00 0. -1.
         11    1    4    4    0    0 -0.29800528839E+02 -0.14063491474E+02 -0.14573039344E+02  0.36030914331E+02  0.51100000000E-03 0.  1.
        -11    1    4    4    0    0 -0.80514812834E+01 -0.53556724003E+01  0.11704158272E+01  0.97406083581E+01  0.51100000000E-03 0. -1.
         12    1    4    4    0    0  0.62800772672E+01  0.22320243399E+01  0.54279032249E+01  0.85955474843E+01  0.00000000000E+00 0. -1.
</event>
<event>
 8    1  0.1254059E-006  0.9118800E+02  0.7816164E-02  0.1184000E+00
        -11   -1    0    0    0    0  0.00000000000E+00  0.00000000000E+00  0.45593999997E+02  0.45594000000E+02  0.51100000000E-03 0.  1.
         11   -1    0    0    0    0 -0.00000000000E+00 -0.00000000000E+00 -0.45593999997E+02  0.45594000000E+02  0.51100000000E-03 0. -1.
         23    2    1    2    0    0  0.00000000000E+00 -0.88817841970E-15  0.00000000000E+00  0.91188000000E+02  0.91188000000E+02 0.  0.
    9900012    2    3    3    0    0 -0.28199862085E+02 -0.51300090115E+01  0.23113527735E+02  0.54367022576E+02  0.39999859567E+02 0.  0.
         12    1    3    3    0    0  0.28199862085E+02  0.51300090115E+01 -0.23113527735E+02  0.36820977424E+02  0.00000000000E+00 0. -1.
         11    1    4    4    0    0 -0.10728648707E+02 -0.34951645057E+01 -0.11144498935E+01  0.11338521809E+02  0.51100000000E-03 0. -1.
        -11    1    4    4    0    0 -0.20525567905E+02 -0.11812123799E+02  0.11142387019E+02  0.26172084274E+02  0.51100000000E-03 0.  1.
        -12    1    4    4    0    0  0.30543545268E+01  0.10177279293E+02  0.13085590610E+02  0.16856416493E+02  0.00000000000E+00 0.  1.
</event>
<event>
 8    1  0.1254059E-006  0.9118800E+02  0.7816164E-02  0.1184000E+00
        -11   -1    0    0    0    0  0.00000000000E+00  0.00000000000E+00  0.45593999997E+02  0.45594000000E+02  0.51100000000E-03 0.  1.
         11   -1    0    0    0    0 -0.00000000000E+00 -0.00000000000E+00 -0.45593999997E+02  0.45594000000E+02  0.51100000000E-03 0. -1.
         23    2    1    2    0    0 -0.88817841970E-15 -0.71054273576E-14  0.22204460493E-15  0.91188000000E+02  0.91188000000E+02 0.  0.
    9900012    2    3    3    0    0  0.59826187235E+01 -0.36282342001E+02 -0.18922167455E+01  0.54367074535E+02  0.39999978017E+02 0.  0.
        -12    1    3    3    0    0 -0.59826187235E+01  0.36282342001E+02  0.18922167455E+01  0.36820925465E+02  0.00000000000E+00 0.  1.
         11    1    4    4    0    0  0.10963709795E+02 -0.53040495702E+01 -0.44014662909E+01  0.12950242472E+02  0.51100000000E-03 0. -1.
        -11    1    4    4    0    0 -0.12815652787E+02 -0.11451785643E+02  0.89975629721E+01  0.19399497170E+02  0.51100000000E-03 0.  1.
         12    1    4    4    0    0  0.78345617159E+01 -0.19526506789E+02 -0.64883134266E+01  0.22017334893E+02  0.00000000000E+00 0. -1.
</event>
<event>
 8    1  0.1254059E-006  0.9118800E+02  0.7816164E-02  0.1184000E+00
        -11   -1    0    0    0    0  0.00000000000E+00  0.00000000000E+00  0.45593999997E+02  0.45594000000E+02  0.51100000000E-03 0.  1.
         11   -1    0    0    0    0 -0.00000000000E+00 -0.00000000000E+00 -0.45593999997E+02  0.45594000000E+02  0.51100000000E-03 0. -1.
         23    2    1    2    0    0  0.00000000000E+00  0.17763568394E-14  0.00000000000E+00  0.91188000000E+02  0.91188000000E+02 0.  0.
    9900012    2    3    3    0    0 -0.84452593680E+01  0.62148920654E+01  0.35296332924E+02  0.54367103663E+02  0.40000044420E+02 0.  0.
         12    1    3    3    0    0  0.84452593680E+01 -0.62148920654E+01 -0.35296332924E+02  0.36820896337E+02  0.00000000000E+00 0. -1.
         11    1    4    4    0    0 -0.88057736889E+01  0.96922035172E+01  0.12861952540E+02  0.18355115981E+02  0.51100000000E-03 0. -1.
        -11    1    4    4    0    0 -0.33799996201E+01 -0.15245363525E+02  0.10347388037E+02  0.18732697240E+02  0.51100000000E-03 0.  1.
        -12    1    4    4    0    0  0.37405139410E+01  0.11768052073E+02  0.12086992348E+02  0.17279290441E+02  0.00000000000E+00 0.  1.
</event>
<event>
 8    1  0.1254059E-006  0.9118800E+02  0.7816164E-02  0.1184000E+00
        -11   -1    0    0    0    0  0.00000000000E+00  0.00000000000E+00  0.45593999997E+02  0.45594000000E+02  0.51100000000E-03 0. -1.
         11   -1    0    0    0    0 -0.00000000000E+00 -0.00000000000E+00 -0.45593999997E+02  0.45594000000E+02  0.51100000000E-03 0.  1.
         23    2    1    2    0    0  0.35527136788E-14  0.00000000000E+00  0.17763568394E-14  0.91188000000E+02  0.91188000000E+02 0.  0.
    9900012    2    3    3    0    0 -0.29524872880E+02 -0.20406242372E+02  0.82245103453E+01  0.54367144270E+02  0.40000136991E+02 0.  0.
        -12    1    3    3    0    0  0.29524872880E+02  0.20406242372E+02 -0.82245103453E+01  0.36820855730E+02  0.00000000000E+00 0.  1.
         11    1    4    4    0    0  0.25420849564E+01 -0.76933296376E+01  0.13007153207E+02  0.15324345064E+02  0.51100000000E-03 0. -1.
        -11    1    4    4    0    0 -0.72364123279E+01 -0.78401168774E+01 -0.82704760606E+01  0.13499402600E+02  0.51100000000E-03 0.  1.
        -12    1    4    4    0    0 -0.24830545508E+02 -0.48727958568E+01  0.34878331987E+01  0.25543396605E+02  0.00000000000E+00 0.  1.
</event>
<event>
 8    1  0.1254059E-006  0.9118800E+02  0.7816164E-02  0.1184000E+00
        -11   -1    0    0    0    0  0.00000000000E+00  0.00000000000E+00  0.45593999997E+02  0.45594000000E+02  0.51100000000E-03 0. -1.
         11   -1    0    0    0    0 -0.00000000000E+00 -0.00000000000E+00 -0.45593999997E+02  0.45594000000E+02  0.51100000000E-03 0.  1.
         23    2    1    2    0    0  0.17763568394E-14  0.35527136788E-14  0.00000000000E+00  0.91188000000E+02  0.91188000000E+02 0.  0.
    9900012    2    3    3    0    0  0.13044814512E+02  0.23209580131E+02 -0.25434797235E+02  0.54367072447E+02  0.39999973257E+02 0.  0.
         12    1    3    3    0    0 -0.13044814512E+02 -0.23209580131E+02  0.25434797235E+02  0.36820927553E+02  0.00000000000E+00 0. -1.
         11    1    4    4    0    0 -0.49430534952E+01 -0.11482491298E+01  0.26067795511E+01  0.57050463460E+01  0.51100000000E-03 0. -1.
        -11    1    4    4    0    0  0.85946395254E+01  0.23315867504E+02 -0.30056684328E+02  0.38998740737E+02  0.51100000000E-03 0.  1.
        -12    1    4    4    0    0  0.93932284818E+01  0.10419617567E+01  0.20151075420E+01  0.96632853637E+01  0.00000000000E+00 0.  1.
</event>
<event>
 8    1  0.1254059E-006  0.9118800E+02  0.7816164E-02  0.1184000E+00
        -11   -1    0    0    0    0  0.00000000000E+00  0.00000000000E+00  0.45593999997E+02  0.45594000000E+02  0.51100000000E-03 0. -1.
         11   -1    0    0    0    0 -0.00000000000E+00 -0.00000000000E+00 -0.45593999997E+02  0.45594000000E+02  0.51100000000E-03 0.  1.
         23    2    1    2    0    0  0.00000000000E+00 -0.35527136788E-14  0.00000000000E+00  0.91188000000E+02  0.91188000000E+02 0.  0.
    9900012    2    3    3    0    0  0.83685654816E+01  0.28110857343E+02  0.22260421840E+02  0.54367087881E+02  0.40000008443E+02 0.  0.
         12    1    3    3    0    0 -0.83685654816E+01 -0.28110857343E+02 -0.22260421840E+02  0.36820912119E+02  0.00000000000E+00 0. -1.
         11    1    4    4    0    0  0.25276607982E+01 -0.38377070192E+01  0.86686461551E+01  0.98113449995E+01  0.51100000000E-03 0. -1.
        -11    1    4    4    0    0  0.57836716439E+00  0.31310753525E+02  0.19284077450E+02  0.36777349527E+02  0.51100000000E-03 0.  1.
        -12    1    4    4    0    0  0.52625375190E+01  0.63781083686E+00 -0.56923017648E+01  0.77783933549E+01  0.00000000000E+00 0.  1.
</event>
<event>
 8    1  0.1254059E-006  0.9118800E+02  0.7816164E-02  0.1184000E+00
        -11   -1    0    0    0    0  0.00000000000E+00  0.00000000000E+00  0.45593999997E+02  0.45594000000E+02  0.51100000000E-03 0. -1.
         11   -1    0    0    0    0 -0.00000000000E+00 -0.00000000000E+00 -0.45593999997E+02  0.45594000000E+02  0.51100000000E-03 0.  1.
         23    2    1    2    0    0  0.17763568394E-14  0.17763568394E-14 -0.71054273576E-14  0.91188000000E+02  0.91188000000E+02 0.  0.
    9900012    2    3    3    0    0  0.56954324494E+01  0.15971391559E+02 -0.32684213124E+02  0.54367067276E+02  0.39999961469E+02 0.  0.
         12    1    3    3    0    0 -0.56954324494E+01 -0.15971391559E+02  0.32684213124E+02  0.36820932724E+02  0.00000000000E+00 0. -1.
         11    1    4    4    0    0 -0.13403495205E+01  0.10210851518E+02 -0.94600244571E+01  0.13983922503E+02  0.51100000000E-03 0. -1.
        -11    1    4    4    0    0 -0.94393230607E+01  0.12123131459E+02 -0.11330888344E+02  0.19090839875E+02  0.51100000000E-03 0.  1.
         12    1    4    4    0    0  0.16475105031E+02 -0.63625914181E+01 -0.11893300323E+02  0.21292304899E+02  0.00000000000E+00 0. -1.
</event>
<event>
 8    1  0.1254059E-006  0.9118800E+02  0.7816164E-02  0.1184000E+00
        -11   -1    0    0    0    0  0.00000000000E+00  0.00000000000E+00  0.45593999997E+02  0.45594000000E+02  0.51100000000E-03 0.  1.
         11   -1    0    0    0    0 -0.00000000000E+00 -0.00000000000E+00 -0.45593999997E+02  0.45594000000E+02  0.51100000000E-03 0. -1.
         23    2    1    2    0    0  0.00000000000E+00  0.00000000000E+00 -0.88817841970E-15  0.91188000000E+02  0.91188000000E+02 0.  0.
    9900012    2    3    3    0    0 -0.10449579254E+02  0.34809549931E+02 -0.59060674673E+01  0.54367080593E+02  0.39999991829E+02 0.  0.
        -12    1    3    3    0    0  0.10449579254E+02 -0.34809549931E+02  0.59060674673E+01  0.36820919407E+02  0.00000000000E+00 0.  1.
         11    1    4    4    0    0 -0.63354584560E+01  0.28914168439E+02  0.97783099140E+01  0.31173426431E+02  0.51100000000E-03 0.  1.
        -11    1    4    4    0    0 -0.26162634938E+01 -0.24432852876E+01  0.16180088192E+01  0.39284132249E+01  0.51100000000E-03 0. -1.
        -12    1    4    4    0    0 -0.14978573040E+01  0.83386667798E+01 -0.17302386200E+02  0.19265240938E+02  0.00000000000E+00 0.  1.
</event>
<event>
 8    1  0.1254059E-006  0.9118800E+02  0.7816164E-02  0.1184000E+00
        -11   -1    0    0    0    0  0.00000000000E+00  0.00000000000E+00  0.45593999997E+02  0.45594000000E+02  0.51100000000E-03 0.  1.
         11   -1    0    0    0    0 -0.00000000000E+00 -0.00000000000E+00 -0.45593999997E+02  0.45594000000E+02  0.51100000000E-03 0. -1.
         23    2    1    2    0    0 -0.35527136788E-14 -0.66613381478E-15  0.71054273576E-14  0.91188000000E+02  0.91188000000E+02 0.  0.
    9900012    2    3    3    0    0  0.16346648561E+02  0.15737308148E+01 -0.32955868370E+02  0.54367098220E+02  0.40000032012E+02 0.  0.
        -12    1    3    3    0    0 -0.16346648561E+02 -0.15737308148E+01  0.32955868370E+02  0.36820901780E+02  0.00000000000E+00 0.  1.
         11    1    4    4    0    0 -0.11598806121E+01 -0.33071216430E+01  0.20455843918E+01  0.40579295658E+01  0.51100000000E-03 0. -1.
        -11    1    4    4    0    0  0.22617024852E+02 -0.29313582016E+01 -0.12634115248E+02  0.26071891808E+02  0.51100000000E-03 0.  1.
         12    1    4    4    0    0 -0.51104956794E+01  0.78122106594E+01 -0.22367337514E+02  0.24237276846E+02  0.00000000000E+00 0. -1.
</event>
<event>
 8    1  0.1254059E-006  0.9118800E+02  0.7816164E-02  0.1184000E+00
        -11   -1    0    0    0    0  0.00000000000E+00  0.00000000000E+00  0.45593999997E+02  0.45594000000E+02  0.51100000000E-03 0. -1.
         11   -1    0    0    0    0 -0.00000000000E+00 -0.00000000000E+00 -0.45593999997E+02  0.45594000000E+02  0.51100000000E-03 0.  1.
         23    2    1    2    0    0 -0.71054273576E-14  0.17763568394E-14  0.00000000000E+00  0.91188000000E+02  0.91188000000E+02 0.  0.
    9900012    2    3    3    0    0 -0.32065051183E+02  0.14298112786E+02  0.11098467784E+02  0.54367088499E+02  0.40000009852E+02 0.  0.
         12    1    3    3    0    0  0.32065051183E+02 -0.14298112786E+02 -0.11098467784E+02  0.36820911501E+02  0.00000000000E+00 0. -1.
         11    1    4    4    0    0 -0.26425083211E+02  0.16045588406E+02  0.12870831116E+02  0.33487374097E+02  0.51100000000E-03 0. -1.
        -11    1    4    4    0    0  0.19931283045E+00 -0.34327413298E+01 -0.10043466599E+02  0.10615774123E+02  0.51100000000E-03 0.  1.
         12    1    4    4    0    0 -0.58392808021E+01  0.16852657099E+01  0.82711032675E+01  0.10263940279E+02  0.00000000000E+00 0. -1.
</event>
<event>
 8    1  0.1254059E-006  0.9118800E+02  0.7816164E-02  0.1184000E+00
        -11   -1    0    0    0    0  0.00000000000E+00  0.00000000000E+00  0.45593999997E+02  0.45594000000E+02  0.51100000000E-03 0.  1.
         11   -1    0    0    0    0 -0.00000000000E+00 -0.00000000000E+00 -0.45593999997E+02  0.45594000000E+02  0.51100000000E-03 0. -1.
         23    2    1    2    0    0  0.00000000000E+00  0.35527136788E-14 -0.22204460493E-15  0.91188000000E+02  0.91188000000E+02 0.  0.
    9900012    2    3    3    0    0 -0.21347117757E+02 -0.29992624008E+02 -0.72651523234E+00  0.54367017452E+02  0.39999847884E+02 0.  0.
         12    1    3    3    0    0  0.21347117757E+02  0.29992624008E+02  0.72651523234E+00  0.36820982548E+02  0.00000000000E+00 0. -1.
         11    1    4    4    0    0 -0.22514571513E+02 -0.36691332475E+01 -0.24927521548E+01  0.22947380738E+02  0.51100000000E-03 0. -1.
        -11    1    4    4    0    0 -0.12622481799E+01 -0.27591977913E+01  0.65803478865E+01  0.72462004863E+01  0.51100000000E-03 0.  1.
         12    1    4    4    0    0  0.24297019353E+01 -0.23564292969E+02 -0.48141109641E+01  0.24173436227E+02  0.00000000000E+00 0. -1.
</event>
<event>
 8    1  0.1254059E-006  0.9118800E+02  0.7816164E-02  0.1184000E+00
        -11   -1    0    0    0    0  0.00000000000E+00  0.00000000000E+00  0.45593999997E+02  0.45594000000E+02  0.51100000000E-03 0. -1.
         11   -1    0    0    0    0 -0.00000000000E+00 -0.00000000000E+00 -0.45593999997E+02  0.45594000000E+02  0.51100000000E-03 0.  1.
         23    2    1    2    0    0  0.88817841970E-15  0.00000000000E+00  0.00000000000E+00  0.91188000000E+02  0.91188000000E+02 0.  0.
    9900012    2    3    3    0    0  0.22530646157E+01 -0.33803875800E+02  0.14422246851E+02  0.54367088503E+02  0.40000009860E+02 0.  0.
        -12    1    3    3    0    0 -0.22530646157E+01  0.33803875800E+02 -0.14422246851E+02  0.36820911497E+02  0.00000000000E+00 0.  1.
         11    1    4    4    0    0  0.89654962380E+01 -0.78889207002E+01  0.14755901592E+02  0.18982935091E+02  0.51100000000E-03 0. -1.
        -11    1    4    4    0    0 -0.13270055579E+01 -0.10226320746E+02  0.11166967809E+02  0.15199991778E+02  0.51100000000E-03 0.  1.
        -12    1    4    4    0    0 -0.53854260644E+01 -0.15688634354E+02 -0.11500622551E+02  0.20184161633E+02  0.00000000000E+00 0.  1.
</event>
<event>
 8    1  0.1254059E-006  0.9118800E+02  0.7816164E-02  0.1184000E+00
        -11   -1    0    0    0    0  0.00000000000E+00  0.00000000000E+00  0.45593999997E+02  0.45594000000E+02  0.51100000000E-03 0. -1.
         11   -1    0    0    0    0 -0.00000000000E+00 -0.00000000000E+00 -0.45593999997E+02  0.45594000000E+02  0.51100000000E-03 0.  1.
         23    2    1    2    0    0 -0.17763568394E-14  0.00000000000E+00  0.00000000000E+00  0.91188000000E+02  0.91188000000E+02 0.  0.
    9900012    2    3    3    0    0  0.92931686762E+01 -0.27624118668E+02  0.22501604604E+02  0.54367121059E+02  0.40000084078E+02 0.  0.
        -12    1    3    3    0    0 -0.92931686762E+01  0.27624118668E+02 -0.22501604604E+02  0.36820878941E+02  0.00000000000E+00 0.  1.
         11    1    4    4    0    0 -0.35197937519E+01 -0.26636930357E+02  0.16076713375E+02  0.31310952080E+02  0.51100000000E-03 0. -1.
        -11    1    4    4    0    0 -0.20808571247E+01  0.48542915012E+01  0.45071593264E+01  0.69432411601E+01  0.51100000000E-03 0.  1.
         12    1    4    4    0    0  0.14893819553E+02 -0.58414798118E+01  0.19177319022E+01  0.16112927819E+02  0.00000000000E+00 0. -1.
</event>
<event>
 8    1  0.1254059E-006  0.9118800E+02  0.7816164E-02  0.1184000E+00
        -11   -1    0    0    0    0  0.00000000000E+00  0.00000000000E+00  0.45593999997E+02  0.45594000000E+02  0.51100000000E-03 0.  1.
         11   -1    0    0    0    0 -0.00000000000E+00 -0.00000000000E+00 -0.45593999997E+02  0.45594000000E+02  0.51100000000E-03 0. -1.
         23    2    1    2    0    0  0.00000000000E+00  0.00000000000E+00 -0.44408920985E-15  0.91188000000E+02  0.91188000000E+02 0.  0.
    9900012    2    3    3    0    0  0.26284037016E+02 -0.25688569266E+02  0.22419457007E+01  0.54367088640E+02  0.40000010173E+02 0.  0.
        -12    1    3    3    0    0 -0.26284037016E+02  0.25688569266E+02 -0.22419457007E+01  0.36820911360E+02  0.00000000000E+00 0.  1.
         11    1    4    4    0    0  0.21287317743E+02 -0.96938259519E+01  0.15836877301E+01  0.23444151197E+02  0.51100000000E-03 0. -1.
        -11    1    4    4    0    0 -0.59807787847E+01 -0.91916614927E+01  0.10112935280E+02  0.14917366259E+02  0.51100000000E-03 0.  1.
         12    1    4    4    0    0  0.10977498058E+02 -0.68030818217E+01 -0.94546773097E+01  0.16005571184E+02  0.00000000000E+00 0. -1.
</event>
<event>
 8    1  0.1254059E-006  0.9118800E+02  0.7816164E-02  0.1184000E+00
        -11   -1    0    0    0    0  0.00000000000E+00  0.00000000000E+00  0.45593999997E+02  0.45594000000E+02  0.51100000000E-03 0.  1.
         11   -1    0    0    0    0 -0.00000000000E+00 -0.00000000000E+00 -0.45593999997E+02  0.45594000000E+02  0.51100000000E-03 0. -1.
         23    2    1    2    0    0 -0.71054273576E-14  0.00000000000E+00  0.35527136788E-14  0.91188000000E+02  0.91188000000E+02 0.  0.
    9900012    2    3    3    0    0  0.18014409291E+02 -0.12485813211E+02 -0.29586556148E+02  0.54367098621E+02  0.40000032927E+02 0.  0.
        -12    1    3    3    0    0 -0.18014409291E+02  0.12485813211E+02  0.29586556148E+02  0.36820901379E+02  0.00000000000E+00 0.  1.
         11    1    4    4    0    0 -0.73942337778E+01 -0.68450523444E+01 -0.18508777116E+02  0.21073781468E+02  0.51100000000E-03 0.  1.
        -11    1    4    4    0    0  0.94737322301E+01 -0.10188916721E+02 -0.11141776384E+01  0.13957328483E+02  0.51100000000E-03 0. -1.
         12    1    4    4    0    0  0.15934910838E+02  0.45481558548E+01 -0.99636013935E+01  0.19335988670E+02  0.00000000000E+00 0. -1.
</event>
<event>
 8    1  0.1254059E-006  0.9118800E+02  0.7816164E-02  0.1184000E+00
        -11   -1    0    0    0    0  0.00000000000E+00  0.00000000000E+00  0.45593999997E+02  0.45594000000E+02  0.51100000000E-03 0.  1.
         11   -1    0    0    0    0 -0.00000000000E+00 -0.00000000000E+00 -0.45593999997E+02  0.45594000000E+02  0.51100000000E-03 0. -1.
         23    2    1    2    0    0  0.00000000000E+00  0.00000000000E+00  0.00000000000E+00  0.91188000000E+02  0.91188000000E+02 0.  0.
    9900012    2    3    3    0    0 -0.24220676445E+01  0.16871620313E+02  0.32638368466E+02  0.54367067370E+02  0.39999961683E+02 0.  0.
         12    1    3    3    0    0  0.24220676445E+01 -0.16871620313E+02 -0.32638368466E+02  0.36820932630E+02  0.00000000000E+00 0. -1.
         11    1    4    4    0    0  0.76385791569E+01  0.78877158479E+01  0.52431127195E+01  0.12167751809E+02  0.51100000000E-03 0. -1.
        -11    1    4    4    0    0 -0.12433511351E+02 -0.40477703750E+01  0.25713292177E+02  0.28847011013E+02  0.51100000000E-03 0.  1.
        -12    1    4    4    0    0  0.23728645498E+01  0.13031674840E+02  0.16819635694E+01  0.13352304548E+02  0.00000000000E+00 0.  1.
</event>
<event>
 8    1  0.1254059E-006  0.9118800E+02  0.7816164E-02  0.1184000E+00
        -11   -1    0    0    0    0  0.00000000000E+00  0.00000000000E+00  0.45593999997E+02  0.45594000000E+02  0.51100000000E-03 0.  1.
         11   -1    0    0    0    0 -0.00000000000E+00 -0.00000000000E+00 -0.45593999997E+02  0.45594000000E+02  0.51100000000E-03 0. -1.
         23    2    1    2    0    0  0.35527136788E-14 -0.17763568394E-14 -0.35527136788E-14  0.91188000000E+02  0.91188000000E+02 0.  0.
    9900012    2    3    3    0    0  0.21270066886E+02 -0.85805158961E+01  0.28805179362E+02  0.54367090771E+02  0.40000015031E+02 0.  0.
         12    1    3    3    0    0 -0.21270066886E+02  0.85805158961E+01 -0.28805179362E+02  0.36820909229E+02  0.00000000000E+00 0. -1.
         11    1    4    4    0    0  0.20512851217E+01 -0.47277060376E+01 -0.94355635593E+01  0.10751224813E+02  0.51100000000E-03 0. -1.
        -11    1    4    4    0    0  0.82996867946E+01  0.18345208670E+01  0.12993396069E+02  0.15526706327E+02  0.51100000000E-03 0.  1.
         12    1    4    4    0    0  0.10919094970E+02 -0.56873307255E+01  0.25247346852E+02  0.28089159632E+02  0.00000000000E+00 0. -1.
</event>
<event>
 8    1  0.1254059E-006  0.9118800E+02  0.7816164E-02  0.1184000E+00
        -11   -1    0    0    0    0  0.00000000000E+00  0.00000000000E+00  0.45593999997E+02  0.45594000000E+02  0.51100000000E-03 0. -1.
         11   -1    0    0    0    0 -0.00000000000E+00 -0.00000000000E+00 -0.45593999997E+02  0.45594000000E+02  0.51100000000E-03 0.  1.
         23    2    1    2    0    0 -0.33306690739E-15  0.71054273576E-14  0.88817841970E-15  0.91188000000E+02  0.91188000000E+02 0.  0.
    9900012    2    3    3    0    0  0.66972919411E+00 -0.36246568152E+02  0.64434052128E+01  0.54367085960E+02  0.40000004064E+02 0.  0.
         12    1    3    3    0    0 -0.66972919411E+00  0.36246568152E+02 -0.64434052128E+01  0.36820914040E+02  0.00000000000E+00 0. -1.
         11    1    4    4    0    0  0.92319730735E+01 -0.72653181118E+01  0.44063822454E+01  0.12547126318E+02  0.51100000000E-03 0. -1.
        -11    1    4    4    0    0 -0.67412163553E+01  0.29485205547E+01 -0.52248180232E+01  0.90242171431E+01  0.51100000000E-03 0.  1.
        -12    1    4    4    0    0 -0.18210275241E+01 -0.31929770595E+02  0.72618409906E+01  0.32795742499E+02  0.00000000000E+00 0.  1.
</event>
<event>
 8    1  0.1254059E-006  0.9118800E+02  0.7816164E-02  0.1184000E+00
        -11   -1    0    0    0    0  0.00000000000E+00  0.00000000000E+00  0.45593999997E+02  0.45594000000E+02  0.51100000000E-03 0. -1.
         11   -1    0    0    0    0 -0.00000000000E+00 -0.00000000000E+00 -0.45593999997E+02  0.45594000000E+02  0.51100000000E-03 0.  1.
         23    2    1    2    0    0 -0.35527136788E-14  0.00000000000E+00 -0.35527136788E-14  0.91188000000E+02  0.91188000000E+02 0.  0.
    9900012    2    3    3    0    0 -0.14928237446E+02  0.16772776023E+02 -0.29182210972E+02  0.54367085753E+02  0.40000003592E+02 0.  0.
         12    1    3    3    0    0  0.14928237446E+02 -0.16772776023E+02  0.29182210972E+02  0.36820914247E+02  0.00000000000E+00 0. -1.
         11    1    4    4    0    0  0.21662766170E+01  0.42848332331E+01  0.43612452349E+01  0.64863711332E+01  0.51100000000E-03 0. -1.
        -11    1    4    4    0    0 -0.16498339413E+02  0.28135946537E+01 -0.45996550570E+01  0.17357083430E+02  0.51100000000E-03 0.  1.
        -12    1    4    4    0    0 -0.59617464949E+00  0.96743481361E+01 -0.28943801150E+02  0.30523631191E+02  0.00000000000E+00 0.  1.
</event>
<event>
 8    1  0.1254059E-006  0.9118800E+02  0.7816164E-02  0.1184000E+00
        -11   -1    0    0    0    0  0.00000000000E+00  0.00000000000E+00  0.45593999997E+02  0.45594000000E+02  0.51100000000E-03 0.  1.
         11   -1    0    0    0    0 -0.00000000000E+00 -0.00000000000E+00 -0.45593999997E+02  0.45594000000E+02  0.51100000000E-03 0. -1.
         23    2    1    2    0    0  0.00000000000E+00  0.00000000000E+00  0.00000000000E+00  0.91188000000E+02  0.91188000000E+02 0.  0.
    9900012    2    3    3    0    0  0.28348369593E+02 -0.16776239329E+02 -0.16453182714E+02  0.54367089012E+02  0.40000011020E+02 0.  0.
        -12    1    3    3    0    0 -0.28348369593E+02  0.16776239329E+02  0.16453182714E+02  0.36820910988E+02  0.00000000000E+00 0.  1.
         11    1    4    4    0    0 -0.20980241052E+01 -0.17438252258E+02  0.52318878312E+00  0.17571797681E+02  0.51100000000E-03 0.  1.
        -11    1    4    4    0    0  0.10304616233E+02  0.58319791919E+01 -0.57268826329E+01  0.13152729069E+02  0.51100000000E-03 0. -1.
         12    1    4    4    0    0  0.20141777465E+02 -0.51699662622E+01 -0.11249488864E+02  0.23642562262E+02  0.00000000000E+00 0. -1.
</event>
<event>
 8    1  0.1254059E-006  0.9118800E+02  0.7816164E-02  0.1184000E+00
        -11   -1    0    0    0    0  0.00000000000E+00  0.00000000000E+00  0.45593999997E+02  0.45594000000E+02  0.51100000000E-03 0. -1.
         11   -1    0    0    0    0 -0.00000000000E+00 -0.00000000000E+00 -0.45593999997E+02  0.45594000000E+02  0.51100000000E-03 0.  1.
         23    2    1    2    0    0  0.88817841970E-15  0.22204460493E-15  0.00000000000E+00  0.91188000000E+02  0.91188000000E+02 0.  0.
    9900012    2    3    3    0    0  0.57636628706E+01 -0.10923364169E+01 -0.36350616642E+02  0.54367077431E+02  0.39999984620E+02 0.  0.
         12    1    3    3    0    0 -0.57636628706E+01  0.10923364169E+01  0.36350616642E+02  0.36820922569E+02  0.00000000000E+00 0. -1.
         11    1    4    4    0    0 -0.76696863061E+01 -0.10100936028E+02 -0.31778157162E+01  0.13074842625E+02  0.51100000000E-03 0. -1.
        -11    1    4    4    0    0  0.49408384287E+01 -0.37422992815E+01 -0.19237946459E+01  0.64898131246E+01  0.51100000000E-03 0.  1.
        -12    1    4    4    0    0  0.84925107480E+01  0.12750898893E+02 -0.31249006280E+02  0.34802421681E+02  0.00000000000E+00 0.  1.
</event>
<event>
 8    1  0.1254059E-006  0.9118800E+02  0.7816164E-02  0.1184000E+00
        -11   -1    0    0    0    0  0.00000000000E+00  0.00000000000E+00  0.45593999997E+02  0.45594000000E+02  0.51100000000E-03 0.  1.
         11   -1    0    0    0    0 -0.00000000000E+00 -0.00000000000E+00 -0.45593999997E+02  0.45594000000E+02  0.51100000000E-03 0. -1.
         23    2    1    2    0    0  0.88817841970E-15  0.00000000000E+00  0.00000000000E+00  0.91188000000E+02  0.91188000000E+02 0.  0.
    9900012    2    3    3    0    0 -0.75195220318E+01 -0.22992454051E+02 -0.27759375210E+02  0.54367094703E+02  0.40000023994E+02 0.  0.
        -12    1    3    3    0    0  0.75195220318E+01  0.22992454051E+02  0.27759375210E+02  0.36820905297E+02  0.00000000000E+00 0.  1.
         11    1    4    4    0    0  0.43496573257E+01 -0.15702810149E+02 -0.16772487856E+02  0.23384056846E+02  0.51100000000E-03 0. -1.
        -11    1    4    4    0    0  0.72664964225E+01 -0.12451239262E+01 -0.76779884402E+01  0.10644426269E+02  0.51100000000E-03 0.  1.
         12    1    4    4    0    0 -0.19135675780E+02 -0.60445199756E+01 -0.33088989138E+01  0.20338611588E+02  0.00000000000E+00 0. -1.
</event>
<event>
 8    1  0.1254059E-006  0.9118800E+02  0.7816164E-02  0.1184000E+00
        -11   -1    0    0    0    0  0.00000000000E+00  0.00000000000E+00  0.45593999997E+02  0.45594000000E+02  0.51100000000E-03 0. -1.
         11   -1    0    0    0    0 -0.00000000000E+00 -0.00000000000E+00 -0.45593999997E+02  0.45594000000E+02  0.51100000000E-03 0.  1.
         23    2    1    2    0    0 -0.71054273576E-14  0.35527136788E-14 -0.17763568394E-14  0.91188000000E+02  0.91188000000E+02 0.  0.
    9900012    2    3    3    0    0 -0.18736541301E+02  0.29553286078E+02 -0.11459723226E+02  0.54367082652E+02  0.39999996521E+02 0.  0.
         12    1    3    3    0    0  0.18736541301E+02 -0.29553286078E+02  0.11459723226E+02  0.36820917348E+02  0.00000000000E+00 0. -1.
         11    1    4    4    0    0  0.13787997505E+01  0.14757848828E+02  0.25195146369E+01  0.15034731292E+02  0.51100000000E-03 0. -1.
        -11    1    4    4    0    0  0.30177187513E+01  0.37090730810E+01  0.53777373056E+01  0.71961036938E+01  0.51100000000E-03 0.  1.
        -12    1    4    4    0    0 -0.23133059803E+02  0.11086364170E+02 -0.19356975169E+02  0.32136247666E+02  0.00000000000E+00 0.  1.
</event>
<event>
 8    1  0.1254059E-006  0.9118800E+02  0.7816164E-02  0.1184000E+00
        -11   -1    0    0    0    0  0.00000000000E+00  0.00000000000E+00  0.45593999997E+02  0.45594000000E+02  0.51100000000E-03 0.  1.
         11   -1    0    0    0    0 -0.00000000000E+00 -0.00000000000E+00 -0.45593999997E+02  0.45594000000E+02  0.51100000000E-03 0. -1.
         23    2    1    2    0    0  0.00000000000E+00  0.35527136788E-14  0.00000000000E+00  0.91188000000E+02  0.91188000000E+02 0.  0.
    9900012    2    3    3    0    0 -0.17934444035E+02  0.30896164539E+02  0.89198342652E+01  0.54367072399E+02  0.39999973147E+02 0.  0.
         12    1    3    3    0    0  0.17934444035E+02 -0.30896164539E+02 -0.89198342652E+01  0.36820927601E+02  0.00000000000E+00 0. -1.
         11    1    4    4    0    0 -0.21018538798E+02  0.22937246618E+02  0.35027070531E+01  0.31307590335E+02  0.51100000000E-03 0. -1.
        -11    1    4    4    0    0  0.11597032230E+02  0.75793130084E+01  0.40090016023E+01  0.14422525310E+02  0.51100000000E-03 0.  1.
         12    1    4    4    0    0 -0.85129374679E+01  0.37960491261E+00  0.14081256098E+01  0.86369567531E+01  0.00000000000E+00 0. -1.
</event>
<event>
 8    1  0.1254059E-006  0.9118800E+02  0.7816164E-02  0.1184000E+00
        -11   -1    0    0    0    0  0.00000000000E+00  0.00000000000E+00  0.45593999997E+02  0.45594000000E+02  0.51100000000E-03 0.  1.
         11   -1    0    0    0    0 -0.00000000000E+00 -0.00000000000E+00 -0.45593999997E+02  0.45594000000E+02  0.51100000000E-03 0. -1.
         23    2    1    2    0    0  0.00000000000E+00  0.17902346272E-14 -0.17763568394E-14  0.91188000000E+02  0.91188000000E+02 0.  0.
    9900012    2    3    3    0    0  0.35473003266E+02 -0.12031301644E+00 -0.98707368755E+01  0.54367083629E+02  0.39999998748E+02 0.  0.
         12    1    3    3    0    0 -0.35473003266E+02  0.12031301644E+00  0.98707368755E+01  0.36820916371E+02  0.00000000000E+00 0. -1.
         11    1    4    4    0    0  0.45532999695E+00  0.45093319830E+01  0.16296587764E+01  0.48163459518E+01  0.51100000000E-03 0. -1.
        -11    1    4    4    0    0  0.36093367529E+02 -0.11415374390E+02 -0.16252539498E+02  0.41196929406E+02  0.51100000000E-03 0.  1.
        -12    1    4    4    0    0 -0.10756942599E+01  0.67857293903E+01  0.47521438459E+01  0.83538082711E+01  0.00000000000E+00 0.  1.
</event>
<event>
 8    1  0.1254059E-006  0.9118800E+02  0.7816164E-02  0.1184000E+00
        -11   -1    0    0    0    0  0.00000000000E+00  0.00000000000E+00  0.45593999997E+02  0.45594000000E+02  0.51100000000E-03 0. -1.
         11   -1    0    0    0    0 -0.00000000000E+00 -0.00000000000E+00 -0.45593999997E+02  0.45594000000E+02  0.51100000000E-03 0.  1.
         23    2    1    2    0    0 -0.35527136788E-14  0.44408920985E-15 -0.35527136788E-14  0.91188000000E+02  0.91188000000E+02 0.  0.
    9900012    2    3    3    0    0  0.26188749961E+02 -0.26097030343E+01 -0.25751335919E+02  0.54366912617E+02  0.39999608891E+02 0.  0.
         12    1    3    3    0    0 -0.26188749961E+02  0.26097030343E+01  0.25751335919E+02  0.36821087383E+02  0.00000000000E+00 0. -1.
         11    1    4    4    0    0  0.42845717987E+01  0.91361911271E+01  0.47251772158E+01  0.11142479248E+02  0.51100000000E-03 0. -1.
        -11    1    4    4    0    0  0.28229658933E+01 -0.13463877463E+01 -0.17786529024E+02  0.18059416142E+02  0.51100000000E-03 0.  1.
         12    1    4    4    0    0  0.19081212269E+02 -0.10399506415E+02 -0.12689984111E+02  0.25165017228E+02  0.00000000000E+00 0. -1.
</event>
<event>
 8    1  0.1254059E-006  0.9118800E+02  0.7816164E-02  0.1184000E+00
        -11   -1    0    0    0    0  0.00000000000E+00  0.00000000000E+00  0.45593999997E+02  0.45594000000E+02  0.51100000000E-03 0.  1.
         11   -1    0    0    0    0 -0.00000000000E+00 -0.00000000000E+00 -0.45593999997E+02  0.45594000000E+02  0.51100000000E-03 0. -1.
         23    2    1    2    0    0  0.00000000000E+00 -0.13322676296E-14 -0.88817841970E-15  0.91188000000E+02  0.91188000000E+02 0.  0.
    9900012    2    3    3    0    0 -0.36640707103E+02  0.35118860414E+01  0.95167941400E+00  0.54367075863E+02  0.39999981046E+02 0.  0.
         12    1    3    3    0    0  0.36640707103E+02 -0.35118860414E+01 -0.95167941400E+00  0.36820924137E+02  0.00000000000E+00 0. -1.
         11    1    4    4    0    0 -0.11323280364E+01 -0.73346714322E+01 -0.58592067195E+01  0.94556795337E+01  0.51100000000E-03 0. -1.
        -11    1    4    4    0    0 -0.18129411712E+02  0.20653898170E+01 -0.85114082357E+01  0.20134186712E+02  0.51100000000E-03 0.  1.
        -12    1    4    4    0    0 -0.17378967354E+02  0.87811676566E+01  0.15322294369E+02  0.24777209618E+02  0.00000000000E+00 0.  1.
</event>
<event>
 8    1  0.1254059E-006  0.9118800E+02  0.7816164E-02  0.1184000E+00
        -11   -1    0    0    0    0  0.00000000000E+00  0.00000000000E+00  0.45593999997E+02  0.45594000000E+02  0.51100000000E-03 0. -1.
         11   -1    0    0    0    0 -0.00000000000E+00 -0.00000000000E+00 -0.45593999997E+02  0.45594000000E+02  0.51100000000E-03 0.  1.
         23    2    1    2    0    0 -0.35527136788E-14 -0.88817841970E-15  0.00000000000E+00  0.91188000000E+02  0.91188000000E+02 0.  0.
    9900012    2    3    3    0    0  0.27587070745E+02  0.25494597508E+01  0.24253508342E+02  0.54367097184E+02  0.40000029651E+02 0.  0.
        -12    1    3    3    0    0 -0.27587070745E+02 -0.25494597508E+01 -0.24253508342E+02  0.36820902816E+02  0.00000000000E+00 0.  1.
         11    1    4    4    0    0  0.96667909700E+01  0.10734006517E+02  0.16774232682E+02  0.22136861248E+02  0.51100000000E-03 0. -1.
        -11    1    4    4    0    0  0.50505867008E+00  0.56151972941E+01  0.82553450726E+01  0.99968118638E+01  0.51100000000E-03 0.  1.
        -12    1    4    4    0    0  0.17415221105E+02 -0.13799744060E+02 -0.77606941311E+00  0.22233424073E+02  0.00000000000E+00 0.  1.
</event>
<event>
 8    1  0.1254059E-006  0.9118800E+02  0.7816164E-02  0.1184000E+00
        -11   -1    0    0    0    0  0.00000000000E+00  0.00000000000E+00  0.45593999997E+02  0.45594000000E+02  0.51100000000E-03 0.  1.
         11   -1    0    0    0    0 -0.00000000000E+00 -0.00000000000E+00 -0.45593999997E+02  0.45594000000E+02  0.51100000000E-03 0. -1.
         23    2    1    2    0    0  0.00000000000E+00  0.35527136788E-14  0.00000000000E+00  0.91188000000E+02  0.91188000000E+02 0.  0.
    9900012    2    3    3    0    0  0.31906349887E+02 -0.18292692279E+02  0.17677030782E+01  0.54367319288E+02  0.40000535977E+02 0.  0.
         12    1    3    3    0    0 -0.31906349887E+02  0.18292692279E+02 -0.17677030782E+01  0.36820680712E+02  0.00000000000E+00 0. -1.
         11    1    4    4    0    0 -0.45339392423E+01  0.47179468265E+01 -0.61772978356E+01  0.89985907854E+01  0.51100000000E-03 0.  1.
        -11    1    4    4    0    0  0.46528087426E+01 -0.10083014220E+01 -0.24247924803E+01  0.53427445930E+01  0.51100000000E-03 0. -1.
        -12    1    4    4    0    0  0.31787480387E+02 -0.22002337684E+02  0.10369793394E+02  0.40025983909E+02  0.00000000000E+00 0.  1.
</event>
<event>
 8    1  0.1254059E-006  0.9118800E+02  0.7816164E-02  0.1184000E+00
        -11   -1    0    0    0    0  0.00000000000E+00  0.00000000000E+00  0.45593999997E+02  0.45594000000E+02  0.51100000000E-03 0. -1.
         11   -1    0    0    0    0 -0.00000000000E+00 -0.00000000000E+00 -0.45593999997E+02  0.45594000000E+02  0.51100000000E-03 0.  1.
         23    2    1    2    0    0 -0.17763568394E-14  0.00000000000E+00  0.00000000000E+00  0.91188000000E+02  0.91188000000E+02 0.  0.
    9900012    2    3    3    0    0 -0.68115416895E+01 -0.27910312277E+02 -0.23030357543E+02  0.54367082030E+02  0.39999995104E+02 0.  0.
         12    1    3    3    0    0  0.68115416895E+01  0.27910312277E+02  0.23030357543E+02  0.36820917970E+02  0.00000000000E+00 0. -1.
         11    1    4    4    0    0  0.88194927656E+01 -0.46754744487E+00 -0.73804218177E+01  0.11509677655E+02  0.51100000000E-03 0. -1.
        -11    1    4    4    0    0 -0.44728284085E+01 -0.15697291009E+02 -0.20256851625E+02  0.26014441701E+02  0.51100000000E-03 0.  1.
         12    1    4    4    0    0 -0.11158206047E+02 -0.11745473824E+02  0.46069159000E+01  0.16842962674E+02  0.00000000000E+00 0. -1.
</event>
<event>
 8    1  0.1254059E-006  0.9118800E+02  0.7816164E-02  0.1184000E+00
        -11   -1    0    0    0    0  0.00000000000E+00  0.00000000000E+00  0.45593999997E+02  0.45594000000E+02  0.51100000000E-03 0.  1.
         11   -1    0    0    0    0 -0.00000000000E+00 -0.00000000000E+00 -0.45593999997E+02  0.45594000000E+02  0.51100000000E-03 0. -1.
         23    2    1    2    0    0 -0.13877787808E-15 -0.88817841970E-15  0.00000000000E+00  0.91188000000E+02  0.91188000000E+02 0.  0.
    9900012    2    3    3    0    0 -0.15519057286E+00  0.73136946793E+01 -0.36086919812E+02  0.54367082093E+02  0.39999995247E+02 0.  0.
        -12    1    3    3    0    0  0.15519057286E+00 -0.73136946793E+01  0.36086919812E+02  0.36820917907E+02  0.00000000000E+00 0.  1.
         11    1    4    4    0    0  0.10643467229E+02 -0.10846075281E+02 -0.83425187075E+01  0.17335465448E+02  0.51100000000E-03 0. -1.
        -11    1    4    4    0    0 -0.71105246423E+01  0.15503372905E+02 -0.12560642379E+02  0.21182159223E+02  0.51100000000E-03 0.  1.
         12    1    4    4    0    0 -0.36881331598E+01  0.26563970553E+01 -0.15183758726E+02  0.15849457422E+02  0.00000000000E+00 0. -1.
</event>
<event>
 8    1  0.1254059E-006  0.9118800E+02  0.7816164E-02  0.1184000E+00
        -11   -1    0    0    0    0  0.00000000000E+00  0.00000000000E+00  0.45593999997E+02  0.45594000000E+02  0.51100000000E-03 0.  1.
         11   -1    0    0    0    0 -0.00000000000E+00 -0.00000000000E+00 -0.45593999997E+02  0.45594000000E+02  0.51100000000E-03 0. -1.
         23    2    1    2    0    0  0.00000000000E+00  0.00000000000E+00  0.17763568394E-14  0.91188000000E+02  0.91188000000E+02 0.  0.
    9900012    2    3    3    0    0  0.26732256755E+02 -0.20357841025E+02 -0.15057367143E+02  0.54367088174E+02  0.40000009111E+02 0.  0.
        -12    1    3    3    0    0 -0.26732256755E+02  0.20357841025E+02  0.15057367143E+02  0.36820911826E+02  0.00000000000E+00 0.  1.
         11    1    4    4    0    0 -0.45259311452E+01  0.77830893682E+01 -0.29518811072E+00  0.90082001047E+01  0.51100000000E-03 0. -1.
        -11    1    4    4    0    0  0.47644350248E+01 -0.77731108348E+01 -0.83635557831E+00  0.91553582164E+01  0.51100000000E-03 0.  1.
         12    1    4    4    0    0  0.26493752875E+02 -0.20367819559E+02 -0.13925823454E+02  0.36203529853E+02  0.00000000000E+00 0. -1.
</event>
<event>
 8    1  0.1254059E-006  0.9118800E+02  0.7816164E-02  0.1184000E+00
        -11   -1    0    0    0    0  0.00000000000E+00  0.00000000000E+00  0.45593999997E+02  0.45594000000E+02  0.51100000000E-03 0. -1.
         11   -1    0    0    0    0 -0.00000000000E+00 -0.00000000000E+00 -0.45593999997E+02  0.45594000000E+02  0.51100000000E-03 0.  1.
         23    2    1    2    0    0  0.35527136788E-14  0.00000000000E+00  0.00000000000E+00  0.91188000000E+02  0.91188000000E+02 0.  0.
    9900012    2    3    3    0    0  0.18964874778E+02 -0.28613503556E+02 -0.13318483699E+02  0.54367067514E+02  0.39999962012E+02 0.  0.
         12    1    3    3    0    0 -0.18964874778E+02  0.28613503556E+02  0.13318483699E+02  0.36820932486E+02  0.00000000000E+00 0. -1.
         11    1    4    4    0    0  0.16633614328E+02 -0.36478984108E+01  0.79148329672E+00  0.17047308717E+02  0.51100000000E-03 0. -1.
        -11    1    4    4    0    0 -0.57823650910E+01 -0.99960622520E+01  0.42262393670E+01  0.12297077134E+02  0.51100000000E-03 0.  1.
        -12    1    4    4    0    0  0.81136255408E+01 -0.14969542893E+02 -0.18336206362E+02  0.25022681663E+02  0.00000000000E+00 0.  1.
</event>
<event>
 8    1  0.1254059E-006  0.9118800E+02  0.7816164E-02  0.1184000E+00
        -11   -1    0    0    0    0  0.00000000000E+00  0.00000000000E+00  0.45593999997E+02  0.45594000000E+02  0.51100000000E-03 0. -1.
         11   -1    0    0    0    0 -0.00000000000E+00 -0.00000000000E+00 -0.45593999997E+02  0.45594000000E+02  0.51100000000E-03 0.  1.
         23    2    1    2    0    0  0.00000000000E+00  0.17763568394E-14 -0.71054273576E-14  0.91188000000E+02  0.91188000000E+02 0.  0.
    9900012    2    3    3    0    0  0.39922774235E+00  0.49431196148E+01 -0.36485409703E+02  0.54367096487E+02  0.40000028061E+02 0.  0.
         12    1    3    3    0    0 -0.39922774235E+00 -0.49431196148E+01  0.36485409703E+02  0.36820903513E+02  0.00000000000E+00 0. -1.
         11    1    4    4    0    0  0.45334897157E+00  0.17665913599E+02 -0.99343069151E+01  0.20272653569E+02  0.51100000000E-03 0. -1.
        -11    1    4    4    0    0  0.11208779132E+01  0.18599368376E+01  0.13735345542E+01  0.25694999064E+01  0.51100000000E-03 0.  1.
        -12    1    4    4    0    0 -0.11749991424E+01 -0.14582730822E+02 -0.27924637342E+02  0.31524943012E+02  0.00000000000E+00 0.  1.
</event>
<event>
 8    1  0.1254059E-006  0.9118800E+02  0.7816164E-02  0.1184000E+00
        -11   -1    0    0    0    0  0.00000000000E+00  0.00000000000E+00  0.45593999997E+02  0.45594000000E+02  0.51100000000E-03 0.  1.
         11   -1    0    0    0    0 -0.00000000000E+00 -0.00000000000E+00 -0.45593999997E+02  0.45594000000E+02  0.51100000000E-03 0. -1.
         23    2    1    2    0    0 -0.35527136788E-14 -0.71054273576E-14  0.00000000000E+00  0.91188000000E+02  0.91188000000E+02 0.  0.
    9900012    2    3    3    0    0  0.22644237665E+02  0.27533100304E+02  0.92166532718E+01  0.54367084621E+02  0.40000001011E+02 0.  0.
         12    1    3    3    0    0 -0.22644237665E+02 -0.27533100304E+02 -0.92166532718E+01  0.36820915379E+02  0.00000000000E+00 0. -1.
         11    1    4    4    0    0  0.18565194234E+02  0.10157945035E+02  0.23831926482E+01  0.21296241259E+02  0.51100000000E-03 0. -1.
        -11    1    4    4    0    0  0.12770904423E+02  0.16467183891E+02 -0.16332792757E+01  0.20902912394E+02  0.51100000000E-03 0.  1.
         12    1    4    4    0    0 -0.86918609923E+01  0.90797137769E+00  0.84667398993E+01  0.12167930968E+02  0.00000000000E+00 0. -1.
</event>
<event>
 8    1  0.1254059E-006  0.9118800E+02  0.7816164E-02  0.1184000E+00
        -11   -1    0    0    0    0  0.00000000000E+00  0.00000000000E+00  0.45593999997E+02  0.45594000000E+02  0.51100000000E-03 0.  1.
         11   -1    0    0    0    0 -0.00000000000E+00 -0.00000000000E+00 -0.45593999997E+02  0.45594000000E+02  0.51100000000E-03 0. -1.
         23    2    1    2    0    0  0.00000000000E+00  0.00000000000E+00 -0.35527136788E-14  0.91188000000E+02  0.91188000000E+02 0.  0.
    9900012    2    3    3    0    0  0.54912234941E+01  0.30889235084E+02 -0.19273812423E+02  0.54367106137E+02  0.40000050060E+02 0.  0.
        -12    1    3    3    0    0 -0.54912234941E+01 -0.30889235084E+02  0.19273812423E+02  0.36820893863E+02  0.00000000000E+00 0.  1.
         11    1    4    4    0    0  0.66595616600E+01  0.11227470828E+02 -0.24266069154E+02  0.27554454724E+02  0.51100000000E-03 0. -1.
        -11    1    4    4    0    0 -0.28495732720E+01  0.21324745946E+02  0.80290984105E+01  0.22963694804E+02  0.51100000000E-03 0.  1.
        -12    1    4    4    0    0  0.16812351062E+01 -0.16629816907E+01 -0.30368416799E+01  0.38489566085E+01  0.00000000000E+00 0.  1.
</event>
<event>
 8    1  0.1254059E-006  0.9118800E+02  0.7816164E-02  0.1184000E+00
        -11   -1    0    0    0    0  0.00000000000E+00  0.00000000000E+00  0.45593999997E+02  0.45594000000E+02  0.51100000000E-03 0.  1.
         11   -1    0    0    0    0 -0.00000000000E+00 -0.00000000000E+00 -0.45593999997E+02  0.45594000000E+02  0.51100000000E-03 0. -1.
         23    2    1    2    0    0  0.00000000000E+00  0.00000000000E+00  0.00000000000E+00  0.91188000000E+02  0.91188000000E+02 0.  0.
    9900012    2    3    3    0    0  0.26946538163E+02  0.16242451847E+01  0.25040438192E+02  0.54367114130E+02  0.40000068282E+02 0.  0.
         12    1    3    3    0    0 -0.26946538163E+02 -0.16242451847E+01 -0.25040438192E+02  0.36820885870E+02  0.00000000000E+00 0. -1.
         11    1    4    4    0    0  0.13327228096E+02  0.10805368472E+02  0.23280968497E+02  0.28920139885E+02  0.51100000000E-03 0.  1.
        -11    1    4    4    0    0  0.11256092911E+01  0.66904485813E+00 -0.71116401417E+01  0.72311854536E+01  0.51100000000E-03 0. -1.
        -12    1    4    4    0    0  0.12493700775E+02 -0.98501681453E+01  0.88711098372E+01  0.18215788792E+02  0.00000000000E+00 0.  1.
</event>
<event>
 8    1  0.1254059E-006  0.9118800E+02  0.7816164E-02  0.1184000E+00
        -11   -1    0    0    0    0  0.00000000000E+00  0.00000000000E+00  0.45593999997E+02  0.45594000000E+02  0.51100000000E-03 0. -1.
         11   -1    0    0    0    0 -0.00000000000E+00 -0.00000000000E+00 -0.45593999997E+02  0.45594000000E+02  0.51100000000E-03 0.  1.
         23    2    1    2    0    0  0.88817841970E-15 -0.17763568394E-14  0.71054273576E-14  0.91188000000E+02  0.91188000000E+02 0.  0.
    9900012    2    3    3    0    0  0.41793744558E+01 -0.13476482339E+02  0.34010253927E+02  0.54367080412E+02  0.39999991416E+02 0.  0.
        -12    1    3    3    0    0 -0.41793744558E+01  0.13476482339E+02 -0.34010253927E+02  0.36820919588E+02  0.00000000000E+00 0.  1.
         11    1    4    4    0    0 -0.44387927045E+01  0.58636186818E+00  0.28684893435E+02  0.29032220248E+02  0.51100000000E-03 0. -1.
        -11    1    4    4    0    0  0.13101176590E+01 -0.16066880784E+02  0.69995696247E+01  0.17574272150E+02  0.51100000000E-03 0.  1.
        -12    1    4    4    0    0  0.73080495014E+01  0.20040365767E+01 -0.16742091319E+01  0.77605880146E+01  0.00000000000E+00 0.  1.
</event>
<event>
 8    1  0.1254059E-006  0.9118800E+02  0.7816164E-02  0.1184000E+00
        -11   -1    0    0    0    0  0.00000000000E+00  0.00000000000E+00  0.45593999997E+02  0.45594000000E+02  0.51100000000E-03 0.  1.
         11   -1    0    0    0    0 -0.00000000000E+00 -0.00000000000E+00 -0.45593999997E+02  0.45594000000E+02  0.51100000000E-03 0. -1.
         23    2    1    2    0    0  0.00000000000E+00  0.00000000000E+00  0.71054273576E-14  0.91188000000E+02  0.91188000000E+02 0.  0.
    9900012    2    3    3    0    0 -0.21448611322E+01  0.26261149350E+02 -0.25720276103E+02  0.54367068490E+02  0.39999964238E+02 0.  0.
        -12    1    3    3    0    0  0.21448611322E+01 -0.26261149350E+02  0.25720276103E+02  0.36820931510E+02  0.00000000000E+00 0.  1.
         11    1    4    4    0    0  0.41196888331E+01  0.16146108617E+02 -0.28973613108E+02  0.33423628115E+02  0.51100000000E-03 0. -1.
        -11    1    4    4    0    0 -0.15765264137E+01 -0.46834101213E+01 -0.51774978836E+00  0.49686850375E+01  0.51100000000E-03 0.  1.
        -12    1    4    4    0    0 -0.46880235516E+01  0.14798450854E+02  0.37710867941E+01  0.15974755338E+02  0.00000000000E+00 0.  1.
</event>
<event>
 8    1  0.1254059E-006  0.9118800E+02  0.7816164E-02  0.1184000E+00
        -11   -1    0    0    0    0  0.00000000000E+00  0.00000000000E+00  0.45593999997E+02  0.45594000000E+02  0.51100000000E-03 0.  1.
         11   -1    0    0    0    0 -0.00000000000E+00 -0.00000000000E+00 -0.45593999997E+02  0.45594000000E+02  0.51100000000E-03 0. -1.
         23    2    1    2    0    0 -0.35527136788E-14  0.44408920985E-15  0.00000000000E+00  0.91188000000E+02  0.91188000000E+02 0.  0.
    9900012    2    3    3    0    0 -0.21866509003E+02  0.10319917205E+01  0.29606929949E+02  0.54367088498E+02  0.40000009848E+02 0.  0.
         12    1    3    3    0    0  0.21866509003E+02 -0.10319917205E+01 -0.29606929949E+02  0.36820911502E+02  0.00000000000E+00 0. -1.
         11    1    4    4    0    0 -0.42789573049E+01  0.99978232904E+01  0.44238928984E+01  0.11740390743E+02  0.51100000000E-03 0. -1.
        -11    1    4    4    0    0  0.42904321887E+01 -0.19149114268E+01 -0.35079472964E+01  0.58634792260E+01  0.51100000000E-03 0.  1.
        -12    1    4    4    0    0 -0.21877983886E+02 -0.70509201430E+01  0.28690984347E+02  0.36763218529E+02  0.00000000000E+00 0.  1.
</event>
<event>
 8    1  0.1254059E-006  0.9118800E+02  0.7816164E-02  0.1184000E+00
        -11   -1    0    0    0    0  0.00000000000E+00  0.00000000000E+00  0.45593999997E+02  0.45594000000E+02  0.51100000000E-03 0. -1.
         11   -1    0    0    0    0 -0.00000000000E+00 -0.00000000000E+00 -0.45593999997E+02  0.45594000000E+02  0.51100000000E-03 0.  1.
         23    2    1    2    0    0  0.88817841970E-15 -0.35527136788E-14 -0.71054273576E-14  0.91188000000E+02  0.91188000000E+02 0.  0.
    9900012    2    3    3    0    0  0.62959937727E+01 -0.16643122039E+02 -0.32235794878E+02  0.54367088547E+02  0.40000009961E+02 0.  0.
         12    1    3    3    0    0 -0.62959937727E+01  0.16643122039E+02  0.32235794878E+02  0.36820911453E+02  0.00000000000E+00 0. -1.
         11    1    4    4    0    0 -0.25021727838E+01 -0.44128559684E+01 -0.10716829752E+01  0.51848501520E+01  0.51100000000E-03 0. -1.
        -11    1    4    4    0    0 -0.37694113161E+01 -0.21116712817E+02 -0.24048597393E+02  0.32225130856E+02  0.51100000000E-03 0.  1.
         12    1    4    4    0    0  0.12567577873E+02  0.88864467463E+01 -0.71155145100E+01  0.16957107539E+02  0.00000000000E+00 0. -1.
</event>
<event>
 8    1  0.1254059E-006  0.9118800E+02  0.7816164E-02  0.1184000E+00
        -11   -1    0    0    0    0  0.00000000000E+00  0.00000000000E+00  0.45593999997E+02  0.45594000000E+02  0.51100000000E-03 0.  1.
         11   -1    0    0    0    0 -0.00000000000E+00 -0.00000000000E+00 -0.45593999997E+02  0.45594000000E+02  0.51100000000E-03 0. -1.
         23    2    1    2    0    0  0.35527136788E-14  0.00000000000E+00 -0.35527136788E-14  0.91188000000E+02  0.91188000000E+02 0.  0.
    9900012    2    3    3    0    0  0.21952391325E+02  0.22320673731E+02 -0.19381920083E+02  0.54367098507E+02  0.40000032666E+02 0.  0.
         12    1    3    3    0    0 -0.21952391325E+02 -0.22320673731E+02  0.19381920083E+02  0.36820901493E+02  0.00000000000E+00 0. -1.
         11    1    4    4    0    0  0.67335924510E+01 -0.86343431895E+01 -0.90112715170E+00  0.10986590919E+02  0.51100000000E-03 0. -1.
        -11    1    4    4    0    0  0.20219067011E+01  0.20069436972E+02 -0.16688599198E+02  0.26179758413E+02  0.51100000000E-03 0.  1.
        -12    1    4    4    0    0  0.13196892173E+02  0.10885579948E+02 -0.17921937333E+01  0.17200749175E+02  0.00000000000E+00 0.  1.
</event>
<event>
 8    1  0.1254059E-006  0.9118800E+02  0.7816164E-02  0.1184000E+00
        -11   -1    0    0    0    0  0.00000000000E+00  0.00000000000E+00  0.45593999997E+02  0.45594000000E+02  0.51100000000E-03 0.  1.
         11   -1    0    0    0    0 -0.00000000000E+00 -0.00000000000E+00 -0.45593999997E+02  0.45594000000E+02  0.51100000000E-03 0. -1.
         23    2    1    2    0    0  0.00000000000E+00  0.11102230246E-15  0.00000000000E+00  0.91188000000E+02  0.91188000000E+02 0.  0.
    9900012    2    3    3    0    0  0.21206118173E+02 -0.71325831824E+00  0.30092721691E+02  0.54367080889E+02  0.39999992503E+02 0.  0.
         12    1    3    3    0    0 -0.21206118173E+02  0.71325831824E+00 -0.30092721691E+02  0.36820919111E+02  0.00000000000E+00 0. -1.
         11    1    4    4    0    0 -0.21395330406E+01  0.48134054894E+01  0.13786010046E+02  0.14758067194E+02  0.51100000000E-03 0. -1.
        -11    1    4    4    0    0  0.21972118818E+02 -0.11752036468E+02  0.20253942656E+02  0.32110848009E+02  0.51100000000E-03 0.  1.
        -12    1    4    4    0    0  0.13735323958E+01  0.62253726607E+01 -0.39472310110E+01  0.74981656865E+01  0.00000000000E+00 0.  1.
</event>
<event>
 8    1  0.1254059E-006  0.9118800E+02  0.7816164E-02  0.1184000E+00
        -11   -1    0    0    0    0  0.00000000000E+00  0.00000000000E+00  0.45593999997E+02  0.45594000000E+02  0.51100000000E-03 0.  1.
         11   -1    0    0    0    0 -0.00000000000E+00 -0.00000000000E+00 -0.45593999997E+02  0.45594000000E+02  0.51100000000E-03 0. -1.
         23    2    1    2    0    0  0.00000000000E+00  0.00000000000E+00  0.00000000000E+00  0.91188000000E+02  0.91188000000E+02 0.  0.
    9900012    2    3    3    0    0  0.92076437997E+01  0.28045356482E+02 -0.22010376664E+02  0.54367090106E+02  0.40000013514E+02 0.  0.
        -12    1    3    3    0    0 -0.92076437997E+01 -0.28045356482E+02  0.22010376664E+02  0.36820909894E+02  0.00000000000E+00 0.  1.
         11    1    4    4    0    0 -0.11185260821E+01  0.15592175486E+01 -0.12428035340E+02  0.12575306065E+02  0.51100000000E-03 0.  1.
        -11    1    4    4    0    0  0.70999437271E+01  0.24341306451E+02 -0.18950049442E+02  0.31654585368E+02  0.51100000000E-03 0. -1.
        -12    1    4    4    0    0  0.32262261548E+01  0.21448324818E+01  0.93677081172E+01  0.10137198673E+02  0.00000000000E+00 0.  1.
</event>
<event>
 8    1  0.1254059E-006  0.9118800E+02  0.7816164E-02  0.1184000E+00
        -11   -1    0    0    0    0  0.00000000000E+00  0.00000000000E+00  0.45593999997E+02  0.45594000000E+02  0.51100000000E-03 0.  1.
         11   -1    0    0    0    0 -0.00000000000E+00 -0.00000000000E+00 -0.45593999997E+02  0.45594000000E+02  0.51100000000E-03 0. -1.
         23    2    1    2    0    0  0.00000000000E+00 -0.35527136788E-14  0.00000000000E+00  0.91188000000E+02  0.91188000000E+02 0.  0.
    9900012    2    3    3    0    0 -0.15713666413E+02  0.21186057639E+02 -0.25690689760E+02  0.54367083516E+02  0.39999998490E+02 0.  0.
        -12    1    3    3    0    0  0.15713666413E+02 -0.21186057639E+02  0.25690689760E+02  0.36820916484E+02  0.00000000000E+00 0.  1.
         11    1    4    4    0    0 -0.30942494241E+01 -0.21780584830E+01 -0.53818877298E+01  0.65789842721E+01  0.51100000000E-03 0. -1.
        -11    1    4    4    0    0 -0.17307261869E+02  0.26944411070E+02 -0.24692908021E+02  0.40438623964E+02  0.51100000000E-03 0.  1.
        -12    1    4    4    0    0  0.46878448802E+01 -0.35802949483E+01  0.43841059910E+01  0.73494752791E+01  0.00000000000E+00 0.  1.
</event>
<event>
 8    1  0.1254059E-006  0.9118800E+02  0.7816164E-02  0.1184000E+00
        -11   -1    0    0    0    0  0.00000000000E+00  0.00000000000E+00  0.45593999997E+02  0.45594000000E+02  0.51100000000E-03 0.  1.
         11   -1    0    0    0    0 -0.00000000000E+00 -0.00000000000E+00 -0.45593999997E+02  0.45594000000E+02  0.51100000000E-03 0. -1.
         23    2    1    2    0    0  0.00000000000E+00  0.00000000000E+00  0.00000000000E+00  0.91188000000E+02  0.91188000000E+02 0.  0.
    9900012    2    3    3    0    0  0.18762459256E+02 -0.10765966258E+01  0.31663721278E+02  0.54367079550E+02  0.39999989449E+02 0.  0.
         12    1    3    3    0    0 -0.18762459256E+02  0.10765966258E+01 -0.31663721278E+02  0.36820920450E+02  0.00000000000E+00 0. -1.
         11    1    4    4    0    0 -0.52430363851E+00  0.28783959124E+01  0.14524125256E+02  0.14815879050E+02  0.51100000000E-03 0. -1.
        -11    1    4    4    0    0  0.56592869115E+01  0.12660929058E+02  0.91981888318E+01  0.16641313980E+02  0.51100000000E-03 0.  1.
        -12    1    4    4    0    0  0.13627475983E+02 -0.16615921596E+02  0.79414071910E+01  0.22909886519E+02  0.00000000000E+00 0.  1.
</event>
<event>
 8    1  0.1254059E-006  0.9118800E+02  0.7816164E-02  0.1184000E+00
        -11   -1    0    0    0    0  0.00000000000E+00  0.00000000000E+00  0.45593999997E+02  0.45594000000E+02  0.51100000000E-03 0.  1.
         11   -1    0    0    0    0 -0.00000000000E+00 -0.00000000000E+00 -0.45593999997E+02  0.45594000000E+02  0.51100000000E-03 0. -1.
         23    2    1    2    0    0  0.00000000000E+00 -0.35527136788E-14  0.00000000000E+00  0.91188000000E+02  0.91188000000E+02 0.  0.
    9900012    2    3    3    0    0 -0.17384347122E+02  0.29322361947E+02 -0.13919889869E+02  0.54367085169E+02  0.40000002261E+02 0.  0.
        -12    1    3    3    0    0  0.17384347122E+02 -0.29322361947E+02  0.13919889869E+02  0.36820914831E+02  0.00000000000E+00 0.  1.
         11    1    4    4    0    0 -0.35538930079E+01  0.21002568921E+01 -0.20785479124E+02  0.21191445849E+02  0.51100000000E-03 0. -1.
        -11    1    4    4    0    0 -0.98411878529E+01  0.86782039007E+01  0.52725348522E+01  0.14140715163E+02  0.51100000000E-03 0.  1.
        -12    1    4    4    0    0 -0.39892662612E+01  0.18543901154E+02  0.15930544030E+01  0.19034924157E+02  0.00000000000E+00 0.  1.
</event>
<event>
 8    1  0.1254059E-006  0.9118800E+02  0.7816164E-02  0.1184000E+00
        -11   -1    0    0    0    0  0.00000000000E+00  0.00000000000E+00  0.45593999997E+02  0.45594000000E+02  0.51100000000E-03 0. -1.
         11   -1    0    0    0    0 -0.00000000000E+00 -0.00000000000E+00 -0.45593999997E+02  0.45594000000E+02  0.51100000000E-03 0.  1.
         23    2    1    2    0    0 -0.17763568394E-14  0.00000000000E+00  0.00000000000E+00  0.91188000000E+02  0.91188000000E+02 0.  0.
    9900012    2    3    3    0    0 -0.14533993735E+02 -0.29461933639E+02 -0.16629420946E+02  0.54367080013E+02  0.39999990506E+02 0.  0.
         12    1    3    3    0    0  0.14533993735E+02  0.29461933639E+02  0.16629420946E+02  0.36820919987E+02  0.00000000000E+00 0. -1.
         11    1    4    4    0    0 -0.11448188590E+02 -0.92608372786E+01 -0.13107854015E+02  0.19713953592E+02  0.51100000000E-03 0.  1.
        -11    1    4    4    0    0  0.74192733285E+01  0.22714249441E+01  0.40022449660E+01  0.87305757559E+01  0.51100000000E-03 0. -1.
         12    1    4    4    0    0 -0.10505078473E+02 -0.22472521305E+02 -0.75238118972E+01  0.25922550665E+02  0.00000000000E+00 0. -1.
</event>
<event>
 8    1  0.1254059E-006  0.9118800E+02  0.7816164E-02  0.1184000E+00
        -11   -1    0    0    0    0  0.00000000000E+00  0.00000000000E+00  0.45593999997E+02  0.45594000000E+02  0.51100000000E-03 0.  1.
         11   -1    0    0    0    0 -0.00000000000E+00 -0.00000000000E+00 -0.45593999997E+02  0.45594000000E+02  0.51100000000E-03 0. -1.
         23    2    1    2    0    0  0.00000000000E+00  0.17763568394E-14  0.00000000000E+00  0.91188000000E+02  0.91188000000E+02 0.  0.
    9900012    2    3    3    0    0 -0.30094104859E+02  0.13455296423E+02 -0.16403608206E+02  0.54367102248E+02  0.40000041195E+02 0.  0.
        -12    1    3    3    0    0  0.30094104859E+02 -0.13455296423E+02  0.16403608206E+02  0.36820897752E+02  0.00000000000E+00 0.  1.
         11    1    4    4    0    0 -0.18701903152E+01  0.14629960148E+01 -0.12128690625E+02  0.12358928178E+02  0.51100000000E-03 0. -1.
        -11    1    4    4    0    0  0.15314972777E+01  0.82090996037E+01  0.60213758691E+01  0.10295230344E+02  0.51100000000E-03 0.  1.
         12    1    4    4    0    0 -0.29755411821E+02  0.37832008040E+01 -0.10296293450E+02  0.31712943726E+02  0.00000000000E+00 0. -1.
</event>
<event>
 8    1  0.1254059E-006  0.9118800E+02  0.7816164E-02  0.1184000E+00
        -11   -1    0    0    0    0  0.00000000000E+00  0.00000000000E+00  0.45593999997E+02  0.45594000000E+02  0.51100000000E-03 0.  1.
         11   -1    0    0    0    0 -0.00000000000E+00 -0.00000000000E+00 -0.45593999997E+02  0.45594000000E+02  0.51100000000E-03 0. -1.
         23    2    1    2    0    0 -0.55511151231E-15  0.00000000000E+00  0.00000000000E+00  0.91188000000E+02  0.91188000000E+02 0.  0.
    9900012    2    3    3    0    0 -0.60415013563E+00 -0.11722033849E+02 -0.34899976683E+02  0.54367089536E+02  0.40000012214E+02 0.  0.
        -12    1    3    3    0    0  0.60415013563E+00  0.11722033849E+02  0.34899976683E+02  0.36820910464E+02  0.00000000000E+00 0.  1.
         11    1    4    4    0    0  0.71628084454E+01 -0.25751509078E+01 -0.14454157679E+02  0.16335847131E+02  0.51100000000E-03 0. -1.
        -11    1    4    4    0    0  0.43493600141E+01  0.38429147305E+00 -0.22099722536E+02  0.22526924976E+02  0.51100000000E-03 0.  1.
        -12    1    4    4    0    0 -0.12116318595E+02 -0.95311744146E+01  0.16539035318E+01  0.15504317428E+02  0.00000000000E+00 0.  1.
</event>
<event>
 8    1  0.1254059E-006  0.9118800E+02  0.7816164E-02  0.1184000E+00
        -11   -1    0    0    0    0  0.00000000000E+00  0.00000000000E+00  0.45593999997E+02  0.45594000000E+02  0.51100000000E-03 0.  1.
         11   -1    0    0    0    0 -0.00000000000E+00 -0.00000000000E+00 -0.45593999997E+02  0.45594000000E+02  0.51100000000E-03 0. -1.
         23    2    1    2    0    0 -0.35527136788E-14 -0.88817841970E-15  0.00000000000E+00  0.91188000000E+02  0.91188000000E+02 0.  0.
    9900012    2    3    3    0    0 -0.30097040870E+02 -0.71728438241E+01  0.19962410962E+02  0.54367090056E+02  0.40000013402E+02 0.  0.
        -12    1    3    3    0    0  0.30097040870E+02  0.71728438241E+01 -0.19962410962E+02  0.36820909944E+02  0.00000000000E+00 0.  1.
         11    1    4    4    0    0 -0.30259385750E+02 -0.86781909737E+01  0.62208142450E+01  0.32088003282E+02  0.51100000000E-03 0. -1.
        -11    1    4    4    0    0 -0.15702331097E+00 -0.70233079666E+01  0.11464878442E+02  0.13446001230E+02  0.51100000000E-03 0.  1.
        -12    1    4    4    0    0  0.31936819052E+00  0.85286551161E+01  0.22767182746E+01  0.88330855443E+01  0.00000000000E+00 0.  1.
</event>
<event>
 8    1  0.1254059E-006  0.9118800E+02  0.7816164E-02  0.1184000E+00
        -11   -1    0    0    0    0  0.00000000000E+00  0.00000000000E+00  0.45593999997E+02  0.45594000000E+02  0.51100000000E-03 0.  1.
         11   -1    0    0    0    0 -0.00000000000E+00 -0.00000000000E+00 -0.45593999997E+02  0.45594000000E+02  0.51100000000E-03 0. -1.
         23    2    1    2    0    0  0.88817841970E-15 -0.35527136788E-14  0.00000000000E+00  0.91188000000E+02  0.91188000000E+02 0.  0.
    9900012    2    3    3    0    0  0.22623010313E+01  0.26271028292E+02 -0.25700067796E+02  0.54367103511E+02  0.40000044075E+02 0.  0.
        -12    1    3    3    0    0 -0.22623010313E+01 -0.26271028292E+02  0.25700067796E+02  0.36820896489E+02  0.00000000000E+00 0.  1.
         11    1    4    4    0    0 -0.25346985030E+01  0.13229812777E+02 -0.21989163842E+02  0.25787127978E+02  0.51100000000E-03 0. -1.
        -11    1    4    4    0    0 -0.90298975129E+01  0.31488542615E+01  0.34027084308E+01  0.10150505267E+02  0.51100000000E-03 0.  1.
        -12    1    4    4    0    0  0.13826897047E+02  0.98923612539E+01 -0.71136123848E+01  0.18429470266E+02  0.00000000000E+00 0.  1.
</event>
<event>
 8    1  0.1254059E-006  0.9118800E+02  0.7816164E-02  0.1184000E+00
        -11   -1    0    0    0    0  0.00000000000E+00  0.00000000000E+00  0.45593999997E+02  0.45594000000E+02  0.51100000000E-03 0. -1.
         11   -1    0    0    0    0 -0.00000000000E+00 -0.00000000000E+00 -0.45593999997E+02  0.45594000000E+02  0.51100000000E-03 0.  1.
         23    2    1    2    0    0  0.00000000000E+00  0.00000000000E+00  0.00000000000E+00  0.91188000000E+02  0.91188000000E+02 0.  0.
    9900012    2    3    3    0    0  0.17767097897E+02  0.18021645065E+02 -0.26745658845E+02  0.54367085759E+02  0.40000003604E+02 0.  0.
         12    1    3    3    0    0 -0.17767097897E+02 -0.18021645065E+02  0.26745658845E+02  0.36820914241E+02  0.00000000000E+00 0. -1.
         11    1    4    4    0    0 -0.24661012101E+01  0.18433788452E+01 -0.22713124743E+01  0.38260372924E+01  0.51100000000E-03 0. -1.
        -11    1    4    4    0    0  0.43679871455E+01  0.74510894692E+01 -0.30310153037E+02  0.31516716571E+02  0.51100000000E-03 0.  1.
        -12    1    4    4    0    0  0.15865211962E+02  0.87271767508E+01  0.58358066672E+01  0.19024331896E+02  0.00000000000E+00 0.  1.
</event>
<event>
 8    1  0.1254059E-006  0.9118800E+02  0.7816164E-02  0.1184000E+00
        -11   -1    0    0    0    0  0.00000000000E+00  0.00000000000E+00  0.45593999997E+02  0.45594000000E+02  0.51100000000E-03 0. -1.
         11   -1    0    0    0    0 -0.00000000000E+00 -0.00000000000E+00 -0.45593999997E+02  0.45594000000E+02  0.51100000000E-03 0.  1.
         23    2    1    2    0    0 -0.71054273576E-14  0.00000000000E+00  0.11102230246E-14  0.91188000000E+02  0.91188000000E+02 0.  0.
    9900012    2    3    3    0    0  0.33586200912E+02  0.15083926614E+02 -0.47131600999E+00  0.54367083762E+02  0.39999999053E+02 0.  0.
         12    1    3    3    0    0 -0.33586200912E+02 -0.15083926614E+02  0.47131600999E+00  0.36820916238E+02  0.00000000000E+00 0. -1.
         11    1    4    4    0    0  0.58417746338E+01  0.27303623005E+01  0.78438349575E+01  0.10154159555E+02  0.51100000000E-03 0. -1.
        -11    1    4    4    0    0 -0.61936829225E+01  0.43414664682E+01  0.20452317843E+01  0.78353693309E+01  0.51100000000E-03 0.  1.
        -12    1    4    4    0    0  0.33938109201E+02  0.80120978449E+01 -0.10360382752E+02  0.36377554876E+02  0.00000000000E+00 0.  1.
</event>
<event>
 8    1  0.1254059E-006  0.9118800E+02  0.7816164E-02  0.1184000E+00
        -11   -1    0    0    0    0  0.00000000000E+00  0.00000000000E+00  0.45593999997E+02  0.45594000000E+02  0.51100000000E-03 0.  1.
         11   -1    0    0    0    0 -0.00000000000E+00 -0.00000000000E+00 -0.45593999997E+02  0.45594000000E+02  0.51100000000E-03 0. -1.
         23    2    1    2    0    0  0.00000000000E+00  0.00000000000E+00  0.53290705182E-14  0.91188000000E+02  0.91188000000E+02 0.  0.
    9900012    2    3    3    0    0  0.58983425803E+01 -0.36184391188E+02  0.34174189918E+01  0.54367090676E+02  0.40000014815E+02 0.  0.
        -12    1    3    3    0    0 -0.58983425803E+01  0.36184391188E+02 -0.34174189918E+01  0.36820909324E+02  0.00000000000E+00 0.  1.
         11    1    4    4    0    0  0.96594970405E+01 -0.23223152732E+02 -0.16237428460E+02  0.29937848772E+02  0.51100000000E-03 0. -1.
        -11    1    4    4    0    0 -0.18369635685E+01 -0.53910369070E+01  0.12905045988E+02  0.14105953576E+02  0.51100000000E-03 0.  1.
         12    1    4    4    0    0 -0.19241908917E+01 -0.75702015498E+01  0.67498014639E+01  0.10323288328E+02  0.00000000000E+00 0. -1.
</event>
<event>
 8    1  0.1254059E-006  0.9118800E+02  0.7816164E-02  0.1184000E+00
        -11   -1    0    0    0    0  0.00000000000E+00  0.00000000000E+00  0.45593999997E+02  0.45594000000E+02  0.51100000000E-03 0.  1.
         11   -1    0    0    0    0 -0.00000000000E+00 -0.00000000000E+00 -0.45593999997E+02  0.45594000000E+02  0.51100000000E-03 0. -1.
         23    2    1    2    0    0  0.35527136788E-14  0.00000000000E+00 -0.35527136788E-14  0.91188000000E+02  0.91188000000E+02 0.  0.
    9900012    2    3    3    0    0  0.23160408317E+02  0.25926804027E+02 -0.12131634490E+02  0.54367078829E+02  0.39999987807E+02 0.  0.
         12    1    3    3    0    0 -0.23160408317E+02 -0.25926804027E+02  0.12131634490E+02  0.36820921171E+02  0.00000000000E+00 0. -1.
         11    1    4    4    0    0  0.25423088438E+01  0.12064117305E+01 -0.17851564653E+02  0.18071998350E+02  0.51100000000E-03 0. -1.
        -11    1    4    4    0    0  0.14138806342E+02  0.18724313022E+02 -0.32767206553E+01  0.23690560176E+02  0.51100000000E-03 0.  1.
        -12    1    4    4    0    0  0.64792931317E+01  0.59960792736E+01  0.89966508182E+01  0.12604520304E+02  0.00000000000E+00 0.  1.
</event>
<event>
 8    1  0.1254059E-006  0.9118800E+02  0.7816164E-02  0.1184000E+00
        -11   -1    0    0    0    0  0.00000000000E+00  0.00000000000E+00  0.45593999997E+02  0.45594000000E+02  0.51100000000E-03 0. -1.
         11   -1    0    0    0    0 -0.00000000000E+00 -0.00000000000E+00 -0.45593999997E+02  0.45594000000E+02  0.51100000000E-03 0.  1.
         23    2    1    2    0    0  0.35527136788E-14  0.00000000000E+00  0.00000000000E+00  0.91188000000E+02  0.91188000000E+02 0.  0.
    9900012    2    3    3    0    0 -0.20105724420E+02 -0.22420556387E+02  0.21186277381E+02  0.54367084037E+02  0.39999999678E+02 0.  0.
        -12    1    3    3    0    0  0.20105724420E+02  0.22420556387E+02 -0.21186277381E+02  0.36820915963E+02  0.00000000000E+00 0.  1.
         11    1    4    4    0    0 -0.21005402563E+02 -0.13157937411E+02  0.16212887445E+02  0.29617832016E+02  0.51100000000E-03 0. -1.
        -11    1    4    4    0    0  0.60110795018E+01 -0.11844458298E+02  0.10392612421E+02  0.16865072260E+02  0.51100000000E-03 0.  1.
        -12    1    4    4    0    0 -0.51114013590E+01  0.25818393231E+01 -0.54192224855E+01  0.78841797602E+01  0.00000000000E+00 0.  1.
</event>
<event>
 8    1  0.1254059E-006  0.9118800E+02  0.7816164E-02  0.1184000E+00
        -11   -1    0    0    0    0  0.00000000000E+00  0.00000000000E+00  0.45593999997E+02  0.45594000000E+02  0.51100000000E-03 0.  1.
         11   -1    0    0    0    0 -0.00000000000E+00 -0.00000000000E+00 -0.45593999997E+02  0.45594000000E+02  0.51100000000E-03 0. -1.
         23    2    1    2    0    0  0.00000000000E+00 -0.44408920985E-15 -0.35527136788E-14  0.91188000000E+02  0.91188000000E+02 0.  0.
    9900012    2    3    3    0    0  0.30070467541E+02 -0.35258031918E+01 -0.20955145267E+02  0.54367049178E+02  0.39999920210E+02 0.  0.
        -12    1    3    3    0    0 -0.30070467541E+02  0.35258031918E+01  0.20955145267E+02  0.36820950822E+02  0.00000000000E+00 0.  1.
         11    1    4    4    0    0  0.80190639528E+01  0.16834928206E+02 -0.23480045452E+01  0.18794502387E+02  0.51100000000E-03 0. -1.
        -11    1    4    4    0    0  0.44665393810E+01 -0.62796669251E+01 -0.36134899148E+01  0.85112572724E+01  0.51100000000E-03 0.  1.
         12    1    4    4    0    0  0.17584864207E+02 -0.14081064472E+02 -0.14993650807E+02  0.27061289518E+02  0.00000000000E+00 0. -1.
</event>
<event>
 8    1  0.1254059E-006  0.9118800E+02  0.7816164E-02  0.1184000E+00
        -11   -1    0    0    0    0  0.00000000000E+00  0.00000000000E+00  0.45593999997E+02  0.45594000000E+02  0.51100000000E-03 0. -1.
         11   -1    0    0    0    0 -0.00000000000E+00 -0.00000000000E+00 -0.45593999997E+02  0.45594000000E+02  0.51100000000E-03 0.  1.
         23    2    1    2    0    0  0.00000000000E+00  0.00000000000E+00  0.00000000000E+00  0.91188000000E+02  0.91188000000E+02 0.  0.
    9900012    2    3    3    0    0 -0.22371919372E+02 -0.15347786607E+02  0.24894226587E+02  0.54367084103E+02  0.39999999830E+02 0.  0.
        -12    1    3    3    0    0  0.22371919372E+02  0.15347786607E+02 -0.24894226587E+02  0.36820915897E+02  0.00000000000E+00 0.  1.
         11    1    4    4    0    0 -0.92828351093E+01 -0.23405390128E+02  0.45518809668E+01  0.25587163487E+02  0.51100000000E-03 0. -1.
        -11    1    4    4    0    0  0.19270225955E+01  0.40955704387E+01  0.68340545614E+01  0.81970369837E+01  0.51100000000E-03 0.  1.
         12    1    4    4    0    0 -0.15016106858E+02  0.39620330822E+01  0.13508291058E+02  0.20582883633E+02  0.00000000000E+00 0. -1.
</event>
<event>
 8    1  0.1254059E-006  0.9118800E+02  0.7816164E-02  0.1184000E+00
        -11   -1    0    0    0    0  0.00000000000E+00  0.00000000000E+00  0.45593999997E+02  0.45594000000E+02  0.51100000000E-03 0.  1.
         11   -1    0    0    0    0 -0.00000000000E+00 -0.00000000000E+00 -0.45593999997E+02  0.45594000000E+02  0.51100000000E-03 0. -1.
         23    2    1    2    0    0 -0.35527136788E-14  0.00000000000E+00  0.00000000000E+00  0.91188000000E+02  0.91188000000E+02 0.  0.
    9900012    2    3    3    0    0  0.30814308029E+02  0.13843088560E+02 -0.14650222595E+02  0.54367058917E+02  0.39999942412E+02 0.  0.
        -12    1    3    3    0    0 -0.30814308029E+02 -0.13843088560E+02  0.14650222595E+02  0.36820941083E+02  0.00000000000E+00 0.  1.
         11    1    4    4    0    0  0.34220930475E+02  0.90551180927E+01 -0.84201474216E+01  0.36386345366E+02  0.51100000000E-03 0. -1.
        -11    1    4    4    0    0 -0.65400600388E+01 -0.38657282041E+01 -0.36119484834E+01  0.84120397031E+01  0.51100000000E-03 0.  1.
         12    1    4    4    0    0  0.31334375931E+01  0.86536986709E+01 -0.26181266902E+01  0.95686738476E+01  0.00000000000E+00 0. -1.
</event>
<event>
 8    1  0.1254059E-006  0.9118800E+02  0.7816164E-02  0.1184000E+00
        -11   -1    0    0    0    0  0.00000000000E+00  0.00000000000E+00  0.45593999997E+02  0.45594000000E+02  0.51100000000E-03 0.  1.
         11   -1    0    0    0    0 -0.00000000000E+00 -0.00000000000E+00 -0.45593999997E+02  0.45594000000E+02  0.51100000000E-03 0. -1.
         23    2    1    2    0    0  0.00000000000E+00 -0.35527136788E-14 -0.35527136788E-14  0.91188000000E+02  0.91188000000E+02 0.  0.
    9900012    2    3    3    0    0  0.19378513883E+02  0.28165712283E+02  0.13673001351E+02  0.54367012578E+02  0.39999836775E+02 0.  0.
         12    1    3    3    0    0 -0.19378513883E+02 -0.28165712283E+02 -0.13673001351E+02  0.36820987422E+02  0.00000000000E+00 0. -1.
         11    1    4    4    0    0  0.44766933405E+01  0.12166236212E+02 -0.13732224055E+02  0.18884704514E+02  0.51100000000E-03 0. -1.
        -11    1    4    4    0    0  0.71668269119E+01  0.91804685060E+01  0.18483492629E+02  0.21846828374E+02  0.51100000000E-03 0.  1.
         12    1    4    4    0    0  0.77349936307E+01  0.68190075657E+01  0.89217327772E+01  0.13635479691E+02  0.00000000000E+00 0. -1.
</event>
<event>
 8    1  0.1254059E-006  0.9118800E+02  0.7816164E-02  0.1184000E+00
        -11   -1    0    0    0    0  0.00000000000E+00  0.00000000000E+00  0.45593999997E+02  0.45594000000E+02  0.51100000000E-03 0. -1.
         11   -1    0    0    0    0 -0.00000000000E+00 -0.00000000000E+00 -0.45593999997E+02  0.45594000000E+02  0.51100000000E-03 0.  1.
         23    2    1    2    0    0  0.00000000000E+00  0.35527136788E-14 -0.35527136788E-14  0.91188000000E+02  0.91188000000E+02 0.  0.
    9900012    2    3    3    0    0 -0.15485577787E+02 -0.31013000410E+02  0.12416543753E+02  0.54367083762E+02  0.39999999051E+02 0.  0.
         12    1    3    3    0    0  0.15485577787E+02  0.31013000410E+02 -0.12416543753E+02  0.36820916238E+02  0.00000000000E+00 0. -1.
         11    1    4    4    0    0 -0.18156233405E+02 -0.37167393194E+01  0.16491271033E+02  0.24807760543E+02  0.51100000000E-03 0. -1.
        -11    1    4    4    0    0 -0.33315911960E+01 -0.12428302599E+02  0.52807029076E+00  0.12877929332E+02  0.51100000000E-03 0.  1.
         12    1    4    4    0    0  0.60022468137E+01 -0.14867958492E+02 -0.46027975699E+01  0.16681393887E+02  0.00000000000E+00 0. -1.
</event>
<event>
 8    1  0.1254059E-006  0.9118800E+02  0.7816164E-02  0.1184000E+00
        -11   -1    0    0    0    0  0.00000000000E+00  0.00000000000E+00  0.45593999997E+02  0.45594000000E+02  0.51100000000E-03 0.  1.
         11   -1    0    0    0    0 -0.00000000000E+00 -0.00000000000E+00 -0.45593999997E+02  0.45594000000E+02  0.51100000000E-03 0. -1.
         23    2    1    2    0    0 -0.35527136788E-14  0.00000000000E+00  0.00000000000E+00  0.91188000000E+02  0.91188000000E+02 0.  0.
    9900012    2    3    3    0    0 -0.86847745194E+01 -0.10828225017E+02  0.34104251861E+02  0.54367139602E+02  0.40000126350E+02 0.  0.
         12    1    3    3    0    0  0.86847745194E+01  0.10828225017E+02 -0.34104251861E+02  0.36820860398E+02  0.00000000000E+00 0. -1.
         11    1    4    4    0    0 -0.31431204037E+01 -0.33706207975E+01  0.50883094144E+00  0.46367229398E+01  0.51100000000E-03 0. -1.
        -11    1    4    4    0    0  0.10697374996E+02 -0.10173706232E+02  0.31155923503E+01  0.15087910600E+02  0.51100000000E-03 0.  1.
        -12    1    4    4    0    0 -0.16239029112E+02  0.27161020130E+01  0.30479828569E+02  0.34642506062E+02  0.00000000000E+00 0.  1.
</event>
<event>
 8    1  0.1254059E-006  0.9118800E+02  0.7816164E-02  0.1184000E+00
        -11   -1    0    0    0    0  0.00000000000E+00  0.00000000000E+00  0.45593999997E+02  0.45594000000E+02  0.51100000000E-03 0.  1.
         11   -1    0    0    0    0 -0.00000000000E+00 -0.00000000000E+00 -0.45593999997E+02  0.45594000000E+02  0.51100000000E-03 0. -1.
         23    2    1    2    0    0 -0.35527136788E-14  0.00000000000E+00 -0.35527136788E-14  0.91188000000E+02  0.91188000000E+02 0.  0.
    9900012    2    3    3    0    0  0.27734628922E+02 -0.86312057407E+01  0.22629049292E+02  0.54367065386E+02  0.39999957159E+02 0.  0.
         12    1    3    3    0    0 -0.27734628922E+02  0.86312057407E+01 -0.22629049292E+02  0.36820934614E+02  0.00000000000E+00 0. -1.
         11    1    4    4    0    0  0.93971511706E+01 -0.20398562907E+02  0.15050590235E+01  0.22509398520E+02  0.51100000000E-03 0. -1.
        -11    1    4    4    0    0  0.13515791752E+02  0.61517661475E+01  0.81980172003E+01  0.16962556992E+02  0.51100000000E-03 0.  1.
        -12    1    4    4    0    0  0.48216859996E+01  0.56155910193E+01  0.12925973069E+02  0.14895109874E+02  0.00000000000E+00 0.  1.
</event>
