<event>
 4    1  0.3957190E+000  0.2874691E+03  0.7546771E-02  0.1091678E+00
         21   -1    0    0  503  502  0.00000000000E+00  0.00000000000E+00  0.68410194202E+03  0.68410194202E+03  0.00000000000E+00 0.  1.
         21   -1    0    0  501  503 -0.00000000000E+00 -0.00000000000E+00 -0.38130103868E+03  0.38130103868E+03  0.00000000000E+00 0.  1.
          6    1    1    2  501    0 -0.13743123860E+03  0.18390798200E+03 -0.28890685693E+03  0.40756062514E+03  0.17300000000E+03 0.  1.
         -6    1    1    2    0  502  0.13743123860E+03 -0.18390798200E+03  0.59170776028E+03  0.65784235555E+03  0.17300000000E+03 0.  1.
<mgrwt>
<rscale>  2 0.28746911E+03</rscale>
<asrwt>0</asrwt>
<pdfrwt beam="1">  1       21 0.10524645E+00 0.28746911E+03</pdfrwt>
<pdfrwt beam="2">  1       21 0.58661698E-01 0.28746911E+03</pdfrwt>
<totfact> 0.18374804E+03</totfact>
</mgrwt>
</event>
<event>
 4    1  0.3957190E+000  0.2521579E+03  0.7546771E-02  0.1111949E+00
         21   -1    0    0  501  502  0.00000000000E+00  0.00000000000E+00  0.44496278426E+03  0.44496278426E+03  0.00000000000E+00 0. -1.
         21   -1    0    0  502  503 -0.00000000000E+00 -0.00000000000E+00 -0.29121895256E+03  0.29121895256E+03  0.00000000000E+00 0.  1.
          6    1    1    2  501    0  0.15957763209E+03  0.90496351945E+02  0.33956504959E+03  0.42295157321E+03  0.17300000000E+03 0. -1.
         -6    1    1    2    0  503 -0.15957763209E+03 -0.90496351945E+02 -0.18582121789E+03  0.31323016361E+03  0.17300000000E+03 0.  1.
<mgrwt>
<rscale>  2 0.25215791E+03</rscale>
<asrwt>0</asrwt>
<pdfrwt beam="1">  1       21 0.68455813E-01 0.25215791E+03</pdfrwt>
<pdfrwt beam="2">  1       21 0.44802916E-01 0.25215791E+03</pdfrwt>
<totfact> 0.89613320E+03</totfact>
</mgrwt>
</event>
<event>
 4    1  0.3957190E+000  0.2125152E+03  0.7546771E-02  0.1139590E+00
         21   -1    0    0  503  502  0.00000000000E+00  0.00000000000E+00  0.56229326551E+02  0.56229326551E+02  0.00000000000E+00 0.  1.
         21   -1    0    0  501  503 -0.00000000000E+00 -0.00000000000E+00 -0.81687814669E+03  0.81687814669E+03  0.00000000000E+00 0. -1.
          6    1    1    2  501    0  0.96755485051E+02 -0.76629412175E+02 -0.43684041856E+03  0.48579032719E+03  0.17300000000E+03 0.  1.
         -6    1    1    2    0  502 -0.96755485051E+02  0.76629412175E+02 -0.32380840158E+03  0.38731714606E+03  0.17300000000E+03 0.  1.
<mgrwt>
<rscale>  2 0.21251515E+03</rscale>
<asrwt>0</asrwt>
<pdfrwt beam="1">  1       21 0.86506657E-02 0.21251515E+03</pdfrwt>
<pdfrwt beam="2">  1       21 0.12567356E+00 0.21251515E+03</pdfrwt>
<totfact> 0.48756915E+04</totfact>
</mgrwt>
</event>
<event>
 4    1  0.3957190E+000  0.1788861E+03  0.7546771E-02  0.1168885E+00
         21   -1    0    0  503  502  0.00000000000E+00  0.00000000000E+00  0.36295345503E+03  0.36295345503E+03  0.00000000000E+00 0.  1.
         21   -1    0    0  501  503 -0.00000000000E+00 -0.00000000000E+00 -0.14256674283E+03  0.14256674283E+03  0.00000000000E+00 0.  1.
          6    1    1    2  501    0 -0.29816851931E+02  0.34382820641E+02 -0.45941929631E+02  0.18469132062E+03  0.17300000000E+03 0.  1.
         -6    1    1    2    0  502  0.29816851931E+02 -0.34382820641E+02  0.26632864183E+03  0.32082887724E+03  0.17300000000E+03 0.  1.
<mgrwt>
<rscale>  2 0.17888606E+03</rscale>
<asrwt>0</asrwt>
<pdfrwt beam="1">  1       21 0.55838993E-01 0.17888606E+03</pdfrwt>
<pdfrwt beam="2">  1       21 0.21933345E-01 0.17888606E+03</pdfrwt>
<totfact> 0.59010049E+04</totfact>
</mgrwt>
</event>
<event>
 4    1  0.3957190E+000  0.2140538E+03  0.7546771E-02  0.1138395E+00
         21   -1    0    0  503  502  0.00000000000E+00  0.00000000000E+00  0.85116135189E+02  0.85116135189E+02  0.00000000000E+00 0.  1.
         21   -1    0    0  501  503 -0.00000000000E+00 -0.00000000000E+00 -0.59003474742E+03  0.59003474742E+03  0.00000000000E+00 0. -1.
          6    1    1    2  501    0  0.12501548904E+03  0.16160327890E+02 -0.35240710877E+03  0.41232244544E+03  0.17300000000E+03 0. -1.
         -6    1    1    2    0  502 -0.12501548904E+03 -0.16160327890E+02 -0.15251150345E+03  0.26282843717E+03  0.17300000000E+03 0. -1.
<mgrwt>
<rscale>  2 0.21405380E+03</rscale>
<asrwt>0</asrwt>
<pdfrwt beam="1">  1       21 0.13094789E-01 0.21405380E+03</pdfrwt>
<pdfrwt beam="2">  1       21 0.90774582E-01 0.21405380E+03</pdfrwt>
<totfact> 0.51127334E+04</totfact>
</mgrwt>
</event>
<event>
 4    1  0.3957190E+000  0.2531980E+03  0.7546771E-02  0.1111300E+00
         21   -1    0    0  501  502  0.00000000000E+00  0.00000000000E+00  0.39241401106E+03  0.39241401106E+03  0.00000000000E+00 0. -1.
         21   -1    0    0  502  503 -0.00000000000E+00 -0.00000000000E+00 -0.35740818988E+03  0.35740818988E+03  0.00000000000E+00 0.  1.
          6    1    1    2  501    0 -0.16445726262E+03  0.84463140837E+02  0.29374390383E+03  0.38780754818E+03  0.17300000000E+03 0. -1.
         -6    1    1    2    0  503  0.16445726262E+03 -0.84463140837E+02 -0.25873808266E+03  0.36201465275E+03  0.17300000000E+03 0.  1.
<mgrwt>
<rscale>  2 0.25319797E+03</rscale>
<asrwt>0</asrwt>
<pdfrwt beam="1">  1       21 0.60371386E-01 0.25319797E+03</pdfrwt>
<pdfrwt beam="2">  1       21 0.54985875E-01 0.25319797E+03</pdfrwt>
<totfact> 0.76732833E+03</totfact>
</mgrwt>
</event>
<event>
 4    1  0.3957190E+000  0.1835515E+03  0.7546771E-02  0.1164410E+00
         21   -1    0    0  503  502  0.00000000000E+00  0.00000000000E+00  0.24921244912E+03  0.24921244912E+03  0.00000000000E+00 0. -1.
         21   -1    0    0  501  503 -0.00000000000E+00 -0.00000000000E+00 -0.17919895402E+03  0.17919895402E+03  0.00000000000E+00 0.  1.
          6    1    1    2  501    0  0.23246204910E+02  0.56760499459E+02 -0.71146100236E+02  0.19685758284E+03  0.17300000000E+03 0.  1.
         -6    1    1    2    0  502 -0.23246204910E+02 -0.56760499459E+02  0.14115959534E+03  0.23155382031E+03  0.17300000000E+03 0. -1.
<mgrwt>
<rscale>  2 0.18355147E+03</rscale>
<asrwt>0</asrwt>
<pdfrwt beam="1">  1       21 0.38340377E-01 0.18355147E+03</pdfrwt>
<pdfrwt beam="2">  1       21 0.27569070E-01 0.18355147E+03</pdfrwt>
<totfact> 0.82657301E+04</totfact>
</mgrwt>
</event>
<event>
 4    1  0.3957190E+000  0.1771502E+03  0.7546771E-02  0.1170590E+00
         21   -1    0    0  503  502  0.00000000000E+00  0.00000000000E+00  0.24906245949E+03  0.24906245949E+03  0.00000000000E+00 0.  1.
         21   -1    0    0  501  503 -0.00000000000E+00 -0.00000000000E+00 -0.13053097365E+03  0.13053097365E+03  0.00000000000E+00 0. -1.
          6    1    1    2  501    0  0.24290225034E+02  0.29380195898E+02  0.23909831297E+02  0.17875651310E+03  0.17300000000E+03 0. -1.
         -6    1    1    2    0  502 -0.24290225034E+02 -0.29380195898E+02  0.94621654545E+02  0.20083692004E+03  0.17300000000E+03 0. -1.
<mgrwt>
<rscale>  2 0.17715025E+03</rscale>
<asrwt>0</asrwt>
<pdfrwt beam="1">  1       21 0.38317301E-01 0.17715025E+03</pdfrwt>
<pdfrwt beam="2">  1       21 0.20081688E-01 0.17715025E+03</pdfrwt>
<totfact> 0.15121512E+05</totfact>
</mgrwt>
</event>
<event>
 4    1  0.3957190E+000  0.2038260E+03  0.7546771E-02  0.1146551E+00
         21   -1    0    0  501  502  0.00000000000E+00  0.00000000000E+00  0.47328794078E+02  0.47328794078E+02  0.00000000000E+00 0. -1.
         21   -1    0    0  502  503 -0.00000000000E+00 -0.00000000000E+00 -0.11318650195E+04  0.11318650195E+04  0.00000000000E+00 0. -1.
          6    1    1    2  501    0 -0.48830012693E+02 -0.96081589596E+02 -0.26292790839E+03  0.33268021734E+03  0.17300000000E+03 0. -1.
         -6    1    1    2    0  503  0.48830012693E+02  0.96081589596E+02 -0.82160831703E+03  0.84651359624E+03  0.17300000000E+03 0. -1.
<mgrwt>
<rscale>  2 0.20382601E+03</rscale>
<asrwt>0</asrwt>
<pdfrwt beam="1">  1       21 0.72813531E-02 0.20382601E+03</pdfrwt>
<pdfrwt beam="2">  1       21 0.17413308E+00 0.20382601E+03</pdfrwt>
<totfact> 0.28002947E+04</totfact>
</mgrwt>
</event>
<event>
 4    1  0.3957190E+000  0.1785755E+03  0.7546771E-02  0.1169189E+00
         21   -1    0    0  501  502  0.00000000000E+00  0.00000000000E+00  0.55890812197E+02  0.55890812197E+02  0.00000000000E+00 0.  1.
         21   -1    0    0  502  503 -0.00000000000E+00 -0.00000000000E+00 -0.84879922059E+03  0.84879922059E+03  0.00000000000E+00 0.  1.
          6    1    1    2  501    0  0.34918575946E+02  0.27219365816E+02 -0.13746923662E+03  0.22535969435E+03  0.17300000000E+03 0.  1.
         -6    1    1    2    0  503 -0.34918575946E+02 -0.27219365816E+02 -0.65543917177E+03  0.67933033843E+03  0.17300000000E+03 0.  1.
<mgrwt>
<rscale>  2 0.17857548E+03</rscale>
<asrwt>0</asrwt>
<pdfrwt beam="1">  1       21 0.85985879E-02 0.17857548E+03</pdfrwt>
<pdfrwt beam="2">  1       21 0.13058447E+00 0.17857548E+03</pdfrwt>
<totfact> 0.45569976E+04</totfact>
</mgrwt>
</event>
<event>
 4    1  0.3957190E+000  0.2070845E+03  0.7546771E-02  0.1143896E+00
         21   -1    0    0  501  502  0.00000000000E+00  0.00000000000E+00  0.12461587859E+03  0.12461587859E+03  0.00000000000E+00 0.  1.
         21   -1    0    0  502  503 -0.00000000000E+00 -0.00000000000E+00 -0.47335764823E+03  0.47335764823E+03  0.00000000000E+00 0.  1.
          6    1    1    2  501    0 -0.64067554339E+02 -0.94076139931E+02 -0.33059073094E+03  0.39009512046E+03  0.17300000000E+03 0.  1.
         -6    1    1    2    0  503  0.64067554339E+02  0.94076139931E+02 -0.18151038705E+02  0.20787840636E+03  0.17300000000E+03 0.  1.
<mgrwt>
<rscale>  2 0.20708446E+03</rscale>
<asrwt>0</asrwt>
<pdfrwt beam="1">  1       21 0.19171674E-01 0.20708446E+03</pdfrwt>
<pdfrwt beam="2">  1       21 0.72824251E-01 0.20708446E+03</pdfrwt>
<totfact> 0.42088387E+04</totfact>
</mgrwt>
</event>
<event>
 4    1  0.3957190E+000  0.2249853E+03  0.7546771E-02  0.1130220E+00
         21   -1    0    0  501  502  0.00000000000E+00  0.00000000000E+00  0.18261428367E+03  0.18261428367E+03  0.00000000000E+00 0.  1.
         21   -1    0    0  502  503 -0.00000000000E+00 -0.00000000000E+00 -0.30866832007E+03  0.30866832007E+03  0.00000000000E+00 0. -1.
          6    1    1    2  501    0 -0.76176859179E+02 -0.12201004003E+03  0.15420575539E+02  0.22551309916E+03  0.17300000000E+03 0.  1.
         -6    1    1    2    0  503  0.76176859179E+02  0.12201004003E+03 -0.14147461195E+03  0.26576950458E+03  0.17300000000E+03 0. -1.
<mgrwt>
<rscale>  2 0.22498525E+03</rscale>
<asrwt>0</asrwt>
<pdfrwt beam="1">  1       21 0.28094506E-01 0.22498525E+03</pdfrwt>
<pdfrwt beam="2">  1       21 0.47487433E-01 0.22498525E+03</pdfrwt>
<totfact> 0.50566088E+04</totfact>
</mgrwt>
</event>
<event>
 4    1  0.3957190E+000  0.1750097E+03  0.7546771E-02  0.1172722E+00
         21   -1    0    0  503  502  0.00000000000E+00  0.00000000000E+00  0.45849902457E+02  0.45849902457E+02  0.00000000000E+00 0. -1.
         21   -1    0    0  501  503 -0.00000000000E+00 -0.00000000000E+00 -0.12039577541E+04  0.12039577541E+04  0.00000000000E+00 0. -1.
          6    1    1    2  501    0 -0.60674976798E+01  0.25740651390E+02 -0.99598762694E+03  0.10112466310E+04  0.17300000000E+03 0. -1.
         -6    1    1    2    0  502  0.60674976798E+01 -0.25740651390E+02 -0.16212022469E+03  0.23856102556E+03  0.17300000000E+03 0. -1.
<mgrwt>
<rscale>  2 0.17500970E+03</rscale>
<asrwt>0</asrwt>
<pdfrwt beam="1">  1       21 0.70538315E-02 0.17500970E+03</pdfrwt>
<pdfrwt beam="2">  1       21 0.18522426E+00 0.17500970E+03</pdfrwt>
<totfact> 0.25365209E+04</totfact>
</mgrwt>
</event>
<event>
 4    1  0.3957190E+000  0.2303552E+03  0.7546771E-02  0.1126390E+00
         21   -1    0    0  503  502  0.00000000000E+00  0.00000000000E+00  0.17630617040E+04  0.17630617040E+04  0.00000000000E+00 0. -1.
         21   -1    0    0  501  503 -0.00000000000E+00 -0.00000000000E+00 -0.30882341861E+02  0.30882341861E+02  0.00000000000E+00 0.  1.
          6    1    1    2  501    0  0.34090668726E+02  0.14823071140E+03  0.10090947036E+04  0.10350534471E+04  0.17300000000E+03 0. -1.
         -6    1    1    2    0  502 -0.34090668726E+02 -0.14823071140E+03  0.72308465861E+03  0.75889059884E+03  0.17300000000E+03 0.  1.
<mgrwt>
<rscale>  2 0.23035520E+03</rscale>
<asrwt>0</asrwt>
<pdfrwt beam="1">  1       21 0.27124018E+00 0.23035520E+03</pdfrwt>
<pdfrwt beam="2">  1       21 0.47511309E-02 0.23035520E+03</pdfrwt>
<totfact> 0.14172798E+04</totfact>
</mgrwt>
</event>
<event>
 4    1  0.3957190E+000  0.1750513E+03  0.7546771E-02  0.1172680E+00
         21   -1    0    0  503  502  0.00000000000E+00  0.00000000000E+00  0.94000598931E+02  0.94000598931E+02  0.00000000000E+00 0.  1.
         21   -1    0    0  501  503 -0.00000000000E+00 -0.00000000000E+00 -0.37498501761E+03  0.37498501761E+03  0.00000000000E+00 0.  1.
          6    1    1    2  501    0  0.25149149503E+02  0.90270888191E+01 -0.22525633160E+03  0.28527772955E+03  0.17300000000E+03 0.  1.
         -6    1    1    2    0  502 -0.25149149503E+02 -0.90270888191E+01 -0.55728087087E+02  0.18370788699E+03  0.17300000000E+03 0.  1.
<mgrwt>
<rscale>  2 0.17505133E+03</rscale>
<asrwt>0</asrwt>
<pdfrwt beam="1">  1       21 0.14461631E-01 0.17505133E+03</pdfrwt>
<pdfrwt beam="2">  1       21 0.57690002E-01 0.17505133E+03</pdfrwt>
<totfact> 0.11891280E+05</totfact>
</mgrwt>
</event>
<event>
 4    1  0.3957190E+000  0.2473995E+03  0.7546771E-02  0.1114959E+00
         21   -1    0    0  501  502  0.00000000000E+00  0.00000000000E+00  0.13130794931E+04  0.13130794931E+04  0.00000000000E+00 0. -1.
         21   -1    0    0  502  503 -0.00000000000E+00 -0.00000000000E+00 -0.79511801803E+02  0.79511801803E+02  0.00000000000E+00 0.  1.
          6    1    1    2  501    0  0.10237506256E+02 -0.17655798734E+03  0.10646705284E+04  0.10930369909E+04  0.17300000000E+03 0. -1.
         -6    1    1    2    0  503 -0.10237506256E+02  0.17655798734E+03  0.16889716296E+03  0.29955430406E+03  0.17300000000E+03 0.  1.
<mgrwt>
<rscale>  2 0.24739953E+03</rscale>
<asrwt>0</asrwt>
<pdfrwt beam="1">  1       21 0.20201221E+00 0.24739953E+03</pdfrwt>
<pdfrwt beam="2">  1       21 0.12232586E-01 0.24739953E+03</pdfrwt>
<totfact> 0.70735898E+03</totfact>
</mgrwt>
</event>
<event>
 4    1  0.3957190E+000  0.1762406E+03  0.7546771E-02  0.1171492E+00
         21   -1    0    0  503  502  0.00000000000E+00  0.00000000000E+00  0.21015298291E+03  0.21015298291E+03  0.00000000000E+00 0.  1.
         21   -1    0    0  501  503 -0.00000000000E+00 -0.00000000000E+00 -0.20179535615E+03  0.20179535615E+03  0.00000000000E+00 0.  1.
          6    1    1    2  501    0  0.29272737030E+02 -0.16578950112E+02 -0.10236607750E+03  0.20381258190E+03  0.17300000000E+03 0. -1.
         -6    1    1    2    0  502 -0.29272737030E+02  0.16578950112E+02  0.11072370426E+03  0.20813575715E+03  0.17300000000E+03 0. -1.
<mgrwt>
<rscale>  2 0.17624062E+03</rscale>
<asrwt>0</asrwt>
<pdfrwt beam="1">  1       21 0.32331228E-01 0.17624062E+03</pdfrwt>
<pdfrwt beam="2">  1       21 0.31045439E-01 0.17624062E+03</pdfrwt>
<totfact> 0.92322502E+04</totfact>
</mgrwt>
</event>
<event>
 4    1  0.3957190E+000  0.1737433E+03  0.7546771E-02  0.1174000E+00
         21   -1    0    0  503  502  0.00000000000E+00  0.00000000000E+00  0.96013126799E+03  0.96013126799E+03  0.00000000000E+00 0. -1.
         21   -1    0    0  501  503 -0.00000000000E+00 -0.00000000000E+00 -0.33894777700E+02  0.33894777700E+02  0.00000000000E+00 0. -1.
          6    1    1    2  501    0 -0.15976743476E+02 -0.15696027748E+01  0.59686698017E+03  0.62164050062E+03  0.17300000000E+03 0. -1.
         -6    1    1    2    0  502  0.15976743476E+02  0.15696027748E+01  0.32936951012E+03  0.37238554507E+03  0.17300000000E+03 0. -1.
<mgrwt>
<rscale>  2 0.17374326E+03</rscale>
<asrwt>0</asrwt>
<pdfrwt beam="1">  1       21 0.14771248E+00 0.17374326E+03</pdfrwt>
<pdfrwt beam="2">  1       21 0.52145819E-02 0.17374326E+03</pdfrwt>
<totfact> 0.78704146E+04</totfact>
</mgrwt>
</event>
<event>
 4    1  0.3957190E+000  0.3115347E+03  0.7546771E-02  0.1079613E+00
         21   -1    0    0  501  502  0.00000000000E+00  0.00000000000E+00  0.83617746368E+03  0.83617746368E+03  0.00000000000E+00 0.  1.
         21   -1    0    0  502  503 -0.00000000000E+00 -0.00000000000E+00 -0.20536810802E+03  0.20536810802E+03  0.00000000000E+00 0. -1.
          6    1    1    2  501    0  0.25378415953E+03 -0.52138850005E+02  0.65880964270E+03  0.72875510607E+03  0.17300000000E+03 0.  1.
         -6    1    1    2    0  503 -0.25378415953E+03  0.52138850005E+02 -0.28000287040E+02  0.31279046562E+03  0.17300000000E+03 0. -1.
<mgrwt>
<rscale>  2 0.31153468E+03</rscale>
<asrwt>0</asrwt>
<pdfrwt beam="1">  1       21 0.12864269E+00 0.31153468E+03</pdfrwt>
<pdfrwt beam="2">  1       21 0.31595094E-01 0.31153468E+03</pdfrwt>
<totfact> 0.39467325E+03</totfact>
</mgrwt>
</event>
<event>
 4    1  0.3957190E+000  0.1880014E+03  0.7546771E-02  0.1160276E+00
         21   -1    0    0  503  502  0.00000000000E+00  0.00000000000E+00  0.17649161973E+03  0.17649161973E+03  0.00000000000E+00 0.  1.
         21   -1    0    0  501  503 -0.00000000000E+00 -0.00000000000E+00 -0.20963625395E+03  0.20963625395E+03  0.00000000000E+00 0. -1.
          6    1    1    2  501    0 -0.72257484617E+02  0.13942179283E+02 -0.57398716942E+02  0.19656841342E+03  0.17300000000E+03 0. -1.
         -6    1    1    2    0  502  0.72257484617E+02 -0.13942179283E+02  0.24254082724E+02  0.18955946026E+03  0.17300000000E+03 0.  1.
<mgrwt>
<rscale>  2 0.18800141E+03</rscale>
<asrwt>0</asrwt>
<pdfrwt beam="1">  1       21 0.27152557E-01 0.18800141E+03</pdfrwt>
<pdfrwt beam="2">  1       21 0.32251731E-01 0.18800141E+03</pdfrwt>
<totfact> 0.11976704E+05</totfact>
</mgrwt>
</event>
<event>
 4    1  0.3957190E+000  0.2409843E+03  0.7546771E-02  0.1119139E+00
         21   -1    0    0  503  502  0.00000000000E+00  0.00000000000E+00  0.10825098693E+03  0.10825098693E+03  0.00000000000E+00 0.  1.
         21   -1    0    0  501  503 -0.00000000000E+00 -0.00000000000E+00 -0.94629411801E+03  0.94629411801E+03  0.00000000000E+00 0. -1.
          6    1    1    2  501    0  0.13028773324E+03  0.10568599649E+03 -0.76601461104E+03  0.80302665436E+03  0.17300000000E+03 0. -1.
         -6    1    1    2    0  502 -0.13028773324E+03 -0.10568599649E+03 -0.72028520040E+02  0.25151845059E+03  0.17300000000E+03 0.  1.
<mgrwt>
<rscale>  2 0.24098428E+03</rscale>
<asrwt>0</asrwt>
<pdfrwt beam="1">  1       21 0.16653998E-01 0.24098428E+03</pdfrwt>
<pdfrwt beam="2">  1       21 0.14558371E+00 0.24098428E+03</pdfrwt>
<totfact> 0.10129147E+04</totfact>
</mgrwt>
</event>
<event>
 4    1  0.3957190E+000  0.1983466E+03  0.7546771E-02  0.1151142E+00
         21   -1    0    0  501  502  0.00000000000E+00  0.00000000000E+00  0.61740235454E+02  0.61740235454E+02  0.00000000000E+00 0.  1.
         21   -1    0    0  502  503 -0.00000000000E+00 -0.00000000000E+00 -0.63721008757E+03  0.63721008757E+03  0.00000000000E+00 0. -1.
          6    1    1    2  501    0 -0.77342495275E+02 -0.58570629902E+02 -0.28712310542E+03  0.34897142853E+03  0.17300000000E+03 0. -1.
         -6    1    1    2    0  503  0.77342495275E+02  0.58570629902E+02 -0.28834674670E+03  0.34997889450E+03  0.17300000000E+03 0.  1.
<mgrwt>
<rscale>  2 0.19834662E+03</rscale>
<asrwt>0</asrwt>
<pdfrwt beam="1">  1       21 0.94984975E-02 0.19834662E+03</pdfrwt>
<pdfrwt beam="2">  1       21 0.98032324E-01 0.19834662E+03</pdfrwt>
<totfact> 0.76251053E+04</totfact>
</mgrwt>
</event>
<event>
 4    1  0.3957190E+000  0.2190483E+03  0.7546771E-02  0.1134595E+00
         21   -1    0    0  503  502  0.00000000000E+00  0.00000000000E+00  0.41149988601E+03  0.41149988601E+03  0.00000000000E+00 0. -1.
         21   -1    0    0  501  503 -0.00000000000E+00 -0.00000000000E+00 -0.11660843835E+03  0.11660843835E+03  0.00000000000E+00 0. -1.
          6    1    1    2  501    0  0.59866010792E+02  0.12028815444E+03  0.14566602856E+03  0.26306039463E+03  0.17300000000E+03 0. -1.
         -6    1    1    2    0  502 -0.59866010792E+02 -0.12028815444E+03  0.14922541911E+03  0.26504792973E+03  0.17300000000E+03 0. -1.
<mgrwt>
<rscale>  2 0.21904835E+03</rscale>
<asrwt>0</asrwt>
<pdfrwt beam="1">  1       21 0.63307674E-01 0.21904835E+03</pdfrwt>
<pdfrwt beam="2">  1       21 0.17939760E-01 0.21904835E+03</pdfrwt>
<totfact> 0.64431679E+04</totfact>
</mgrwt>
</event>
<event>
 4    1  0.3957190E+000  0.1848757E+03  0.7546771E-02  0.1163166E+00
         21   -1    0    0  503  502  0.00000000000E+00  0.00000000000E+00  0.10268983643E+04  0.10268983643E+04  0.00000000000E+00 0.  1.
         21   -1    0    0  501  503 -0.00000000000E+00 -0.00000000000E+00 -0.11787832190E+03  0.11787832190E+03  0.00000000000E+00 0.  1.
          6    1    1    2  501    0 -0.50529830227E+02 -0.41191676702E+02 -0.30382050208E+02  0.18735550952E+03  0.17300000000E+03 0.  1.
         -6    1    1    2    0  502  0.50529830227E+02  0.41191676702E+02  0.93940209259E+03  0.95742117667E+03  0.17300000000E+03 0.  1.
<mgrwt>
<rscale>  2 0.18487568E+03</rscale>
<asrwt>0</asrwt>
<pdfrwt beam="1">  1       21 0.15798436E+00 0.18487568E+03</pdfrwt>
<pdfrwt beam="2">  1       21 0.18135127E-01 0.18487568E+03</pdfrwt>
<totfact> 0.72572437E+03</totfact>
</mgrwt>
</event>
<event>
 4    1  0.3957190E+000  0.2400635E+03  0.7546771E-02  0.1119751E+00
         21   -1    0    0  501  502  0.00000000000E+00  0.00000000000E+00  0.12227903821E+03  0.12227903821E+03  0.00000000000E+00 0. -1.
         21   -1    0    0  502  503 -0.00000000000E+00 -0.00000000000E+00 -0.51351727661E+03  0.51351727661E+03  0.00000000000E+00 0.  1.
          6    1    1    2  501    0  0.33546719104E+02 -0.16302179886E+03 -0.10447268909E+03  0.26181106171E+03  0.17300000000E+03 0. -1.
         -6    1    1    2    0  503 -0.33546719104E+02  0.16302179886E+03 -0.28676554931E+03  0.37398525310E+03  0.17300000000E+03 0. -1.
<mgrwt>
<rscale>  2 0.24006351E+03</rscale>
<asrwt>0</asrwt>
<pdfrwt beam="1">  1       21 0.18812160E-01 0.24006351E+03</pdfrwt>
<pdfrwt beam="2">  1       21 0.79002659E-01 0.24006351E+03</pdfrwt>
<totfact> 0.35745612E+04</totfact>
</mgrwt>
</event>
<event>
 4    1  0.3957190E+000  0.3103787E+03  0.7546771E-02  0.1080165E+00
         21   -1    0    0  501  502  0.00000000000E+00  0.00000000000E+00  0.19867693747E+03  0.19867693747E+03  0.00000000000E+00 0.  1.
         21   -1    0    0  502  503 -0.00000000000E+00 -0.00000000000E+00 -0.48860073558E+03  0.48860073558E+03  0.00000000000E+00 0.  1.
          6    1    1    2  501    0 -0.72853054050E+02 -0.24718080087E+03 -0.17494037855E+03  0.35628507105E+03  0.17300000000E+03 0.  1.
         -6    1    1    2    0  503  0.72853054050E+02  0.24718080087E+03 -0.11498341956E+03  0.33099260200E+03  0.17300000000E+03 0.  1.
<mgrwt>
<rscale>  2 0.31037867E+03</rscale>
<asrwt>0</asrwt>
<pdfrwt beam="1">  1       21 0.30565683E-01 0.31037867E+03</pdfrwt>
<pdfrwt beam="2">  1       21 0.75169344E-01 0.31037867E+03</pdfrwt>
<totfact> 0.15300249E+04</totfact>
</mgrwt>
</event>
<event>
 4    1  0.3957190E+000  0.2028231E+03  0.7546771E-02  0.1147379E+00
         21   -1    0    0  501  502  0.00000000000E+00  0.00000000000E+00  0.62289719538E+03  0.62289719538E+03  0.00000000000E+00 0.  1.
         21   -1    0    0  502  503 -0.00000000000E+00 -0.00000000000E+00 -0.10950063087E+03  0.10950063087E+03  0.00000000000E+00 0.  1.
          6    1    1    2  501    0 -0.40177089236E+02 -0.97948972627E+02  0.48739859270E+03  0.52791532266E+03  0.17300000000E+03 0.  1.
         -6    1    1    2    0  503  0.40177089236E+02  0.97948972627E+02  0.25997971813E+02  0.20448250360E+03  0.17300000000E+03 0.  1.
<mgrwt>
<rscale>  2 0.20282307E+03</rscale>
<asrwt>0</asrwt>
<pdfrwt beam="1">  1       21 0.95830336E-01 0.20282307E+03</pdfrwt>
<pdfrwt beam="2">  1       21 0.16846251E-01 0.20282307E+03</pdfrwt>
<totfact> 0.28624792E+04</totfact>
</mgrwt>
</event>
<event>
 4    1  0.3957190E+000  0.1950649E+03  0.7546771E-02  0.1153971E+00
         21   -1    0    0  503  502  0.00000000000E+00  0.00000000000E+00  0.35009774237E+03  0.35009774237E+03  0.00000000000E+00 0.  1.
         21   -1    0    0  501  503 -0.00000000000E+00 -0.00000000000E+00 -0.11681245161E+03  0.11681245161E+03  0.00000000000E+00 0.  1.
          6    1    1    2  501    0  0.88367741700E+02 -0.17676335834E+02  0.55062493282E+02  0.20268741645E+03  0.17300000000E+03 0. -1.
         -6    1    1    2    0  502 -0.88367741700E+02  0.17676335834E+02  0.17822279748E+03  0.26422277753E+03  0.17300000000E+03 0. -1.
<mgrwt>
<rscale>  2 0.19506489E+03</rscale>
<asrwt>0</asrwt>
<pdfrwt beam="1">  1       21 0.53861191E-01 0.19506489E+03</pdfrwt>
<pdfrwt beam="2">  1       21 0.17971147E-01 0.19506489E+03</pdfrwt>
<totfact> 0.91714033E+04</totfact>
</mgrwt>
</event>
<event>
 4    1  0.3957190E+000  0.1912587E+03  0.7546771E-02  0.1157331E+00
         21   -1    0    0  501  502  0.00000000000E+00  0.00000000000E+00  0.40529828284E+03  0.40529828284E+03  0.00000000000E+00 0.  1.
         21   -1    0    0  502  503 -0.00000000000E+00 -0.00000000000E+00 -0.15381880570E+03  0.15381880570E+03  0.00000000000E+00 0.  1.
          6    1    1    2  501    0 -0.68218400319E+02 -0.44689424780E+02  0.30545110296E+03  0.36038905523E+03  0.17300000000E+03 0.  1.
         -6    1    1    2    0  503  0.68218400319E+02  0.44689424780E+02 -0.53971625816E+02  0.19872803331E+03  0.17300000000E+03 0.  1.
<mgrwt>
<rscale>  2 0.19125871E+03</rscale>
<asrwt>0</asrwt>
<pdfrwt beam="1">  1       21 0.62353581E-01 0.19125871E+03</pdfrwt>
<pdfrwt beam="2">  1       21 0.23664432E-01 0.19125871E+03</pdfrwt>
<totfact> 0.40136497E+04</totfact>
</mgrwt>
</event>
<event>
 4    1  0.3957190E+000  0.2394709E+03  0.7546771E-02  0.1120146E+00
         21   -1    0    0  501  502  0.00000000000E+00  0.00000000000E+00  0.35415667800E+02  0.35415667800E+02  0.00000000000E+00 0.  1.
         21   -1    0    0  502  503 -0.00000000000E+00 -0.00000000000E+00 -0.19353722891E+04  0.19353722891E+04  0.00000000000E+00 0.  1.
          6    1    1    2  501    0  0.10296590560E+03 -0.12967391558E+03 -0.13482369910E+04  0.13693389960E+04  0.17300000000E+03 0.  1.
         -6    1    1    2    0  503 -0.10296590560E+03  0.12967391558E+03 -0.55171963034E+03  0.60144896093E+03  0.17300000000E+03 0.  1.
<mgrwt>
<rscale>  2 0.23947088E+03</rscale>
<asrwt>0</asrwt>
<pdfrwt beam="1">  1       21 0.54485636E-02 0.23947088E+03</pdfrwt>
<pdfrwt beam="2">  1       21 0.29774962E+00 0.23947088E+03</pdfrwt>
<totfact> 0.78013108E+03</totfact>
</mgrwt>
</event>
<event>
 4    1  0.3957190E+000  0.2810442E+03  0.7546771E-02  0.1095120E+00
         21   -1    0    0  503  502  0.00000000000E+00  0.00000000000E+00  0.14544183486E+03  0.14544183486E+03  0.00000000000E+00 0. -1.
         21   -1    0    0  501  503 -0.00000000000E+00 -0.00000000000E+00 -0.64542076216E+03  0.64542076216E+03  0.00000000000E+00 0. -1.
          6    1    1    2  501    0 -0.45405078906E+02 -0.21678383073E+03 -0.40745449647E+03  0.49497981489E+03  0.17300000000E+03 0. -1.
         -6    1    1    2    0  502  0.45405078906E+02  0.21678383073E+03 -0.92524430838E+02  0.29588278213E+03  0.17300000000E+03 0. -1.
<mgrwt>
<rscale>  2 0.28104421E+03</rscale>
<asrwt>0</asrwt>
<pdfrwt beam="1">  1       21 0.22375667E-01 0.28104421E+03</pdfrwt>
<pdfrwt beam="2">  1       21 0.99295503E-01 0.28104421E+03</pdfrwt>
<totfact> 0.14856198E+04</totfact>
</mgrwt>
</event>
<event>
 4    1  0.3957190E+000  0.1856753E+03  0.7546771E-02  0.1162421E+00
         21   -1    0    0  503  502  0.00000000000E+00  0.00000000000E+00  0.70148161416E+02  0.70148161416E+02  0.00000000000E+00 0.  1.
         21   -1    0    0  501  503 -0.00000000000E+00 -0.00000000000E+00 -0.57287757843E+03  0.57287757843E+03  0.00000000000E+00 0.  1.
          6    1    1    2  501    0  0.38000354701E+02 -0.55698306590E+02 -0.37256806391E+03  0.41627189499E+03  0.17300000000E+03 0. -1.
         -6    1    1    2    0  502 -0.38000354701E+02  0.55698306590E+02 -0.13016135310E+03  0.22675384485E+03  0.17300000000E+03 0. -1.
<mgrwt>
<rscale>  2 0.18567533E+03</rscale>
<asrwt>0</asrwt>
<pdfrwt beam="1">  1       21 0.10792025E-01 0.18567533E+03</pdfrwt>
<pdfrwt beam="2">  1       21 0.88135015E-01 0.18567533E+03</pdfrwt>
<totfact> 0.78408905E+04</totfact>
</mgrwt>
</event>
<event>
 4    1  0.3957190E+000  0.1950634E+03  0.7546771E-02  0.1153972E+00
         21   -1    0    0  501  502  0.00000000000E+00  0.00000000000E+00  0.54283441769E+03  0.54283441769E+03  0.00000000000E+00 0.  1.
         21   -1    0    0  502  503 -0.00000000000E+00 -0.00000000000E+00 -0.11129087660E+03  0.11129087660E+03  0.00000000000E+00 0.  1.
          6    1    1    2  501    0 -0.29865397742E+02  0.85022197734E+02  0.41476146644E+03  0.45834134674E+03  0.17300000000E+03 0. -1.
         -6    1    1    2    0  503  0.29865397742E+02 -0.85022197734E+02  0.16782074649E+02  0.19578394755E+03  0.17300000000E+03 0. -1.
<mgrwt>
<rscale>  2 0.19506336E+03</rscale>
<asrwt>0</asrwt>
<pdfrwt beam="1">  1       21 0.83512986E-01 0.19506336E+03</pdfrwt>
<pdfrwt beam="2">  1       21 0.17121674E-01 0.19506336E+03</pdfrwt>
<totfact> 0.38364052E+04</totfact>
</mgrwt>
</event>
<event>
 4    1  0.3957190E+000  0.2313582E+03  0.7546771E-02  0.1125687E+00
         21   -1    0    0  501  502  0.00000000000E+00  0.00000000000E+00  0.42202234616E+03  0.42202234616E+03  0.00000000000E+00 0. -1.
         21   -1    0    0  502  503 -0.00000000000E+00 -0.00000000000E+00 -0.23350201636E+03  0.23350201636E+03  0.00000000000E+00 0. -1.
          6    1    1    2  501    0  0.49237534548E+02 -0.14551047416E+03  0.31578955584E+03  0.39147116940E+03  0.17300000000E+03 0. -1.
         -6    1    1    2    0  503 -0.49237534548E+02  0.14551047416E+03 -0.12726922604E+03  0.26405319312E+03  0.17300000000E+03 0. -1.
<mgrwt>
<rscale>  2 0.23135823E+03</rscale>
<asrwt>0</asrwt>
<pdfrwt beam="1">  1       21 0.64926515E-01 0.23135823E+03</pdfrwt>
<pdfrwt beam="2">  1       21 0.35923387E-01 0.23135823E+03</pdfrwt>
<totfact> 0.15953082E+04</totfact>
</mgrwt>
</event>
<event>
 4    1  0.3957190E+000  0.2000114E+03  0.7546771E-02  0.1149729E+00
         21   -1    0    0  503  502  0.00000000000E+00  0.00000000000E+00  0.77496110811E+03  0.77496110811E+03  0.00000000000E+00 0.  1.
         21   -1    0    0  501  503 -0.00000000000E+00 -0.00000000000E+00 -0.55201415310E+02  0.55201415310E+02  0.00000000000E+00 0.  1.
          6    1    1    2  501    0 -0.17463838105E+02  0.98846188144E+02  0.25417321144E+03  0.32343249058E+03  0.17300000000E+03 0.  1.
         -6    1    1    2    0  502  0.17463838105E+02 -0.98846188144E+02  0.46558648136E+03  0.50673003283E+03  0.17300000000E+03 0.  1.
<mgrwt>
<rscale>  2 0.20001139E+03</rscale>
<asrwt>0</asrwt>
<pdfrwt beam="1">  1       21 0.11922478E+00 0.20001139E+03</pdfrwt>
<pdfrwt beam="2">  1       21 0.84925260E-02 0.20001139E+03</pdfrwt>
<totfact> 0.57807910E+04</totfact>
</mgrwt>
</event>
<event>
 4    1  0.3957190E+000  0.1855068E+03  0.7546771E-02  0.1162577E+00
         21   -1    0    0  503  502  0.00000000000E+00  0.00000000000E+00  0.19510206082E+03  0.19510206082E+03  0.00000000000E+00 0. -1.
         21   -1    0    0  501  503 -0.00000000000E+00 -0.00000000000E+00 -0.23089705695E+03  0.23089705695E+03  0.00000000000E+00 0.  1.
          6    1    1    2  501    0  0.35547697546E+01  0.66866527151E+02 -0.12139314462E+03  0.22169588269E+03  0.17300000000E+03 0.  1.
         -6    1    1    2    0  502 -0.35547697546E+01 -0.66866527151E+02  0.85598148492E+02  0.20430323509E+03  0.17300000000E+03 0. -1.
<mgrwt>
<rscale>  2 0.18550679E+03</rscale>
<asrwt>0</asrwt>
<pdfrwt beam="1">  1       21 0.30015702E-01 0.18550679E+03</pdfrwt>
<pdfrwt beam="2">  1       21 0.35522624E-01 0.18550679E+03</pdfrwt>
<totfact> 0.81574911E+04</totfact>
</mgrwt>
</event>
<event>
 4    1  0.3957190E+000  0.5660635E+03  0.7546771E-02  0.9978428E-01
         21   -1    0    0  503  502  0.00000000000E+00  0.00000000000E+00  0.77778820095E+03  0.77778820095E+03  0.00000000000E+00 0.  1.
         21   -1    0    0  501  503 -0.00000000000E+00 -0.00000000000E+00 -0.41205711424E+03  0.41205711424E+03  0.00000000000E+00 0.  1.
          6    1    1    2  501    0 -0.31778007593E+03  0.43533280716E+03  0.17437151208E+03  0.59231178772E+03  0.17300000000E+03 0.  1.
         -6    1    1    2    0  502  0.31778007593E+03 -0.43533280716E+03  0.19135957463E+03  0.59753352747E+03  0.17300000000E+03 0.  1.
<mgrwt>
<rscale>  2 0.56606345E+03</rscale>
<asrwt>0</asrwt>
<pdfrwt beam="1">  1       21 0.11965972E+00 0.56606345E+03</pdfrwt>
<pdfrwt beam="2">  1       21 0.63393402E-01 0.56606345E+03</pdfrwt>
<totfact> 0.99621283E+02</totfact>
</mgrwt>
</event>
<event>
 4    1  0.3957190E+000  0.1820783E+03  0.7546771E-02  0.1165807E+00
         21   -1    0    0  501  502  0.00000000000E+00  0.00000000000E+00  0.63930196083E+03  0.63930196083E+03  0.00000000000E+00 0.  1.
         21   -1    0    0  502  503 -0.00000000000E+00 -0.00000000000E+00 -0.79214165730E+02  0.79214165730E+02  0.00000000000E+00 0.  1.
          6    1    1    2  501    0 -0.28128207912E+02  0.49318447949E+02  0.49116802729E+03  0.52383063716E+03  0.17300000000E+03 0.  1.
         -6    1    1    2    0  503  0.28128207912E+02 -0.49318447949E+02  0.68919767801E+02  0.19468548940E+03  0.17300000000E+03 0.  1.
<mgrwt>
<rscale>  2 0.18207829E+03</rscale>
<asrwt>0</asrwt>
<pdfrwt beam="1">  1       21 0.98354145E-01 0.18207829E+03</pdfrwt>
<pdfrwt beam="2">  1       21 0.12186795E-01 0.18207829E+03</pdfrwt>
<totfact> 0.48994755E+04</totfact>
</mgrwt>
</event>
<event>
 4    1  0.3957190E+000  0.2243754E+03  0.7546771E-02  0.1130662E+00
         21   -1    0    0  503  502  0.00000000000E+00  0.00000000000E+00  0.42531678030E+03  0.42531678030E+03  0.00000000000E+00 0.  1.
         21   -1    0    0  501  503 -0.00000000000E+00 -0.00000000000E+00 -0.12555136029E+03  0.12555136029E+03  0.00000000000E+00 0. -1.
          6    1    1    2  501    0 -0.10342188979E+03 -0.98586102766E+02  0.84004527332E+02  0.23958519896E+03  0.17300000000E+03 0. -1.
         -6    1    1    2    0  502  0.10342188979E+03  0.98586102766E+02  0.21576089268E+03  0.31128294164E+03  0.17300000000E+03 0.  1.
<mgrwt>
<rscale>  2 0.22437537E+03</rscale>
<asrwt>0</asrwt>
<pdfrwt beam="1">  1       21 0.65433350E-01 0.22437537E+03</pdfrwt>
<pdfrwt beam="2">  1       21 0.19315594E-01 0.22437537E+03</pdfrwt>
<totfact> 0.52130678E+04</totfact>
</mgrwt>
</event>
<event>
 4    1  0.3957190E+000  0.2579431E+03  0.7546771E-02  0.1108385E+00
         21   -1    0    0  503  502  0.00000000000E+00  0.00000000000E+00  0.12091180713E+04  0.12091180713E+04  0.00000000000E+00 0.  1.
         21   -1    0    0  501  503 -0.00000000000E+00 -0.00000000000E+00 -0.56457810623E+02  0.56457810623E+02  0.00000000000E+00 0. -1.
          6    1    1    2  501    0 -0.52199035011E+02 -0.18406764253E+03  0.67705227606E+03  0.72452358195E+03  0.17300000000E+03 0.  1.
         -6    1    1    2    0  502  0.52199035011E+02  0.18406764253E+03  0.47560798465E+03  0.54105230001E+03  0.17300000000E+03 0. -1.
<mgrwt>
<rscale>  2 0.25794309E+03</rscale>
<asrwt>0</asrwt>
<pdfrwt beam="1">  1       21 0.18601815E+00 0.25794309E+03</pdfrwt>
<pdfrwt beam="2">  1       21 0.86858179E-02 0.25794309E+03</pdfrwt>
<totfact> 0.16491767E+04</totfact>
</mgrwt>
</event>
<event>
 4    1  0.3957190E+000  0.1791954E+03  0.7546771E-02  0.1168584E+00
         21   -1    0    0  503  502  0.00000000000E+00  0.00000000000E+00  0.56187614280E+02  0.56187614280E+02  0.00000000000E+00 0.  1.
         21   -1    0    0  501  503 -0.00000000000E+00 -0.00000000000E+00 -0.63849938343E+03  0.63849938343E+03  0.00000000000E+00 0.  1.
          6    1    1    2  501    0  0.34069034799E+02 -0.31957600914E+02 -0.17863637157E+03  0.25302557309E+03  0.17300000000E+03 0. -1.
         -6    1    1    2    0  502 -0.34069034799E+02  0.31957600914E+02 -0.40367539758E+03  0.44166142462E+03  0.17300000000E+03 0. -1.
<mgrwt>
<rscale>  2 0.17919539E+03</rscale>
<asrwt>0</asrwt>
<pdfrwt beam="1">  1       21 0.86442485E-02 0.17919539E+03</pdfrwt>
<pdfrwt beam="2">  1       21 0.98230673E-01 0.17919539E+03</pdfrwt>
<totfact> 0.90285138E+04</totfact>
</mgrwt>
</event>
<event>
 4    1  0.3957190E+000  0.1977318E+03  0.7546771E-02  0.1151667E+00
         21   -1    0    0  501  502  0.00000000000E+00  0.00000000000E+00  0.72644910247E+02  0.72644910247E+02  0.00000000000E+00 0. -1.
         21   -1    0    0  502  503 -0.00000000000E+00 -0.00000000000E+00 -0.61271834788E+03  0.61271834788E+03  0.00000000000E+00 0. -1.
          6    1    1    2  501    0 -0.90056396209E+02  0.32537560566E+02 -0.15053402861E+03  0.24851225546E+03  0.17300000000E+03 0. -1.
         -6    1    1    2    0  503  0.90056396209E+02 -0.32537560566E+02 -0.38953940903E+03  0.43685100267E+03  0.17300000000E+03 0. -1.
<mgrwt>
<rscale>  2 0.19773176E+03</rscale>
<asrwt>0</asrwt>
<pdfrwt beam="1">  1       21 0.11176140E-01 0.19773176E+03</pdfrwt>
<pdfrwt beam="2">  1       21 0.94264360E-01 0.19773176E+03</pdfrwt>
<totfact> 0.62695753E+04</totfact>
</mgrwt>
</event>
<event>
 4    1  0.3957190E+000  0.2041434E+03  0.7546771E-02  0.1146290E+00
         21   -1    0    0  503  502  0.00000000000E+00  0.00000000000E+00  0.43275928147E+02  0.43275928147E+02  0.00000000000E+00 0.  1.
         21   -1    0    0  501  503 -0.00000000000E+00 -0.00000000000E+00 -0.21586069401E+04  0.21586069401E+04  0.00000000000E+00 0.  1.
          6    1    1    2  501    0 -0.85590331373E+02 -0.66481813423E+02 -0.23830993354E+03  0.31379318151E+03  0.17300000000E+03 0.  1.
         -6    1    1    2    0  502  0.85590331373E+02  0.66481813423E+02 -0.18770210784E+04  0.18880896868E+04  0.17300000000E+03 0.  1.
<mgrwt>
<rscale>  2 0.20414342E+03</rscale>
<asrwt>0</asrwt>
<pdfrwt beam="1">  1       21 0.66578369E-02 0.20414342E+03</pdfrwt>
<pdfrwt beam="2">  1       21 0.33209329E+00 0.20414342E+03</pdfrwt>
<totfact> 0.36205002E+03</totfact>
</mgrwt>
</event>
<event>
 4    1  0.3957190E+000  0.2669798E+03  0.7546771E-02  0.1103021E+00
         21   -1    0    0  503  502  0.00000000000E+00  0.00000000000E+00  0.16473177347E+03  0.16473177347E+03  0.00000000000E+00 0. -1.
         21   -1    0    0  501  503 -0.00000000000E+00 -0.00000000000E+00 -0.44495810053E+03  0.44495810053E+03  0.00000000000E+00 0.  1.
          6    1    1    2  501    0  0.18712696229E+03  0.79578407484E+02 -0.89500210145E+02  0.28158215598E+03  0.17300000000E+03 0. -1.
         -6    1    1    2    0  502 -0.18712696229E+03 -0.79578407484E+02 -0.19072611691E+03  0.32810771802E+03  0.17300000000E+03 0.  1.
<mgrwt>
<rscale>  2 0.26697982E+03</rscale>
<asrwt>0</asrwt>
<pdfrwt beam="1">  1       21 0.25343350E-01 0.26697982E+03</pdfrwt>
<pdfrwt beam="2">  1       21 0.68455092E-01 0.26697982E+03</pdfrwt>
<totfact> 0.27681358E+04</totfact>
</mgrwt>
</event>
<event>
 4    1  0.3957190E+000  0.1797850E+03  0.7546771E-02  0.1168011E+00
         21   -1    0    0  503  502  0.00000000000E+00  0.00000000000E+00  0.67884011089E+02  0.67884011089E+02  0.00000000000E+00 0.  1.
         21   -1    0    0  501  503 -0.00000000000E+00 -0.00000000000E+00 -0.13130771704E+04  0.13130771704E+04  0.00000000000E+00 0.  1.
          6    1    1    2  501    0  0.25689166756E+02  0.41637834054E+02 -0.11738501843E+04  0.11875381668E+04  0.17300000000E+03 0.  1.
         -6    1    1    2    0  502 -0.25689166756E+02 -0.41637834054E+02 -0.71342975009E+02  0.19342301465E+03  0.17300000000E+03 0.  1.
<mgrwt>
<rscale>  2 0.17978499E+03</rscale>
<asrwt>0</asrwt>
<pdfrwt beam="1">  1       21 0.10443694E-01 0.17978499E+03</pdfrwt>
<pdfrwt beam="2">  1       21 0.20201187E+00 0.17978499E+03</pdfrwt>
<totfact> 0.99046948E+03</totfact>
</mgrwt>
</event>
<event>
 4    1  0.3957190E+000  0.2508664E+03  0.7546771E-02  0.1112758E+00
         21   -1    0    0  501  502  0.00000000000E+00  0.00000000000E+00  0.30772623305E+03  0.30772623305E+03  0.00000000000E+00 0.  1.
         21   -1    0    0  502  503 -0.00000000000E+00 -0.00000000000E+00 -0.21987144444E+03  0.21987144444E+03  0.00000000000E+00 0.  1.
          6    1    1    2  501    0  0.16897143421E+03  0.66735357361E+02  0.11364860344E+03  0.27540871185E+03  0.17300000000E+03 0.  1.
         -6    1    1    2    0  503 -0.16897143421E+03 -0.66735357361E+02 -0.25793814833E+02  0.25218896563E+03  0.17300000000E+03 0.  1.
<mgrwt>
<rscale>  2 0.25086641E+03</rscale>
<asrwt>0</asrwt>
<pdfrwt beam="1">  1       21 0.47342497E-01 0.25086641E+03</pdfrwt>
<pdfrwt beam="2">  1       21 0.33826376E-01 0.25086641E+03</pdfrwt>
<totfact> 0.34939253E+04</totfact>
</mgrwt>
</event>
<event>
 4    1  0.3957190E+000  0.2186872E+03  0.7546771E-02  0.1134866E+00
         21   -1    0    0  503  502  0.00000000000E+00  0.00000000000E+00  0.27469571424E+03  0.27469571424E+03  0.00000000000E+00 0.  1.
         21   -1    0    0  501  503 -0.00000000000E+00 -0.00000000000E+00 -0.17428185028E+03  0.17428185028E+03  0.00000000000E+00 0.  1.
          6    1    1    2  501    0  0.95255548654E+02  0.93922740776E+02  0.42924828281E+02  0.22286013925E+03  0.17300000000E+03 0.  1.
         -6    1    1    2    0  502 -0.95255548654E+02 -0.93922740776E+02  0.57489035678E+02  0.22611742526E+03  0.17300000000E+03 0.  1.
<mgrwt>
<rscale>  2 0.21868722E+03</rscale>
<asrwt>0</asrwt>
<pdfrwt beam="1">  1       21 0.42260879E-01 0.21868722E+03</pdfrwt>
<pdfrwt beam="2">  1       21 0.26812592E-01 0.21868722E+03</pdfrwt>
<totfact> 0.70564027E+04</totfact>
</mgrwt>
</event>
<event>
 4    1  0.3957190E+000  0.1861985E+03  0.7546771E-02  0.1161935E+00
         21   -1    0    0  503  502  0.00000000000E+00  0.00000000000E+00  0.29524137738E+03  0.29524137738E+03  0.00000000000E+00 0. -1.
         21   -1    0    0  501  503 -0.00000000000E+00 -0.00000000000E+00 -0.12200378953E+03  0.12200378953E+03  0.00000000000E+00 0. -1.
          6    1    1    2  501    0 -0.29133151303E+02  0.62386955516E+02  0.12701723031E+03  0.22539576198E+03  0.17300000000E+03 0. -1.
         -6    1    1    2    0  502  0.29133151303E+02 -0.62386955516E+02  0.46220357537E+02  0.19184940494E+03  0.17300000000E+03 0. -1.
<mgrwt>
<rscale>  2 0.18619848E+03</rscale>
<asrwt>0</asrwt>
<pdfrwt beam="1">  1       21 0.45421750E-01 0.18619848E+03</pdfrwt>
<pdfrwt beam="2">  1       21 0.18769814E-01 0.18619848E+03</pdfrwt>
<totfact> 0.12104710E+05</totfact>
</mgrwt>
</event>
<event>
 4    1  0.3957190E+000  0.1853034E+03  0.7546771E-02  0.1162767E+00
         21   -1    0    0  503  502  0.00000000000E+00  0.00000000000E+00  0.48981405645E+03  0.48981405645E+03  0.00000000000E+00 0.  1.
         21   -1    0    0  501  503 -0.00000000000E+00 -0.00000000000E+00 -0.81339469770E+02  0.81339469770E+02  0.00000000000E+00 0.  1.
          6    1    1    2  501    0 -0.20700132562E+02  0.63086095163E+02  0.31038007200E+03  0.36148739948E+03  0.17300000000E+03 0.  1.
         -6    1    1    2    0  502  0.20700132562E+02 -0.63086095163E+02  0.98094514684E+02  0.20966612674E+03  0.17300000000E+03 0.  1.
<mgrwt>
<rscale>  2 0.18530340E+03</rscale>
<asrwt>0</asrwt>
<pdfrwt beam="1">  1       21 0.75356007E-01 0.18530340E+03</pdfrwt>
<pdfrwt beam="2">  1       21 0.12513765E-01 0.18530340E+03</pdfrwt>
<totfact> 0.85895178E+04</totfact>
</mgrwt>
</event>
<event>
 4    1  0.3957190E+000  0.3209069E+03  0.7546771E-02  0.1075233E+00
         21   -1    0    0  503  502  0.00000000000E+00  0.00000000000E+00  0.30613822712E+03  0.30613822712E+03  0.00000000000E+00 0.  1.
         21   -1    0    0  501  503 -0.00000000000E+00 -0.00000000000E+00 -0.10982140732E+04  0.10982140732E+04  0.00000000000E+00 0. -1.
          6    1    1    2  501    0  0.22944062712E+03 -0.14286085139E+03 -0.98086906371E+03  0.10320297207E+04  0.17300000000E+03 0. -1.
         -6    1    1    2    0  502 -0.22944062712E+03  0.14286085139E+03  0.18879321767E+03  0.37232257959E+03  0.17300000000E+03 0.  1.
<mgrwt>
<rscale>  2 0.32090688E+03</rscale>
<asrwt>0</asrwt>
<pdfrwt beam="1">  1       21 0.47098188E-01 0.32090688E+03</pdfrwt>
<pdfrwt beam="2">  1       21 0.16895601E+00 0.32090688E+03</pdfrwt>
<totfact> 0.84030244E+02</totfact>
</mgrwt>
</event>
<event>
 4    1  0.3957190E+000  0.3176715E+03  0.7546771E-02  0.1076726E+00
         21   -1    0    0  501  502  0.00000000000E+00  0.00000000000E+00  0.12303007797E+03  0.12303007797E+03  0.00000000000E+00 0.  1.
         21   -1    0    0  502  503 -0.00000000000E+00 -0.00000000000E+00 -0.10175838120E+04  0.10175838120E+04  0.00000000000E+00 0.  1.
          6    1    1    2  501    0  0.18158738721E+03 -0.19496715869E+03 -0.19613070368E+03  0.37333955735E+03  0.17300000000E+03 0.  1.
         -6    1    1    2    0  503 -0.18158738721E+03  0.19496715869E+03 -0.69842303036E+03  0.76727433262E+03  0.17300000000E+03 0.  1.
<mgrwt>
<rscale>  2 0.31767148E+03</rscale>
<asrwt>0</asrwt>
<pdfrwt beam="1">  1       21 0.18927704E-01 0.31767148E+03</pdfrwt>
<pdfrwt beam="2">  1       21 0.15655136E+00 0.31767148E+03</pdfrwt>
<totfact> 0.62966437E+03</totfact>
</mgrwt>
</event>
<event>
 4    1  0.3957190E+000  0.1961684E+03  0.7546771E-02  0.1153013E+00
         21   -1    0    0  503  502  0.00000000000E+00  0.00000000000E+00  0.10365662107E+03  0.10365662107E+03  0.00000000000E+00 0.  1.
         21   -1    0    0  501  503 -0.00000000000E+00 -0.00000000000E+00 -0.37611132952E+03  0.37611132952E+03  0.00000000000E+00 0.  1.
          6    1    1    2  501    0  0.59570429165E+02 -0.70741949871E+02 -0.16351205249E+03  0.25537864204E+03  0.17300000000E+03 0.  1.
         -6    1    1    2    0  502 -0.59570429165E+02  0.70741949871E+02 -0.10894265597E+03  0.22438930855E+03  0.17300000000E+03 0.  1.
<mgrwt>
<rscale>  2 0.19616845E+03</rscale>
<asrwt>0</asrwt>
<pdfrwt beam="1">  1       21 0.15947172E-01 0.19616845E+03</pdfrwt>
<pdfrwt beam="2">  1       21 0.57863281E-01 0.19616845E+03</pdfrwt>
<totfact> 0.98098258E+04</totfact>
</mgrwt>
</event>
<event>
 4    1  0.3957190E+000  0.2577891E+03  0.7546771E-02  0.1108479E+00
         21   -1    0    0  503  502  0.00000000000E+00  0.00000000000E+00  0.10264490473E+04  0.10264490473E+04  0.00000000000E+00 0. -1.
         21   -1    0    0  501  503 -0.00000000000E+00 -0.00000000000E+00 -0.64808966962E+02  0.64808966962E+02  0.00000000000E+00 0. -1.
          6    1    1    2  501    0  0.18006489527E+03  0.64053706292E+02  0.49824667972E+03  0.56098573748E+03  0.17300000000E+03 0. -1.
         -6    1    1    2    0  502 -0.18006489527E+03 -0.64053706292E+02  0.46339340063E+03  0.53027227680E+03  0.17300000000E+03 0. -1.
<mgrwt>
<rscale>  2 0.25778915E+03</rscale>
<asrwt>0</asrwt>
<pdfrwt beam="1">  1       21 0.15791523E+00 0.25778915E+03</pdfrwt>
<pdfrwt beam="2">  1       21 0.99706110E-02 0.25778915E+03</pdfrwt>
<totfact> 0.20440895E+04</totfact>
</mgrwt>
</event>
<event>
 4    1  0.3957190E+000  0.2116071E+03  0.7546771E-02  0.1140300E+00
         21   -1    0    0  503  502  0.00000000000E+00  0.00000000000E+00  0.33672895575E+03  0.33672895575E+03  0.00000000000E+00 0. -1.
         21   -1    0    0  501  503 -0.00000000000E+00 -0.00000000000E+00 -0.16539603670E+03  0.16539603670E+03  0.00000000000E+00 0. -1.
          6    1    1    2  501    0 -0.71792333266E+02  0.98460231982E+02  0.19681720584E+03  0.28898887333E+03  0.17300000000E+03 0. -1.
         -6    1    1    2    0  502  0.71792333266E+02 -0.98460231982E+02 -0.25484286782E+02  0.21313611911E+03  0.17300000000E+03 0. -1.
<mgrwt>
<rscale>  2 0.21160708E+03</rscale>
<asrwt>0</asrwt>
<pdfrwt beam="1">  1       21 0.51804455E-01 0.21160708E+03</pdfrwt>
<pdfrwt beam="2">  1       21 0.25445544E-01 0.21160708E+03</pdfrwt>
<totfact> 0.51344502E+04</totfact>
</mgrwt>
</event>
<event>
 4    1  0.3957190E+000  0.2256867E+03  0.7546771E-02  0.1129713E+00
         21   -1    0    0  503  502  0.00000000000E+00  0.00000000000E+00  0.16130433240E+03  0.16130433240E+03  0.00000000000E+00 0. -1.
         21   -1    0    0  501  503 -0.00000000000E+00 -0.00000000000E+00 -0.80743043254E+03  0.80743043254E+03  0.00000000000E+00 0. -1.
          6    1    1    2  501    0  0.10805293738E+03  0.96592179452E+02 -0.70103237718E+03  0.73646512494E+03  0.17300000000E+03 0. -1.
         -6    1    1    2    0  502 -0.10805293738E+03 -0.96592179452E+02  0.54906277033E+02  0.23226964000E+03  0.17300000000E+03 0. -1.
<mgrwt>
<rscale>  2 0.22568670E+03</rscale>
<asrwt>0</asrwt>
<pdfrwt beam="1">  1       21 0.24816051E-01 0.22568670E+03</pdfrwt>
<pdfrwt beam="2">  1       21 0.12422007E+00 0.22568670E+03</pdfrwt>
<totfact> 0.72661627E+03</totfact>
</mgrwt>
</event>
<event>
 4    1  0.3957190E+000  0.2379467E+03  0.7546771E-02  0.1121168E+00
         21   -1    0    0  503  502  0.00000000000E+00  0.00000000000E+00  0.22644852825E+03  0.22644852825E+03  0.00000000000E+00 0.  1.
         21   -1    0    0  501  503 -0.00000000000E+00 -0.00000000000E+00 -0.25110887077E+03  0.25110887077E+03  0.00000000000E+00 0.  1.
          6    1    1    2  501    0  0.82571640685E+02  0.14096647073E+03 -0.27991158172E+02  0.23958740921E+03  0.17300000000E+03 0.  1.
         -6    1    1    2    0  502 -0.82571640685E+02 -0.14096647073E+03  0.33308156500E+01  0.23796998981E+03  0.17300000000E+03 0.  1.
<mgrwt>
<rscale>  2 0.23794668E+03</rscale>
<asrwt>0</asrwt>
<pdfrwt beam="1">  1       21 0.34838235E-01 0.23794668E+03</pdfrwt>
<pdfrwt beam="2">  1       21 0.38632134E-01 0.23794668E+03</pdfrwt>
<totfact> 0.50268002E+04</totfact>
</mgrwt>
</event>
<event>
 4    1  0.3957190E+000  0.2165242E+03  0.7546771E-02  0.1136501E+00
         21   -1    0    0  503  502  0.00000000000E+00  0.00000000000E+00  0.10100319248E+04  0.10100319248E+04  0.00000000000E+00 0. -1.
         21   -1    0    0  501  503 -0.00000000000E+00 -0.00000000000E+00 -0.95477943523E+02  0.95477943523E+02  0.00000000000E+00 0. -1.
          6    1    1    2  501    0  0.32157121443E+02  0.12617317245E+03  0.61045837588E+02  0.22496520663E+03  0.17300000000E+03 0. -1.
         -6    1    1    2    0  502 -0.32157121443E+02 -0.12617317245E+03  0.85350814373E+03  0.88054466174E+03  0.17300000000E+03 0. -1.
<mgrwt>
<rscale>  2 0.21652425E+03</rscale>
<asrwt>0</asrwt>
<pdfrwt beam="1">  1       21 0.15538952E+00 0.21652425E+03</pdfrwt>
<pdfrwt beam="2">  1       21 0.14688915E-01 0.21652425E+03</pdfrwt>
<totfact> 0.10902301E+04</totfact>
</mgrwt>
</event>
<event>
 4    1  0.3957190E+000  0.2024825E+03  0.7546771E-02  0.1147661E+00
         21   -1    0    0  501  502  0.00000000000E+00  0.00000000000E+00  0.36462495547E+03  0.36462495547E+03  0.00000000000E+00 0.  1.
         21   -1    0    0  502  503 -0.00000000000E+00 -0.00000000000E+00 -0.12954894774E+03  0.12954894774E+03  0.00000000000E+00 0.  1.
          6    1    1    2  501    0 -0.52210010210E+01 -0.10508519974E+03  0.20732618461E+03  0.28979873168E+03  0.17300000000E+03 0.  1.
         -6    1    1    2    0  503  0.52210010210E+01  0.10508519974E+03  0.27749823116E+02  0.20437517153E+03  0.17300000000E+03 0.  1.
<mgrwt>
<rscale>  2 0.20248249E+03</rscale>
<asrwt>0</asrwt>
<pdfrwt beam="1">  1       21 0.56096147E-01 0.20248249E+03</pdfrwt>
<pdfrwt beam="2">  1       21 0.19930608E-01 0.20248249E+03</pdfrwt>
<totfact> 0.69193726E+04</totfact>
</mgrwt>
</event>
<event>
 4    1  0.3957190E+000  0.1872028E+03  0.7546771E-02  0.1161009E+00
         21   -1    0    0  501  502  0.00000000000E+00  0.00000000000E+00  0.19410919816E+04  0.19410919816E+04  0.00000000000E+00 0. -1.
         21   -1    0    0  502  503 -0.00000000000E+00 -0.00000000000E+00 -0.24562130260E+02  0.24562130260E+02  0.00000000000E+00 0.  1.
          6    1    1    2  501    0  0.22746341889E+02  0.67812239137E+02  0.14641652600E+04  0.14760842809E+04  0.17300000000E+03 0. -1.
         -6    1    1    2    0  503 -0.22746341889E+02 -0.67812239137E+02  0.45236459129E+03  0.48956983087E+03  0.17300000000E+03 0.  1.
<mgrwt>
<rscale>  2 0.18720282E+03</rscale>
<asrwt>0</asrwt>
<pdfrwt beam="1">  1       21 0.29862941E+00 0.18720282E+03</pdfrwt>
<pdfrwt beam="2">  1       21 0.37787908E-02 0.18720282E+03</pdfrwt>
<totfact> 0.15067893E+04</totfact>
</mgrwt>
</event>
<event>
 4    1  0.3957190E+000  0.2216350E+03  0.7546771E-02  0.1132670E+00
         21   -1    0    0  503  502  0.00000000000E+00  0.00000000000E+00  0.57936989263E+02  0.57936989263E+02  0.00000000000E+00 0.  1.
         21   -1    0    0  501  503 -0.00000000000E+00 -0.00000000000E+00 -0.98302648687E+03  0.98302648687E+03  0.00000000000E+00 0.  1.
          6    1    1    2  501    0 -0.86944738903E+02  0.10785953503E+03 -0.65554957991E+03  0.69200239785E+03  0.17300000000E+03 0.  1.
         -6    1    1    2    0  502  0.86944738903E+02 -0.10785953503E+03 -0.26953991770E+03  0.34896107828E+03  0.17300000000E+03 0.  1.
<mgrwt>
<rscale>  2 0.22163499E+03</rscale>
<asrwt>0</asrwt>
<pdfrwt beam="1">  1       21 0.89133831E-02 0.22163499E+03</pdfrwt>
<pdfrwt beam="2">  1       21 0.15123484E+00 0.22163499E+03</pdfrwt>
<totfact> 0.28550318E+04</totfact>
</mgrwt>
</event>
<event>
 4    1  0.3957190E+000  0.2100580E+03  0.7546771E-02  0.1141520E+00
         21   -1    0    0  501  502  0.00000000000E+00  0.00000000000E+00  0.22876889368E+02  0.22876889368E+02  0.00000000000E+00 0. -1.
         21   -1    0    0  502  503 -0.00000000000E+00 -0.00000000000E+00 -0.26711890686E+04  0.26711890686E+04  0.00000000000E+00 0. -1.
          6    1    1    2  501    0  0.75345080298E+02 -0.92295690828E+02 -0.61400792739E+03  0.64894538335E+03  0.17300000000E+03 0. -1.
         -6    1    1    2    0  503 -0.75345080298E+02  0.92295690828E+02 -0.20343042519E+04  0.20451205747E+04  0.17300000000E+03 0. -1.
<mgrwt>
<rscale>  2 0.21005803E+03</rscale>
<asrwt>0</asrwt>
<pdfrwt beam="1">  1       21 0.35195194E-02 0.21005803E+03</pdfrwt>
<pdfrwt beam="2">  1       21 0.41095240E+00 0.21005803E+03</pdfrwt>
<totfact> 0.35265430E+03</totfact>
</mgrwt>
</event>
<event>
 4    1  0.3957190E+000  0.1882908E+03  0.7546771E-02  0.1160012E+00
         21   -1    0    0  503  502  0.00000000000E+00  0.00000000000E+00  0.29231256263E+03  0.29231256263E+03  0.00000000000E+00 0.  1.
         21   -1    0    0  501  503 -0.00000000000E+00 -0.00000000000E+00 -0.15232162294E+03  0.15232162294E+03  0.00000000000E+00 0.  1.
          6    1    1    2  501    0  0.11925891801E+02 -0.73363370934E+02 -0.30355727195E+02  0.19072199995E+03  0.17300000000E+03 0.  1.
         -6    1    1    2    0  502 -0.11925891801E+02  0.73363370934E+02  0.17034666688E+03  0.25391218562E+03  0.17300000000E+03 0.  1.
<mgrwt>
<rscale>  2 0.18829076E+03</rscale>
<asrwt>0</asrwt>
<pdfrwt beam="1">  1       21 0.44971164E-01 0.18829076E+03</pdfrwt>
<pdfrwt beam="2">  1       21 0.23434096E-01 0.18829076E+03</pdfrwt>
<totfact> 0.81426996E+04</totfact>
</mgrwt>
</event>
<event>
 4    1  0.3957190E+000  0.1772740E+03  0.7546771E-02  0.1170468E+00
         21   -1    0    0  503  502  0.00000000000E+00  0.00000000000E+00  0.98032272925E+03  0.98032272925E+03  0.00000000000E+00 0.  1.
         21   -1    0    0  501  503 -0.00000000000E+00 -0.00000000000E+00 -0.12278936105E+03  0.12278936105E+03  0.00000000000E+00 0.  1.
          6    1    1    2  501    0 -0.37771525513E+02  0.83900633000E+01 -0.45355950571E+02  0.18298427133E+03  0.17300000000E+03 0.  1.
         -6    1    1    2    0  502  0.37771525513E+02 -0.83900633000E+01  0.90288931877E+03  0.92012781898E+03  0.17300000000E+03 0.  1.
<mgrwt>
<rscale>  2 0.17727403E+03</rscale>
<asrwt>0</asrwt>
<pdfrwt beam="1">  1       21 0.15081888E+00 0.17727403E+03</pdfrwt>
<pdfrwt beam="2">  1       21 0.18890672E-01 0.17727403E+03</pdfrwt>
<totfact> 0.76589338E+03</totfact>
</mgrwt>
</event>
<event>
 4    1  0.3957190E+000  0.2174497E+03  0.7546771E-02  0.1135799E+00
         21   -1    0    0  501  502  0.00000000000E+00  0.00000000000E+00  0.46477257338E+03  0.46477257338E+03  0.00000000000E+00 0.  1.
         21   -1    0    0  502  503 -0.00000000000E+00 -0.00000000000E+00 -0.12184589333E+03  0.12184589333E+03  0.00000000000E+00 0.  1.
          6    1    1    2  501    0 -0.12595020224E+03 -0.38625195256E+02  0.29062024322E+03  0.36296623111E+03  0.17300000000E+03 0.  1.
         -6    1    1    2    0  503  0.12595020224E+03  0.38625195256E+02  0.52306436828E+02  0.22365223560E+03  0.17300000000E+03 0.  1.
<mgrwt>
<rscale>  2 0.21744967E+03</rscale>
<asrwt>0</asrwt>
<pdfrwt beam="1">  1       21 0.71503472E-01 0.21744967E+03</pdfrwt>
<pdfrwt beam="2">  1       21 0.18745522E-01 0.21744967E+03</pdfrwt>
<totfact> 0.45480517E+04</totfact>
</mgrwt>
</event>
<event>
 4    1  0.3957190E+000  0.1868356E+03  0.7546771E-02  0.1161347E+00
         21   -1    0    0  503  502  0.00000000000E+00  0.00000000000E+00  0.28117739060E+03  0.28117739060E+03  0.00000000000E+00 0.  1.
         21   -1    0    0  501  503 -0.00000000000E+00 -0.00000000000E+00 -0.12760608006E+03  0.12760608006E+03  0.00000000000E+00 0.  1.
          6    1    1    2  501    0  0.49524147693E+02 -0.50258206825E+02  0.11043398490E+03  0.21703270163E+03  0.17300000000E+03 0.  1.
         -6    1    1    2    0  502 -0.49524147693E+02  0.50258206825E+02  0.43137325639E+02  0.19175076902E+03  0.17300000000E+03 0.  1.
<mgrwt>
<rscale>  2 0.18683557E+03</rscale>
<asrwt>0</asrwt>
<pdfrwt beam="1">  1       21 0.43258060E-01 0.18683557E+03</pdfrwt>
<pdfrwt beam="2">  1       21 0.19631705E-01 0.18683557E+03</pdfrwt>
<totfact> 0.12302907E+05</totfact>
</mgrwt>
</event>
<event>
 4    1  0.3957190E+000  0.1738974E+03  0.7546771E-02  0.1173843E+00
         21   -1    0    0  501  502  0.00000000000E+00  0.00000000000E+00  0.47779390905E+03  0.47779390905E+03  0.00000000000E+00 0.  1.
         21   -1    0    0  502  503 -0.00000000000E+00 -0.00000000000E+00 -0.17104675243E+03  0.17104675243E+03  0.00000000000E+00 0.  1.
          6    1    1    2  501    0  0.44990292497E+01  0.17060876669E+02  0.41086915886E+03  0.44615443568E+03  0.17300000000E+03 0.  1.
         -6    1    1    2    0  503 -0.44990292497E+01 -0.17060876669E+02 -0.10412200224E+03  0.20268622579E+03  0.17300000000E+03 0.  1.
<mgrwt>
<rscale>  2 0.17389743E+03</rscale>
<asrwt>0</asrwt>
<pdfrwt beam="1">  1       21 0.73506755E-01 0.17389743E+03</pdfrwt>
<pdfrwt beam="2">  1       21 0.26314885E-01 0.17389743E+03</pdfrwt>
<totfact> 0.23086706E+04</totfact>
</mgrwt>
</event>
<event>
 4    1  0.3957190E+000  0.2031178E+03  0.7546771E-02  0.1147135E+00
         21   -1    0    0  503  502  0.00000000000E+00  0.00000000000E+00  0.20861309795E+03  0.20861309795E+03  0.00000000000E+00 0.  1.
         21   -1    0    0  501  503 -0.00000000000E+00 -0.00000000000E+00 -0.25552138418E+03  0.25552138418E+03  0.00000000000E+00 0.  1.
          6    1    1    2  501    0  0.10052912676E+03  0.34953373792E+02  0.86875360102E+02  0.22091666270E+03  0.17300000000E+03 0.  1.
         -6    1    1    2    0  502 -0.10052912676E+03 -0.34953373792E+02 -0.13378364633E+03  0.24321781943E+03  0.17300000000E+03 0.  1.
<mgrwt>
<rscale>  2 0.20311781E+03</rscale>
<asrwt>0</asrwt>
<pdfrwt beam="1">  1       21 0.32094323E-01 0.20311781E+03</pdfrwt>
<pdfrwt beam="2">  1       21 0.39310982E-01 0.20311781E+03</pdfrwt>
<totfact> 0.57970455E+04</totfact>
</mgrwt>
</event>
<event>
 4    1  0.3957190E+000  0.1963206E+03  0.7546771E-02  0.1152881E+00
         21   -1    0    0  503  502  0.00000000000E+00  0.00000000000E+00  0.10901022512E+03  0.10901022512E+03  0.00000000000E+00 0.  1.
         21   -1    0    0  501  503 -0.00000000000E+00 -0.00000000000E+00 -0.44193305222E+03  0.44193305222E+03  0.00000000000E+00 0.  1.
          6    1    1    2  501    0  0.83939752884E+02  0.39584074631E+02 -0.28964582148E+03  0.34990924964E+03  0.17300000000E+03 0.  1.
         -6    1    1    2    0  502 -0.83939752884E+02 -0.39584074631E+02 -0.43277005614E+02  0.20103402770E+03  0.17300000000E+03 0.  1.
<mgrwt>
<rscale>  2 0.19632061E+03</rscale>
<asrwt>0</asrwt>
<pdfrwt beam="1">  1       21 0.16770804E-01 0.19632061E+03</pdfrwt>
<pdfrwt beam="2">  1       21 0.67989699E-01 0.19632061E+03</pdfrwt>
<totfact> 0.63081968E+04</totfact>
</mgrwt>
</event>
<event>
 4    1  0.3957190E+000  0.1958618E+03  0.7546771E-02  0.1153278E+00
         21   -1    0    0  501  502  0.00000000000E+00  0.00000000000E+00  0.37934836490E+03  0.37934836490E+03  0.00000000000E+00 0. -1.
         21   -1    0    0  502  503 -0.00000000000E+00 -0.00000000000E+00 -0.13352593549E+03  0.13352593549E+03  0.00000000000E+00 0. -1.
          6    1    1    2  501    0  0.80966091911E+02  0.43328367291E+02  0.24923131126E+03  0.31698281020E+03  0.17300000000E+03 0. -1.
         -6    1    1    2    0  503 -0.80966091911E+02 -0.43328367291E+02 -0.34088818541E+01  0.19589149019E+03  0.17300000000E+03 0. -1.
<mgrwt>
<rscale>  2 0.19586183E+03</rscale>
<asrwt>0</asrwt>
<pdfrwt beam="1">  1       21 0.58361286E-01 0.19586183E+03</pdfrwt>
<pdfrwt beam="2">  1       21 0.20542452E-01 0.19586183E+03</pdfrwt>
<totfact> 0.60281636E+04</totfact>
</mgrwt>
</event>
<event>
 4    1  0.3957190E+000  0.2829913E+03  0.7546771E-02  0.1094066E+00
         21   -1    0    0  503  502  0.00000000000E+00  0.00000000000E+00  0.15141442358E+03  0.15141442358E+03  0.00000000000E+00 0. -1.
         21   -1    0    0  501  503 -0.00000000000E+00 -0.00000000000E+00 -0.70636345172E+03  0.70636345172E+03  0.00000000000E+00 0.  1.
          6    1    1    2  501    0 -0.41477465465E+02  0.22007883795E+03 -0.49244420156E+03  0.56796599080E+03  0.17300000000E+03 0.  1.
         -6    1    1    2    0  502  0.41477465465E+02 -0.22007883795E+03 -0.62504826581E+02  0.28981188450E+03  0.17300000000E+03 0. -1.
<mgrwt>
<rscale>  2 0.28299130E+03</rscale>
<asrwt>0</asrwt>
<pdfrwt beam="1">  1       21 0.23294527E-01 0.28299130E+03</pdfrwt>
<pdfrwt beam="2">  1       21 0.10867130E+00 0.28299130E+03</pdfrwt>
<totfact> 0.11046264E+04</totfact>
</mgrwt>
</event>
<event>
 4    1  0.3957190E+000  0.1940656E+03  0.7546771E-02  0.1154845E+00
         21   -1    0    0  501  502  0.00000000000E+00  0.00000000000E+00  0.61600304360E+02  0.61600304360E+02  0.00000000000E+00 0. -1.
         21   -1    0    0  502  503 -0.00000000000E+00 -0.00000000000E+00 -0.76711140960E+03  0.76711140960E+03  0.00000000000E+00 0. -1.
          6    1    1    2  501    0 -0.87513288943E+02  0.85959863832E+01 -0.16606334268E+03  0.25541828538E+03  0.17300000000E+03 0. -1.
         -6    1    1    2    0  503  0.87513288943E+02 -0.85959863832E+01 -0.53944776257E+03  0.57329342859E+03  0.17300000000E+03 0. -1.
<mgrwt>
<rscale>  2 0.19406562E+03</rscale>
<asrwt>0</asrwt>
<pdfrwt beam="1">  1       21 0.94769703E-02 0.19406562E+03</pdfrwt>
<pdfrwt beam="2">  1       21 0.11801713E+00 0.19406562E+03</pdfrwt>
<totfact> 0.49057126E+04</totfact>
</mgrwt>
</event>
<event>
 4    1  0.3957190E+000  0.1979557E+03  0.7546771E-02  0.1151475E+00
         21   -1    0    0  501  502  0.00000000000E+00  0.00000000000E+00  0.24834812820E+03  0.24834812820E+03  0.00000000000E+00 0.  1.
         21   -1    0    0  502  503 -0.00000000000E+00 -0.00000000000E+00 -0.26835191190E+03  0.26835191190E+03  0.00000000000E+00 0.  1.
          6    1    1    2  501    0 -0.92111213067E+02  0.27802513618E+02  0.15582770807E+03  0.25193001000E+03  0.17300000000E+03 0.  1.
         -6    1    1    2    0  503  0.92111213067E+02 -0.27802513618E+02 -0.17583149177E+03  0.26477003009E+03  0.17300000000E+03 0.  1.
<mgrwt>
<rscale>  2 0.19795569E+03</rscale>
<asrwt>0</asrwt>
<pdfrwt beam="1">  1       21 0.38207404E-01 0.19795569E+03</pdfrwt>
<pdfrwt beam="2">  1       21 0.41284909E-01 0.19795569E+03</pdfrwt>
<totfact> 0.37220761E+04</totfact>
</mgrwt>
</event>
<event>
 4    1  0.3957190E+000  0.2079255E+03  0.7546771E-02  0.1143219E+00
         21   -1    0    0  503  502  0.00000000000E+00  0.00000000000E+00  0.25198356706E+03  0.25198356706E+03  0.00000000000E+00 0.  1.
         21   -1    0    0  501  503 -0.00000000000E+00 -0.00000000000E+00 -0.17200852681E+03  0.17200852681E+03  0.00000000000E+00 0. -1.
          6    1    1    2  501    0 -0.90516144657E+02 -0.71490172047E+02  0.50682113588E+02  0.21401330281E+03  0.17300000000E+03 0.  1.
         -6    1    1    2    0  502  0.90516144657E+02  0.71490172047E+02  0.29292926666E+02  0.20997879106E+03  0.17300000000E+03 0.  1.
<mgrwt>
<rscale>  2 0.20792551E+03</rscale>
<asrwt>0</asrwt>
<pdfrwt beam="1">  1       21 0.38766703E-01 0.20792551E+03</pdfrwt>
<pdfrwt beam="2">  1       21 0.26462850E-01 0.20792551E+03</pdfrwt>
<totfact> 0.86600884E+04</totfact>
</mgrwt>
</event>
<event>
 4    1  0.3957190E+000  0.1808159E+03  0.7546771E-02  0.1167016E+00
         21   -1    0    0  501  502  0.00000000000E+00  0.00000000000E+00  0.11093676177E+03  0.11093676177E+03  0.00000000000E+00 0. -1.
         21   -1    0    0  502  503 -0.00000000000E+00 -0.00000000000E+00 -0.10438772464E+04  0.10438772464E+04  0.00000000000E+00 0. -1.
          6    1    1    2  501    0  0.50832977034E+02 -0.13469053767E+02  0.22684323675E+02  0.18223332710E+03  0.17300000000E+03 0. -1.
         -6    1    1    2    0  503 -0.50832977034E+02  0.13469053767E+02 -0.95562480832E+03  0.97258068109E+03  0.17300000000E+03 0. -1.
<mgrwt>
<rscale>  2 0.18081595E+03</rscale>
<asrwt>0</asrwt>
<pdfrwt beam="1">  1       21 0.17067194E-01 0.18081595E+03</pdfrwt>
<pdfrwt beam="2">  1       21 0.16059650E+00 0.18081595E+03</pdfrwt>
<totfact> 0.77923625E+03</totfact>
</mgrwt>
</event>
<event>
 4    1  0.3957190E+000  0.2044476E+03  0.7546771E-02  0.1146040E+00
         21   -1    0    0  503  502  0.00000000000E+00  0.00000000000E+00  0.26838603065E+04  0.26838603065E+04  0.00000000000E+00 0.  1.
         21   -1    0    0  501  503 -0.00000000000E+00 -0.00000000000E+00 -0.23021749558E+02  0.23021749558E+02  0.00000000000E+00 0.  1.
          6    1    1    2  501    0  0.74122368966E+02  0.79847836098E+02  0.56061774223E+03  0.59673365533E+03  0.17300000000E+03 0.  1.
         -6    1    1    2    0  502 -0.74122368966E+02 -0.79847836098E+02  0.21002208148E+04  0.21101484008E+04  0.17300000000E+03 0.  1.
<mgrwt>
<rscale>  2 0.20444755E+03</rscale>
<asrwt>0</asrwt>
<pdfrwt beam="1">  1       21 0.41290134E+00 0.20444755E+03</pdfrwt>
<pdfrwt beam="2">  1       21 0.35418098E-02 0.20444755E+03</pdfrwt>
<totfact> 0.34171179E+03</totfact>
</mgrwt>
</event>
<event>
 4    1  0.3957190E+000  0.2705020E+03  0.7546771E-02  0.1100993E+00
         21   -1    0    0  501  502  0.00000000000E+00  0.00000000000E+00  0.34838093680E+03  0.34838093680E+03  0.00000000000E+00 0.  1.
         21   -1    0    0  502  503 -0.00000000000E+00 -0.00000000000E+00 -0.21405808424E+03  0.21405808424E+03  0.00000000000E+00 0. -1.
          6    1    1    2  501    0 -0.20717600274E+03 -0.17900298574E+02  0.28596327491E+02  0.27200931371E+03  0.17300000000E+03 0.  1.
         -6    1    1    2    0  503  0.20717600274E+03  0.17900298574E+02  0.10572652507E+03  0.29042970733E+03  0.17300000000E+03 0. -1.
<mgrwt>
<rscale>  2 0.27050197E+03</rscale>
<asrwt>0</asrwt>
<pdfrwt beam="1">  1       21 0.53597067E-01 0.27050197E+03</pdfrwt>
<pdfrwt beam="2">  1       21 0.32932013E-01 0.27050197E+03</pdfrwt>
<totfact> 0.28152845E+04</totfact>
</mgrwt>
</event>
<event>
 4    1  0.3957190E+000  0.1817973E+03  0.7546771E-02  0.1166075E+00
         21   -1    0    0  503  502  0.00000000000E+00  0.00000000000E+00  0.14452155747E+03  0.14452155747E+03  0.00000000000E+00 0. -1.
         21   -1    0    0  501  503 -0.00000000000E+00 -0.00000000000E+00 -0.26929150244E+03  0.26929150244E+03  0.00000000000E+00 0.  1.
          6    1    1    2  501    0  0.54098723756E+02 -0.13949011828E+02 -0.14272801758E+03  0.23113098850E+03  0.17300000000E+03 0.  1.
         -6    1    1    2    0  502 -0.54098723756E+02  0.13949011828E+02  0.17958072610E+02  0.18268207141E+03  0.17300000000E+03 0. -1.
<mgrwt>
<rscale>  2 0.18179727E+03</rscale>
<asrwt>0</asrwt>
<pdfrwt beam="1">  1       21 0.22234086E-01 0.18179727E+03</pdfrwt>
<pdfrwt beam="2">  1       21 0.41429461E-01 0.18179727E+03</pdfrwt>
<totfact> 0.10657451E+05</totfact>
</mgrwt>
</event>
<event>
 4    1  0.3957190E+000  0.2054440E+03  0.7546771E-02  0.1145226E+00
         21   -1    0    0  501  502  0.00000000000E+00  0.00000000000E+00  0.28120414738E+03  0.28120414738E+03  0.00000000000E+00 0. -1.
         21   -1    0    0  502  503 -0.00000000000E+00 -0.00000000000E+00 -0.16359807750E+03  0.16359807750E+03  0.00000000000E+00 0. -1.
          6    1    1    2  501    0 -0.64989861094E+01 -0.11061637588E+03 -0.50925620294E+01  0.20550706465E+03  0.17300000000E+03 0. -1.
         -6    1    1    2    0  503  0.64989861094E+01  0.11061637588E+03  0.12269863191E+03  0.23929516022E+03  0.17300000000E+03 0. -1.
<mgrwt>
<rscale>  2 0.20544396E+03</rscale>
<asrwt>0</asrwt>
<pdfrwt beam="1">  1       21 0.43262176E-01 0.20544396E+03</pdfrwt>
<pdfrwt beam="2">  1       21 0.25168935E-01 0.20544396E+03</pdfrwt>
<totfact> 0.76383426E+04</totfact>
</mgrwt>
</event>
<event>
 4    1  0.3957190E+000  0.2067698E+03  0.7546771E-02  0.1144150E+00
         21   -1    0    0  503  502  0.00000000000E+00  0.00000000000E+00  0.56429598577E+03  0.56429598577E+03  0.00000000000E+00 0. -1.
         21   -1    0    0  501  503 -0.00000000000E+00 -0.00000000000E+00 -0.31156041551E+03  0.31156041551E+03  0.00000000000E+00 0.  1.
          6    1    1    2  501    0 -0.11433091938E+02  0.11266778081E+03 -0.25461002756E+03  0.32799391848E+03  0.17300000000E+03 0.  1.
         -6    1    1    2    0  502  0.11433091938E+02 -0.11266778081E+03  0.50734559783E+03  0.54786248280E+03  0.17300000000E+03 0. -1.
<mgrwt>
<rscale>  2 0.20676979E+03</rscale>
<asrwt>0</asrwt>
<pdfrwt beam="1">  1       21 0.86814767E-01 0.20676979E+03</pdfrwt>
<pdfrwt beam="2">  1       21 0.47932372E-01 0.20676979E+03</pdfrwt>
<totfact> 0.46967541E+03</totfact>
</mgrwt>
</event>
<event>
 4    1  0.3957190E+000  0.1828210E+03  0.7546771E-02  0.1165100E+00
         21   -1    0    0  501  502  0.00000000000E+00  0.00000000000E+00  0.10506159351E+03  0.10506159351E+03  0.00000000000E+00 0.  1.
         21   -1    0    0  502  503 -0.00000000000E+00 -0.00000000000E+00 -0.71452121711E+03  0.71452121711E+03  0.00000000000E+00 0.  1.
          6    1    1    2  501    0 -0.19688356666E+02  0.55739375153E+02  0.49224379074E+00  0.18282163886E+03  0.17300000000E+03 0.  1.
         -6    1    1    2    0  503  0.19688356666E+02 -0.55739375153E+02 -0.60995186739E+03  0.63676117176E+03  0.17300000000E+03 0.  1.
<mgrwt>
<rscale>  2 0.18282098E+03</rscale>
<asrwt>0</asrwt>
<pdfrwt beam="1">  1       21 0.16163323E-01 0.18282098E+03</pdfrwt>
<pdfrwt beam="2">  1       21 0.10992634E+00 0.18282098E+03</pdfrwt>
<totfact> 0.22523778E+04</totfact>
</mgrwt>
</event>
<event>
 4    1  0.3957190E+000  0.1876450E+03  0.7546771E-02  0.1160603E+00
         21   -1    0    0  501  502  0.00000000000E+00  0.00000000000E+00  0.98413259931E+03  0.98413259931E+03  0.00000000000E+00 0.  1.
         21   -1    0    0  502  503 -0.00000000000E+00 -0.00000000000E+00 -0.40422242789E+02  0.40422242789E+02  0.00000000000E+00 0. -1.
          6    1    1    2  501    0  0.71798056042E+02  0.11255827618E+02  0.64548944697E+03  0.67221074125E+03  0.17300000000E+03 0. -1.
         -6    1    1    2    0  503 -0.71798056042E+02 -0.11255827618E+02  0.29822090955E+03  0.35234410085E+03  0.17300000000E+03 0. -1.
<mgrwt>
<rscale>  2 0.18764502E+03</rscale>
<asrwt>0</asrwt>
<pdfrwt beam="1">  1       21 0.15140500E+00 0.18764502E+03</pdfrwt>
<pdfrwt beam="2">  1       21 0.62188073E-02 0.18764502E+03</pdfrwt>
<totfact> 0.54232325E+04</totfact>
</mgrwt>
</event>
<event>
 4    1  0.3957190E+000  0.2001632E+03  0.7546771E-02  0.1149601E+00
         21   -1    0    0  501  502  0.00000000000E+00  0.00000000000E+00  0.47627024160E+03  0.47627024160E+03  0.00000000000E+00 0.  1.
         21   -1    0    0  502  503 -0.00000000000E+00 -0.00000000000E+00 -0.84130676270E+02  0.84130676270E+02  0.00000000000E+00 0. -1.
          6    1    1    2  501    0  0.74728428863E+02 -0.67468336616E+02  0.19340538950E+03  0.27833605447E+03  0.17300000000E+03 0. -1.
         -6    1    1    2    0  503 -0.74728428863E+02  0.67468336616E+02  0.19873417582E+03  0.28206486340E+03  0.17300000000E+03 0. -1.
<mgrwt>
<rscale>  2 0.20016322E+03</rscale>
<asrwt>0</asrwt>
<pdfrwt beam="1">  1       21 0.73272343E-01 0.20016322E+03</pdfrwt>
<pdfrwt beam="2">  1       21 0.12943181E-01 0.20016322E+03</pdfrwt>
<totfact> 0.85519630E+04</totfact>
</mgrwt>
</event>
<event>
 4    1  0.3957190E+000  0.2415713E+03  0.7546771E-02  0.1118750E+00
         21   -1    0    0  503  502  0.00000000000E+00  0.00000000000E+00  0.13291099673E+04  0.13291099673E+04  0.00000000000E+00 0. -1.
         21   -1    0    0  501  503 -0.00000000000E+00 -0.00000000000E+00 -0.57397059363E+02  0.57397059363E+02  0.00000000000E+00 0. -1.
          6    1    1    2  501    0 -0.40761157675E+02 -0.16360382251E+03  0.29976239743E+03  0.38498594472E+03  0.17300000000E+03 0. -1.
         -6    1    1    2    0  502  0.40761157675E+02  0.16360382251E+03  0.97195051046E+03  0.10015210819E+04  0.17300000000E+03 0. -1.
<mgrwt>
<rscale>  2 0.24157128E+03</rscale>
<asrwt>0</asrwt>
<pdfrwt beam="1">  1       21 0.20447843E+00 0.24157128E+03</pdfrwt>
<pdfrwt beam="2">  1       21 0.88303178E-02 0.24157128E+03</pdfrwt>
<totfact> 0.12234612E+04</totfact>
</mgrwt>
</event>
<event>
 4    1  0.3957190E+000  0.1916739E+03  0.7546771E-02  0.1156960E+00
         21   -1    0    0  501  502  0.00000000000E+00  0.00000000000E+00  0.65518738034E+02  0.65518738034E+02  0.00000000000E+00 0.  1.
         21   -1    0    0  502  503 -0.00000000000E+00 -0.00000000000E+00 -0.65437715124E+03  0.65437715124E+03  0.00000000000E+00 0. -1.
          6    1    1    2  501    0 -0.76517806244E+02  0.30901724036E+02 -0.43059021931E+03  0.47132454656E+03  0.17300000000E+03 0. -1.
         -6    1    1    2    0  503  0.76517806244E+02 -0.30901724036E+02 -0.15826819389E+03  0.24857134272E+03  0.17300000000E+03 0.  1.
<mgrwt>
<rscale>  2 0.19167392E+03</rscale>
<asrwt>0</asrwt>
<pdfrwt beam="1">  1       21 0.10079806E-01 0.19167392E+03</pdfrwt>
<pdfrwt beam="2">  1       21 0.10067341E+00 0.19167392E+03</pdfrwt>
<totfact> 0.64679755E+04</totfact>
</mgrwt>
</event>
<event>
 4    1  0.3957190E+000  0.2979544E+03  0.7546771E-02  0.1086268E+00
         21   -1    0    0  503  502  0.00000000000E+00  0.00000000000E+00  0.12097983994E+04  0.12097983994E+04  0.00000000000E+00 0. -1.
         21   -1    0    0  501  503 -0.00000000000E+00 -0.00000000000E+00 -0.87912222790E+02  0.87912222790E+02  0.00000000000E+00 0.  1.
          6    1    1    2  501    0  0.20788591800E+03  0.12502501898E+03  0.82473834224E+03  0.87690942715E+03  0.17300000000E+03 0. -1.
         -6    1    1    2    0  502 -0.20788591800E+03 -0.12502501898E+03  0.29714783436E+03  0.42080119503E+03  0.17300000000E+03 0.  1.
<mgrwt>
<rscale>  2 0.29795438E+03</rscale>
<asrwt>0</asrwt>
<pdfrwt beam="1">  1       21 0.18612282E+00 0.29795438E+03</pdfrwt>
<pdfrwt beam="2">  1       21 0.13524958E-01 0.29795438E+03</pdfrwt>
<totfact> 0.72792817E+03</totfact>
</mgrwt>
</event>
<event>
 4    1  0.3957190E+000  0.2517277E+03  0.7546771E-02  0.1112218E+00
         21   -1    0    0  503  502  0.00000000000E+00  0.00000000000E+00  0.99417764863E+03  0.99417764863E+03  0.00000000000E+00 0. -1.
         21   -1    0    0  501  503 -0.00000000000E+00 -0.00000000000E+00 -0.18932938343E+03  0.18932938343E+03  0.00000000000E+00 0. -1.
          6    1    1    2  501    0  0.16898594527E+03  0.69868472854E+02 -0.79536795038E+02  0.26399423282E+03  0.17300000000E+03 0. -1.
         -6    1    1    2    0  502 -0.16898594527E+03 -0.69868472854E+02  0.88438506023E+03  0.91951279924E+03  0.17300000000E+03 0. -1.
<mgrwt>
<rscale>  2 0.25172774E+03</rscale>
<asrwt>0</asrwt>
<pdfrwt beam="1">  1       21 0.15295041E+00 0.25172774E+03</pdfrwt>
<pdfrwt beam="2">  1       21 0.29127598E-01 0.25172774E+03</pdfrwt>
<totfact> 0.30545985E+03</totfact>
</mgrwt>
</event>
<event>
 4    1  0.3957190E+000  0.1971201E+03  0.7546771E-02  0.1152192E+00
         21   -1    0    0  503  502  0.00000000000E+00  0.00000000000E+00  0.74556958280E+02  0.74556958280E+02  0.00000000000E+00 0. -1.
         21   -1    0    0  501  503 -0.00000000000E+00 -0.00000000000E+00 -0.55307415838E+03  0.55307415838E+03  0.00000000000E+00 0. -1.
          6    1    1    2  501    0  0.88250352256E+02  0.33751942315E+02 -0.16387880305E+03  0.25634465154E+03  0.17300000000E+03 0.  1.
         -6    1    1    2    0  502 -0.88250352256E+02 -0.33751942315E+02 -0.31463839705E+03  0.37128646512E+03  0.17300000000E+03 0.  1.
<mgrwt>
<rscale>  2 0.19712006E+03</rscale>
<asrwt>0</asrwt>
<pdfrwt beam="1">  1       21 0.11470301E-01 0.19712006E+03</pdfrwt>
<pdfrwt beam="2">  1       21 0.85088334E-01 0.19712006E+03</pdfrwt>
<totfact> 0.75887277E+04</totfact>
</mgrwt>
</event>
<event>
 4    1  0.3957190E+000  0.1867863E+03  0.7546771E-02  0.1161392E+00
         21   -1    0    0  501  502  0.00000000000E+00  0.00000000000E+00  0.13699705188E+04  0.13699705188E+04  0.00000000000E+00 0.  1.
         21   -1    0    0  502  503 -0.00000000000E+00 -0.00000000000E+00 -0.56154776369E+02  0.56154776369E+02  0.00000000000E+00 0.  1.
          6    1    1    2  501    0  0.14077346765E+02  0.69006942737E+02  0.11840364694E+04  0.11986790607E+04  0.17300000000E+03 0.  1.
         -6    1    1    2    0  503 -0.14077346765E+02 -0.69006942737E+02  0.12977927303E+03  0.22744623441E+03  0.17300000000E+03 0.  1.
<mgrwt>
<rscale>  2 0.18678632E+03</rscale>
<asrwt>0</asrwt>
<pdfrwt beam="1">  1       21 0.21076467E+00 0.18678632E+03</pdfrwt>
<pdfrwt beam="2">  1       21 0.86391974E-02 0.18678632E+03</pdfrwt>
<totfact> 0.12103899E+04</totfact>
</mgrwt>
</event>
<event>
 4    1  0.3957190E+000  0.3262856E+03  0.7546771E-02  0.1072792E+00
         21   -1    0    0  501  502  0.00000000000E+00  0.00000000000E+00  0.91408347860E+03  0.91408347860E+03  0.00000000000E+00 0. -1.
         21   -1    0    0  502  503 -0.00000000000E+00 -0.00000000000E+00 -0.12889675627E+03  0.12889675627E+03  0.00000000000E+00 0.  1.
          6    1    1    2  501    0 -0.25145821226E+03 -0.11533467441E+03  0.55452166688E+03  0.64339459018E+03  0.17300000000E+03 0. -1.
         -6    1    1    2    0  503  0.25145821226E+03  0.11533467441E+03  0.23066505545E+03  0.39958564469E+03  0.17300000000E+03 0.  1.
<mgrwt>
<rscale>  2 0.32628564E+03</rscale>
<asrwt>0</asrwt>
<pdfrwt beam="1">  1       21 0.14062822E+00 0.32628564E+03</pdfrwt>
<pdfrwt beam="2">  1       21 0.19830271E-01 0.32628564E+03</pdfrwt>
<totfact> 0.76536676E+03</totfact>
</mgrwt>
</event>
<event>
 4    1  0.3957190E+000  0.2082471E+03  0.7546771E-02  0.1142962E+00
         21   -1    0    0  501  502  0.00000000000E+00  0.00000000000E+00  0.14852442742E+04  0.14852442742E+04  0.00000000000E+00 0.  1.
         21   -1    0    0  502  503 -0.00000000000E+00 -0.00000000000E+00 -0.32644121225E+02  0.32644121225E+02  0.00000000000E+00 0.  1.
          6    1    1    2  501    0  0.10226671208E+03  0.54583605653E+02  0.97287189326E+03  0.99491033320E+03  0.17300000000E+03 0.  1.
         -6    1    1    2    0  503 -0.10226671208E+03 -0.54583605653E+02  0.47972825972E+03  0.52297806223E+03  0.17300000000E+03 0.  1.
<mgrwt>
<rscale>  2 0.20824709E+03</rscale>
<asrwt>0</asrwt>
<pdfrwt beam="1">  1       21 0.22849907E+00 0.20824709E+03</pdfrwt>
<pdfrwt beam="2">  1       21 0.50221736E-02 0.20824709E+03</pdfrwt>
<totfact> 0.23549613E+04</totfact>
</mgrwt>
</event>
<event>
 4    1  0.3957190E+000  0.1945162E+03  0.7546771E-02  0.1154450E+00
         21   -1    0    0  501  502  0.00000000000E+00  0.00000000000E+00  0.28298178409E+02  0.28298178409E+02  0.00000000000E+00 0.  1.
         21   -1    0    0  502  503 -0.00000000000E+00 -0.00000000000E+00 -0.13489509140E+04  0.13489509140E+04  0.00000000000E+00 0. -1.
          6    1    1    2  501    0 -0.60298693937E+02 -0.65357576255E+02 -0.59569043502E+03  0.62664474755E+03  0.17300000000E+03 0.  1.
         -6    1    1    2    0  503  0.60298693937E+02  0.65357576255E+02 -0.72496230058E+03  0.75060434486E+03  0.17300000000E+03 0. -1.
<mgrwt>
<rscale>  2 0.19451618E+03</rscale>
<asrwt>0</asrwt>
<pdfrwt beam="1">  1       21 0.43535665E-02 0.19451618E+03</pdfrwt>
<pdfrwt beam="2">  1       21 0.20753088E+00 0.19451618E+03</pdfrwt>
<totfact> 0.40820199E+04</totfact>
</mgrwt>
</event>
<event>
 4    1  0.3957190E+000  0.2176308E+03  0.7546771E-02  0.1135662E+00
         21   -1    0    0  501  502  0.00000000000E+00  0.00000000000E+00  0.30693354404E+02  0.30693354404E+02  0.00000000000E+00 0. -1.
         21   -1    0    0  502  503 -0.00000000000E+00 -0.00000000000E+00 -0.15475923351E+04  0.15475923351E+04  0.00000000000E+00 0. -1.
          6    1    1    2  501    0 -0.12104515689E+03  0.52747092699E+02 -0.71597415510E+03  0.74831956848E+03  0.17300000000E+03 0. -1.
         -6    1    1    2    0  503  0.12104515689E+03 -0.52747092699E+02 -0.80092482557E+03  0.82996612100E+03  0.17300000000E+03 0. -1.
<mgrwt>
<rscale>  2 0.21763085E+03</rscale>
<asrwt>0</asrwt>
<pdfrwt beam="1">  1       21 0.47220553E-02 0.21763085E+03</pdfrwt>
<pdfrwt beam="2">  1       21 0.23809109E+00 0.21763085E+03</pdfrwt>
<totfact> 0.22717231E+04</totfact>
</mgrwt>
</event>
<event>
 4    1  0.3957190E+000  0.1981223E+03  0.7546771E-02  0.1151333E+00
         21   -1    0    0  501  502  0.00000000000E+00  0.00000000000E+00  0.21724300681E+02  0.21724300681E+02  0.00000000000E+00 0. -1.
         21   -1    0    0  502  503 -0.00000000000E+00 -0.00000000000E+00 -0.23633708002E+04  0.23633708002E+04  0.00000000000E+00 0. -1.
          6    1    1    2  501    0  0.73891045294E+02  0.62157678025E+02 -0.59212512637E+03  0.62439140672E+03  0.17300000000E+03 0. -1.
         -6    1    1    2    0  503 -0.73891045294E+02 -0.62157678025E+02 -0.17495213732E+04  0.17607036942E+04  0.17300000000E+03 0. -1.
<mgrwt>
<rscale>  2 0.19812234E+03</rscale>
<asrwt>0</asrwt>
<pdfrwt beam="1">  1       21 0.33422001E-02 0.19812234E+03</pdfrwt>
<pdfrwt beam="2">  1       21 0.36359551E+00 0.19812234E+03</pdfrwt>
<totfact> 0.76285191E+03</totfact>
</mgrwt>
</event>
<event>
 4    1  0.3957190E+000  0.1789738E+03  0.7546771E-02  0.1168800E+00
         21   -1    0    0  501  502  0.00000000000E+00  0.00000000000E+00  0.42563450536E+03  0.42563450536E+03  0.00000000000E+00 0.  1.
         21   -1    0    0  502  503 -0.00000000000E+00 -0.00000000000E+00 -0.75660186512E+02  0.75660186512E+02  0.00000000000E+00 0.  1.
          6    1    1    2  501    0  0.45768200883E+02  0.28123672534E+01  0.15667202492E+03  0.23786080176E+03  0.17300000000E+03 0. -1.
         -6    1    1    2    0  503 -0.45768200883E+02 -0.28123672534E+01  0.19330229393E+03  0.26343389011E+03  0.17300000000E+03 0. -1.
<mgrwt>
<rscale>  2 0.17897385E+03</rscale>
<asrwt>0</asrwt>
<pdfrwt beam="1">  1       21 0.65482230E-01 0.17897385E+03</pdfrwt>
<pdfrwt beam="2">  1       21 0.11640029E-01 0.17897385E+03</pdfrwt>
<totfact> 0.13352998E+05</totfact>
</mgrwt>
</event>
<event>
 4    1  0.3957190E+000  0.1754350E+03  0.7546771E-02  0.1172296E+00
         21   -1    0    0  503  502  0.00000000000E+00  0.00000000000E+00  0.51034552408E+03  0.51034552408E+03  0.00000000000E+00 0. -1.
         21   -1    0    0  501  503 -0.00000000000E+00 -0.00000000000E+00 -0.10245216199E+03  0.10245216199E+03  0.00000000000E+00 0. -1.
          6    1    1    2  501    0  0.14967716824E+02 -0.24987808240E+02  0.74296185849E+01  0.17559220467E+03  0.17300000000E+03 0. -1.
         -6    1    1    2    0  502 -0.14967716824E+02  0.24987808240E+02  0.40046374351E+03  0.43720548141E+03  0.17300000000E+03 0. -1.
<mgrwt>
<rscale>  2 0.17543495E+03</rscale>
<asrwt>0</asrwt>
<pdfrwt beam="1">  1       21 0.78514695E-01 0.17543495E+03</pdfrwt>
<pdfrwt beam="2">  1       21 0.15761871E-01 0.17543495E+03</pdfrwt>
<totfact> 0.51847820E+04</totfact>
</mgrwt>
</event>
<event>
 4    1  0.3957190E+000  0.1807140E+03  0.7546771E-02  0.1167114E+00
         21   -1    0    0  503  502  0.00000000000E+00  0.00000000000E+00  0.16129804870E+03  0.16129804870E+03  0.00000000000E+00 0. -1.
         21   -1    0    0  501  503 -0.00000000000E+00 -0.00000000000E+00 -0.20347966063E+03  0.20347966063E+03  0.00000000000E+00 0.  1.
          6    1    1    2  501    0  0.44087702150E+01 -0.52049254795E+02 -0.33956394740E+02  0.18387658612E+03  0.17300000000E+03 0.  1.
         -6    1    1    2    0  502 -0.44087702150E+01  0.52049254795E+02 -0.82252171915E+01  0.18090112321E+03  0.17300000000E+03 0. -1.
<mgrwt>
<rscale>  2 0.18071403E+03</rscale>
<asrwt>0</asrwt>
<pdfrwt beam="1">  1       21 0.24815084E-01 0.18071403E+03</pdfrwt>
<pdfrwt beam="2">  1       21 0.31304563E-01 0.18071403E+03</pdfrwt>
<totfact> 0.15122108E+05</totfact>
</mgrwt>
</event>
<event>
 4    1  0.3957190E+000  0.2105468E+03  0.7546771E-02  0.1141134E+00
         21   -1    0    0  501  502  0.00000000000E+00  0.00000000000E+00  0.27467657514E+03  0.27467657514E+03  0.00000000000E+00 0. -1.
         21   -1    0    0  502  503 -0.00000000000E+00 -0.00000000000E+00 -0.44479989613E+03  0.44479989613E+03  0.00000000000E+00 0. -1.
          6    1    1    2  501    0 -0.11161713742E+03 -0.44074406993E+02  0.20209049751E+03  0.29183986688E+03  0.17300000000E+03 0. -1.
         -6    1    1    2    0  503  0.11161713742E+03  0.44074406993E+02 -0.37221381850E+03  0.42763660438E+03  0.17300000000E+03 0. -1.
<mgrwt>
<rscale>  2 0.21054676E+03</rscale>
<asrwt>0</asrwt>
<pdfrwt beam="1">  1       21 0.42257935E-01 0.21054676E+03</pdfrwt>
<pdfrwt beam="2">  1       21 0.68430753E-01 0.21054676E+03</pdfrwt>
<totfact> 0.10369187E+04</totfact>
</mgrwt>
</event>
<event>
 4    1  0.3957190E+000  0.2467344E+03  0.7546771E-02  0.1115386E+00
         21   -1    0    0  501  502  0.00000000000E+00  0.00000000000E+00  0.11555981701E+03  0.11555981701E+03  0.00000000000E+00 0. -1.
         21   -1    0    0  502  503 -0.00000000000E+00 -0.00000000000E+00 -0.17940381655E+04  0.17940381655E+04  0.00000000000E+00 0. -1.
          6    1    1    2  501    0  0.97670895181E+02  0.14631910999E+03 -0.36778441124E+02  0.24946049677E+03  0.17300000000E+03 0. -1.
         -6    1    1    2    0  503 -0.97670895181E+02 -0.14631910999E+03 -0.16416999073E+04  0.16601374857E+04  0.17300000000E+03 0. -1.
<mgrwt>
<rscale>  2 0.24673444E+03</rscale>
<asrwt>0</asrwt>
<pdfrwt beam="1">  1       21 0.17778434E-01 0.24673444E+03</pdfrwt>
<pdfrwt beam="2">  1       21 0.27600587E+00 0.24673444E+03</pdfrwt>
<totfact> 0.12684362E+03</totfact>
</mgrwt>
</event>
<event>
 4    1  0.3957190E+000  0.4021564E+03  0.7546771E-02  0.1043036E+00
         21   -1    0    0  503  502  0.00000000000E+00  0.00000000000E+00  0.53659289142E+03  0.53659289142E+03  0.00000000000E+00 0.  1.
         21   -1    0    0  501  503 -0.00000000000E+00 -0.00000000000E+00 -0.42597759650E+03  0.42597759650E+03  0.00000000000E+00 0.  1.
          6    1    1    2  501    0  0.11101964519E+03  0.34565210025E+03 -0.20496412325E+03  0.45137570586E+03  0.17300000000E+03 0.  1.
         -6    1    1    2    0  502 -0.11101964519E+03 -0.34565210025E+03  0.31557941818E+03  0.51119478205E+03  0.17300000000E+03 0.  1.
<mgrwt>
<rscale>  2 0.40215636E+03</rscale>
<asrwt>0</asrwt>
<pdfrwt beam="1">  1       21 0.82552752E-01 0.40215636E+03</pdfrwt>
<pdfrwt beam="2">  1       21 0.65535015E-01 0.40215636E+03</pdfrwt>
<totfact> 0.24205092E+03</totfact>
</mgrwt>
</event>
<event>
 4    1  0.3957190E+000  0.1774552E+03  0.7546771E-02  0.1170289E+00
         21   -1    0    0  503  502  0.00000000000E+00  0.00000000000E+00  0.15299444615E+02  0.15299444615E+02  0.00000000000E+00 0. -1.
         21   -1    0    0  501  503 -0.00000000000E+00 -0.00000000000E+00 -0.20771237657E+04  0.20771237657E+04  0.00000000000E+00 0. -1.
          6    1    1    2  501    0 -0.12151589860E+02  0.37599202244E+02 -0.11305920423E+04  0.11444338020E+04  0.17300000000E+03 0. -1.
         -6    1    1    2    0  502  0.12151589860E+02 -0.37599202244E+02 -0.93123227883E+03  0.94798940832E+03  0.17300000000E+03 0. -1.
<mgrwt>
<rscale>  2 0.17745524E+03</rscale>
<asrwt>0</asrwt>
<pdfrwt beam="1">  1       21 0.23537616E-02 0.17745524E+03</pdfrwt>
<pdfrwt beam="2">  1       21 0.31955738E+00 0.17745524E+03</pdfrwt>
<totfact> 0.25240779E+04</totfact>
</mgrwt>
</event>
<event>
 4    1  0.3957190E+000  0.2012332E+03  0.7546771E-02  0.1148703E+00
         21   -1    0    0  503  502  0.00000000000E+00  0.00000000000E+00  0.21776565325E+03  0.21776565325E+03  0.00000000000E+00 0.  1.
         21   -1    0    0  501  503 -0.00000000000E+00 -0.00000000000E+00 -0.22423876591E+03  0.22423876591E+03  0.00000000000E+00 0. -1.
          6    1    1    2  501    0 -0.85006776336E+01 -0.10243803293E+03 -0.94551821278E+02  0.22233951295E+03  0.17300000000E+03 0. -1.
         -6    1    1    2    0  502  0.85006776336E+01  0.10243803293E+03  0.88078708620E+02  0.21966490621E+03  0.17300000000E+03 0.  1.
<mgrwt>
<rscale>  2 0.20123323E+03</rscale>
<asrwt>0</asrwt>
<pdfrwt beam="1">  1       21 0.33502408E-01 0.20123323E+03</pdfrwt>
<pdfrwt beam="2">  1       21 0.34498272E-01 0.20123323E+03</pdfrwt>
<totfact> 0.69222244E+04</totfact>
</mgrwt>
</event>
<event>
 4    1  0.3957190E+000  0.1755919E+03  0.7546771E-02  0.1172139E+00
         21   -1    0    0  501  502  0.00000000000E+00  0.00000000000E+00  0.44696128022E+02  0.44696128022E+02  0.00000000000E+00 0. -1.
         21   -1    0    0  502  503 -0.00000000000E+00 -0.00000000000E+00 -0.73031281973E+03  0.73031281973E+03  0.00000000000E+00 0. -1.
          6    1    1    2  501    0 -0.27948089896E+02  0.11064631789E+02 -0.25156890416E+03  0.30678891008E+03  0.17300000000E+03 0. -1.
         -6    1    1    2    0  503  0.27948089896E+02 -0.11064631789E+02 -0.43404778754E+03  0.46822003767E+03  0.17300000000E+03 0. -1.
<mgrwt>
<rscale>  2 0.17559192E+03</rscale>
<asrwt>0</asrwt>
<pdfrwt beam="1">  1       21 0.68763279E-02 0.17559192E+03</pdfrwt>
<pdfrwt beam="2">  1       21 0.11235581E+00 0.17559192E+03</pdfrwt>
<totfact> 0.97492459E+04</totfact>
</mgrwt>
</event>
<event>
 4    1  0.3957190E+000  0.2286538E+03  0.7546771E-02  0.1127591E+00
         21   -1    0    0  501  502  0.00000000000E+00  0.00000000000E+00  0.70364832922E+02  0.70364832922E+02  0.00000000000E+00 0.  1.
         21   -1    0    0  502  503 -0.00000000000E+00 -0.00000000000E+00 -0.20373693153E+04  0.20373693153E+04  0.00000000000E+00 0. -1.
          6    1    1    2  501    0 -0.11221202723E+03  0.98802976208E+02 -0.14350764431E+03  0.26995742468E+03  0.17300000000E+03 0.  1.
         -6    1    1    2    0  503  0.11221202723E+03 -0.98802976208E+02 -0.18234968381E+04  0.18377767236E+04  0.17300000000E+03 0. -1.
<mgrwt>
<rscale>  2 0.22865382E+03</rscale>
<asrwt>0</asrwt>
<pdfrwt beam="1">  1       21 0.10825358E-01 0.22865382E+03</pdfrwt>
<pdfrwt beam="2">  1       21 0.31344146E+00 0.22865382E+03</pdfrwt>
<totfact> 0.19278864E+03</totfact>
</mgrwt>
</event>
<event>
 4    1  0.3957190E+000  0.1913446E+03  0.7546771E-02  0.1157254E+00
         21   -1    0    0  503  502  0.00000000000E+00  0.00000000000E+00  0.13047645115E+04  0.13047645115E+04  0.00000000000E+00 0. -1.
         21   -1    0    0  501  503 -0.00000000000E+00 -0.00000000000E+00 -0.47521030810E+02  0.47521030810E+02  0.00000000000E+00 0. -1.
          6    1    1    2  501    0  0.88576626780E+01 -0.81272991712E+02  0.19593927691E+03  0.27387032991E+03  0.17300000000E+03 0. -1.
         -6    1    1    2    0  502 -0.88576626780E+01  0.81272991712E+02  0.10613042038E+04  0.10784152124E+04  0.17300000000E+03 0. -1.
<mgrwt>
<rscale>  2 0.19134460E+03</rscale>
<asrwt>0</asrwt>
<pdfrwt beam="1">  1       21 0.20073297E+00 0.19134460E+03</pdfrwt>
<pdfrwt beam="2">  1       21 0.73109288E-02 0.19134460E+03</pdfrwt>
<totfact> 0.18656092E+04</totfact>
</mgrwt>
</event>
<event>
 4    1  0.3957190E+000  0.1742861E+03  0.7546771E-02  0.1173450E+00
         21   -1    0    0  503  502  0.00000000000E+00  0.00000000000E+00  0.13476399662E+03  0.13476399662E+03  0.00000000000E+00 0. -1.
         21   -1    0    0  501  503 -0.00000000000E+00 -0.00000000000E+00 -0.28590620779E+03  0.28590620779E+03  0.00000000000E+00 0. -1.
          6    1    1    2  501    0 -0.56330620196E+01 -0.20369293905E+02  0.21190782489E+02  0.17556961236E+03  0.17300000000E+03 0. -1.
         -6    1    1    2    0  502  0.56330620196E+01  0.20369293905E+02 -0.17233299366E+03  0.24510059205E+03  0.17300000000E+03 0. -1.
<mgrwt>
<rscale>  2 0.17428609E+03</rscale>
<asrwt>0</asrwt>
<pdfrwt beam="1">  1       21 0.20732923E-01 0.17428609E+03</pdfrwt>
<pdfrwt beam="2">  1       21 0.43985570E-01 0.17428609E+03</pdfrwt>
<totfact> 0.10788658E+05</totfact>
</mgrwt>
</event>
<event>
 4    1  0.3957190E+000  0.1931204E+03  0.7546771E-02  0.1155677E+00
         21   -1    0    0  501  502  0.00000000000E+00  0.00000000000E+00  0.90885527665E+02  0.90885527665E+02  0.00000000000E+00 0.  1.
         21   -1    0    0  502  503 -0.00000000000E+00 -0.00000000000E+00 -0.42596737933E+03  0.42596737933E+03  0.00000000000E+00 0.  1.
          6    1    1    2  501    0 -0.35041883549E+02  0.78348870731E+02 -0.21701305774E+03  0.29049982165E+03  0.17300000000E+03 0.  1.
         -6    1    1    2    0  503  0.35041883549E+02 -0.78348870731E+02 -0.11806879393E+03  0.22635308535E+03  0.17300000000E+03 0.  1.
<mgrwt>
<rscale>  2 0.19312037E+03</rscale>
<asrwt>0</asrwt>
<pdfrwt beam="1">  1       21 0.13982389E-01 0.19312037E+03</pdfrwt>
<pdfrwt beam="2">  1       21 0.65533445E-01 0.19312037E+03</pdfrwt>
<totfact> 0.95405516E+04</totfact>
</mgrwt>
</event>
<event>
 4    1  0.3957190E+000  0.1911376E+03  0.7546771E-02  0.1157439E+00
         21   -1    0    0  503  502  0.00000000000E+00  0.00000000000E+00  0.46830818515E+03  0.46830818515E+03  0.00000000000E+00 0. -1.
         21   -1    0    0  501  503 -0.00000000000E+00 -0.00000000000E+00 -0.38848976351E+03  0.38848976351E+03  0.00000000000E+00 0.  1.
          6    1    1    2  501    0  0.80283501176E+02  0.12615654306E+02 -0.34306892158E+03  0.39272112275E+03  0.17300000000E+03 0.  1.
         -6    1    1    2    0  502 -0.80283501176E+02 -0.12615654306E+02  0.42288734323E+03  0.46407682592E+03  0.17300000000E+03 0. -1.
<mgrwt>
<rscale>  2 0.19113763E+03</rscale>
<asrwt>0</asrwt>
<pdfrwt beam="1">  1       21 0.72047413E-01 0.19113763E+03</pdfrwt>
<pdfrwt beam="2">  1       21 0.59767656E-01 0.19113763E+03</pdfrwt>
<totfact> 0.45481589E+03</totfact>
</mgrwt>
</event>
<event>
 4    1  0.3957190E+000  0.2130723E+03  0.7546771E-02  0.1139156E+00
         21   -1    0    0  503  502  0.00000000000E+00  0.00000000000E+00  0.72310199127E+03  0.72310199127E+03  0.00000000000E+00 0. -1.
         21   -1    0    0  501  503 -0.00000000000E+00 -0.00000000000E+00 -0.89311187010E+02  0.89311187010E+02  0.00000000000E+00 0.  1.
          6    1    1    2  501    0  0.93319372961E+02  0.82233118591E+02  0.95517972148E+02  0.23350262133E+03  0.17300000000E+03 0.  1.
         -6    1    1    2    0  502 -0.93319372961E+02 -0.82233118591E+02  0.53827283211E+03  0.57891055695E+03  0.17300000000E+03 0. -1.
<mgrwt>
<rscale>  2 0.21307227E+03</rscale>
<asrwt>0</asrwt>
<pdfrwt beam="1">  1       21 0.11124646E+00 0.21307227E+03</pdfrwt>
<pdfrwt beam="2">  1       21 0.13740183E-01 0.21307227E+03</pdfrwt>
<totfact> 0.28889591E+04</totfact>
</mgrwt>
</event>
<event>
 4    1  0.3957190E+000  0.1770050E+03  0.7546771E-02  0.1170733E+00
         21   -1    0    0  501  502  0.00000000000E+00  0.00000000000E+00  0.22084585912E+03  0.22084585912E+03  0.00000000000E+00 0.  1.
         21   -1    0    0  502  503 -0.00000000000E+00 -0.00000000000E+00 -0.14678063413E+03  0.14678063413E+03  0.00000000000E+00 0.  1.
          6    1    1    2  501    0 -0.29292116770E+02 -0.23318298715E+02  0.34017893091E+01  0.17703768901E+03  0.17300000000E+03 0.  1.
         -6    1    1    2    0  503  0.29292116770E+02  0.23318298715E+02  0.70663435675E+02  0.19058880424E+03  0.17300000000E+03 0.  1.
<mgrwt>
<rscale>  2 0.17700500E+03</rscale>
<asrwt>0</asrwt>
<pdfrwt beam="1">  1       21 0.33976286E-01 0.17700500E+03</pdfrwt>
<pdfrwt beam="2">  1       21 0.22581636E-01 0.17700500E+03</pdfrwt>
<totfact> 0.15413160E+05</totfact>
</mgrwt>
</event>
<event>
 4    1  0.3957190E+000  0.2019198E+03  0.7546771E-02  0.1148129E+00
         21   -1    0    0  501  502  0.00000000000E+00  0.00000000000E+00  0.11804821752E+04  0.11804821752E+04  0.00000000000E+00 0.  1.
         21   -1    0    0  502  503 -0.00000000000E+00 -0.00000000000E+00 -0.35719808441E+02  0.35719808441E+02  0.00000000000E+00 0.  1.
          6    1    1    2  501    0 -0.93253573103E+02 -0.46328986400E+02  0.68298687941E+03  0.71220971724E+03  0.17300000000E+03 0.  1.
         -6    1    1    2    0  503  0.93253573103E+02  0.46328986400E+02  0.46177548731E+03  0.50399226637E+03  0.17300000000E+03 0.  1.
<mgrwt>
<rscale>  2 0.20191980E+03</rscale>
<asrwt>0</asrwt>
<pdfrwt beam="1">  1       21 0.18161261E+00 0.20191980E+03</pdfrwt>
<pdfrwt beam="2">  1       21 0.54953560E-02 0.20191980E+03</pdfrwt>
<totfact> 0.40406596E+04</totfact>
</mgrwt>
</event>
<event>
 4    1  0.3957190E+000  0.1941096E+03  0.7546771E-02  0.1154806E+00
         21   -1    0    0  503  502  0.00000000000E+00  0.00000000000E+00  0.21247033358E+03  0.21247033358E+03  0.00000000000E+00 0. -1.
         21   -1    0    0  501  503 -0.00000000000E+00 -0.00000000000E+00 -0.19243916259E+03  0.19243916259E+03  0.00000000000E+00 0.  1.
          6    1    1    2  501    0 -0.69998514561E+02 -0.53383141366E+02  0.66733609294E+02  0.20526063050E+03  0.17300000000E+03 0. -1.
         -6    1    1    2    0  502  0.69998514561E+02  0.53383141366E+02 -0.46702438304E+02  0.19964886568E+03  0.17300000000E+03 0. -1.
<mgrwt>
<rscale>  2 0.19410964E+03</rscale>
<asrwt>0</asrwt>
<pdfrwt beam="1">  1       21 0.32687744E-01 0.19410964E+03</pdfrwt>
<pdfrwt beam="2">  1       21 0.29606025E-01 0.19410964E+03</pdfrwt>
<totfact> 0.98439659E+04</totfact>
</mgrwt>
</event>
<event>
 4    1  0.3957190E+000  0.1770053E+03  0.7546771E-02  0.1170733E+00
         21   -1    0    0  503  502  0.00000000000E+00  0.00000000000E+00  0.14256673492E+04  0.14256673492E+04  0.00000000000E+00 0.  1.
         21   -1    0    0  501  503 -0.00000000000E+00 -0.00000000000E+00 -0.57826686500E+02  0.57826686500E+02  0.00000000000E+00 0.  1.
          6    1    1    2  501    0  0.29632005685E+02  0.22887342571E+02  0.99885691369E+02  0.20324378847E+03  0.17300000000E+03 0.  1.
         -6    1    1    2    0  502 -0.29632005685E+02 -0.22887342571E+02  0.12679549713E+04  0.12802502472E+04  0.17300000000E+03 0.  1.
<mgrwt>
<rscale>  2 0.17700533E+03</rscale>
<asrwt>0</asrwt>
<pdfrwt beam="1">  1       21 0.21933341E+00 0.17700533E+03</pdfrwt>
<pdfrwt beam="2">  1       21 0.88964144E-02 0.17700533E+03</pdfrwt>
<totfact> 0.10267705E+04</totfact>
</mgrwt>
</event>
<event>
 4    1  0.3957190E+000  0.1891848E+03  0.7546771E-02  0.1159199E+00
         21   -1    0    0  503  502  0.00000000000E+00  0.00000000000E+00  0.83582040092E+02  0.83582040092E+02  0.00000000000E+00 0. -1.
         21   -1    0    0  501  503 -0.00000000000E+00 -0.00000000000E+00 -0.48864539534E+03  0.48864539534E+03  0.00000000000E+00 0. -1.
          6    1    1    2  501    0  0.51391797182E+02 -0.56751918802E+02 -0.30315009859E+03  0.35733860606E+03  0.17300000000E+03 0. -1.
         -6    1    1    2    0  502 -0.51391797182E+02  0.56751918802E+02 -0.10191325665E+03  0.21488882937E+03  0.17300000000E+03 0. -1.
<mgrwt>
<rscale>  2 0.18918482E+03</rscale>
<asrwt>0</asrwt>
<pdfrwt beam="1">  1       21 0.12858775E-01 0.18918482E+03</pdfrwt>
<pdfrwt beam="2">  1       21 0.75176215E-01 0.18918482E+03</pdfrwt>
<totfact> 0.82110043E+04</totfact>
</mgrwt>
</event>
<event>
 4    1  0.3957190E+000  0.2829523E+03  0.7546771E-02  0.1094087E+00
         21   -1    0    0  501  502  0.00000000000E+00  0.00000000000E+00  0.10733167800E+04  0.10733167800E+04  0.00000000000E+00 0.  1.
         21   -1    0    0  502  503 -0.00000000000E+00 -0.00000000000E+00 -0.75207533706E+02  0.75207533706E+02  0.00000000000E+00 0. -1.
          6    1    1    2  501    0 -0.19097875147E+03 -0.11687659992E+03  0.44714857610E+03  0.52915392111E+03  0.17300000000E+03 0. -1.
         -6    1    1    2    0  503  0.19097875147E+03  0.11687659992E+03  0.55096067020E+03  0.61937039260E+03  0.17300000000E+03 0.  1.
<mgrwt>
<rscale>  2 0.28295233E+03</rscale>
<asrwt>0</asrwt>
<pdfrwt beam="1">  1       21 0.16512565E+00 0.28295233E+03</pdfrwt>
<pdfrwt beam="2">  1       21 0.11570391E-01 0.28295233E+03</pdfrwt>
<totfact> 0.13675615E+04</totfact>
</mgrwt>
</event>
<event>
 4    1  0.3957190E+000  0.2265675E+03  0.7546771E-02  0.1129079E+00
         21   -1    0    0  503  502  0.00000000000E+00  0.00000000000E+00  0.35014459549E+03  0.35014459549E+03  0.00000000000E+00 0.  1.
         21   -1    0    0  501  503 -0.00000000000E+00 -0.00000000000E+00 -0.32794301052E+03  0.32794301052E+03  0.00000000000E+00 0.  1.
          6    1    1    2  501    0 -0.14593842387E+03 -0.10287086539E+02 -0.24101577695E+03  0.33078913593E+03  0.17300000000E+03 0.  1.
         -6    1    1    2    0  502  0.14593842387E+03  0.10287086539E+02  0.26321736192E+03  0.34729847009E+03  0.17300000000E+03 0.  1.
<mgrwt>
<rscale>  2 0.22656753E+03</rscale>
<asrwt>0</asrwt>
<pdfrwt beam="1">  1       21 0.53868399E-01 0.22656753E+03</pdfrwt>
<pdfrwt beam="2">  1       21 0.50452771E-01 0.22656753E+03</pdfrwt>
<totfact> 0.11927524E+04</totfact>
</mgrwt>
</event>
<event>
 4    1  0.3957190E+000  0.2351084E+03  0.7546771E-02  0.1123095E+00
         21   -1    0    0  501  502  0.00000000000E+00  0.00000000000E+00  0.15516027878E+03  0.15516027878E+03  0.00000000000E+00 0.  1.
         21   -1    0    0  502  503 -0.00000000000E+00 -0.00000000000E+00 -0.81863140513E+03  0.81863140513E+03  0.00000000000E+00 0. -1.
          6    1    1    2  501    0 -0.15898576682E+03  0.83959972298E+01  0.34189106579E+02  0.23758127415E+03  0.17300000000E+03 0.  1.
         -6    1    1    2    0  503  0.15898576682E+03 -0.83959972298E+01 -0.69766023294E+03  0.73621040976E+03  0.17300000000E+03 0. -1.
<mgrwt>
<rscale>  2 0.23510842E+03</rscale>
<asrwt>0</asrwt>
<pdfrwt beam="1">  1       21 0.23870812E-01 0.23510842E+03</pdfrwt>
<pdfrwt beam="2">  1       21 0.12594330E+00 0.23510842E+03</pdfrwt>
<totfact> 0.75121249E+03</totfact>
</mgrwt>
</event>
<event>
 4    1  0.3957190E+000  0.2054815E+03  0.7546771E-02  0.1145195E+00
         21   -1    0    0  501  502  0.00000000000E+00  0.00000000000E+00  0.60448196319E+02  0.60448196319E+02  0.00000000000E+00 0.  1.
         21   -1    0    0  502  503 -0.00000000000E+00 -0.00000000000E+00 -0.70608328613E+03  0.70608328613E+03  0.00000000000E+00 0.  1.
          6    1    1    2  501    0  0.79719249919E+02  0.77061540647E+02 -0.36255518943E+03  0.41673601384E+03  0.17300000000E+03 0.  1.
         -6    1    1    2    0  503 -0.79719249919E+02 -0.77061540647E+02 -0.28307990038E+03  0.34979546860E+03  0.17300000000E+03 0.  1.
<mgrwt>
<rscale>  2 0.20548148E+03</rscale>
<asrwt>0</asrwt>
<pdfrwt beam="1">  1       21 0.92997225E-02 0.20548148E+03</pdfrwt>
<pdfrwt beam="2">  1       21 0.10862820E+00 0.20548148E+03</pdfrwt>
<totfact> 0.61692117E+04</totfact>
</mgrwt>
</event>
<event>
 4    1  0.3957190E+000  0.1772386E+03  0.7546771E-02  0.1170503E+00
         21   -1    0    0  501  502  0.00000000000E+00  0.00000000000E+00  0.82686636922E+02  0.82686636922E+02  0.00000000000E+00 0. -1.
         21   -1    0    0  502  503 -0.00000000000E+00 -0.00000000000E+00 -0.61844166494E+03  0.61844166494E+03  0.00000000000E+00 0. -1.
          6    1    1    2  501    0  0.32090346277E+02  0.21324224792E+02 -0.50161290470E+02  0.18420007587E+03  0.17300000000E+03 0. -1.
         -6    1    1    2    0  503 -0.32090346277E+02 -0.21324224792E+02 -0.48559373755E+03  0.51692822600E+03  0.17300000000E+03 0. -1.
<mgrwt>
<rscale>  2 0.17723858E+03</rscale>
<asrwt>0</asrwt>
<pdfrwt beam="1">  1       21 0.12721021E-01 0.17723858E+03</pdfrwt>
<pdfrwt beam="2">  1       21 0.95144869E-01 0.17723858E+03</pdfrwt>
<totfact> 0.49163754E+04</totfact>
</mgrwt>
</event>
<event>
 4    1  0.3957190E+000  0.1962753E+03  0.7546771E-02  0.1152920E+00
         21   -1    0    0  503  502  0.00000000000E+00  0.00000000000E+00  0.26953180304E+02  0.26953180304E+02  0.00000000000E+00 0. -1.
         21   -1    0    0  501  503 -0.00000000000E+00 -0.00000000000E+00 -0.16156775105E+04  0.16156775105E+04  0.00000000000E+00 0. -1.
          6    1    1    2  501    0  0.50323104822E+02  0.77862528104E+02 -0.51540490471E+03  0.55151265077E+03  0.17300000000E+03 0. -1.
         -6    1    1    2    0  502 -0.50323104822E+02 -0.77862528104E+02 -0.10733194255E+04  0.10911180401E+04  0.17300000000E+03 0. -1.
<mgrwt>
<rscale>  2 0.19627529E+03</rscale>
<asrwt>0</asrwt>
<pdfrwt beam="1">  1       21 0.41466435E-02 0.19627529E+03</pdfrwt>
<pdfrwt beam="2">  1       21 0.24856575E+00 0.19627529E+03</pdfrwt>
<totfact> 0.24933304E+04</totfact>
</mgrwt>
</event>
<event>
 4    1  0.3957190E+000  0.2044185E+03  0.7546771E-02  0.1146064E+00
         21   -1    0    0  501  502  0.00000000000E+00  0.00000000000E+00  0.67670168081E+02  0.67670168081E+02  0.00000000000E+00 0.  1.
         21   -1    0    0  502  503 -0.00000000000E+00 -0.00000000000E+00 -0.64219249843E+03  0.64219249843E+03  0.00000000000E+00 0.  1.
          6    1    1    2  501    0 -0.84843400869E+01 -0.10856308181E+03 -0.21767602266E+03  0.29861309013E+03  0.17300000000E+03 0.  1.
         -6    1    1    2    0  503  0.84843400869E+01  0.10856308181E+03 -0.35684630769E+03  0.41124957637E+03  0.17300000000E+03 0.  1.
<mgrwt>
<rscale>  2 0.20441851E+03</rscale>
<asrwt>0</asrwt>
<pdfrwt beam="1">  1       21 0.10410795E-01 0.20441851E+03</pdfrwt>
<pdfrwt beam="2">  1       21 0.98798846E-01 0.20441851E+03</pdfrwt>
<totfact> 0.63474232E+04</totfact>
</mgrwt>
</event>
<event>
 4    1  0.3957190E+000  0.2793420E+03  0.7546771E-02  0.1096049E+00
         21   -1    0    0  501  502  0.00000000000E+00  0.00000000000E+00  0.31170123624E+03  0.31170123624E+03  0.00000000000E+00 0. -1.
         21   -1    0    0  502  503 -0.00000000000E+00 -0.00000000000E+00 -0.25861116565E+03  0.25861116565E+03  0.00000000000E+00 0.  1.
          6    1    1    2  501    0 -0.17977706648E+03 -0.12563094347E+03 -0.24445388641E+02  0.28040953018E+03  0.17300000000E+03 0.  1.
         -6    1    1    2    0  503  0.17977706648E+03  0.12563094347E+03  0.77535459226E+02  0.28990287171E+03  0.17300000000E+03 0. -1.
<mgrwt>
<rscale>  2 0.27934195E+03</rscale>
<asrwt>0</asrwt>
<pdfrwt beam="1">  1       21 0.47954036E-01 0.27934195E+03</pdfrwt>
<pdfrwt beam="2">  1       21 0.39786333E-01 0.27934195E+03</pdfrwt>
<totfact> 0.24248190E+04</totfact>
</mgrwt>
</event>
<event>
 4    1  0.3957190E+000  0.2030186E+03  0.7546771E-02  0.1147217E+00
         21   -1    0    0  501  502  0.00000000000E+00  0.00000000000E+00  0.14492946209E+03  0.14492946209E+03  0.00000000000E+00 0.  1.
         21   -1    0    0  502  503 -0.00000000000E+00 -0.00000000000E+00 -0.57885520757E+03  0.57885520757E+03  0.00000000000E+00 0.  1.
          6    1    1    2  501    0  0.63960656780E+02 -0.84832685885E+02  0.41150852305E+02  0.20714715266E+03  0.17300000000E+03 0.  1.
         -6    1    1    2    0  503 -0.63960656780E+02  0.84832685885E+02 -0.47507659778E+03  0.51663751700E+03  0.17300000000E+03 0.  1.
<mgrwt>
<rscale>  2 0.20301860E+03</rscale>
<asrwt>0</asrwt>
<pdfrwt beam="1">  1       21 0.22296840E-01 0.20301860E+03</pdfrwt>
<pdfrwt beam="2">  1       21 0.89054648E-01 0.20301860E+03</pdfrwt>
<totfact> 0.20133564E+04</totfact>
</mgrwt>
</event>
<event>
 4    1  0.3957190E+000  0.2046896E+03  0.7546771E-02  0.1145842E+00
         21   -1    0    0  501  502  0.00000000000E+00  0.00000000000E+00  0.86592593615E+02  0.86592593615E+02  0.00000000000E+00 0. -1.
         21   -1    0    0  502  503 -0.00000000000E+00 -0.00000000000E+00 -0.56373784938E+03  0.56373784938E+03  0.00000000000E+00 0.  1.
          6    1    1    2  501    0  0.10184463971E+03  0.39956435531E+02 -0.11616592536E+03  0.23535583611E+03  0.17300000000E+03 0. -1.
         -6    1    1    2    0  503 -0.10184463971E+03 -0.39956435531E+02 -0.36097933041E+03  0.41497460689E+03  0.17300000000E+03 0.  1.
<mgrwt>
<rscale>  2 0.20468964E+03</rscale>
<asrwt>0</asrwt>
<pdfrwt beam="1">  1       21 0.13321938E-01 0.20468964E+03</pdfrwt>
<pdfrwt beam="2">  1       21 0.86728899E-01 0.20468964E+03</pdfrwt>
<totfact> 0.55324361E+04</totfact>
</mgrwt>
</event>
<event>
 4    1  0.3957190E+000  0.2151315E+03  0.7546771E-02  0.1137566E+00
         21   -1    0    0  501  502  0.00000000000E+00  0.00000000000E+00  0.15192184009E+03  0.15192184009E+03  0.00000000000E+00 0. -1.
         21   -1    0    0  502  503 -0.00000000000E+00 -0.00000000000E+00 -0.30472455138E+03  0.30472455138E+03  0.00000000000E+00 0.  1.
          6    1    1    2  501    0 -0.12407120150E+03  0.30965825923E+02 -0.72609365521E+02  0.22705432253E+03  0.17300000000E+03 0. -1.
         -6    1    1    2    0  503  0.12407120150E+03 -0.30965825923E+02 -0.80193345770E+02  0.22959206895E+03  0.17300000000E+03 0. -1.
<mgrwt>
<rscale>  2 0.21513146E+03</rscale>
<asrwt>0</asrwt>
<pdfrwt beam="1">  1       21 0.23372591E-01 0.21513146E+03</pdfrwt>
<pdfrwt beam="2">  1       21 0.46880700E-01 0.21513146E+03</pdfrwt>
<totfact> 0.74259229E+04</totfact>
</mgrwt>
</event>
<event>
 4    1  0.3957190E+000  0.4344471E+03  0.7546771E-02  0.1032464E+00
         21   -1    0    0  503  502  0.00000000000E+00  0.00000000000E+00  0.38511511428E+03  0.38511511428E+03  0.00000000000E+00 0. -1.
         21   -1    0    0  501  503 -0.00000000000E+00 -0.00000000000E+00 -0.50707554045E+03  0.50707554045E+03  0.00000000000E+00 0.  1.
          6    1    1    2  501    0  0.12869259225E+03  0.37716513449E+03 -0.14260516303E+03  0.45725327172E+03  0.17300000000E+03 0. -1.
         -6    1    1    2    0  502 -0.12869259225E+03 -0.37716513449E+03  0.20644736859E+02  0.43493738301E+03  0.17300000000E+03 0.  1.
<mgrwt>
<rscale>  2 0.43444715E+03</rscale>
<asrwt>0</asrwt>
<pdfrwt beam="1">  1       21 0.59248479E-01 0.43444715E+03</pdfrwt>
<pdfrwt beam="2">  1       21 0.78011621E-01 0.43444715E+03</pdfrwt>
<totfact> 0.34015295E+03</totfact>
</mgrwt>
</event>
<event>
 4    1  0.3957190E+000  0.3945206E+03  0.7546771E-02  0.1045694E+00
         21   -1    0    0  503  502  0.00000000000E+00  0.00000000000E+00  0.13898092990E+04  0.13898092990E+04  0.00000000000E+00 0. -1.
         21   -1    0    0  501  503 -0.00000000000E+00 -0.00000000000E+00 -0.56222604442E+03  0.56222604442E+03  0.00000000000E+00 0.  1.
          6    1    1    2  501    0  0.34993007966E+03  0.57152609210E+02 -0.45962554851E+03  0.60572446396E+03  0.17300000000E+03 0.  1.
         -6    1    1    2    0  502 -0.34993007966E+03 -0.57152609210E+02  0.12872088031E+04  0.13463108794E+04  0.17300000000E+03 0. -1.
<mgrwt>
<rscale>  2 0.39452057E+03</rscale>
<asrwt>0</asrwt>
<pdfrwt beam="1">  1       21 0.21381681E+00 0.39452057E+03</pdfrwt>
<pdfrwt beam="2">  1       21 0.86496315E-01 0.39452057E+03</pdfrwt>
<totfact> 0.10388684E+02</totfact>
</mgrwt>
</event>
<event>
 4    1  0.3957190E+000  0.2028200E+03  0.7546771E-02  0.1147381E+00
         21   -1    0    0  501  502  0.00000000000E+00  0.00000000000E+00  0.36497836952E+03  0.36497836952E+03  0.00000000000E+00 0.  1.
         21   -1    0    0  502  503 -0.00000000000E+00 -0.00000000000E+00 -0.11940784823E+03  0.11940784823E+03  0.00000000000E+00 0.  1.
          6    1    1    2  501    0  0.10090819009E+03 -0.32007903156E+02  0.65416031238E+02  0.21310848372E+03  0.17300000000E+03 0.  1.
         -6    1    1    2    0  503 -0.10090819009E+03  0.32007903156E+02  0.18015449005E+03  0.27127773402E+03  0.17300000000E+03 0.  1.
<mgrwt>
<rscale>  2 0.20282004E+03</rscale>
<asrwt>0</asrwt>
<pdfrwt beam="1">  1       21 0.56150518E-01 0.20282004E+03</pdfrwt>
<pdfrwt beam="2">  1       21 0.18370438E-01 0.20282004E+03</pdfrwt>
<totfact> 0.80358699E+04</totfact>
</mgrwt>
</event>
<event>
 4    1  0.3957190E+000  0.1962068E+03  0.7546771E-02  0.1152979E+00
         21   -1    0    0  501  502  0.00000000000E+00  0.00000000000E+00  0.46649058509E+03  0.46649058509E+03  0.00000000000E+00 0. -1.
         21   -1    0    0  502  503 -0.00000000000E+00 -0.00000000000E+00 -0.17131361520E+03  0.17131361520E+03  0.00000000000E+00 0. -1.
          6    1    1    2  501    0 -0.90458087290E+02  0.19633138741E+02  0.37717169935E+03  0.42515363868E+03  0.17300000000E+03 0. -1.
         -6    1    1    2    0  503  0.90458087290E+02 -0.19633138741E+02 -0.81994729464E+02  0.21265056161E+03  0.17300000000E+03 0. -1.
<mgrwt>
<rscale>  2 0.19620684E+03</rscale>
<asrwt>0</asrwt>
<pdfrwt beam="1">  1       21 0.71767782E-01 0.19620684E+03</pdfrwt>
<pdfrwt beam="2">  1       21 0.26355941E-01 0.19620684E+03</pdfrwt>
<totfact> 0.23957026E+04</totfact>
</mgrwt>
</event>
<event>
 4    1  0.3957190E+000  0.2387562E+03  0.7546771E-02  0.1120624E+00
         21   -1    0    0  501  502  0.00000000000E+00  0.00000000000E+00  0.63494699904E+02  0.63494699904E+02  0.00000000000E+00 0. -1.
         21   -1    0    0  502  503 -0.00000000000E+00 -0.00000000000E+00 -0.12572841968E+04  0.12572841968E+04  0.00000000000E+00 0.  1.
          6    1    1    2  501    0 -0.34906374581E+02 -0.16080132329E+03 -0.95002344537E+03  0.97956575446E+03  0.17300000000E+03 0. -1.
         -6    1    1    2    0  503  0.34906374581E+02  0.16080132329E+03 -0.24376605150E+03  0.34121314222E+03  0.17300000000E+03 0.  1.
<mgrwt>
<rscale>  2 0.23875619E+03</rscale>
<asrwt>0</asrwt>
<pdfrwt beam="1">  1       21 0.97684162E-02 0.23875619E+03</pdfrwt>
<pdfrwt beam="2">  1       21 0.19342832E+00 0.23875619E+03</pdfrwt>
<totfact> 0.12101474E+04</totfact>
</mgrwt>
</event>
<event>
 4    1  0.3957190E+000  0.2436953E+03  0.7546771E-02  0.1117355E+00
         21   -1    0    0  503  502  0.00000000000E+00  0.00000000000E+00  0.89715362289E+02  0.89715362289E+02  0.00000000000E+00 0. -1.
         21   -1    0    0  501  503 -0.00000000000E+00 -0.00000000000E+00 -0.10241857707E+04  0.10241857707E+04  0.00000000000E+00 0. -1.
          6    1    1    2  501    0 -0.16571107189E+03 -0.44701931332E+02 -0.79845835969E+03  0.83481924641E+03  0.17300000000E+03 0. -1.
         -6    1    1    2    0  502  0.16571107189E+03  0.44701931332E+02 -0.13601204869E+03  0.27908188655E+03  0.17300000000E+03 0. -1.
<mgrwt>
<rscale>  2 0.24369535E+03</rscale>
<asrwt>0</asrwt>
<pdfrwt beam="1">  1       21 0.13802363E-01 0.24369535E+03</pdfrwt>
<pdfrwt beam="2">  1       21 0.15756704E+00 0.24369535E+03</pdfrwt>
<totfact> 0.11553710E+04</totfact>
</mgrwt>
</event>
<event>
 4    1  0.3957190E+000  0.1744691E+03  0.7546771E-02  0.1173266E+00
         21   -1    0    0  501  502  0.00000000000E+00  0.00000000000E+00  0.34943104483E+03  0.34943104483E+03  0.00000000000E+00 0.  1.
         21   -1    0    0  502  503 -0.00000000000E+00 -0.00000000000E+00 -0.15627993013E+03  0.15627993013E+03  0.00000000000E+00 0.  1.
          6    1    1    2  501    0  0.12083283489E+02  0.19090528238E+02  0.26479446726E+03  0.31710497300E+03  0.17300000000E+03 0.  1.
         -6    1    1    2    0  503 -0.12083283489E+02 -0.19090528238E+02 -0.71643352564E+02  0.18860600196E+03  0.17300000000E+03 0.  1.
<mgrwt>
<rscale>  2 0.17446906E+03</rscale>
<asrwt>0</asrwt>
<pdfrwt beam="1">  1       21 0.53758622E-01 0.17446906E+03</pdfrwt>
<pdfrwt beam="2">  1       21 0.24043066E-01 0.17446906E+03</pdfrwt>
<totfact> 0.53862700E+04</totfact>
</mgrwt>
</event>
<event>
 4    1  0.3957190E+000  0.1747736E+03  0.7546771E-02  0.1172959E+00
         21   -1    0    0  501  502  0.00000000000E+00  0.00000000000E+00  0.19241741854E+03  0.19241741854E+03  0.00000000000E+00 0.  1.
         21   -1    0    0  502  503 -0.00000000000E+00 -0.00000000000E+00 -0.36612305912E+03  0.36612305912E+03  0.00000000000E+00 0.  1.
          6    1    1    2  501    0  0.62914870073E+01 -0.24025347732E+02  0.12332641770E+03  0.21390466438E+03  0.17300000000E+03 0.  1.
         -6    1    1    2    0  503 -0.62914870073E+01  0.24025347732E+02 -0.29703205829E+03  0.34463581328E+03  0.17300000000E+03 0.  1.
<mgrwt>
<rscale>  2 0.17477357E+03</rscale>
<asrwt>0</asrwt>
<pdfrwt beam="1">  1       21 0.29602680E-01 0.17477357E+03</pdfrwt>
<pdfrwt beam="2">  1       21 0.56326624E-01 0.17477357E+03</pdfrwt>
<totfact> 0.32744755E+04</totfact>
</mgrwt>
</event>
<event>
 4    1  0.3957190E+000  0.2037855E+03  0.7546771E-02  0.1146584E+00
         21   -1    0    0  503  502  0.00000000000E+00  0.00000000000E+00  0.74134389329E+02  0.74134389329E+02  0.00000000000E+00 0. -1.
         21   -1    0    0  501  503 -0.00000000000E+00 -0.00000000000E+00 -0.56031859848E+03  0.56031859848E+03  0.00000000000E+00 0. -1.
          6    1    1    2  501    0 -0.99747336848E+02  0.40620243677E+02 -0.24809750174E+03  0.32106215251E+03  0.17300000000E+03 0. -1.
         -6    1    1    2    0  502  0.99747336848E+02 -0.40620243677E+02 -0.23808670742E+03  0.31339083531E+03  0.17300000000E+03 0. -1.
<mgrwt>
<rscale>  2 0.20378551E+03</rscale>
<asrwt>0</asrwt>
<pdfrwt beam="1">  1       21 0.11405290E-01 0.20378551E+03</pdfrwt>
<pdfrwt beam="2">  1       21 0.86202865E-01 0.20378551E+03</pdfrwt>
<totfact> 0.74179639E+04</totfact>
</mgrwt>
</event>
<event>
 4    1  0.3957190E+000  0.2939894E+03  0.7546771E-02  0.1088284E+00
         21   -1    0    0  501  502  0.00000000000E+00  0.00000000000E+00  0.45109886073E+03  0.45109886073E+03  0.00000000000E+00 0.  1.
         21   -1    0    0  502  503 -0.00000000000E+00 -0.00000000000E+00 -0.49059063803E+03  0.49059063803E+03  0.00000000000E+00 0. -1.
          6    1    1    2  501    0  0.21601227237E+03  0.99194033417E+02  0.34783096857E+03  0.45542962220E+03  0.17300000000E+03 0.  1.
         -6    1    1    2    0  503 -0.21601227237E+03 -0.99194033417E+02 -0.38732274587E+03  0.48625987656E+03  0.17300000000E+03 0. -1.
<mgrwt>
<rscale>  2 0.29398938E+03</rscale>
<asrwt>0</asrwt>
<pdfrwt beam="1">  1       21 0.69399825E-01 0.29398938E+03</pdfrwt>
<pdfrwt beam="2">  1       21 0.75475483E-01 0.29398938E+03</pdfrwt>
<totfact> 0.27565643E+03</totfact>
</mgrwt>
</event>
<event>
 4    1  0.3957190E+000  0.2739829E+03  0.7546771E-02  0.1099022E+00
         21   -1    0    0  501  502  0.00000000000E+00  0.00000000000E+00  0.89717660876E+02  0.89717660876E+02  0.00000000000E+00 0.  1.
         21   -1    0    0  502  503 -0.00000000000E+00 -0.00000000000E+00 -0.95288287568E+03  0.95288287568E+03  0.00000000000E+00 0.  1.
          6    1    1    2  501    0 -0.12354236180E+03  0.17284357460E+03 -0.24955285366E+03  0.37059849327E+03  0.17300000000E+03 0.  1.
         -6    1    1    2    0  503  0.12354236180E+03 -0.17284357460E+03 -0.61361236114E+03  0.67200204329E+03  0.17300000000E+03 0.  1.
<mgrwt>
<rscale>  2 0.27398288E+03</rscale>
<asrwt>0</asrwt>
<pdfrwt beam="1">  1       21 0.13802717E-01 0.27398288E+03</pdfrwt>
<pdfrwt beam="2">  1       21 0.14659737E+00 0.27398288E+03</pdfrwt>
<totfact> 0.13776283E+04</totfact>
</mgrwt>
</event>
<event>
 4    1  0.3957190E+000  0.1998573E+03  0.7546771E-02  0.1149859E+00
         21   -1    0    0  501  502  0.00000000000E+00  0.00000000000E+00  0.64375121956E+02  0.64375121956E+02  0.00000000000E+00 0.  1.
         21   -1    0    0  502  503 -0.00000000000E+00 -0.00000000000E+00 -0.14761864614E+04  0.14761864614E+04  0.00000000000E+00 0.  1.
          6    1    1    2  501    0  0.99786486038E+02  0.75232608905E+01 -0.11943949652E+03  0.23282769504E+03  0.17300000000E+03 0.  1.
         -6    1    1    2    0  503 -0.99786486038E+02 -0.75232608905E+01 -0.12923718429E+04  0.13077338883E+04  0.17300000000E+03 0.  1.
<mgrwt>
<rscale>  2 0.19985730E+03</rscale>
<asrwt>0</asrwt>
<pdfrwt beam="1">  1       21 0.99038648E-02 0.19985730E+03</pdfrwt>
<pdfrwt beam="2">  1       21 0.22710561E+00 0.19985730E+03</pdfrwt>
<totfact> 0.74652008E+03</totfact>
</mgrwt>
</event>
<event>
 4    1  0.3957190E+000  0.1750220E+03  0.7546771E-02  0.1172710E+00
         21   -1    0    0  501  502  0.00000000000E+00  0.00000000000E+00  0.14205072568E+03  0.14205072568E+03  0.00000000000E+00 0. -1.
         21   -1    0    0  502  503 -0.00000000000E+00 -0.00000000000E+00 -0.34066463146E+03  0.34066463146E+03  0.00000000000E+00 0. -1.
          6    1    1    2  501    0  0.16548923516E+02 -0.20732812677E+02  0.46905515648E+02  0.18119835482E+03  0.17300000000E+03 0. -1.
         -6    1    1    2    0  503 -0.16548923516E+02  0.20732812677E+02 -0.24551942143E+03  0.30151700232E+03  0.17300000000E+03 0. -1.
<mgrwt>
<rscale>  2 0.17502205E+03</rscale>
<asrwt>0</asrwt>
<pdfrwt beam="1">  1       21 0.21853958E-01 0.17502205E+03</pdfrwt>
<pdfrwt beam="2">  1       21 0.52409943E-01 0.17502205E+03</pdfrwt>
<totfact> 0.68015234E+04</totfact>
</mgrwt>
</event>
<event>
 4    1  0.3957190E+000  0.1742283E+03  0.7546771E-02  0.1173509E+00
         21   -1    0    0  503  502  0.00000000000E+00  0.00000000000E+00  0.74310801250E+02  0.74310801250E+02  0.00000000000E+00 0.  1.
         21   -1    0    0  501  503 -0.00000000000E+00 -0.00000000000E+00 -0.56550671446E+03  0.56550671446E+03  0.00000000000E+00 0.  1.
          6    1    1    2  501    0  0.19845271246E+02 -0.57140174039E+01 -0.41416600034E+03  0.44932055442E+03  0.17300000000E+03 0. -1.
         -6    1    1    2    0  502 -0.19845271246E+02  0.57140174039E+01 -0.77029912876E+02  0.19049696130E+03  0.17300000000E+03 0. -1.
<mgrwt>
<rscale>  2 0.17422825E+03</rscale>
<asrwt>0</asrwt>
<pdfrwt beam="1">  1       21 0.11432431E-01 0.17422825E+03</pdfrwt>
<pdfrwt beam="2">  1       21 0.87001031E-01 0.17422825E+03</pdfrwt>
<totfact> 0.73285774E+04</totfact>
</mgrwt>
</event>
<event>
 4    1  0.3957190E+000  0.1803993E+03  0.7546771E-02  0.1167417E+00
         21   -1    0    0  503  502  0.00000000000E+00  0.00000000000E+00  0.62181145201E+03  0.62181145201E+03  0.00000000000E+00 0.  1.
         21   -1    0    0  501  503 -0.00000000000E+00 -0.00000000000E+00 -0.10072959947E+03  0.10072959947E+03  0.00000000000E+00 0.  1.
          6    1    1    2  501    0 -0.50552688741E+02  0.77025295162E+01  0.10136317538E+02  0.18068383501E+03  0.17300000000E+03 0.  1.
         -6    1    1    2    0  502  0.50552688741E+02 -0.77025295162E+01  0.51094553501E+03  0.54185721647E+03  0.17300000000E+03 0.  1.
<mgrwt>
<rscale>  2 0.18039929E+03</rscale>
<asrwt>0</asrwt>
<pdfrwt beam="1">  1       21 0.95663298E-01 0.18039929E+03</pdfrwt>
<pdfrwt beam="2">  1       21 0.15496862E-01 0.18039929E+03</pdfrwt>
<totfact> 0.33915212E+04</totfact>
</mgrwt>
</event>
<event>
 4    1  0.3957190E+000  0.4589656E+03  0.7546771E-02  0.1025082E+00
         21   -1    0    0  503  502  0.00000000000E+00  0.00000000000E+00  0.61767807346E+03  0.61767807346E+03  0.00000000000E+00 0.  1.
         21   -1    0    0  501  503 -0.00000000000E+00 -0.00000000000E+00 -0.13274446626E+04  0.13274446626E+04  0.00000000000E+00 0.  1.
          6    1    1    2  501    0 -0.40652247198E+03  0.12433779922E+03 -0.11932569351E+04  0.12784801608E+04  0.17300000000E+03 0.  1.
         -6    1    1    2    0  502  0.40652247198E+03 -0.12433779922E+03  0.48349034591E+03  0.66664257524E+03  0.17300000000E+03 0.  1.
<mgrwt>
<rscale>  2 0.45896559E+03</rscale>
<asrwt>0</asrwt>
<pdfrwt beam="1">  1       21 0.95027397E-01 0.45896559E+03</pdfrwt>
<pdfrwt beam="2">  1       21 0.20422225E+00 0.45896559E+03</pdfrwt>
<totfact> 0.92262194E+01</totfact>
</mgrwt>
</event>
<event>
 4    1  0.3957190E+000  0.2119263E+03  0.7546771E-02  0.1140050E+00
         21   -1    0    0  503  502  0.00000000000E+00  0.00000000000E+00  0.35228115790E+02  0.35228115790E+02  0.00000000000E+00 0.  1.
         21   -1    0    0  501  503 -0.00000000000E+00 -0.00000000000E+00 -0.12790573065E+04  0.12790573065E+04  0.00000000000E+00 0.  1.
          6    1    1    2  501    0 -0.11723707675E+03  0.35202853604E+02 -0.65932178482E+03  0.69254457546E+03  0.17300000000E+03 0.  1.
         -6    1    1    2    0  502  0.11723707675E+03 -0.35202853604E+02 -0.58450740585E+03  0.62174084678E+03  0.17300000000E+03 0.  1.
<mgrwt>
<rscale>  2 0.21192634E+03</rscale>
<asrwt>0</asrwt>
<pdfrwt beam="1">  1       21 0.54197097E-02 0.21192634E+03</pdfrwt>
<pdfrwt beam="2">  1       21 0.19677806E+00 0.21192634E+03</pdfrwt>
<totfact> 0.32604948E+04</totfact>
</mgrwt>
</event>
<event>
 4    1  0.3957190E+000  0.4359711E+03  0.7546771E-02  0.1031990E+00
         21   -1    0    0  501  502  0.00000000000E+00  0.00000000000E+00  0.83484645017E+03  0.83484645017E+03  0.00000000000E+00 0.  1.
         21   -1    0    0  502  503 -0.00000000000E+00 -0.00000000000E+00 -0.23010620123E+03  0.23010620123E+03  0.00000000000E+00 0.  1.
          6    1    1    2  501    0 -0.30774254439E+03  0.25580517515E+03  0.35714193423E+03  0.56357885202E+03  0.17300000000E+03 0.  1.
         -6    1    1    2    0  503  0.30774254439E+03 -0.25580517515E+03  0.24759831471E+03  0.50137379938E+03  0.17300000000E+03 0.  1.
<mgrwt>
<rscale>  2 0.43597106E+03</rscale>
<asrwt>0</asrwt>
<pdfrwt beam="1">  1       21 0.12843791E+00 0.43597106E+03</pdfrwt>
<pdfrwt beam="2">  1       21 0.35400954E-01 0.43597106E+03</pdfrwt>
<totfact> 0.29849138E+03</totfact>
</mgrwt>
</event>
<event>
 4    1  0.3957190E+000  0.2499133E+03  0.7546771E-02  0.1113360E+00
         21   -1    0    0  501  502  0.00000000000E+00  0.00000000000E+00  0.11411616733E+03  0.11411616733E+03  0.00000000000E+00 0. -1.
         21   -1    0    0  502  503 -0.00000000000E+00 -0.00000000000E+00 -0.56084539262E+03  0.56084539262E+03  0.00000000000E+00 0. -1.
          6    1    1    2  501    0 -0.12517692798E+03  0.12983993731E+03 -0.17093246997E+03  0.30277810672E+03  0.17300000000E+03 0. -1.
         -6    1    1    2    0  503  0.12517692798E+03 -0.12983993731E+03 -0.27579675532E+03  0.37218345323E+03  0.17300000000E+03 0. -1.
<mgrwt>
<rscale>  2 0.24991333E+03</rscale>
<asrwt>0</asrwt>
<pdfrwt beam="1">  1       21 0.17556333E-01 0.24991333E+03</pdfrwt>
<pdfrwt beam="2">  1       21 0.86283908E-01 0.24991333E+03</pdfrwt>
<totfact> 0.33074379E+04</totfact>
</mgrwt>
</event>
<event>
 4    1  0.3957190E+000  0.1808998E+03  0.7546771E-02  0.1166935E+00
         21   -1    0    0  501  502  0.00000000000E+00  0.00000000000E+00  0.48742221290E+03  0.48742221290E+03  0.00000000000E+00 0.  1.
         21   -1    0    0  502  503 -0.00000000000E+00 -0.00000000000E+00 -0.74857622175E+02  0.74857622175E+02  0.00000000000E+00 0.  1.
          6    1    1    2  501    0 -0.49351367344E+02  0.18978855837E+02  0.29656215388E+03  0.34738144098E+03  0.17300000000E+03 0.  1.
         -6    1    1    2    0  503  0.49351367344E+02 -0.18978855837E+02  0.11600243685E+03  0.21489839409E+03  0.17300000000E+03 0.  1.
<mgrwt>
<rscale>  2 0.18089985E+03</rscale>
<asrwt>0</asrwt>
<pdfrwt beam="1">  1       21 0.74988031E-01 0.18089985E+03</pdfrwt>
<pdfrwt beam="2">  1       21 0.11516558E-01 0.18089985E+03</pdfrwt>
<totfact> 0.10090789E+05</totfact>
</mgrwt>
</event>
<event>
 4    1  0.3957190E+000  0.1944100E+03  0.7546771E-02  0.1154543E+00
         21   -1    0    0  503  502  0.00000000000E+00  0.00000000000E+00  0.13616071362E+04  0.13616071362E+04  0.00000000000E+00 0. -1.
         21   -1    0    0  501  503 -0.00000000000E+00 -0.00000000000E+00 -0.46064465556E+02  0.46064465556E+02  0.00000000000E+00 0. -1.
          6    1    1    2  501    0 -0.81608386379E+02 -0.34732150894E+02  0.21406801758E+03  0.28917186444E+03  0.17300000000E+03 0. -1.
         -6    1    1    2    0  502  0.81608386379E+02  0.34732150894E+02  0.11014746531E+04  0.11184997373E+04  0.17300000000E+03 0. -1.
<mgrwt>
<rscale>  2 0.19441001E+03</rscale>
<asrwt>0</asrwt>
<pdfrwt beam="1">  1       21 0.20947799E+00 0.19441001E+03</pdfrwt>
<pdfrwt beam="2">  1       21 0.70868419E-02 0.19441001E+03</pdfrwt>
<totfact> 0.17288905E+04</totfact>
</mgrwt>
</event>
<event>
 4    1  0.3957190E+000  0.2071788E+03  0.7546771E-02  0.1143820E+00
         21   -1    0    0  503  502  0.00000000000E+00  0.00000000000E+00  0.11169394410E+03  0.11169394410E+03  0.00000000000E+00 0.  1.
         21   -1    0    0  501  503 -0.00000000000E+00 -0.00000000000E+00 -0.39705633760E+03  0.39705633760E+03  0.00000000000E+00 0.  1.
          6    1    1    2  501    0 -0.96766633120E+02  0.60251867943E+02 -0.18829022638E+03  0.27995763649E+03  0.17300000000E+03 0.  1.
         -6    1    1    2    0  502  0.96766633120E+02 -0.60251867943E+02 -0.97072167123E+02  0.22879264522E+03  0.17300000000E+03 0.  1.
<mgrwt>
<rscale>  2 0.20717883E+03</rscale>
<asrwt>0</asrwt>
<pdfrwt beam="1">  1       21 0.17183684E-01 0.20717883E+03</pdfrwt>
<pdfrwt beam="2">  1       21 0.61085591E-01 0.20717883E+03</pdfrwt>
<totfact> 0.75770560E+04</totfact>
</mgrwt>
</event>
<event>
 4    1  0.3957190E+000  0.1861915E+03  0.7546771E-02  0.1161942E+00
         21   -1    0    0  501  502  0.00000000000E+00  0.00000000000E+00  0.13850306765E+04  0.13850306765E+04  0.00000000000E+00 0.  1.
         21   -1    0    0  502  503 -0.00000000000E+00 -0.00000000000E+00 -0.40462826818E+02  0.40462826818E+02  0.00000000000E+00 0.  1.
          6    1    1    2  501    0  0.76512376788E+01  0.68408501828E+02  0.11124640395E+04  0.11279377215E+04  0.17300000000E+03 0.  1.
         -6    1    1    2    0  503 -0.76512376788E+01 -0.68408501828E+02  0.23210381026E+03  0.29755578182E+03  0.17300000000E+03 0.  1.
<mgrwt>
<rscale>  2 0.18619147E+03</rscale>
<asrwt>0</asrwt>
<pdfrwt beam="1">  1       21 0.21308161E+00 0.18619147E+03</pdfrwt>
<pdfrwt beam="2">  1       21 0.62250513E-02 0.18619147E+03</pdfrwt>
<totfact> 0.20655074E+04</totfact>
</mgrwt>
</event>
<event>
 4    1  0.3957190E+000  0.1781652E+03  0.7546771E-02  0.1169591E+00
         21   -1    0    0  501  502  0.00000000000E+00  0.00000000000E+00  0.44532241790E+03  0.44532241790E+03  0.00000000000E+00 0.  1.
         21   -1    0    0  502  503 -0.00000000000E+00 -0.00000000000E+00 -0.86023384977E+02  0.86023384977E+02  0.00000000000E+00 0.  1.
          6    1    1    2  501    0  0.41207930227E+02 -0.10757887598E+02  0.28963352324E+03  0.34004470800E+03  0.17300000000E+03 0.  1.
         -6    1    1    2    0  503 -0.41207930227E+02  0.10757887598E+02  0.69665509684E+02  0.19130109487E+03  0.17300000000E+03 0.  1.
<mgrwt>
<rscale>  2 0.17816516E+03</rscale>
<asrwt>0</asrwt>
<pdfrwt beam="1">  1       21 0.68511140E-01 0.17816516E+03</pdfrwt>
<pdfrwt beam="2">  1       21 0.13234367E-01 0.17816516E+03</pdfrwt>
<totfact> 0.96166340E+04</totfact>
</mgrwt>
</event>
<event>
 4    1  0.3957190E+000  0.2389276E+03  0.7546771E-02  0.1120509E+00
         21   -1    0    0  503  502  0.00000000000E+00  0.00000000000E+00  0.58688710734E+03  0.58688710734E+03  0.00000000000E+00 0.  1.
         21   -1    0    0  501  503 -0.00000000000E+00 -0.00000000000E+00 -0.10228943319E+03  0.10228943319E+03  0.00000000000E+00 0. -1.
          6    1    1    2  501    0 -0.16329642333E+03 -0.22173977410E+02  0.16596449869E+03  0.29091342694E+03  0.17300000000E+03 0. -1.
         -6    1    1    2    0  502  0.16329642333E+03  0.22173977410E+02  0.31863317546E+03  0.39826311360E+03  0.17300000000E+03 0.  1.
<mgrwt>
<rscale>  2 0.23892762E+03</rscale>
<asrwt>0</asrwt>
<pdfrwt beam="1">  1       21 0.90290323E-01 0.23892762E+03</pdfrwt>
<pdfrwt beam="2">  1       21 0.15736836E-01 0.23892762E+03</pdfrwt>
<totfact> 0.36612368E+04</totfact>
</mgrwt>
</event>
<event>
 4    1  0.3957190E+000  0.2547455E+03  0.7546771E-02  0.1110342E+00
         21   -1    0    0  501  502  0.00000000000E+00  0.00000000000E+00  0.34930304895E+02  0.34930304895E+02  0.00000000000E+00 0.  1.
         21   -1    0    0  502  503 -0.00000000000E+00 -0.00000000000E+00 -0.18951701229E+04  0.18951701229E+04  0.00000000000E+00 0.  1.
          6    1    1    2  501    0 -0.83376944192E+02 -0.16737545039E+03 -0.10655449984E+04  0.10955735483E+04  0.17300000000E+03 0.  1.
         -6    1    1    2    0  503  0.83376944192E+02  0.16737545039E+03 -0.79469481961E+03  0.83452687945E+03  0.17300000000E+03 0.  1.
<mgrwt>
<rscale>  2 0.25474547E+03</rscale>
<asrwt>0</asrwt>
<pdfrwt beam="1">  1       21 0.53738953E-02 0.25474547E+03</pdfrwt>
<pdfrwt beam="2">  1       21 0.29156451E+00 0.25474547E+03</pdfrwt>
<totfact> 0.85687555E+03</totfact>
</mgrwt>
</event>
<event>
 4    1  0.3957190E+000  0.2397642E+03  0.7546771E-02  0.1119950E+00
         21   -1    0    0  503  502  0.00000000000E+00  0.00000000000E+00  0.40630577044E+03  0.40630577044E+03  0.00000000000E+00 0. -1.
         21   -1    0    0  501  503 -0.00000000000E+00 -0.00000000000E+00 -0.21920886418E+03  0.21920886418E+03  0.00000000000E+00 0. -1.
          6    1    1    2  501    0 -0.73573595529E+02 -0.14881125990E+03 -0.92682064142E+02  0.25705413835E+03  0.17300000000E+03 0. -1.
         -6    1    1    2    0  502  0.73573595529E+02  0.14881125990E+03  0.27977897040E+03  0.36846049627E+03  0.17300000000E+03 0. -1.
<mgrwt>
<rscale>  2 0.23976419E+03</rscale>
<asrwt>0</asrwt>
<pdfrwt beam="1">  1       21 0.62508580E-01 0.23976419E+03</pdfrwt>
<pdfrwt beam="2">  1       21 0.33724441E-01 0.23976419E+03</pdfrwt>
<totfact> 0.19568051E+04</totfact>
</mgrwt>
</event>
<event>
 4    1  0.3957190E+000  0.1751799E+03  0.7546771E-02  0.1172551E+00
         21   -1    0    0  501  502  0.00000000000E+00  0.00000000000E+00  0.13559700562E+03  0.13559700562E+03  0.00000000000E+00 0.  1.
         21   -1    0    0  502  503 -0.00000000000E+00 -0.00000000000E+00 -0.26858280907E+03  0.26858280907E+03  0.00000000000E+00 0.  1.
          6    1    1    2  501    0 -0.95655476872E+01  0.25835942864E+02  0.13674308984E+02  0.17571278375E+03  0.17300000000E+03 0. -1.
         -6    1    1    2    0  503  0.95655476872E+01 -0.25835942864E+02 -0.14666011244E+03  0.22846703094E+03  0.17300000000E+03 0. -1.
<mgrwt>
<rscale>  2 0.17517990E+03</rscale>
<asrwt>0</asrwt>
<pdfrwt beam="1">  1       21 0.20861078E-01 0.17517990E+03</pdfrwt>
<pdfrwt beam="2">  1       21 0.41320432E-01 0.17517990E+03</pdfrwt>
<totfact> 0.12106155E+05</totfact>
</mgrwt>
</event>
<event>
 4    1  0.3957190E+000  0.1751669E+03  0.7546771E-02  0.1172564E+00
         21   -1    0    0  501  502  0.00000000000E+00  0.00000000000E+00  0.27888434943E+03  0.27888434943E+03  0.00000000000E+00 0.  1.
         21   -1    0    0  502  503 -0.00000000000E+00 -0.00000000000E+00 -0.11251497362E+03  0.11251497362E+03  0.00000000000E+00 0.  1.
          6    1    1    2  501    0  0.84499536375E+01  0.26135321840E+02  0.11231400912E+03  0.20808145859E+03  0.17300000000E+03 0.  1.
         -6    1    1    2    0  503 -0.84499536375E+01 -0.26135321840E+02  0.54055366700E+02  0.18331786447E+03  0.17300000000E+03 0.  1.
<mgrwt>
<rscale>  2 0.17516694E+03</rscale>
<asrwt>0</asrwt>
<pdfrwt beam="1">  1       21 0.42905284E-01 0.17516694E+03</pdfrwt>
<pdfrwt beam="2">  1       21 0.17309996E-01 0.17516694E+03</pdfrwt>
<totfact> 0.15852928E+05</totfact>
</mgrwt>
</event>
<event>
 4    1  0.3957190E+000  0.1998170E+03  0.7546771E-02  0.1149893E+00
         21   -1    0    0  503  502  0.00000000000E+00  0.00000000000E+00  0.23174410422E+03  0.23174410422E+03  0.00000000000E+00 0. -1.
         21   -1    0    0  501  503 -0.00000000000E+00 -0.00000000000E+00 -0.17292045841E+03  0.17292045841E+03  0.00000000000E+00 0. -1.
          6    1    1    2  501    0 -0.86214508891E+02  0.50644793435E+02  0.41643817827E+02  0.20411037261E+03  0.17300000000E+03 0. -1.
         -6    1    1    2    0  502  0.86214508891E+02 -0.50644793435E+02  0.17179827979E+02  0.20055419002E+03  0.17300000000E+03 0. -1.
<mgrwt>
<rscale>  2 0.19981701E+03</rscale>
<asrwt>0</asrwt>
<pdfrwt beam="1">  1       21 0.35652939E-01 0.19981701E+03</pdfrwt>
<pdfrwt beam="2">  1       21 0.26603147E-01 0.19981701E+03</pdfrwt>
<totfact> 0.10171010E+05</totfact>
</mgrwt>
</event>
<event>
 4    1  0.3957190E+000  0.2887657E+03  0.7546771E-02  0.1090995E+00
         21   -1    0    0  501  502  0.00000000000E+00  0.00000000000E+00  0.28877910106E+03  0.28877910106E+03  0.00000000000E+00 0. -1.
         21   -1    0    0  502  503 -0.00000000000E+00 -0.00000000000E+00 -0.29871044286E+03  0.29871044286E+03  0.00000000000E+00 0.  1.
          6    1    1    2  501    0 -0.31047882126E+02 -0.22911272543E+03  0.48667744565E+02  0.29283811450E+03  0.17300000000E+03 0. -1.
         -6    1    1    2    0  503  0.31047882126E+02  0.22911272543E+03 -0.58599086363E+02  0.29465142943E+03  0.17300000000E+03 0.  1.
<mgrwt>
<rscale>  2 0.28876567E+03</rscale>
<asrwt>0</asrwt>
<pdfrwt beam="1">  1       21 0.44427554E-01 0.28876567E+03</pdfrwt>
<pdfrwt beam="2">  1       21 0.45955453E-01 0.28876567E+03</pdfrwt>
<totfact> 0.21045416E+04</totfact>
</mgrwt>
</event>
<event>
 4    1  0.3957190E+000  0.2443403E+03  0.7546771E-02  0.1116935E+00
         21   -1    0    0  503  502  0.00000000000E+00  0.00000000000E+00  0.16380396893E+03  0.16380396893E+03  0.00000000000E+00 0.  1.
         21   -1    0    0  501  503 -0.00000000000E+00 -0.00000000000E+00 -0.89473090787E+03  0.89473090787E+03  0.00000000000E+00 0.  1.
          6    1    1    2  501    0  0.78898442432E+02 -0.15345432381E+03 -0.77291162746E+03  0.81061370428E+03  0.17300000000E+03 0.  1.
         -6    1    1    2    0  502 -0.78898442432E+02  0.15345432381E+03  0.41984688523E+02  0.24792117252E+03  0.17300000000E+03 0.  1.
<mgrwt>
<rscale>  2 0.24434032E+03</rscale>
<asrwt>0</asrwt>
<pdfrwt beam="1">  1       21 0.25200610E-01 0.24434032E+03</pdfrwt>
<pdfrwt beam="2">  1       21 0.13765091E+00 0.24434032E+03</pdfrwt>
<totfact> 0.53652145E+03</totfact>
</mgrwt>
</event>
<event>
 4    1  0.3957190E+000  0.2845222E+03  0.7546771E-02  0.1093244E+00
         21   -1    0    0  503  502  0.00000000000E+00  0.00000000000E+00  0.21363137096E+03  0.21363137096E+03  0.00000000000E+00 0.  1.
         21   -1    0    0  501  503 -0.00000000000E+00 -0.00000000000E+00 -0.41483839254E+03  0.41483839254E+03  0.00000000000E+00 0. -1.
          6    1    1    2  501    0 -0.17637757631E+03  0.14111986156E+03 -0.81614523600E+01  0.28463919978E+03  0.17300000000E+03 0.  1.
         -6    1    1    2    0  502  0.17637757631E+03 -0.14111986156E+03 -0.19304556923E+03  0.34383056372E+03  0.17300000000E+03 0. -1.
<mgrwt>
<rscale>  2 0.28452217E+03</rscale>
<asrwt>0</asrwt>
<pdfrwt beam="1">  1       21 0.32866365E-01 0.28452217E+03</pdfrwt>
<pdfrwt beam="2">  1       21 0.63821291E-01 0.28452217E+03</pdfrwt>
<totfact> 0.19279039E+04</totfact>
</mgrwt>
</event>
<event>
 4    1  0.3957190E+000  0.2458502E+03  0.7546771E-02  0.1115956E+00
         21   -1    0    0  501  502  0.00000000000E+00  0.00000000000E+00  0.89296152660E+02  0.89296152660E+02  0.00000000000E+00 0. -1.
         21   -1    0    0  502  503 -0.00000000000E+00 -0.00000000000E+00 -0.79888732983E+03  0.79888732983E+03  0.00000000000E+00 0.  1.
          6    1    1    2  501    0 -0.12824941918E+02  0.17420918949E+03 -0.18124262300E+03  0.30543609680E+03  0.17300000000E+03 0. -1.
         -6    1    1    2    0  503  0.12824941918E+02 -0.17420918949E+03 -0.52834855416E+03  0.58274738568E+03  0.17300000000E+03 0.  1.
<mgrwt>
<rscale>  2 0.24585020E+03</rscale>
<asrwt>0</asrwt>
<pdfrwt beam="1">  1       21 0.13737869E-01 0.24585020E+03</pdfrwt>
<pdfrwt beam="2">  1       21 0.12290575E+00 0.24585020E+03</pdfrwt>
<totfact> 0.22203778E+04</totfact>
</mgrwt>
</event>
<event>
 4    1  0.3957190E+000  0.2220686E+03  0.7546771E-02  0.1132350E+00
         21   -1    0    0  501  502  0.00000000000E+00  0.00000000000E+00  0.27630913450E+03  0.27630913450E+03  0.00000000000E+00 0.  1.
         21   -1    0    0  502  503 -0.00000000000E+00 -0.00000000000E+00 -0.21855549002E+03  0.21855549002E+03  0.00000000000E+00 0.  1.
          6    1    1    2  501    0 -0.98256596264E+02  0.98646408200E+02  0.13483589460E+03  0.25979836611E+03  0.17300000000E+03 0.  1.
         -6    1    1    2    0  503  0.98256596264E+02 -0.98646408200E+02 -0.77082250123E+02  0.23506625841E+03  0.17300000000E+03 0.  1.
<mgrwt>
<rscale>  2 0.22206862E+03</rscale>
<asrwt>0</asrwt>
<pdfrwt beam="1">  1       21 0.42509098E-01 0.22206862E+03</pdfrwt>
<pdfrwt beam="2">  1       21 0.33623921E-01 0.22206862E+03</pdfrwt>
<totfact> 0.44718364E+04</totfact>
</mgrwt>
</event>
<event>
 4    1  0.3957190E+000  0.1928465E+03  0.7546771E-02  0.1155919E+00
         21   -1    0    0  503  502  0.00000000000E+00  0.00000000000E+00  0.27740480503E+03  0.27740480503E+03  0.00000000000E+00 0. -1.
         21   -1    0    0  501  503 -0.00000000000E+00 -0.00000000000E+00 -0.15667913097E+03  0.15667913097E+03  0.00000000000E+00 0. -1.
          6    1    1    2  501    0 -0.40478539114E+01 -0.85114076383E+02 -0.22097451164E+02  0.19410844512E+03  0.17300000000E+03 0. -1.
         -6    1    1    2    0  502  0.40478539114E+01  0.85114076383E+02  0.14282312523E+03  0.23997549087E+03  0.17300000000E+03 0. -1.
<mgrwt>
<rscale>  2 0.19284655E+03</rscale>
<asrwt>0</asrwt>
<pdfrwt beam="1">  1       21 0.42677662E-01 0.19284655E+03</pdfrwt>
<pdfrwt beam="2">  1       21 0.24104482E-01 0.19284655E+03</pdfrwt>
<totfact> 0.85751553E+04</totfact>
</mgrwt>
</event>
<event>
 4    1  0.3957190E+000  0.2525476E+03  0.7546771E-02  0.1111705E+00
         21   -1    0    0  503  502  0.00000000000E+00  0.00000000000E+00  0.35849794388E+03  0.35849794388E+03  0.00000000000E+00 0.  1.
         21   -1    0    0  501  503 -0.00000000000E+00 -0.00000000000E+00 -0.22770212458E+03  0.22770212458E+03  0.00000000000E+00 0.  1.
          6    1    1    2  501    0  0.19651593511E+02  0.18293472577E+03  0.20245878786E+03  0.32368172609E+03  0.17300000000E+03 0.  1.
         -6    1    1    2    0  502 -0.19651593511E+02 -0.18293472577E+03 -0.71662968555E+02  0.26251834237E+03  0.17300000000E+03 0.  1.
<mgrwt>
<rscale>  2 0.25254762E+03</rscale>
<asrwt>0</asrwt>
<pdfrwt beam="1">  1       21 0.55153530E-01 0.25254762E+03</pdfrwt>
<pdfrwt beam="2">  1       21 0.35031096E-01 0.25254762E+03</pdfrwt>
<totfact> 0.23605579E+04</totfact>
</mgrwt>
</event>
<event>
 4    1  0.3957190E+000  0.2016467E+03  0.7546771E-02  0.1148357E+00
         21   -1    0    0  503  502  0.00000000000E+00  0.00000000000E+00  0.41461368014E+03  0.41461368014E+03  0.00000000000E+00 0.  1.
         21   -1    0    0  501  503 -0.00000000000E+00 -0.00000000000E+00 -0.98794591145E+02  0.98794591145E+02  0.00000000000E+00 0.  1.
          6    1    1    2  501    0 -0.20541968281E+02 -0.10154015284E+03  0.13593297630E+03  0.24318542133E+03  0.17300000000E+03 0.  1.
         -6    1    1    2    0  502  0.20541968281E+02  0.10154015284E+03  0.17988611270E+03  0.27022284996E+03  0.17300000000E+03 0.  1.
<mgrwt>
<rscale>  2 0.20164666E+03</rscale>
<asrwt>0</asrwt>
<pdfrwt beam="1">  1       21 0.63786719E-01 0.20164666E+03</pdfrwt>
<pdfrwt beam="2">  1       21 0.15199168E-01 0.20164666E+03</pdfrwt>
<totfact> 0.86622299E+04</totfact>
</mgrwt>
</event>
<event>
 4    1  0.3957190E+000  0.2481644E+03  0.7546771E-02  0.1114470E+00
         21   -1    0    0  501  502  0.00000000000E+00  0.00000000000E+00  0.69643197634E+02  0.69643197634E+02  0.00000000000E+00 0. -1.
         21   -1    0    0  502  503 -0.00000000000E+00 -0.00000000000E+00 -0.88519968356E+03  0.88519968356E+03  0.00000000000E+00 0.  1.
          6    1    1    2  501    0  0.17605287769E+03 -0.25728178510E+02 -0.39256698042E+03  0.46442910010E+03  0.17300000000E+03 0. -1.
         -6    1    1    2    0  503 -0.17605287769E+03  0.25728178510E+02 -0.42298950551E+03  0.49041378109E+03  0.17300000000E+03 0.  1.
<mgrwt>
<rscale>  2 0.24816437E+03</rscale>
<asrwt>0</asrwt>
<pdfrwt beam="1">  1       21 0.10714338E-01 0.24816437E+03</pdfrwt>
<pdfrwt beam="2">  1       21 0.13618456E+00 0.24816437E+03</pdfrwt>
<totfact> 0.26734699E+04</totfact>
</mgrwt>
</event>
<event>
 4    1  0.3957190E+000  0.1827664E+03  0.7546771E-02  0.1165152E+00
         21   -1    0    0  501  502  0.00000000000E+00  0.00000000000E+00  0.82704719277E+03  0.82704719277E+03  0.00000000000E+00 0. -1.
         21   -1    0    0  502  503 -0.00000000000E+00 -0.00000000000E+00 -0.43036285438E+02  0.43036285438E+02  0.00000000000E+00 0. -1.
          6    1    1    2  501    0  0.23351461988E+02  0.54122623498E+02  0.49990506110E+03  0.53226743209E+03  0.17300000000E+03 0. -1.
         -6    1    1    2    0  503 -0.23351461988E+02 -0.54122623498E+02  0.28410584623E+03  0.33781604612E+03  0.17300000000E+03 0. -1.
<mgrwt>
<rscale>  2 0.18276638E+03</rscale>
<asrwt>0</asrwt>
<pdfrwt beam="1">  1       21 0.12723802E+00 0.18276638E+03</pdfrwt>
<pdfrwt beam="2">  1       21 0.66209676E-02 0.18276638E+03</pdfrwt>
<totfact> 0.76328094E+04</totfact>
</mgrwt>
</event>
<event>
 4    1  0.3957190E+000  0.2230838E+03  0.7546771E-02  0.1131605E+00
         21   -1    0    0  503  502  0.00000000000E+00  0.00000000000E+00  0.84532613194E+03  0.84532613194E+03  0.00000000000E+00 0. -1.
         21   -1    0    0  501  503 -0.00000000000E+00 -0.00000000000E+00 -0.60151015380E+02  0.60151015380E+02  0.00000000000E+00 0. -1.
          6    1    1    2  501    0  0.76418034827E+02  0.11831175300E+03  0.45859519985E+03  0.50997641541E+03  0.17300000000E+03 0. -1.
         -6    1    1    2    0  502 -0.76418034827E+02 -0.11831175300E+03  0.32657991671E+03  0.39550073191E+03  0.17300000000E+03 0. -1.
<mgrwt>
<rscale>  2 0.22308381E+03</rscale>
<asrwt>0</asrwt>
<pdfrwt beam="1">  1       21 0.13005017E+00 0.22308381E+03</pdfrwt>
<pdfrwt beam="2">  1       21 0.92540030E-02 0.22308381E+03</pdfrwt>
<totfact> 0.39504212E+04</totfact>
</mgrwt>
</event>
<event>
 4    1  0.3957190E+000  0.1939309E+03  0.7546771E-02  0.1154963E+00
         21   -1    0    0  503  502  0.00000000000E+00  0.00000000000E+00  0.61039770232E+02  0.61039770232E+02  0.00000000000E+00 0.  1.
         21   -1    0    0  501  503 -0.00000000000E+00 -0.00000000000E+00 -0.10208351108E+04  0.10208351108E+04  0.00000000000E+00 0.  1.
          6    1    1    2  501    0 -0.16664417474E+02 -0.86037686222E+02 -0.82048773177E+03  0.84309507426E+03  0.17300000000E+03 0.  1.
         -6    1    1    2    0  502  0.16664417474E+02  0.86037686222E+02 -0.13930760884E+03  0.23877980681E+03  0.17300000000E+03 0.  1.
<mgrwt>
<rscale>  2 0.19393088E+03</rscale>
<asrwt>0</asrwt>
<pdfrwt beam="1">  1       21 0.93907343E-02 0.19393088E+03</pdfrwt>
<pdfrwt beam="2">  1       21 0.15705155E+00 0.19393088E+03</pdfrwt>
<totfact> 0.23968193E+04</totfact>
</mgrwt>
</event>
<event>
 4    1  0.3957190E+000  0.1770233E+03  0.7546771E-02  0.1170715E+00
         21   -1    0    0  503  502  0.00000000000E+00  0.00000000000E+00  0.61097424907E+02  0.61097424907E+02  0.00000000000E+00 0. -1.
         21   -1    0    0  501  503 -0.00000000000E+00 -0.00000000000E+00 -0.57733068763E+03  0.57733068763E+03  0.00000000000E+00 0. -1.
          6    1    1    2  501    0 -0.31451570613E+02 -0.20470597105E+02 -0.15148274217E+03  0.23298984487E+03  0.17300000000E+03 0. -1.
         -6    1    1    2    0  502  0.31451570613E+02  0.20470597105E+02 -0.36475052055E+03  0.40543826766E+03  0.17300000000E+03 0. -1.
<mgrwt>
<rscale>  2 0.17702329E+03</rscale>
<asrwt>0</asrwt>
<pdfrwt beam="1">  1       21 0.93996042E-02 0.17702329E+03</pdfrwt>
<pdfrwt beam="2">  1       21 0.88820102E-01 0.17702329E+03</pdfrwt>
<totfact> 0.98649687E+04</totfact>
</mgrwt>
</event>
<event>
 4    1  0.3957190E+000  0.2851891E+03  0.7546771E-02  0.1092888E+00
         21   -1    0    0  501  502  0.00000000000E+00  0.00000000000E+00  0.69624441944E+03  0.69624441944E+03  0.00000000000E+00 0. -1.
         21   -1    0    0  502  503 -0.00000000000E+00 -0.00000000000E+00 -0.15111940508E+03  0.15111940508E+03  0.00000000000E+00 0. -1.
          6    1    1    2  501    0  0.21217191214E+03  0.79918226358E+02  0.47442014805E+03  0.55354071222E+03  0.17300000000E+03 0. -1.
         -6    1    1    2    0  503 -0.21217191214E+03 -0.79918226358E+02  0.70704866310E+02  0.29382311231E+03  0.17300000000E+03 0. -1.
<mgrwt>
<rscale>  2 0.28518914E+03</rscale>
<asrwt>0</asrwt>
<pdfrwt beam="1">  1       21 0.10711452E+00 0.28518914E+03</pdfrwt>
<pdfrwt beam="2">  1       21 0.23249140E-01 0.28518914E+03</pdfrwt>
<totfact> 0.11472921E+04</totfact>
</mgrwt>
</event>
<event>
 4    1  0.3957190E+000  0.2091763E+03  0.7546771E-02  0.1142220E+00
         21   -1    0    0  503  502  0.00000000000E+00  0.00000000000E+00  0.27381294074E+02  0.27381294074E+02  0.00000000000E+00 0.  1.
         21   -1    0    0  501  503 -0.00000000000E+00 -0.00000000000E+00 -0.17911522414E+04  0.17911522414E+04  0.00000000000E+00 0. -1.
          6    1    1    2  501    0  0.18436973155E+02 -0.11612843838E+03 -0.58327955054E+03  0.61965294339E+03  0.17300000000E+03 0.  1.
         -6    1    1    2    0  502 -0.18436973155E+02  0.11612843838E+03 -0.11804913968E+04  0.11988805921E+04  0.17300000000E+03 0. -1.
<mgrwt>
<rscale>  2 0.20917633E+03</rscale>
<asrwt>0</asrwt>
<pdfrwt beam="1">  1       21 0.42125056E-02 0.20917633E+03</pdfrwt>
<pdfrwt beam="2">  1       21 0.27556196E+00 0.20917633E+03</pdfrwt>
<totfact> 0.16699089E+04</totfact>
</mgrwt>
</event>
<event>
 4    1  0.3957190E+000  0.2277955E+03  0.7546771E-02  0.1128201E+00
         21   -1    0    0  503  502  0.00000000000E+00  0.00000000000E+00  0.10152739569E+03  0.10152739569E+03  0.00000000000E+00 0.  1.
         21   -1    0    0  501  503 -0.00000000000E+00 -0.00000000000E+00 -0.56611400140E+03  0.56611400140E+03  0.00000000000E+00 0. -1.
          6    1    1    2  501    0 -0.30140606011E+02  0.14509763715E+03 -0.33635548647E+03  0.40623366886E+03  0.17300000000E+03 0. -1.
         -6    1    1    2    0  502  0.30140606011E+02 -0.14509763715E+03 -0.12823111924E+03  0.26140772823E+03  0.17300000000E+03 0.  1.
<mgrwt>
<rscale>  2 0.22779548E+03</rscale>
<asrwt>0</asrwt>
<pdfrwt beam="1">  1       21 0.15619599E-01 0.22779548E+03</pdfrwt>
<pdfrwt beam="2">  1       21 0.87094465E-01 0.22779548E+03</pdfrwt>
<totfact> 0.40563543E+04</totfact>
</mgrwt>
</event>
<event>
 4    1  0.3957190E+000  0.1795318E+03  0.7546771E-02  0.1168257E+00
         21   -1    0    0  501  502  0.00000000000E+00  0.00000000000E+00  0.15630195079E+03  0.15630195079E+03  0.00000000000E+00 0. -1.
         21   -1    0    0  502  503 -0.00000000000E+00 -0.00000000000E+00 -0.21743245524E+03  0.21743245524E+03  0.00000000000E+00 0. -1.
          6    1    1    2  501    0  0.38177471046E+02 -0.29071505913E+02  0.11880554838E+02  0.17992448231E+03  0.17300000000E+03 0.  1.
         -6    1    1    2    0  503 -0.38177471046E+02  0.29071505913E+02 -0.73011059286E+02  0.19380992371E+03  0.17300000000E+03 0.  1.
<mgrwt>
<rscale>  2 0.17953181E+03</rscale>
<asrwt>0</asrwt>
<pdfrwt beam="1">  1       21 0.24046454E-01 0.17953181E+03</pdfrwt>
<pdfrwt beam="2">  1       21 0.33451147E-01 0.17953181E+03</pdfrwt>
<totfact> 0.14100223E+05</totfact>
</mgrwt>
</event>
<event>
 4    1  0.3957190E+000  0.2055349E+03  0.7546771E-02  0.1145151E+00
         21   -1    0    0  501  502  0.00000000000E+00  0.00000000000E+00  0.14663267729E+03  0.14663267729E+03  0.00000000000E+00 0.  1.
         21   -1    0    0  502  503 -0.00000000000E+00 -0.00000000000E+00 -0.29703261408E+03  0.29703261408E+03  0.00000000000E+00 0.  1.
          6    1    1    2  501    0  0.33234798216E+02  0.10588226779E+03 -0.36726877165E+02  0.20879049296E+03  0.17300000000E+03 0.  1.
         -6    1    1    2    0  503 -0.33234798216E+02 -0.10588226779E+03 -0.11367305963E+03  0.23487479841E+03  0.17300000000E+03 0.  1.
<mgrwt>
<rscale>  2 0.20553493E+03</rscale>
<asrwt>0</asrwt>
<pdfrwt beam="1">  1       21 0.22558874E-01 0.20553493E+03</pdfrwt>
<pdfrwt beam="2">  1       21 0.45697325E-01 0.20553493E+03</pdfrwt>
<totfact> 0.84065644E+04</totfact>
</mgrwt>
</event>
<event>
 4    1  0.3957190E+000  0.2220903E+03  0.7546771E-02  0.1132334E+00
         21   -1    0    0  501  502  0.00000000000E+00  0.00000000000E+00  0.85223566285E+03  0.85223566285E+03  0.00000000000E+00 0. -1.
         21   -1    0    0  502  503 -0.00000000000E+00 -0.00000000000E+00 -0.58150312443E+02  0.58150312443E+02  0.00000000000E+00 0.  1.
          6    1    1    2  501    0 -0.83646128130E+02 -0.11134828183E+03  0.42829826116E+03  0.48245571313E+03  0.17300000000E+03 0. -1.
         -6    1    1    2    0  503  0.83646128130E+02  0.11134828183E+03  0.36578708924E+03  0.42793026216E+03  0.17300000000E+03 0.  1.
<mgrwt>
<rscale>  2 0.22209033E+03</rscale>
<asrwt>0</asrwt>
<pdfrwt beam="1">  1       21 0.13111317E+00 0.22209033E+03</pdfrwt>
<pdfrwt beam="2">  1       21 0.89462026E-02 0.22209033E+03</pdfrwt>
<totfact> 0.41093276E+04</totfact>
</mgrwt>
</event>
<event>
 4    1  0.3957190E+000  0.2025956E+03  0.7546771E-02  0.1147567E+00
         21   -1    0    0  503  502  0.00000000000E+00  0.00000000000E+00  0.14502405674E+03  0.14502405674E+03  0.00000000000E+00 0. -1.
         21   -1    0    0  501  503 -0.00000000000E+00 -0.00000000000E+00 -0.33894767478E+03  0.33894767478E+03  0.00000000000E+00 0. -1.
          6    1    1    2  501    0 -0.90839965507E+02 -0.53517187573E+02 -0.19525638454E+03  0.28137171926E+03  0.17300000000E+03 0. -1.
         -6    1    1    2    0  502  0.90839965507E+02  0.53517187573E+02  0.13327665037E+01  0.20260001225E+03  0.17300000000E+03 0. -1.
<mgrwt>
<rscale>  2 0.20259563E+03</rscale>
<asrwt>0</asrwt>
<pdfrwt beam="1">  1       21 0.22311394E-01 0.20259563E+03</pdfrwt>
<pdfrwt beam="2">  1       21 0.52145795E-01 0.20259563E+03</pdfrwt>
<totfact> 0.65304218E+04</totfact>
</mgrwt>
</event>
<event>
 4    1  0.3957190E+000  0.2399549E+03  0.7546771E-02  0.1119823E+00
         21   -1    0    0  501  502  0.00000000000E+00  0.00000000000E+00  0.25519420788E+02  0.25519420788E+02  0.00000000000E+00 0.  1.
         21   -1    0    0  502  503 -0.00000000000E+00 -0.00000000000E+00 -0.22562997777E+04  0.22562997777E+04  0.00000000000E+00 0.  1.
          6    1    1    2  501    0 -0.16504670952E+03  0.20222714482E+02 -0.11203517656E+04  0.11457602076E+04  0.17300000000E+03 0.  1.
         -6    1    1    2    0  503  0.16504670952E+03 -0.20222714482E+02 -0.11104285913E+04  0.11360589909E+04  0.17300000000E+03 0.  1.
<mgrwt>
<rscale>  2 0.23995494E+03</rscale>
<asrwt>0</asrwt>
<pdfrwt beam="1">  1       21 0.39260648E-02 0.23995494E+03</pdfrwt>
<pdfrwt beam="2">  1       21 0.34712304E+00 0.23995494E+03</pdfrwt>
<totfact> 0.69759513E+03</totfact>
</mgrwt>
</event>
<event>
 4    1  0.3957190E+000  0.1928617E+03  0.7546771E-02  0.1155905E+00
         21   -1    0    0  503  502  0.00000000000E+00  0.00000000000E+00  0.26167835336E+03  0.26167835336E+03  0.00000000000E+00 0. -1.
         21   -1    0    0  501  503 -0.00000000000E+00 -0.00000000000E+00 -0.16277714359E+03  0.16277714359E+03  0.00000000000E+00 0.  1.
          6    1    1    2  501    0  0.76030643906E+02  0.38548561882E+02 -0.26111235963E+02  0.19462129143E+03  0.17300000000E+03 0.  1.
         -6    1    1    2    0  502 -0.76030643906E+02 -0.38548561882E+02  0.12501244573E+03  0.22983420551E+03  0.17300000000E+03 0.  1.
<mgrwt>
<rscale>  2 0.19286174E+03</rscale>
<asrwt>0</asrwt>
<pdfrwt beam="1">  1       21 0.40258208E-01 0.19286174E+03</pdfrwt>
<pdfrwt beam="2">  1       21 0.25042638E-01 0.19286174E+03</pdfrwt>
<totfact> 0.89764073E+04</totfact>
</mgrwt>
</event>
<event>
 4    1  0.3957190E+000  0.1904349E+03  0.7546771E-02  0.1158070E+00
         21   -1    0    0  503  502  0.00000000000E+00  0.00000000000E+00  0.10798884830E+03  0.10798884830E+03  0.00000000000E+00 0.  1.
         21   -1    0    0  501  503 -0.00000000000E+00 -0.00000000000E+00 -0.25741436646E+04  0.25741436646E+04  0.00000000000E+00 0.  1.
          6    1    1    2  501    0  0.75788562717E+01  0.79240189176E+02 -0.24836091508E+04  0.24908994079E+04  0.17300000000E+03 0.  1.
         -6    1    1    2    0  502 -0.75788562717E+01 -0.79240189176E+02  0.17454334467E+02  0.19123310497E+03  0.17300000000E+03 0.  1.
<mgrwt>
<rscale>  2 0.19043489E+03</rscale>
<asrwt>0</asrwt>
<pdfrwt beam="1">  1       21 0.16613670E-01 0.19043489E+03</pdfrwt>
<pdfrwt beam="2">  1       21 0.39602209E+00 0.19043489E+03</pdfrwt>
<totfact> 0.30124369E+02</totfact>
</mgrwt>
</event>
<event>
 4    1  0.3957190E+000  0.1836405E+03  0.7546771E-02  0.1164326E+00
         21   -1    0    0  501  502  0.00000000000E+00  0.00000000000E+00  0.33725183408E+02  0.33725183408E+02  0.00000000000E+00 0. -1.
         21   -1    0    0  502  503 -0.00000000000E+00 -0.00000000000E+00 -0.11025393930E+04  0.11025393930E+04  0.00000000000E+00 0. -1.
          6    1    1    2  501    0 -0.14071380549E+02  0.59973646717E+02 -0.36111371529E+03  0.40512585381E+03  0.17300000000E+03 0. -1.
         -6    1    1    2    0  503  0.14071380549E+02 -0.59973646717E+02 -0.70770049426E+03  0.73113872256E+03  0.17300000000E+03 0. -1.
<mgrwt>
<rscale>  2 0.18364052E+03</rscale>
<asrwt>0</asrwt>
<pdfrwt beam="1">  1       21 0.51884886E-02 0.18364052E+03</pdfrwt>
<pdfrwt beam="2">  1       21 0.16962148E+00 0.18364052E+03</pdfrwt>
<totfact> 0.54520665E+04</totfact>
</mgrwt>
</event>
<event>
 4    1  0.3957190E+000  0.2104804E+03  0.7546771E-02  0.1141186E+00
         21   -1    0    0  503  502  0.00000000000E+00  0.00000000000E+00  0.17627077710E+04  0.17627077710E+04  0.00000000000E+00 0. -1.
         21   -1    0    0  501  503 -0.00000000000E+00 -0.00000000000E+00 -0.25462135047E+02  0.25462135047E+02  0.00000000000E+00 0.  1.
          6    1    1    2  501    0  0.11399802409E+03 -0.37113940207E+02  0.76695793444E+03  0.79531532568E+03  0.17300000000E+03 0.  1.
         -6    1    1    2    0  502 -0.11399802409E+03  0.37113940207E+02  0.97028770147E+03  0.99285458033E+03  0.17300000000E+03 0. -1.
<mgrwt>
<rscale>  2 0.21048039E+03</rscale>
<asrwt>0</asrwt>
<pdfrwt beam="1">  1       21 0.27118572E+00 0.21048039E+03</pdfrwt>
<pdfrwt beam="2">  1       21 0.39172529E-02 0.21048039E+03</pdfrwt>
<totfact> 0.19983045E+04</totfact>
</mgrwt>
</event>
<event>
 4    1  0.3957190E+000  0.1830150E+03  0.7546771E-02  0.1164917E+00
         21   -1    0    0  503  502  0.00000000000E+00  0.00000000000E+00  0.90412664284E+03  0.90412664284E+03  0.00000000000E+00 0.  1.
         21   -1    0    0  501  503 -0.00000000000E+00 -0.00000000000E+00 -0.51390190211E+02  0.51390190211E+02  0.00000000000E+00 0. -1.
          6    1    1    2  501    0 -0.58120542109E+02 -0.13692457711E+02  0.17396040047E+03  0.25250089454E+03  0.17300000000E+03 0. -1.
         -6    1    1    2    0  502  0.58120542109E+02  0.13692457711E+02  0.67877605216E+03  0.70301593851E+03  0.17300000000E+03 0.  1.
<mgrwt>
<rscale>  2 0.18301497E+03</rscale>
<asrwt>0</asrwt>
<pdfrwt beam="1">  1       21 0.13909639E+00 0.18301497E+03</pdfrwt>
<pdfrwt beam="2">  1       21 0.79061838E-02 0.18301497E+03</pdfrwt>
<totfact> 0.44809483E+04</totfact>
</mgrwt>
</event>
<event>
 4    1  0.3957190E+000  0.2718229E+03  0.7546771E-02  0.1100241E+00
         21   -1    0    0  503  502  0.00000000000E+00  0.00000000000E+00  0.13519703649E+04  0.13519703649E+04  0.00000000000E+00 0. -1.
         21   -1    0    0  501  503 -0.00000000000E+00 -0.00000000000E+00 -0.56345269609E+02  0.56345269609E+02  0.00000000000E+00 0.  1.
          6    1    1    2  501    0  0.19387760050E+03 -0.79813151119E+02  0.52573794394E+03  0.59185137388E+03  0.17300000000E+03 0.  1.
         -6    1    1    2    0  502 -0.19387760050E+03  0.79813151119E+02  0.76988715131E+03  0.81646426059E+03  0.17300000000E+03 0. -1.
<mgrwt>
<rscale>  2 0.27182285E+03</rscale>
<asrwt>0</asrwt>
<pdfrwt beam="1">  1       21 0.20799542E+00 0.27182285E+03</pdfrwt>
<pdfrwt beam="2">  1       21 0.86685040E-02 0.27182285E+03</pdfrwt>
<totfact> 0.11770360E+04</totfact>
</mgrwt>
</event>
<event>
 4    1  0.3957190E+000  0.2557482E+03  0.7546771E-02  0.1109725E+00
         21   -1    0    0  501  502  0.00000000000E+00  0.00000000000E+00  0.63502874728E+02  0.63502874728E+02  0.00000000000E+00 0. -1.
         21   -1    0    0  502  503 -0.00000000000E+00 -0.00000000000E+00 -0.12299859342E+04  0.12299859342E+04  0.00000000000E+00 0. -1.
          6    1    1    2  501    0  0.18452351756E+03 -0.37804838285E+02 -0.84403485209E+03  0.88193081694E+03  0.17300000000E+03 0. -1.
         -6    1    1    2    0  503 -0.18452351756E+03  0.37804838285E+02 -0.32244820743E+03  0.41155799204E+03  0.17300000000E+03 0. -1.
<mgrwt>
<rscale>  2 0.25574819E+03</rscale>
<asrwt>0</asrwt>
<pdfrwt beam="1">  1       21 0.97696747E-02 0.25574819E+03</pdfrwt>
<pdfrwt beam="2">  1       21 0.18922857E+00 0.25574819E+03</pdfrwt>
<totfact> 0.12762751E+04</totfact>
</mgrwt>
</event>
<event>
 4    1  0.3957190E+000  0.2003713E+03  0.7546771E-02  0.1149426E+00
         21   -1    0    0  501  502  0.00000000000E+00  0.00000000000E+00  0.27079447611E+03  0.27079447611E+03  0.00000000000E+00 0.  1.
         21   -1    0    0  502  503 -0.00000000000E+00 -0.00000000000E+00 -0.15911007713E+03  0.15911007713E+03  0.00000000000E+00 0. -1.
          6    1    1    2  501    0  0.97483519585E+02 -0.26769919776E+02  0.11196762414E+03  0.22953303477E+03  0.17300000000E+03 0. -1.
         -6    1    1    2    0  503 -0.97483519585E+02  0.26769919776E+02 -0.28322515621E+00  0.20037151847E+03  0.17300000000E+03 0. -1.
<mgrwt>
<rscale>  2 0.20037132E+03</rscale>
<asrwt>0</asrwt>
<pdfrwt beam="1">  1       21 0.41660689E-01 0.20037132E+03</pdfrwt>
<pdfrwt beam="2">  1       21 0.24478473E-01 0.20037132E+03</pdfrwt>
<totfact> 0.87182046E+04</totfact>
</mgrwt>
</event>
<event>
 4    1  0.3957190E+000  0.1858480E+03  0.7546771E-02  0.1162260E+00
         21   -1    0    0  503  502  0.00000000000E+00  0.00000000000E+00  0.16583418755E+02  0.16583418755E+02  0.00000000000E+00 0.  1.
         21   -1    0    0  501  503 -0.00000000000E+00 -0.00000000000E+00 -0.23810951660E+04  0.23810951660E+04  0.00000000000E+00 0.  1.
          6    1    1    2  501    0  0.64298292773E+02  0.21822450956E+02 -0.16065975244E+04  0.16173110694E+04  0.17300000000E+03 0. -1.
         -6    1    1    2    0  502 -0.64298292773E+02 -0.21822450956E+02 -0.75791422283E+03  0.78036751533E+03  0.17300000000E+03 0. -1.
<mgrwt>
<rscale>  2 0.18584803E+03</rscale>
<asrwt>0</asrwt>
<pdfrwt beam="1">  1       21 0.25512963E-02 0.18584803E+03</pdfrwt>
<pdfrwt beam="2">  1       21 0.36632218E+00 0.18584803E+03</pdfrwt>
<totfact> 0.11657038E+04</totfact>
</mgrwt>
</event>
<event>
 4    1  0.3957190E+000  0.1819581E+03  0.7546771E-02  0.1165921E+00
         21   -1    0    0  503  502  0.00000000000E+00  0.00000000000E+00  0.18480024208E+03  0.18480024208E+03  0.00000000000E+00 0.  1.
         21   -1    0    0  501  503 -0.00000000000E+00 -0.00000000000E+00 -0.84555484754E+03  0.84555484754E+03  0.00000000000E+00 0.  1.
          6    1    1    2  501    0 -0.61667723939E+01 -0.56050905798E+02 -0.78773078111E+03  0.80847295355E+03  0.17300000000E+03 0.  1.
         -6    1    1    2    0  502  0.61667723939E+01  0.56050905798E+02  0.12697617565E+03  0.22188213606E+03  0.17300000000E+03 0.  1.
<mgrwt>
<rscale>  2 0.18195805E+03</rscale>
<asrwt>0</asrwt>
<pdfrwt beam="1">  1       21 0.28430806E-01 0.18195805E+03</pdfrwt>
<pdfrwt beam="2">  1       21 0.13008536E+00 0.18195805E+03</pdfrwt>
<totfact> 0.51498492E+03</totfact>
</mgrwt>
</event>
<event>
 4    1  0.3957190E+000  0.2260527E+03  0.7546771E-02  0.1129449E+00
         21   -1    0    0  501  502  0.00000000000E+00  0.00000000000E+00  0.25115350259E+03  0.25115350259E+03  0.00000000000E+00 0. -1.
         21   -1    0    0  502  503 -0.00000000000E+00 -0.00000000000E+00 -0.30595089905E+03  0.30595089905E+03  0.00000000000E+00 0. -1.
          6    1    1    2  501    0 -0.36119225464E+02 -0.14094762871E+03  0.13382251702E+03  0.26269430627E+03  0.17300000000E+03 0. -1.
         -6    1    1    2    0  503  0.36119225464E+02  0.14094762871E+03 -0.18861991348E+03  0.29441009536E+03  0.17300000000E+03 0. -1.
<mgrwt>
<rscale>  2 0.22605272E+03</rscale>
<asrwt>0</asrwt>
<pdfrwt beam="1">  1       21 0.38639000E-01 0.22605272E+03</pdfrwt>
<pdfrwt beam="2">  1       21 0.47069369E-01 0.22605272E+03</pdfrwt>
<totfact> 0.27401459E+04</totfact>
</mgrwt>
</event>
<event>
 4    1  0.3957190E+000  0.1760330E+03  0.7546771E-02  0.1171698E+00
         21   -1    0    0  503  502  0.00000000000E+00  0.00000000000E+00  0.97687639599E+02  0.97687639599E+02  0.00000000000E+00 0.  1.
         21   -1    0    0  501  503 -0.00000000000E+00 -0.00000000000E+00 -0.48780047901E+03  0.48780047901E+03  0.00000000000E+00 0.  1.
          6    1    1    2  501    0 -0.23004950527E+02 -0.23008516690E+02 -0.36817463465E+03  0.40809334862E+03  0.17300000000E+03 0.  1.
         -6    1    1    2    0  502  0.23004950527E+02  0.23008516690E+02 -0.21938204756E+02  0.17739476998E+03  0.17300000000E+03 0.  1.
<mgrwt>
<rscale>  2 0.17603301E+03</rscale>
<asrwt>0</asrwt>
<pdfrwt beam="1">  1       21 0.15028868E-01 0.17603301E+03</pdfrwt>
<pdfrwt beam="2">  1       21 0.75046227E-01 0.17603301E+03</pdfrwt>
<totfact> 0.62538182E+04</totfact>
</mgrwt>
</event>
<event>
 4    1  0.3957190E+000  0.2009459E+03  0.7546771E-02  0.1148943E+00
         21   -1    0    0  503  502  0.00000000000E+00  0.00000000000E+00  0.14294683663E+04  0.14294683663E+04  0.00000000000E+00 0. -1.
         21   -1    0    0  501  503 -0.00000000000E+00 -0.00000000000E+00 -0.27051731681E+03  0.27051731681E+03  0.00000000000E+00 0. -1.
          6    1    1    2  501    0  0.36533147864E+02 -0.95475615387E+02 -0.22491540460E+03  0.30160603982E+03  0.17300000000E+03 0. -1.
         -6    1    1    2    0  502 -0.36533147864E+02  0.95475615387E+02  0.13838664541E+04  0.13983796433E+04  0.17300000000E+03 0. -1.
<mgrwt>
<rscale>  2 0.20094592E+03</rscale>
<asrwt>0</asrwt>
<pdfrwt beam="1">  1       21 0.21991821E+00 0.20094592E+03</pdfrwt>
<pdfrwt beam="2">  1       21 0.41618049E-01 0.20094592E+03</pdfrwt>
<totfact> 0.55415410E+02</totfact>
</mgrwt>
</event>
<event>
 4    1  0.3957190E+000  0.1891336E+03  0.7546771E-02  0.1159245E+00
         21   -1    0    0  503  502  0.00000000000E+00  0.00000000000E+00  0.15793244359E+03  0.15793244359E+03  0.00000000000E+00 0. -1.
         21   -1    0    0  501  503 -0.00000000000E+00 -0.00000000000E+00 -0.29741736846E+03  0.29741736846E+03  0.00000000000E+00 0. -1.
          6    1    1    2  501    0 -0.76386288808E+02  0.27660326646E+01  0.41433742545E+02  0.19361888099E+03  0.17300000000E+03 0. -1.
         -6    1    1    2    0  502  0.76386288808E+02 -0.27660326646E+01 -0.18091866742E+03  0.26173093106E+03  0.17300000000E+03 0. -1.
<mgrwt>
<rscale>  2 0.18913359E+03</rscale>
<asrwt>0</asrwt>
<pdfrwt beam="1">  1       21 0.24297299E-01 0.18913359E+03</pdfrwt>
<pdfrwt beam="2">  1       21 0.45756518E-01 0.18913359E+03</pdfrwt>
<totfact> 0.73339342E+04</totfact>
</mgrwt>
</event>
<event>
 4    1  0.3957190E+000  0.1943594E+03  0.7546771E-02  0.1154587E+00
         21   -1    0    0  501  502  0.00000000000E+00  0.00000000000E+00  0.29150285057E+03  0.29150285057E+03  0.00000000000E+00 0.  1.
         21   -1    0    0  502  503 -0.00000000000E+00 -0.00000000000E+00 -0.20792087521E+03  0.20792087521E+03  0.00000000000E+00 0.  1.
          6    1    1    2  501    0  0.33948939846E+02 -0.81817213067E+02  0.19506169480E+03  0.27536276373E+03  0.17300000000E+03 0.  1.
         -6    1    1    2    0  503 -0.33948939846E+02  0.81817213067E+02 -0.11147971944E+03  0.22406096206E+03  0.17300000000E+03 0.  1.
<mgrwt>
<rscale>  2 0.19435943E+03</rscale>
<asrwt>0</asrwt>
<pdfrwt beam="1">  1       21 0.44846592E-01 0.19435943E+03</pdfrwt>
<pdfrwt beam="2">  1       21 0.31987827E-01 0.19435943E+03</pdfrwt>
<totfact> 0.44817533E+04</totfact>
</mgrwt>
</event>
<event>
 4    1  0.3957190E+000  0.2394208E+03  0.7546771E-02  0.1120179E+00
         21   -1    0    0  501  502  0.00000000000E+00  0.00000000000E+00  0.24162623715E+03  0.24162623715E+03  0.00000000000E+00 0.  1.
         21   -1    0    0  502  503 -0.00000000000E+00 -0.00000000000E+00 -0.24368211620E+03  0.24368211620E+03  0.00000000000E+00 0.  1.
          6    1    1    2  501    0 -0.50571428233E+02  0.15759389717E+03 -0.40495837551E+02  0.24282137187E+03  0.17300000000E+03 0.  1.
         -6    1    1    2    0  503  0.50571428233E+02 -0.15759389717E+03  0.38439958494E+02  0.24248698148E+03  0.17300000000E+03 0.  1.
<mgrwt>
<rscale>  2 0.23942077E+03</rscale>
<asrwt>0</asrwt>
<pdfrwt beam="1">  1       21 0.37173267E-01 0.23942077E+03</pdfrwt>
<pdfrwt beam="2">  1       21 0.37489556E-01 0.23942077E+03</pdfrwt>
<totfact> 0.46871419E+04</totfact>
</mgrwt>
</event>
<event>
 4    1  0.3957190E+000  0.2293779E+03  0.7546771E-02  0.1127078E+00
         21   -1    0    0  501  502  0.00000000000E+00  0.00000000000E+00  0.10264279870E+04  0.10264279870E+04  0.00000000000E+00 0. -1.
         21   -1    0    0  502  503 -0.00000000000E+00 -0.00000000000E+00 -0.63711918509E+02  0.63711918509E+02  0.00000000000E+00 0. -1.
          6    1    1    2  501    0  0.10906370967E+03 -0.10387652146E+03  0.72233087130E+03  0.75787605327E+03  0.17300000000E+03 0. -1.
         -6    1    1    2    0  503 -0.10906370967E+03  0.10387652146E+03  0.24038519719E+03  0.33226385224E+03  0.17300000000E+03 0. -1.
<mgrwt>
<rscale>  2 0.22937791E+03</rscale>
<asrwt>0</asrwt>
<pdfrwt beam="1">  1       21 0.15791199E+00 0.22937791E+03</pdfrwt>
<pdfrwt beam="2">  1       21 0.98018344E-02 0.22937791E+03</pdfrwt>
<totfact> 0.21407160E+04</totfact>
</mgrwt>
</event>
<event>
 4    1  0.3957190E+000  0.2326672E+03  0.7546771E-02  0.1124776E+00
         21   -1    0    0  501  502  0.00000000000E+00  0.00000000000E+00  0.51845713183E+03  0.51845713183E+03  0.00000000000E+00 0. -1.
         21   -1    0    0  502  503 -0.00000000000E+00 -0.00000000000E+00 -0.32656521887E+03  0.32656521887E+03  0.00000000000E+00 0. -1.
          6    1    1    2  501    0 -0.56365555645E+01  0.15547757714E+03  0.44442594327E+03  0.50164575828E+03  0.17300000000E+03 0. -1.
         -6    1    1    2    0  503  0.56365555645E+01 -0.15547757714E+03 -0.25253403031E+03  0.34337659241E+03  0.17300000000E+03 0. -1.
<mgrwt>
<rscale>  2 0.23266725E+03</rscale>
<asrwt>0</asrwt>
<pdfrwt beam="1">  1       21 0.79762636E-01 0.23266725E+03</pdfrwt>
<pdfrwt beam="2">  1       21 0.50240803E-01 0.23266725E+03</pdfrwt>
<totfact> 0.50724433E+03</totfact>
</mgrwt>
</event>
<event>
 4    1  0.3957190E+000  0.1740993E+03  0.7546771E-02  0.1173639E+00
         21   -1    0    0  503  502  0.00000000000E+00  0.00000000000E+00  0.26465203034E+03  0.26465203034E+03  0.00000000000E+00 0.  1.
         21   -1    0    0  501  503 -0.00000000000E+00 -0.00000000000E+00 -0.18115250342E+03  0.18115250342E+03  0.00000000000E+00 0.  1.
          6    1    1    2  501    0  0.17241902407E+02 -0.91797948114E+01 -0.93427405210E+02  0.19758348078E+03  0.17300000000E+03 0.  1.
         -6    1    1    2    0  502 -0.17241902407E+02  0.91797948114E+01  0.17692693213E+03  0.24822105299E+03  0.17300000000E+03 0.  1.
<mgrwt>
<rscale>  2 0.17409926E+03</rscale>
<asrwt>0</asrwt>
<pdfrwt beam="1">  1       21 0.40715697E-01 0.17409926E+03</pdfrwt>
<pdfrwt beam="2">  1       21 0.27869616E-01 0.17409926E+03</pdfrwt>
<totfact> 0.72009563E+04</totfact>
</mgrwt>
</event>
<event>
 4    1  0.3957190E+000  0.1881087E+03  0.7546771E-02  0.1160178E+00
         21   -1    0    0  503  502  0.00000000000E+00  0.00000000000E+00  0.89219665802E+02  0.89219665802E+02  0.00000000000E+00 0. -1.
         21   -1    0    0  501  503 -0.00000000000E+00 -0.00000000000E+00 -0.52984838128E+03  0.52984838128E+03  0.00000000000E+00 0. -1.
          6    1    1    2  501    0 -0.20699466831E+02  0.70904200036E+02 -0.37553772164E+03  0.42001601622E+03  0.17300000000E+03 0. -1.
         -6    1    1    2    0  502  0.20699466831E+02 -0.70904200036E+02 -0.65090993837E+02  0.19905203086E+03  0.17300000000E+03 0. -1.
<mgrwt>
<rscale>  2 0.18810867E+03</rscale>
<asrwt>0</asrwt>
<pdfrwt beam="1">  1       21 0.13726102E-01 0.18810867E+03</pdfrwt>
<pdfrwt beam="2">  1       21 0.81515136E-01 0.18810867E+03</pdfrwt>
<totfact> 0.60870471E+04</totfact>
</mgrwt>
</event>
<event>
 4    1  0.3957190E+000  0.2330878E+03  0.7546771E-02  0.1124485E+00
         21   -1    0    0  501  502  0.00000000000E+00  0.00000000000E+00  0.15094586356E+03  0.15094586356E+03  0.00000000000E+00 0.  1.
         21   -1    0    0  502  503 -0.00000000000E+00 -0.00000000000E+00 -0.57931361102E+03  0.57931361102E+03  0.00000000000E+00 0. -1.
          6    1    1    2  501    0 -0.11966780489E+03  0.10040193539E+03  0.10510661881E+02  0.23332467973E+03  0.17300000000E+03 0.  1.
         -6    1    1    2    0  503  0.11966780489E+03 -0.10040193539E+03 -0.43887840934E+03  0.49693479486E+03  0.17300000000E+03 0. -1.
<mgrwt>
<rscale>  2 0.23308782E+03</rscale>
<asrwt>0</asrwt>
<pdfrwt beam="1">  1       21 0.23222440E-01 0.23308782E+03</pdfrwt>
<pdfrwt beam="2">  1       21 0.89125172E-01 0.23308782E+03</pdfrwt>
<totfact> 0.18286593E+04</totfact>
</mgrwt>
</event>
<event>
 4    1  0.3957190E+000  0.1846048E+03  0.7546771E-02  0.1163419E+00
         21   -1    0    0  501  502  0.00000000000E+00  0.00000000000E+00  0.95674805158E+02  0.95674805158E+02  0.00000000000E+00 0. -1.
         21   -1    0    0  502  503 -0.00000000000E+00 -0.00000000000E+00 -0.56711947330E+03  0.56711947330E+03  0.00000000000E+00 0. -1.
          6    1    1    2  501    0 -0.62181752183E+02 -0.16833460934E+02 -0.33618552371E+02  0.18764099439E+03  0.17300000000E+03 0. -1.
         -6    1    1    2    0  503  0.62181752183E+02  0.16833460934E+02 -0.43782611577E+03  0.47515328406E+03  0.17300000000E+03 0. -1.
<mgrwt>
<rscale>  2 0.18460481E+03</rscale>
<asrwt>0</asrwt>
<pdfrwt beam="1">  1       21 0.14719201E-01 0.18460481E+03</pdfrwt>
<pdfrwt beam="2">  1       21 0.87249149E-01 0.18460481E+03</pdfrwt>
<totfact> 0.46004636E+04</totfact>
</mgrwt>
</event>
<event>
 4    1  0.3957190E+000  0.1804271E+03  0.7546771E-02  0.1167390E+00
         21   -1    0    0  501  502  0.00000000000E+00  0.00000000000E+00  0.34659813809E+03  0.34659813809E+03  0.00000000000E+00 0.  1.
         21   -1    0    0  502  503 -0.00000000000E+00 -0.00000000000E+00 -0.45788563330E+03  0.45788563330E+03  0.00000000000E+00 0.  1.
          6    1    1    2  501    0  0.13655852013E+02  0.49380834144E+02  0.30297787660E+03  0.35263230536E+03  0.17300000000E+03 0.  1.
         -6    1    1    2    0  503 -0.13655852013E+02 -0.49380834144E+02 -0.41426537181E+03  0.45185146604E+03  0.17300000000E+03 0.  1.
<mgrwt>
<rscale>  2 0.18042713E+03</rscale>
<asrwt>0</asrwt>
<pdfrwt beam="1">  1       21 0.53322791E-01 0.18042713E+03</pdfrwt>
<pdfrwt beam="2">  1       21 0.70443943E-01 0.18042713E+03</pdfrwt>
<totfact> 0.61415238E+03</totfact>
</mgrwt>
</event>
<event>
 4    1  0.3957190E+000  0.2221434E+03  0.7546771E-02  0.1132295E+00
         21   -1    0    0  501  502  0.00000000000E+00  0.00000000000E+00  0.10437067352E+04  0.10437067352E+04  0.00000000000E+00 0.  1.
         21   -1    0    0  502  503 -0.00000000000E+00 -0.00000000000E+00 -0.10024392143E+03  0.10024392143E+03  0.00000000000E+00 0. -1.
          6    1    1    2  501    0 -0.10839656513E+03 -0.87572203164E+02  0.88748252129E+03  0.91486224739E+03  0.17300000000E+03 0.  1.
         -6    1    1    2    0  503  0.10839656513E+03  0.87572203164E+02  0.55980292470E+02  0.22908840923E+03  0.17300000000E+03 0. -1.
<mgrwt>
<rscale>  2 0.22214344E+03</rscale>
<asrwt>0</asrwt>
<pdfrwt beam="1">  1       21 0.16057026E+00 0.22214344E+03</pdfrwt>
<pdfrwt beam="2">  1       21 0.15422142E-01 0.22214344E+03</pdfrwt>
<totfact> 0.90925972E+03</totfact>
</mgrwt>
</event>
<event>
 4    1  0.3957190E+000  0.1927565E+03  0.7546771E-02  0.1155998E+00
         21   -1    0    0  503  502  0.00000000000E+00  0.00000000000E+00  0.35508551823E+03  0.35508551823E+03  0.00000000000E+00 0.  1.
         21   -1    0    0  501  503 -0.00000000000E+00 -0.00000000000E+00 -0.11874972286E+03  0.11874972286E+03  0.00000000000E+00 0.  1.
          6    1    1    2  501    0 -0.40860467158E+02 -0.74541901152E+02  0.36493314973E+02  0.19618061790E+03  0.17300000000E+03 0.  1.
         -6    1    1    2    0  502  0.40860467158E+02  0.74541901152E+02  0.19984248039E+03  0.27765462318E+03  0.17300000000E+03 0.  1.
<mgrwt>
<rscale>  2 0.19275651E+03</rscale>
<asrwt>0</asrwt>
<pdfrwt beam="1">  1       21 0.54628541E-01 0.19275651E+03</pdfrwt>
<pdfrwt beam="2">  1       21 0.18269188E-01 0.19275651E+03</pdfrwt>
<totfact> 0.86432545E+04</totfact>
</mgrwt>
</event>
<event>
 4    1  0.3957190E+000  0.2847499E+03  0.7546771E-02  0.1093123E+00
         21   -1    0    0  501  502  0.00000000000E+00  0.00000000000E+00  0.54663115529E+03  0.54663115529E+03  0.00000000000E+00 0.  1.
         21   -1    0    0  502  503 -0.00000000000E+00 -0.00000000000E+00 -0.69931956579E+03  0.69931956579E+03  0.00000000000E+00 0. -1.
          6    1    1    2  501    0 -0.40571334902E+02 -0.22250277953E+03  0.47662914049E+03  0.55520974206E+03  0.17300000000E+03 0.  1.
         -6    1    1    2    0  503  0.40571334902E+02  0.22250277953E+03 -0.62931755099E+03  0.69074097902E+03  0.17300000000E+03 0. -1.
<mgrwt>
<rscale>  2 0.28474993E+03</rscale>
<asrwt>0</asrwt>
<pdfrwt beam="1">  1       21 0.84097101E-01 0.28474993E+03</pdfrwt>
<pdfrwt beam="2">  1       21 0.10758763E+00 0.28474993E+03</pdfrwt>
<totfact> 0.78127480E+02</totfact>
</mgrwt>
</event>
<event>
 4    1  0.3957190E+000  0.1783566E+03  0.7546771E-02  0.1169403E+00
         21   -1    0    0  501  502  0.00000000000E+00  0.00000000000E+00  0.45621946009E+03  0.45621946009E+03  0.00000000000E+00 0.  1.
         21   -1    0    0  502  503 -0.00000000000E+00 -0.00000000000E+00 -0.13634505817E+03  0.13634505817E+03  0.00000000000E+00 0.  1.
          6    1    1    2  501    0  0.15828743550E+02  0.40392158793E+02  0.36703718447E+03  0.40807765241E+03  0.17300000000E+03 0.  1.
         -6    1    1    2    0  503 -0.15828743550E+02 -0.40392158793E+02 -0.47162782553E+02  0.18448686585E+03  0.17300000000E+03 0.  1.
<mgrwt>
<rscale>  2 0.17835660E+03</rscale>
<asrwt>0</asrwt>
<pdfrwt beam="1">  1       21 0.70187609E-01 0.17835660E+03</pdfrwt>
<pdfrwt beam="2">  1       21 0.20976163E-01 0.17835660E+03</pdfrwt>
<totfact> 0.39176267E+04</totfact>
</mgrwt>
</event>
<event>
 4    1  0.3957190E+000  0.1758808E+03  0.7546771E-02  0.1171850E+00
         21   -1    0    0  501  502  0.00000000000E+00  0.00000000000E+00  0.12153915287E+03  0.12153915287E+03  0.00000000000E+00 0. -1.
         21   -1    0    0  502  503 -0.00000000000E+00 -0.00000000000E+00 -0.34472463217E+03  0.34472463217E+03  0.00000000000E+00 0.  1.
          6    1    1    2  501    0  0.97935758103E+01  0.30151841893E+02  0.76637115822E+01  0.17604766449E+03  0.17300000000E+03 0. -1.
         -6    1    1    2    0  503 -0.97935758103E+01 -0.30151841893E+02 -0.23084919088E+03  0.29021612055E+03  0.17300000000E+03 0.  1.
<mgrwt>
<rscale>  2 0.17588078E+03</rscale>
<asrwt>0</asrwt>
<pdfrwt beam="1">  1       21 0.18698332E-01 0.17588078E+03</pdfrwt>
<pdfrwt beam="2">  1       21 0.53034558E-01 0.17588078E+03</pdfrwt>
<totfact> 0.88716165E+04</totfact>
</mgrwt>
</event>
<event>
 4    1  0.3957190E+000  0.1854382E+03  0.7546771E-02  0.1162641E+00
         21   -1    0    0  503  502  0.00000000000E+00  0.00000000000E+00  0.17369036649E+03  0.17369036649E+03  0.00000000000E+00 0. -1.
         21   -1    0    0  501  503 -0.00000000000E+00 -0.00000000000E+00 -0.34014549445E+03  0.34014549445E+03  0.00000000000E+00 0. -1.
          6    1    1    2  501    0 -0.66690362564E+02 -0.32717892049E+01 -0.24932325257E+03  0.31072398256E+03  0.17300000000E+03 0. -1.
         -6    1    1    2    0  502  0.66690362564E+02  0.32717892049E+01  0.82868124606E+02  0.20311187838E+03  0.17300000000E+03 0. -1.
<mgrwt>
<rscale>  2 0.18543815E+03</rscale>
<asrwt>0</asrwt>
<pdfrwt beam="1">  1       21 0.26721595E-01 0.18543815E+03</pdfrwt>
<pdfrwt beam="2">  1       21 0.52330076E-01 0.18543815E+03</pdfrwt>
<totfact> 0.46344354E+04</totfact>
</mgrwt>
</event>
<event>
 4    1  0.3957190E+000  0.1952082E+03  0.7546771E-02  0.1153846E+00
         21   -1    0    0  501  502  0.00000000000E+00  0.00000000000E+00  0.45450254909E+03  0.45450254909E+03  0.00000000000E+00 0.  1.
         21   -1    0    0  502  503 -0.00000000000E+00 -0.00000000000E+00 -0.62348856924E+03  0.62348856924E+03  0.00000000000E+00 0.  1.
          6    1    1    2  501    0  0.81649471152E+02 -0.38866724067E+02  0.41695484404E+03  0.46038853195E+03  0.17300000000E+03 0.  1.
         -6    1    1    2    0  503 -0.81649471152E+02  0.38866724067E+02 -0.58594086419E+03  0.61760258639E+03  0.17300000000E+03 0.  1.
<mgrwt>
<rscale>  2 0.19520824E+03</rscale>
<asrwt>0</asrwt>
<pdfrwt beam="1">  1       21 0.69923470E-01 0.19520824E+03</pdfrwt>
<pdfrwt beam="2">  1       21 0.95921318E-01 0.19520824E+03</pdfrwt>
<totfact> 0.16781433E+03</totfact>
</mgrwt>
</event>
<event>
 4    1  0.3957190E+000  0.1734480E+03  0.7546771E-02  0.1174299E+00
         21   -1    0    0  501  502  0.00000000000E+00  0.00000000000E+00  0.23996233366E+03  0.23996233366E+03  0.00000000000E+00 0.  1.
         21   -1    0    0  502  503 -0.00000000000E+00 -0.00000000000E+00 -0.12853020602E+03  0.12853020602E+03  0.00000000000E+00 0.  1.
          6    1    1    2  501    0 -0.78054833909E+01  0.97092036864E+01  0.26827865550E+02  0.17551047996E+03  0.17300000000E+03 0.  1.
         -6    1    1    2    0  503  0.78054833909E+01 -0.97092036864E+01  0.84604262087E+02  0.19298205971E+03  0.17300000000E+03 0.  1.
<mgrwt>
<rscale>  2 0.17344796E+03</rscale>
<asrwt>0</asrwt>
<pdfrwt beam="1">  1       21 0.36917282E-01 0.17344796E+03</pdfrwt>
<pdfrwt beam="2">  1       21 0.19773878E-01 0.17344796E+03</pdfrwt>
<totfact> 0.16784861E+05</totfact>
</mgrwt>
</event>
<event>
 4    1  0.3957190E+000  0.2247754E+03  0.7546771E-02  0.1130372E+00
         21   -1    0    0  503  502  0.00000000000E+00  0.00000000000E+00  0.19818058697E+04  0.19818058697E+04  0.00000000000E+00 0. -1.
         21   -1    0    0  501  503 -0.00000000000E+00 -0.00000000000E+00 -0.51046510067E+02  0.51046510067E+02  0.00000000000E+00 0. -1.
          6    1    1    2  501    0 -0.74235416103E+00  0.14350751939E+03  0.24624462546E+03  0.33340722065E+03  0.17300000000E+03 0. -1.
         -6    1    1    2    0  502  0.74235416103E+00 -0.14350751939E+03  0.16845147342E+04  0.16994451591E+04  0.17300000000E+03 0. -1.
<mgrwt>
<rscale>  2 0.22477535E+03</rscale>
<asrwt>0</asrwt>
<pdfrwt beam="1">  1       21 0.30489315E+00 0.22477535E+03</pdfrwt>
<pdfrwt beam="2">  1       21 0.78533108E-02 0.22477535E+03</pdfrwt>
<totfact> 0.38238702E+03</totfact>
</mgrwt>
</event>
<event>
 4    1  0.3957190E+000  0.2134794E+03  0.7546771E-02  0.1138840E+00
         21   -1    0    0  501  502  0.00000000000E+00  0.00000000000E+00  0.49626813019E+03  0.49626813019E+03  0.00000000000E+00 0.  1.
         21   -1    0    0  502  503 -0.00000000000E+00 -0.00000000000E+00 -0.11017204187E+03  0.11017204187E+03  0.00000000000E+00 0.  1.
          6    1    1    2  501    0  0.12503269007E+03  0.33590141597E+01  0.31676196541E+03  0.38198376836E+03  0.17300000000E+03 0.  1.
         -6    1    1    2    0  503 -0.12503269007E+03 -0.33590141597E+01  0.69334122917E+02  0.22445640370E+03  0.17300000000E+03 0.  1.
<mgrwt>
<rscale>  2 0.21347941E+03</rscale>
<asrwt>0</asrwt>
<pdfrwt beam="1">  1       21 0.76348942E-01 0.21347941E+03</pdfrwt>
<pdfrwt beam="2">  1       21 0.16949545E-01 0.21347941E+03</pdfrwt>
<totfact> 0.47431241E+04</totfact>
</mgrwt>
</event>
<event>
 4    1  0.3957190E+000  0.2428017E+03  0.7546771E-02  0.1117940E+00
         21   -1    0    0  501  502  0.00000000000E+00  0.00000000000E+00  0.10009949840E+04  0.10009949840E+04  0.00000000000E+00 0.  1.
         21   -1    0    0  502  503 -0.00000000000E+00 -0.00000000000E+00 -0.59487991330E+02  0.59487991330E+02  0.00000000000E+00 0. -1.
          6    1    1    2  501    0 -0.74100555076E+02 -0.15340400341E+03  0.52373437799E+03  0.57727842434E+03  0.17300000000E+03 0. -1.
         -6    1    1    2    0  503  0.74100555076E+02  0.15340400341E+03  0.41777261473E+03  0.48320455104E+03  0.17300000000E+03 0. -1.
<mgrwt>
<rscale>  2 0.24280173E+03</rscale>
<asrwt>0</asrwt>
<pdfrwt beam="1">  1       21 0.15399922E+00 0.24280173E+03</pdfrwt>
<pdfrwt beam="2">  1       21 0.91519994E-02 0.24280173E+03</pdfrwt>
<totfact> 0.25663346E+04</totfact>
</mgrwt>
</event>
<event>
 4    1  0.3957190E+000  0.1958815E+03  0.7546771E-02  0.1153261E+00
         21   -1    0    0  503  502  0.00000000000E+00  0.00000000000E+00  0.18958871368E+03  0.18958871368E+03  0.00000000000E+00 0. -1.
         21   -1    0    0  501  503 -0.00000000000E+00 -0.00000000000E+00 -0.25299565615E+03  0.25299565615E+03  0.00000000000E+00 0. -1.
          6    1    1    2  501    0 -0.15518603772E+02  0.90552370152E+02 -0.13068143551E+03  0.23547228370E+03  0.17300000000E+03 0. -1.
         -6    1    1    2    0  502  0.15518603772E+02 -0.90552370152E+02  0.67274493047E+02  0.20711208612E+03  0.17300000000E+03 0. -1.
<mgrwt>
<rscale>  2 0.19588149E+03</rscale>
<asrwt>0</asrwt>
<pdfrwt beam="1">  1       21 0.29167495E-01 0.19588149E+03</pdfrwt>
<pdfrwt beam="2">  1       21 0.38922408E-01 0.19588149E+03</pdfrwt>
<totfact> 0.71538892E+04</totfact>
</mgrwt>
</event>
<event>
 4    1  0.3957190E+000  0.2210235E+03  0.7546771E-02  0.1133122E+00
         21   -1    0    0  503  502  0.00000000000E+00  0.00000000000E+00  0.17257936476E+03  0.17257936476E+03  0.00000000000E+00 0.  1.
         21   -1    0    0  501  503 -0.00000000000E+00 -0.00000000000E+00 -0.31058781774E+03  0.31058781774E+03  0.00000000000E+00 0.  1.
          6    1    1    2  501    0 -0.13337344170E+03 -0.33673385549E+02 -0.14091812023E+03  0.26212456668E+03  0.17300000000E+03 0.  1.
         -6    1    1    2    0  502  0.13337344170E+03  0.33673385549E+02  0.29096672498E+01  0.22104261582E+03  0.17300000000E+03 0.  1.
<mgrwt>
<rscale>  2 0.22102346E+03</rscale>
<asrwt>0</asrwt>
<pdfrwt beam="1">  1       21 0.26550672E-01 0.22102346E+03</pdfrwt>
<pdfrwt beam="2">  1       21 0.47782741E-01 0.22102346E+03</pdfrwt>
<totfact> 0.55783555E+04</totfact>
</mgrwt>
</event>
<event>
 4    1  0.3957190E+000  0.1999521E+03  0.7546771E-02  0.1149779E+00
         21   -1    0    0  503  502  0.00000000000E+00  0.00000000000E+00  0.31455873310E+03  0.31455873310E+03  0.00000000000E+00 0. -1.
         21   -1    0    0  501  503 -0.00000000000E+00 -0.00000000000E+00 -0.16175889929E+03  0.16175889929E+03  0.00000000000E+00 0. -1.
          6    1    1    2  501    0 -0.59851819792E+02  0.80433876980E+02 -0.33838079589E+02  0.20279512945E+03  0.17300000000E+03 0. -1.
         -6    1    1    2    0  502  0.59851819792E+02 -0.80433876980E+02  0.18663791339E+03  0.27352250294E+03  0.17300000000E+03 0. -1.
<mgrwt>
<rscale>  2 0.19995212E+03</rscale>
<asrwt>0</asrwt>
<pdfrwt beam="1">  1       21 0.48393651E-01 0.19995212E+03</pdfrwt>
<pdfrwt beam="2">  1       21 0.24885985E-01 0.19995212E+03</pdfrwt>
<totfact> 0.62103468E+04</totfact>
</mgrwt>
</event>
<event>
 4    1  0.3957190E+000  0.1884535E+03  0.7546771E-02  0.1159864E+00
         21   -1    0    0  501  502  0.00000000000E+00  0.00000000000E+00  0.40463204701E+03  0.40463204701E+03  0.00000000000E+00 0.  1.
         21   -1    0    0  502  503 -0.00000000000E+00 -0.00000000000E+00 -0.18617417714E+03  0.18617417714E+03  0.00000000000E+00 0. -1.
          6    1    1    2  501    0 -0.73491407898E+02  0.13591685441E+02  0.32399279717E+03  0.37481469230E+03  0.17300000000E+03 0.  1.
         -6    1    1    2    0  503  0.73491407898E+02 -0.13591685441E+02 -0.10553492731E+03  0.21599153185E+03  0.17300000000E+03 0. -1.
<mgrwt>
<rscale>  2 0.18845350E+03</rscale>
<asrwt>0</asrwt>
<pdfrwt beam="1">  1       21 0.62251084E-01 0.18845350E+03</pdfrwt>
<pdfrwt beam="2">  1       21 0.28642181E-01 0.18845350E+03</pdfrwt>
<totfact> 0.27974181E+04</totfact>
</mgrwt>
</event>
<event>
 4    1  0.3957190E+000  0.2151751E+03  0.7546771E-02  0.1137532E+00
         21   -1    0    0  501  502  0.00000000000E+00  0.00000000000E+00  0.19775168196E+03  0.19775168196E+03  0.00000000000E+00 0. -1.
         21   -1    0    0  502  503 -0.00000000000E+00 -0.00000000000E+00 -0.30319296392E+03  0.30319296392E+03  0.00000000000E+00 0.  1.
          6    1    1    2  501    0 -0.79910761699E+02 -0.99927862283E+02  0.66818893980E+02  0.22531105629E+03  0.17300000000E+03 0. -1.
         -6    1    1    2    0  503  0.79910761699E+02  0.99927862283E+02 -0.17226017594E+03  0.27563358959E+03  0.17300000000E+03 0.  1.
<mgrwt>
<rscale>  2 0.21517506E+03</rscale>
<asrwt>0</asrwt>
<pdfrwt beam="1">  1       21 0.30423336E-01 0.21517506E+03</pdfrwt>
<pdfrwt beam="2">  1       21 0.46645071E-01 0.21517506E+03</pdfrwt>
<totfact> 0.45131843E+04</totfact>
</mgrwt>
</event>
<event>
 4    1  0.3957190E+000  0.1803498E+03  0.7546771E-02  0.1167465E+00
         21   -1    0    0  501  502  0.00000000000E+00  0.00000000000E+00  0.10203669916E+03  0.10203669916E+03  0.00000000000E+00 0. -1.
         21   -1    0    0  502  503 -0.00000000000E+00 -0.00000000000E+00 -0.17115530467E+04  0.17115530467E+04  0.00000000000E+00 0. -1.
          6    1    1    2  501    0 -0.45128801263E+02 -0.23673776939E+02  0.13246694322E+02  0.18083564728E+03  0.17300000000E+03 0. -1.
         -6    1    1    2    0  503  0.45128801263E+02  0.23673776939E+02 -0.16227630419E+04  0.16327540986E+04  0.17300000000E+03 0. -1.
<mgrwt>
<rscale>  2 0.18034982E+03</rscale>
<asrwt>0</asrwt>
<pdfrwt beam="1">  1       21 0.15697956E-01 0.18034982E+03</pdfrwt>
<pdfrwt beam="2">  1       21 0.26331581E+00 0.18034982E+03</pdfrwt>
<totfact> 0.20371320E+03</totfact>
</mgrwt>
</event>
<event>
 4    1  0.3957190E+000  0.1985842E+03  0.7546771E-02  0.1150939E+00
         21   -1    0    0  501  502  0.00000000000E+00  0.00000000000E+00  0.87057719416E+02  0.87057719416E+02  0.00000000000E+00 0. -1.
         21   -1    0    0  502  503 -0.00000000000E+00 -0.00000000000E+00 -0.54793049792E+03  0.54793049792E+03  0.00000000000E+00 0. -1.
          6    1    1    2  501    0  0.55777328404E+02  0.79972238935E+02 -0.98271945650E+02  0.22156950301E+03  0.17300000000E+03 0. -1.
         -6    1    1    2    0  503 -0.55777328404E+02 -0.79972238935E+02 -0.36260083285E+03  0.41341871432E+03  0.17300000000E+03 0. -1.
<mgrwt>
<rscale>  2 0.19858416E+03</rscale>
<asrwt>0</asrwt>
<pdfrwt beam="1">  1       21 0.13393495E-01 0.19858416E+03</pdfrwt>
<pdfrwt beam="2">  1       21 0.84297000E-01 0.19858416E+03</pdfrwt>
<totfact> 0.58658666E+04</totfact>
</mgrwt>
</event>
<event>
 4    1  0.3957190E+000  0.1861896E+03  0.7546771E-02  0.1161944E+00
         21   -1    0    0  503  502  0.00000000000E+00  0.00000000000E+00  0.21907190899E+04  0.21907190899E+04  0.00000000000E+00 0.  1.
         21   -1    0    0  501  503 -0.00000000000E+00 -0.00000000000E+00 -0.16102588383E+02  0.16102588383E+02  0.00000000000E+00 0.  1.
          6    1    1    2  501    0  0.33329105344E+02 -0.60222456492E+02  0.94224915153E+03  0.96046865493E+03  0.17300000000E+03 0.  1.
         -6    1    1    2    0  502 -0.33329105344E+02  0.60222456492E+02  0.12323673500E+04  0.12463530233E+04  0.17300000000E+03 0.  1.
<mgrwt>
<rscale>  2 0.18618962E+03</rscale>
<asrwt>0</asrwt>
<pdfrwt beam="1">  1       21 0.33703347E+00 0.18618962E+03</pdfrwt>
<pdfrwt beam="2">  1       21 0.24773230E-02 0.18618962E+03</pdfrwt>
<totfact> 0.18207285E+04</totfact>
</mgrwt>
</event>
<event>
 4    1  0.3957190E+000  0.2043835E+03  0.7546771E-02  0.1146092E+00
         21   -1    0    0  503  502  0.00000000000E+00  0.00000000000E+00  0.10019043368E+03  0.10019043368E+03  0.00000000000E+00 0. -1.
         21   -1    0    0  501  503 -0.00000000000E+00 -0.00000000000E+00 -0.49643231100E+03  0.49643231100E+03  0.00000000000E+00 0.  1.
          6    1    1    2  501    0 -0.67026734186E+02 -0.85738266622E+02 -0.31749864602E+03  0.37759505251E+03  0.17300000000E+03 0.  1.
         -6    1    1    2    0  502  0.67026734186E+02  0.85738266622E+02 -0.78743231312E+02  0.21902769217E+03  0.17300000000E+03 0.  1.
<mgrwt>
<rscale>  2 0.20438354E+03</rscale>
<asrwt>0</asrwt>
<pdfrwt beam="1">  1       21 0.15413913E-01 0.20438354E+03</pdfrwt>
<pdfrwt beam="2">  1       21 0.76374201E-01 0.20438354E+03</pdfrwt>
<totfact> 0.56667245E+04</totfact>
</mgrwt>
</event>
<event>
 4    1  0.3957190E+000  0.3344231E+03  0.7546771E-02  0.1069196E+00
         21   -1    0    0  503  502  0.00000000000E+00  0.00000000000E+00  0.23834649641E+03  0.23834649641E+03  0.00000000000E+00 0. -1.
         21   -1    0    0  501  503 -0.00000000000E+00 -0.00000000000E+00 -0.46925705024E+03  0.46925705024E+03  0.00000000000E+00 0.  1.
          6    1    1    2  501    0  0.14000904124E+03 -0.24961424816E+03 -0.11266243973E+03  0.35289039352E+03  0.17300000000E+03 0.  1.
         -6    1    1    2    0  502 -0.14000904124E+03  0.24961424816E+03 -0.11824811410E+03  0.35471315313E+03  0.17300000000E+03 0. -1.
<mgrwt>
<rscale>  2 0.33442309E+03</rscale>
<asrwt>0</asrwt>
<pdfrwt beam="1">  1       21 0.36668692E-01 0.33442309E+03</pdfrwt>
<pdfrwt beam="2">  1       21 0.72193391E-01 0.33442309E+03</pdfrwt>
<totfact> 0.11536181E+04</totfact>
</mgrwt>
</event>
<event>
 4    1  0.3957190E+000  0.1769031E+03  0.7546771E-02  0.1170834E+00
         21   -1    0    0  503  502  0.00000000000E+00  0.00000000000E+00  0.19590075436E+03  0.19590075436E+03  0.00000000000E+00 0. -1.
         21   -1    0    0  501  503 -0.00000000000E+00 -0.00000000000E+00 -0.36337573106E+03  0.36337573106E+03  0.00000000000E+00 0. -1.
          6    1    1    2  501    0 -0.35408259270E+02 -0.10581468863E+02 -0.29307029265E+03  0.34232281364E+03  0.17300000000E+03 0. -1.
         -6    1    1    2    0  502  0.35408259270E+02  0.10581468863E+02  0.12559531594E+03  0.21695367177E+03  0.17300000000E+03 0. -1.
<mgrwt>
<rscale>  2 0.17690312E+03</rscale>
<asrwt>0</asrwt>
<pdfrwt beam="1">  1       21 0.30138578E-01 0.17690312E+03</pdfrwt>
<pdfrwt beam="2">  1       21 0.55903958E-01 0.17690312E+03</pdfrwt>
<totfact> 0.32092971E+04</totfact>
</mgrwt>
</event>
<event>
 4    1  0.3957190E+000  0.1981699E+03  0.7546771E-02  0.1151292E+00
         21   -1    0    0  503  502  0.00000000000E+00  0.00000000000E+00  0.32939378242E+03  0.32939378242E+03  0.00000000000E+00 0. -1.
         21   -1    0    0  501  503 -0.00000000000E+00 -0.00000000000E+00 -0.40984766149E+03  0.40984766149E+03  0.00000000000E+00 0.  1.
          6    1    1    2  501    0 -0.95194148870E+02  0.16744406803E+02 -0.35147836115E+03  0.40349515424E+03  0.17300000000E+03 0.  1.
         -6    1    1    2    0  502  0.95194148870E+02 -0.16744406803E+02  0.27102448208E+03  0.33574628967E+03  0.17300000000E+03 0. -1.
<mgrwt>
<rscale>  2 0.19816988E+03</rscale>
<asrwt>0</asrwt>
<pdfrwt beam="1">  1       21 0.50675966E-01 0.19816988E+03</pdfrwt>
<pdfrwt beam="2">  1       21 0.63053487E-01 0.19816988E+03</pdfrwt>
<totfact> 0.85924973E+03</totfact>
</mgrwt>
</event>
<event>
 4    1  0.3957190E+000  0.2399313E+03  0.7546771E-02  0.1119839E+00
         21   -1    0    0  503  502  0.00000000000E+00  0.00000000000E+00  0.15895176997E+03  0.15895176997E+03  0.00000000000E+00 0.  1.
         21   -1    0    0  501  503 -0.00000000000E+00 -0.00000000000E+00 -0.40229189280E+03  0.40229189280E+03  0.00000000000E+00 0. -1.
          6    1    1    2  501    0  0.16603591854E+03  0.83719823078E+01 -0.33044271770E+02  0.24219607807E+03  0.17300000000E+03 0.  1.
         -6    1    1    2    0  502 -0.16603591854E+03 -0.83719823078E+01 -0.21029585106E+03  0.31904758471E+03  0.17300000000E+03 0. -1.
<mgrwt>
<rscale>  2 0.23993127E+03</rscale>
<asrwt>0</asrwt>
<pdfrwt beam="1">  1       21 0.24454118E-01 0.23993127E+03</pdfrwt>
<pdfrwt beam="2">  1       21 0.61891061E-01 0.23993127E+03</pdfrwt>
<totfact> 0.37414446E+04</totfact>
</mgrwt>
</event>
<event>
 4    1  0.3957190E+000  0.2204614E+03  0.7546771E-02  0.1133540E+00
         21   -1    0    0  501  502  0.00000000000E+00  0.00000000000E+00  0.11594359845E+04  0.11594359845E+04  0.00000000000E+00 0. -1.
         21   -1    0    0  502  503 -0.00000000000E+00 -0.00000000000E+00 -0.42316185384E+02  0.42316185384E+02  0.00000000000E+00 0.  1.
          6    1    1    2  501    0  0.12746120284E+03  0.49273489909E+02  0.61672102300E+03  0.65494126091E+03  0.17300000000E+03 0.  1.
         -6    1    1    2    0  503 -0.12746120284E+03 -0.49273489909E+02  0.50039877616E+03  0.54681090901E+03  0.17300000000E+03 0.  1.
<mgrwt>
<rscale>  2 0.22046141E+03</rscale>
<asrwt>0</asrwt>
<pdfrwt beam="1">  1       21 0.17837474E+00 0.22046141E+03</pdfrwt>
<pdfrwt beam="2">  1       21 0.65101832E-02 0.22046141E+03</pdfrwt>
<totfact> 0.31427910E+04</totfact>
</mgrwt>
</event>
<event>
 4    1  0.3957190E+000  0.1810881E+03  0.7546771E-02  0.1166754E+00
         21   -1    0    0  503  502  0.00000000000E+00  0.00000000000E+00  0.10352708797E+04  0.10352708797E+04  0.00000000000E+00 0.  1.
         21   -1    0    0  501  503 -0.00000000000E+00 -0.00000000000E+00 -0.80675188109E+02  0.80675188109E+02  0.00000000000E+00 0.  1.
          6    1    1    2  501    0  0.52710594916E+02  0.92472221307E+01  0.42448281218E+02  0.18599670565E+03  0.17300000000E+03 0.  1.
         -6    1    1    2    0  502 -0.52710594916E+02 -0.92472221307E+01  0.91214741040E+03  0.92994936219E+03  0.17300000000E+03 0.  1.
<mgrwt>
<rscale>  2 0.18108815E+03</rscale>
<asrwt>0</asrwt>
<pdfrwt beam="1">  1       21 0.15927243E+00 0.18108815E+03</pdfrwt>
<pdfrwt beam="2">  1       21 0.12411568E-01 0.18108815E+03</pdfrwt>
<totfact> 0.14196297E+04</totfact>
</mgrwt>
</event>
<event>
 4    1  0.3957190E+000  0.1993951E+03  0.7546771E-02  0.1150250E+00
         21   -1    0    0  503  502  0.00000000000E+00  0.00000000000E+00  0.48403318425E+02  0.48403318425E+02  0.00000000000E+00 0. -1.
         21   -1    0    0  501  503 -0.00000000000E+00 -0.00000000000E+00 -0.82178926217E+03  0.82178926217E+03  0.00000000000E+00 0. -1.
          6    1    1    2  501    0 -0.98898526437E+02  0.69633559186E+01 -0.37720368388E+03  0.42666266065E+03  0.17300000000E+03 0. -1.
         -6    1    1    2    0  502  0.98898526437E+02 -0.69633559186E+01 -0.39618225986E+03  0.44352991994E+03  0.17300000000E+03 0. -1.
<mgrwt>
<rscale>  2 0.19939510E+03</rscale>
<asrwt>0</asrwt>
<pdfrwt beam="1">  1       21 0.74466652E-02 0.19939510E+03</pdfrwt>
<pdfrwt beam="2">  1       21 0.12642910E+00 0.19939510E+03</pdfrwt>
<totfact> 0.62795522E+04</totfact>
</mgrwt>
</event>
<event>
 4    1  0.3957190E+000  0.2186073E+03  0.7546771E-02  0.1134926E+00
         21   -1    0    0  501  502  0.00000000000E+00  0.00000000000E+00  0.33259429710E+02  0.33259429710E+02  0.00000000000E+00 0.  1.
         21   -1    0    0  502  503 -0.00000000000E+00 -0.00000000000E+00 -0.17023603095E+04  0.17023603095E+04  0.00000000000E+00 0.  1.
          6    1    1    2  501    0 -0.22773047065E+02  0.13168735565E+03 -0.49183735131E+03  0.53823150359E+03  0.17300000000E+03 0.  1.
         -6    1    1    2    0  503  0.22773047065E+02 -0.13168735565E+03 -0.11772635284E+04  0.11973882356E+04  0.17300000000E+03 0.  1.
<mgrwt>
<rscale>  2 0.21860735E+03</rscale>
<asrwt>0</asrwt>
<pdfrwt beam="1">  1       21 0.51168342E-02 0.21860735E+03</pdfrwt>
<pdfrwt beam="2">  1       21 0.26190165E+00 0.21860735E+03</pdfrwt>
<totfact> 0.14313083E+04</totfact>
</mgrwt>
</event>
<event>
 4    1  0.3957190E+000  0.2456117E+03  0.7546771E-02  0.1116110E+00
         21   -1    0    0  501  502  0.00000000000E+00  0.00000000000E+00  0.12286196915E+04  0.12286196915E+04  0.00000000000E+00 0. -1.
         21   -1    0    0  502  503 -0.00000000000E+00 -0.00000000000E+00 -0.62950410377E+02  0.62950410377E+02  0.00000000000E+00 0.  1.
          6    1    1    2  501    0 -0.16544832805E+03 -0.54981346603E+02  0.88575026374E+03  0.91917279521E+03  0.17300000000E+03 0. -1.
         -6    1    1    2    0  503  0.16544832805E+03  0.54981346603E+02  0.27991901742E+03  0.37239730671E+03  0.17300000000E+03 0.  1.
<mgrwt>
<rscale>  2 0.24561168E+03</rscale>
<asrwt>0</asrwt>
<pdfrwt beam="1">  1       21 0.18901840E+00 0.24561168E+03</pdfrwt>
<pdfrwt beam="2">  1       21 0.96846794E-02 0.24561168E+03</pdfrwt>
<totfact> 0.13086436E+04</totfact>
</mgrwt>
</event>
<event>
 4    1  0.3957190E+000  0.3376479E+03  0.7546771E-02  0.1067802E+00
         21   -1    0    0  503  502  0.00000000000E+00  0.00000000000E+00  0.31522692811E+03  0.31522692811E+03  0.00000000000E+00 0. -1.
         21   -1    0    0  501  503 -0.00000000000E+00 -0.00000000000E+00 -0.43691629667E+03  0.43691629667E+03  0.00000000000E+00 0. -1.
          6    1    1    2  501    0  0.18838138334E+03 -0.22043039526E+03 -0.21691937108E+03  0.40132296008E+03  0.17300000000E+03 0. -1.
         -6    1    1    2    0  502 -0.18838138334E+03  0.22043039526E+03  0.95230002525E+02  0.35082026470E+03  0.17300000000E+03 0. -1.
<mgrwt>
<rscale>  2 0.33764790E+03</rscale>
<asrwt>0</asrwt>
<pdfrwt beam="1">  1       21 0.48496451E-01 0.33764790E+03</pdfrwt>
<pdfrwt beam="2">  1       21 0.67217891E-01 0.33764790E+03</pdfrwt>
<totfact> 0.75921632E+03</totfact>
</mgrwt>
</event>
<event>
 4    1  0.3957190E+000  0.2123080E+03  0.7546771E-02  0.1139751E+00
         21   -1    0    0  503  502  0.00000000000E+00  0.00000000000E+00  0.19012627292E+04  0.19012627292E+04  0.00000000000E+00 0.  1.
         21   -1    0    0  501  503 -0.00000000000E+00 -0.00000000000E+00 -0.26786989411E+02  0.26786989411E+02  0.00000000000E+00 0. -1.
          6    1    1    2  501    0 -0.28075284467E+02 -0.11982271074E+03  0.12640863318E+04  0.12817913082E+04  0.17300000000E+03 0.  1.
         -6    1    1    2    0  502  0.28075284467E+02  0.11982271074E+03  0.61038940804E+03  0.64625841043E+03  0.17300000000E+03 0.  1.
<mgrwt>
<rscale>  2 0.21230804E+03</rscale>
<asrwt>0</asrwt>
<pdfrwt beam="1">  1       21 0.29250185E+00 0.21230804E+03</pdfrwt>
<pdfrwt beam="2">  1       21 0.41210768E-02 0.21230804E+03</pdfrwt>
<totfact> 0.13783263E+04</totfact>
</mgrwt>
</event>
<event>
 4    1  0.3957190E+000  0.2210273E+03  0.7546771E-02  0.1133119E+00
         21   -1    0    0  503  502  0.00000000000E+00  0.00000000000E+00  0.86513155739E+02  0.86513155739E+02  0.00000000000E+00 0.  1.
         21   -1    0    0  501  503 -0.00000000000E+00 -0.00000000000E+00 -0.76606674858E+03  0.76606674858E+03  0.00000000000E+00 0.  1.
          6    1    1    2  501    0  0.13740930524E+03 -0.65376167613E+01 -0.55834005369E+03  0.60049702177E+03  0.17300000000E+03 0.  1.
         -6    1    1    2    0  502 -0.13740930524E+03  0.65376167613E+01 -0.12121353915E+03  0.25208288255E+03  0.17300000000E+03 0.  1.
<mgrwt>
<rscale>  2 0.22102728E+03</rscale>
<asrwt>0</asrwt>
<pdfrwt beam="1">  1       21 0.13309717E-01 0.22102728E+03</pdfrwt>
<pdfrwt beam="2">  1       21 0.11785642E+00 0.22102728E+03</pdfrwt>
<totfact> 0.26458110E+04</totfact>
</mgrwt>
</event>
<event>
 4    1  0.3957190E+000  0.2009123E+03  0.7546771E-02  0.1148972E+00
         21   -1    0    0  503  502  0.00000000000E+00  0.00000000000E+00  0.72125419596E+02  0.72125419596E+02  0.00000000000E+00 0. -1.
         21   -1    0    0  501  503 -0.00000000000E+00 -0.00000000000E+00 -0.70778419955E+03  0.70778419955E+03  0.00000000000E+00 0. -1.
          6    1    1    2  501    0 -0.36414072276E+02  0.95450435208E+02 -0.13943726421E+03  0.24455780685E+03  0.17300000000E+03 0. -1.
         -6    1    1    2    0  502  0.36414072276E+02 -0.95450435208E+02 -0.49622151575E+03  0.53535181230E+03  0.17300000000E+03 0. -1.
<mgrwt>
<rscale>  2 0.20091234E+03</rscale>
<asrwt>0</asrwt>
<pdfrwt beam="1">  1       21 0.11096218E-01 0.20091234E+03</pdfrwt>
<pdfrwt beam="2">  1       21 0.10888988E+00 0.20091234E+03</pdfrwt>
<totfact> 0.44966881E+04</totfact>
</mgrwt>
</event>
<event>
 4    1  0.3957190E+000  0.2215401E+03  0.7546771E-02  0.1132740E+00
         21   -1    0    0  501  502  0.00000000000E+00  0.00000000000E+00  0.16686538295E+03  0.16686538295E+03  0.00000000000E+00 0.  1.
         21   -1    0    0  502  503 -0.00000000000E+00 -0.00000000000E+00 -0.15166852825E+04  0.15166852825E+04  0.00000000000E+00 0.  1.
          6    1    1    2  501    0  0.39179311984E+02 -0.13272534650E+03  0.80848125271E+02  0.23583141320E+03  0.17300000000E+03 0.  1.
         -6    1    1    2    0  503 -0.39179311984E+02  0.13272534650E+03 -0.14306680249E+04  0.14477192523E+04  0.17300000000E+03 0.  1.
<mgrwt>
<rscale>  2 0.22154015E+03</rscale>
<asrwt>0</asrwt>
<pdfrwt beam="1">  1       21 0.25671597E-01 0.22154015E+03</pdfrwt>
<pdfrwt beam="2">  1       21 0.23333620E+00 0.22154015E+03</pdfrwt>
<totfact> 0.11641809E+03</totfact>
</mgrwt>
</event>
<event>
 4    1  0.3957190E+000  0.2084842E+03  0.7546771E-02  0.1142772E+00
         21   -1    0    0  503  502  0.00000000000E+00  0.00000000000E+00  0.46477469538E+02  0.46477469538E+02  0.00000000000E+00 0.  1.
         21   -1    0    0  501  503 -0.00000000000E+00 -0.00000000000E+00 -0.10107091543E+04  0.10107091543E+04  0.00000000000E+00 0.  1.
          6    1    1    2  501    0  0.72306711359E+02  0.91150322985E+02 -0.62659785711E+03  0.66037149880E+03  0.17300000000E+03 0.  1.
         -6    1    1    2    0  502 -0.72306711359E+02 -0.91150322985E+02 -0.33763382766E+03  0.39681512505E+03  0.17300000000E+03 0.  1.
<mgrwt>
<rscale>  2 0.20848415E+03</rscale>
<asrwt>0</asrwt>
<pdfrwt beam="1">  1       21 0.71503806E-02 0.20848415E+03</pdfrwt>
<pdfrwt beam="2">  1       21 0.15549370E+00 0.20848415E+03</pdfrwt>
<totfact> 0.39251527E+04</totfact>
</mgrwt>
</event>
<event>
 4    1  0.3957190E+000  0.1866668E+03  0.7546771E-02  0.1161502E+00
         21   -1    0    0  501  502  0.00000000000E+00  0.00000000000E+00  0.12628949982E+04  0.12628949982E+04  0.00000000000E+00 0.  1.
         21   -1    0    0  502  503 -0.00000000000E+00 -0.00000000000E+00 -0.64037044268E+02  0.64037044268E+02  0.00000000000E+00 0.  1.
          6    1    1    2  501    0 -0.28561849720E+02 -0.64029103345E+02  0.10999569916E+04  0.11156835971E+04  0.17300000000E+03 0.  1.
         -6    1    1    2    0  503  0.28561849720E+02  0.64029103345E+02  0.98900962284E+02  0.21124844538E+03  0.17300000000E+03 0.  1.
<mgrwt>
<rscale>  2 0.18666683E+03</rscale>
<asrwt>0</asrwt>
<pdfrwt beam="1">  1       21 0.19429152E+00 0.18666683E+03</pdfrwt>
<pdfrwt beam="2">  1       21 0.98518539E-02 0.18666683E+03</pdfrwt>
<totfact> 0.12238498E+04</totfact>
</mgrwt>
</event>
<event>
 4    1  0.3957190E+000  0.2158172E+03  0.7546771E-02  0.1137040E+00
         21   -1    0    0  501  502  0.00000000000E+00  0.00000000000E+00  0.57252271348E+03  0.57252271348E+03  0.00000000000E+00 0. -1.
         21   -1    0    0  502  503 -0.00000000000E+00 -0.00000000000E+00 -0.50565550242E+03  0.50565550242E+03  0.00000000000E+00 0. -1.
          6    1    1    2  501    0  0.12115296979E+03  0.44384859077E+02  0.52725560438E+03  0.56971530623E+03  0.17300000000E+03 0. -1.
         -6    1    1    2    0  503 -0.12115296979E+03 -0.44384859077E+02 -0.46038839332E+03  0.50846290967E+03  0.17300000000E+03 0. -1.
<mgrwt>
<rscale>  2 0.21581719E+03</rscale>
<asrwt>0</asrwt>
<pdfrwt beam="1">  1       21 0.88080417E-01 0.21581719E+03</pdfrwt>
<pdfrwt beam="2">  1       21 0.77793154E-01 0.21581719E+03</pdfrwt>
<totfact> 0.15838444E+03</totfact>
</mgrwt>
</event>
<event>
 4    1  0.3957190E+000  0.1949638E+03  0.7546771E-02  0.1154059E+00
         21   -1    0    0  503  502  0.00000000000E+00  0.00000000000E+00  0.19879985678E+03  0.19879985678E+03  0.00000000000E+00 0. -1.
         21   -1    0    0  501  503 -0.00000000000E+00 -0.00000000000E+00 -0.20527745350E+03  0.20527745350E+03  0.00000000000E+00 0. -1.
          6    1    1    2  501    0 -0.86645729064E+02  0.23966718794E+02 -0.56144012255E+02  0.20288675681E+03  0.17300000000E+03 0. -1.
         -6    1    1    2    0  502  0.86645729064E+02 -0.23966718794E+02  0.49666415529E+02  0.20119055347E+03  0.17300000000E+03 0. -1.
<mgrwt>
<rscale>  2 0.19496381E+03</rscale>
<asrwt>0</asrwt>
<pdfrwt beam="1">  1       21 0.30584593E-01 0.19496381E+03</pdfrwt>
<pdfrwt beam="2">  1       21 0.31581147E-01 0.19496381E+03</pdfrwt>
<totfact> 0.98824427E+04</totfact>
</mgrwt>
</event>
<event>
 4    1  0.3957190E+000  0.2147210E+03  0.7546771E-02  0.1137881E+00
         21   -1    0    0  501  502  0.00000000000E+00  0.00000000000E+00  0.55077386250E+02  0.55077386250E+02  0.00000000000E+00 0.  1.
         21   -1    0    0  502  503 -0.00000000000E+00 -0.00000000000E+00 -0.83721406026E+03  0.83721406026E+03  0.00000000000E+00 0.  1.
          6    1    1    2  501    0 -0.96975926578E+02  0.82290787450E+02 -0.38578844056E+03  0.44151763827E+03  0.17300000000E+03 0.  1.
         -6    1    1    2    0  503  0.96975926578E+02 -0.82290787450E+02 -0.39634823345E+03  0.45077380824E+03  0.17300000000E+03 0.  1.
<mgrwt>
<rscale>  2 0.21472099E+03</rscale>
<asrwt>0</asrwt>
<pdfrwt beam="1">  1       21 0.84734442E-02 0.21472099E+03</pdfrwt>
<pdfrwt beam="2">  1       21 0.12880216E+00 0.21472099E+03</pdfrwt>
<totfact> 0.47465067E+04</totfact>
</mgrwt>
</event>
<event>
 4    1  0.3957190E+000  0.1800511E+03  0.7546771E-02  0.1167754E+00
         21   -1    0    0  503  502  0.00000000000E+00  0.00000000000E+00  0.33816019517E+03  0.33816019517E+03  0.00000000000E+00 0.  1.
         21   -1    0    0  501  503 -0.00000000000E+00 -0.00000000000E+00 -0.11237597414E+03  0.11237597414E+03  0.00000000000E+00 0.  1.
          6    1    1    2  501    0  0.33937008747E+02 -0.36574329532E+02  0.26549927379E+02  0.18199807908E+03  0.17300000000E+03 0.  1.
         -6    1    1    2    0  502 -0.33937008747E+02  0.36574329532E+02  0.19923429365E+03  0.26853809024E+03  0.17300000000E+03 0.  1.
<mgrwt>
<rscale>  2 0.18005111E+03</rscale>
<asrwt>0</asrwt>
<pdfrwt beam="1">  1       21 0.52024645E-01 0.18005111E+03</pdfrwt>
<pdfrwt beam="2">  1       21 0.17288612E-01 0.18005111E+03</pdfrwt>
<totfact> 0.10656248E+05</totfact>
</mgrwt>
</event>
<event>
 4    1  0.3957190E+000  0.1839043E+03  0.7546771E-02  0.1164077E+00
         21   -1    0    0  503  502  0.00000000000E+00  0.00000000000E+00  0.86734335549E+03  0.86734335549E+03  0.00000000000E+00 0. -1.
         21   -1    0    0  501  503 -0.00000000000E+00 -0.00000000000E+00 -0.63767980322E+03  0.63767980322E+03  0.00000000000E+00 0. -1.
          6    1    1    2  501    0 -0.27840792210E+02  0.55827396841E+02 -0.61430918152E+03  0.64124611379E+03  0.17300000000E+03 0. -1.
         -6    1    1    2    0  502  0.27840792210E+02 -0.55827396841E+02  0.84397273379E+03  0.86377704492E+03  0.17300000000E+03 0. -1.
<mgrwt>
<rscale>  2 0.18390434E+03</rscale>
<asrwt>0</asrwt>
<pdfrwt beam="1">  1       21 0.13343744E+00 0.18390434E+03</pdfrwt>
<pdfrwt beam="2">  1       21 0.98104586E-01 0.18390434E+03</pdfrwt>
<totfact> 0.35125404E+02</totfact>
</mgrwt>
</event>
<event>
 4    1  0.3957190E+000  0.1739585E+03  0.7546771E-02  0.1173781E+00
         21   -1    0    0  501  502  0.00000000000E+00  0.00000000000E+00  0.47346767328E+03  0.47346767328E+03  0.00000000000E+00 0. -1.
         21   -1    0    0  502  503 -0.00000000000E+00 -0.00000000000E+00 -0.64086583354E+02  0.64086583354E+02  0.00000000000E+00 0. -1.
          6    1    1    2  501    0 -0.97886696393E+01 -0.15386665991E+02  0.21860812166E+03  0.27937623092E+03  0.17300000000E+03 0. -1.
         -6    1    1    2    0  503  0.97886696393E+01  0.15386665991E+02  0.19077296826E+03  0.25817802572E+03  0.17300000000E+03 0. -1.
<mgrwt>
<rscale>  2 0.17395852E+03</rscale>
<asrwt>0</asrwt>
<pdfrwt beam="1">  1       21 0.72841178E-01 0.17395852E+03</pdfrwt>
<pdfrwt beam="2">  1       21 0.98594747E-02 0.17395852E+03</pdfrwt>
<totfact> 0.14209026E+05</totfact>
</mgrwt>
</event>
<event>
 4    1  0.3957190E+000  0.2211330E+03  0.7546771E-02  0.1133041E+00
         21   -1    0    0  501  502  0.00000000000E+00  0.00000000000E+00  0.79397144921E+02  0.79397144921E+02  0.00000000000E+00 0.  1.
         21   -1    0    0  502  503 -0.00000000000E+00 -0.00000000000E+00 -0.61773297308E+03  0.61773297308E+03  0.00000000000E+00 0. -1.
          6    1    1    2  501    0 -0.43034597776E+02 -0.13083891837E+03 -0.25012191373E+03  0.33385741102E+03  0.17300000000E+03 0.  1.
         -6    1    1    2    0  503  0.43034597776E+02  0.13083891837E+03 -0.28821391443E+03  0.36327270698E+03  0.17300000000E+03 0. -1.
<mgrwt>
<rscale>  2 0.22113299E+03</rscale>
<asrwt>0</asrwt>
<pdfrwt beam="1">  1       21 0.12214945E-01 0.22113299E+03</pdfrwt>
<pdfrwt beam="2">  1       21 0.95035843E-01 0.22113299E+03</pdfrwt>
<totfact> 0.51884371E+04</totfact>
</mgrwt>
</event>
<event>
 4    1  0.3957190E+000  0.2301951E+03  0.7546771E-02  0.1126503E+00
         21   -1    0    0  503  502  0.00000000000E+00  0.00000000000E+00  0.12270365564E+03  0.12270365564E+03  0.00000000000E+00 0. -1.
         21   -1    0    0  501  503 -0.00000000000E+00 -0.00000000000E+00 -0.87936204959E+03  0.87936204959E+03  0.00000000000E+00 0.  1.
          6    1    1    2  501    0 -0.14826769926E+03  0.32824541862E+02 -0.73575340964E+03  0.77092336907E+03  0.17300000000E+03 0.  1.
         -6    1    1    2    0  502  0.14826769926E+03 -0.32824541862E+02 -0.20904984312E+02  0.23114233615E+03  0.17300000000E+03 0. -1.
<mgrwt>
<rscale>  2 0.23019505E+03</rscale>
<asrwt>0</asrwt>
<pdfrwt beam="1">  1       21 0.18877486E-01 0.23019505E+03</pdfrwt>
<pdfrwt beam="2">  1       21 0.13528647E+00 0.23019505E+03</pdfrwt>
<totfact> 0.97828742E+03</totfact>
</mgrwt>
</event>
<event>
 4    1  0.3957190E+000  0.2657668E+03  0.7546771E-02  0.1103727E+00
         21   -1    0    0  501  502  0.00000000000E+00  0.00000000000E+00  0.10123910431E+03  0.10123910431E+03  0.00000000000E+00 0. -1.
         21   -1    0    0  502  503 -0.00000000000E+00 -0.00000000000E+00 -0.79079277484E+03  0.79079277484E+03  0.00000000000E+00 0.  1.
          6    1    1    2  501    0  0.17607230536E+03  0.98496244413E+02 -0.19172592779E+03  0.32770535282E+03  0.17300000000E+03 0. -1.
         -6    1    1    2    0  503 -0.17607230536E+03 -0.98496244413E+02 -0.49782774274E+03  0.56432652633E+03  0.17300000000E+03 0.  1.
<mgrwt>
<rscale>  2 0.26576675E+03</rscale>
<asrwt>0</asrwt>
<pdfrwt beam="1">  1       21 0.15575247E-01 0.26576675E+03</pdfrwt>
<pdfrwt beam="2">  1       21 0.12166042E+00 0.26576675E+03</pdfrwt>
<totfact> 0.17926414E+04</totfact>
</mgrwt>
</event>
<event>
 4    1  0.3957190E+000  0.1733374E+03  0.7546771E-02  0.1174411E+00
         21   -1    0    0  501  502  0.00000000000E+00  0.00000000000E+00  0.94782192989E+02  0.94782192989E+02  0.00000000000E+00 0.  1.
         21   -1    0    0  502  503 -0.00000000000E+00 -0.00000000000E+00 -0.31945572455E+03  0.31945572455E+03  0.00000000000E+00 0.  1.
          6    1    1    2  501    0  0.96857790958E+01  0.48001015362E+01 -0.13050018091E+03  0.21697039546E+03  0.17300000000E+03 0.  1.
         -6    1    1    2    0  503 -0.96857790958E+01 -0.48001015362E+01 -0.94173350653E+02  0.19726752207E+03  0.17300000000E+03 0.  1.
<mgrwt>
<rscale>  2 0.17333740E+03</rscale>
<asrwt>0</asrwt>
<pdfrwt beam="1">  1       21 0.14581876E-01 0.17333740E+03</pdfrwt>
<pdfrwt beam="2">  1       21 0.49147034E-01 0.17333740E+03</pdfrwt>
<totfact> 0.16410810E+05</totfact>
</mgrwt>
</event>
<event>
 4    1  0.3957190E+000  0.2165615E+03  0.7546771E-02  0.1136473E+00
         21   -1    0    0  501  502  0.00000000000E+00  0.00000000000E+00  0.71671632285E+03  0.71671632285E+03  0.00000000000E+00 0.  1.
         21   -1    0    0  502  503 -0.00000000000E+00 -0.00000000000E+00 -0.72488345225E+02  0.72488345225E+02  0.00000000000E+00 0. -1.
          6    1    1    2  501    0 -0.70143774546E+02  0.10977137464E+03  0.19903084243E+03  0.29412952935E+03  0.17300000000E+03 0. -1.
         -6    1    1    2    0  503  0.70143774546E+02 -0.10977137464E+03  0.44519713520E+03  0.49507513873E+03  0.17300000000E+03 0.  1.
<mgrwt>
<rscale>  2 0.21656155E+03</rscale>
<asrwt>0</asrwt>
<pdfrwt beam="1">  1       21 0.11026404E+00 0.21656155E+03</pdfrwt>
<pdfrwt beam="2">  1       21 0.11152054E-01 0.21656155E+03</pdfrwt>
<totfact> 0.42882100E+04</totfact>
</mgrwt>
</event>
<event>
 4    1  0.3957190E+000  0.2323545E+03  0.7546771E-02  0.1124993E+00
         21   -1    0    0  501  502  0.00000000000E+00  0.00000000000E+00  0.80091717820E+03  0.80091717820E+03  0.00000000000E+00 0.  1.
         21   -1    0    0  502  503 -0.00000000000E+00 -0.00000000000E+00 -0.13897409961E+03  0.13897409961E+03  0.00000000000E+00 0. -1.
          6    1    1    2  501    0 -0.11790479798E+03  0.10078719095E+03  0.66820677584E+03  0.70745239735E+03  0.17300000000E+03 0.  1.
         -6    1    1    2    0  503  0.11790479798E+03 -0.10078719095E+03 -0.62636972448E+01  0.23243888046E+03  0.17300000000E+03 0. -1.
<mgrwt>
<rscale>  2 0.23235447E+03</rscale>
<asrwt>0</asrwt>
<pdfrwt beam="1">  1       21 0.12321803E+00 0.23235447E+03</pdfrwt>
<pdfrwt beam="2">  1       21 0.21380631E-01 0.23235447E+03</pdfrwt>
<totfact> 0.98010649E+03</totfact>
</mgrwt>
</event>
<event>
 4    1  0.3957190E+000  0.1825218E+03  0.7546771E-02  0.1165385E+00
         21   -1    0    0  501  502  0.00000000000E+00  0.00000000000E+00  0.60851460824E+03  0.60851460824E+03  0.00000000000E+00 0. -1.
         21   -1    0    0  502  503 -0.00000000000E+00 -0.00000000000E+00 -0.67188343927E+02  0.67188343927E+02  0.00000000000E+00 0. -1.
          6    1    1    2  501    0 -0.58138146474E+02 -0.22699438695E+01  0.12527904451E+03  0.22137984487E+03  0.17300000000E+03 0. -1.
         -6    1    1    2    0  503  0.58138146474E+02  0.22699438695E+01  0.41604721980E+03  0.45432310730E+03  0.17300000000E+03 0. -1.
<mgrwt>
<rscale>  2 0.18252177E+03</rscale>
<asrwt>0</asrwt>
<pdfrwt beam="1">  1       21 0.93617629E-01 0.18252177E+03</pdfrwt>
<pdfrwt beam="2">  1       21 0.10336669E-01 0.18252177E+03</pdfrwt>
<totfact> 0.73693517E+04</totfact>
</mgrwt>
</event>
<event>
 4    1  0.3957190E+000  0.1804888E+03  0.7546771E-02  0.1167331E+00
         21   -1    0    0  503  502  0.00000000000E+00  0.00000000000E+00  0.31986925980E+02  0.31986925980E+02  0.00000000000E+00 0. -1.
         21   -1    0    0  501  503 -0.00000000000E+00 -0.00000000000E+00 -0.10599331891E+04  0.10599331891E+04  0.00000000000E+00 0. -1.
          6    1    1    2  501    0 -0.10603249563E+02  0.50346531862E+02 -0.62201748621E+03  0.64767426637E+03  0.17300000000E+03 0. -1.
         -6    1    1    2    0  502  0.10603249563E+02 -0.50346531862E+02 -0.40592877695E+03  0.44424584875E+03  0.17300000000E+03 0. -1.
<mgrwt>
<rscale>  2 0.18048879E+03</rscale>
<asrwt>0</asrwt>
<pdfrwt beam="1">  1       21 0.49210658E-02 0.18048879E+03</pdfrwt>
<pdfrwt beam="2">  1       21 0.16306663E+00 0.18048879E+03</pdfrwt>
<totfact> 0.66514485E+04</totfact>
</mgrwt>
</event>
<event>
 4    1  0.3957190E+000  0.2487361E+03  0.7546771E-02  0.1114106E+00
         21   -1    0    0  501  502  0.00000000000E+00  0.00000000000E+00  0.19185236582E+03  0.19185236582E+03  0.00000000000E+00 0.  1.
         21   -1    0    0  502  503 -0.00000000000E+00 -0.00000000000E+00 -0.35904352546E+03  0.35904352546E+03  0.00000000000E+00 0.  1.
          6    1    1    2  501    0  0.23260569923E+02  0.17719937034E+03 -0.17148879383E+03  0.30212261976E+03  0.17300000000E+03 0.  1.
         -6    1    1    2    0  503 -0.23260569923E+02 -0.17719937034E+03  0.42976341988E+01  0.24877327152E+03  0.17300000000E+03 0.  1.
<mgrwt>
<rscale>  2 0.24873615E+03</rscale>
<asrwt>0</asrwt>
<pdfrwt beam="1">  1       21 0.29515748E-01 0.24873615E+03</pdfrwt>
<pdfrwt beam="2">  1       21 0.55237466E-01 0.24873615E+03</pdfrwt>
<totfact> 0.33072205E+04</totfact>
</mgrwt>
</event>
<event>
 4    1  0.3957190E+000  0.1965585E+03  0.7546771E-02  0.1152676E+00
         21   -1    0    0  501  502  0.00000000000E+00  0.00000000000E+00  0.17526795749E+03  0.17526795749E+03  0.00000000000E+00 0. -1.
         21   -1    0    0  502  503 -0.00000000000E+00 -0.00000000000E+00 -0.46410075499E+03  0.46410075499E+03  0.00000000000E+00 0. -1.
          6    1    1    2  501    0 -0.84579241223E+02 -0.39402754042E+02  0.87222946497E+02  0.21504201326E+03  0.17300000000E+03 0. -1.
         -6    1    1    2    0  503  0.84579241223E+02  0.39402754042E+02 -0.37605574400E+03  0.42432669922E+03  0.17300000000E+03 0. -1.
<mgrwt>
<rscale>  2 0.19655845E+03</rscale>
<asrwt>0</asrwt>
<pdfrwt beam="1">  1       21 0.26964301E-01 0.19655845E+03</pdfrwt>
<pdfrwt beam="2">  1       21 0.71400116E-01 0.19655845E+03</pdfrwt>
<totfact> 0.23185913E+04</totfact>
</mgrwt>
</event>
<event>
 4    1  0.3957190E+000  0.1871813E+03  0.7546771E-02  0.1161028E+00
         21   -1    0    0  503  502  0.00000000000E+00  0.00000000000E+00  0.16460134000E+03  0.16460134000E+03  0.00000000000E+00 0.  1.
         21   -1    0    0  501  503 -0.00000000000E+00 -0.00000000000E+00 -0.29441092992E+03  0.29441092992E+03  0.00000000000E+00 0.  1.
          6    1    1    2  501    0  0.60535082132E+02 -0.37991425574E+02 -0.18569590562E+03  0.26366610315E+03  0.17300000000E+03 0.  1.
         -6    1    1    2    0  502 -0.60535082132E+02  0.37991425574E+02  0.55886315704E+02  0.19534616676E+03  0.17300000000E+03 0.  1.
<mgrwt>
<rscale>  2 0.18718131E+03</rscale>
<asrwt>0</asrwt>
<pdfrwt beam="1">  1       21 0.25323283E-01 0.18718131E+03</pdfrwt>
<pdfrwt beam="2">  1       21 0.45293989E-01 0.18718131E+03</pdfrwt>
<totfact> 0.69265022E+04</totfact>
</mgrwt>
</event>
<event>
 4    1  0.3957190E+000  0.4648665E+03  0.7546771E-02  0.1023379E+00
         21   -1    0    0  501  502  0.00000000000E+00  0.00000000000E+00  0.15039719068E+03  0.15039719068E+03  0.00000000000E+00 0. -1.
         21   -1    0    0  502  503 -0.00000000000E+00 -0.00000000000E+00 -0.21690466825E+04  0.21690466825E+04  0.00000000000E+00 0.  1.
          6    1    1    2  501    0  0.42602867735E+03  0.68348101403E+02 -0.33552942674E+03  0.57330697981E+03  0.17300000000E+03 0. -1.
         -6    1    1    2    0  503 -0.42602867735E+03 -0.68348101403E+02 -0.16831200651E+04  0.17461368933E+04  0.17300000000E+03 0.  1.
<mgrwt>
<rscale>  2 0.46486654E+03</rscale>
<asrwt>0</asrwt>
<pdfrwt beam="1">  1       21 0.23138031E-01 0.46486654E+03</pdfrwt>
<pdfrwt beam="2">  1       21 0.33369947E+00 0.46486654E+03</pdfrwt>
<totfact> 0.29601692E+02</totfact>
</mgrwt>
</event>
<event>
 4    1  0.3957190E+000  0.1998387E+03  0.7546771E-02  0.1149875E+00
         21   -1    0    0  501  502  0.00000000000E+00  0.00000000000E+00  0.59585633514E+03  0.59585633514E+03  0.00000000000E+00 0. -1.
         21   -1    0    0  502  503 -0.00000000000E+00 -0.00000000000E+00 -0.91084834580E+02  0.91084834580E+02  0.00000000000E+00 0. -1.
          6    1    1    2  501    0 -0.99057330557E+02  0.13933570304E+02  0.42892434521E+03  0.47319297652E+03  0.17300000000E+03 0. -1.
         -6    1    1    2    0  503  0.99057330557E+02 -0.13933570304E+02  0.75847155346E+02  0.21374819319E+03  0.17300000000E+03 0. -1.
<mgrwt>
<rscale>  2 0.19983868E+03</rscale>
<asrwt>0</asrwt>
<pdfrwt beam="1">  1       21 0.91670203E-01 0.19983868E+03</pdfrwt>
<pdfrwt beam="2">  1       21 0.14013052E-01 0.19983868E+03</pdfrwt>
<totfact> 0.44520739E+04</totfact>
</mgrwt>
</event>
<event>
 4    1  0.3957190E+000  0.1918341E+03  0.7546771E-02  0.1156817E+00
         21   -1    0    0  503  502  0.00000000000E+00  0.00000000000E+00  0.25372335787E+03  0.25372335787E+03  0.00000000000E+00 0.  1.
         21   -1    0    0  501  503 -0.00000000000E+00 -0.00000000000E+00 -0.15924166759E+03  0.15924166759E+03  0.00000000000E+00 0.  1.
          6    1    1    2  501    0  0.42050591811E+02 -0.71435857744E+02 -0.14419594546E+02  0.19237530702E+03  0.17300000000E+03 0.  1.
         -6    1    1    2    0  502 -0.42050591811E+02  0.71435857744E+02  0.10890128483E+03  0.22058971844E+03  0.17300000000E+03 0.  1.
<mgrwt>
<rscale>  2 0.19183413E+03</rscale>
<asrwt>0</asrwt>
<pdfrwt beam="1">  1       21 0.39034363E-01 0.19183413E+03</pdfrwt>
<pdfrwt beam="2">  1       21 0.24498718E-01 0.19183413E+03</pdfrwt>
<totfact> 0.99656477E+04</totfact>
</mgrwt>
</event>
<event>
 4    1  0.3957190E+000  0.2254789E+03  0.7546771E-02  0.1129863E+00
         21   -1    0    0  501  502  0.00000000000E+00  0.00000000000E+00  0.20618832511E+03  0.20618832511E+03  0.00000000000E+00 0.  1.
         21   -1    0    0  502  503 -0.00000000000E+00 -0.00000000000E+00 -0.44955646518E+03  0.44955646518E+03  0.00000000000E+00 0. -1.
          6    1    1    2  501    0  0.11788636468E+03  0.83752796404E+02  0.98629756203E+02  0.24610679530E+03  0.17300000000E+03 0.  1.
         -6    1    1    2    0  503 -0.11788636468E+03 -0.83752796404E+02 -0.34199789628E+03  0.40963799499E+03  0.17300000000E+03 0. -1.
<mgrwt>
<rscale>  2 0.22547888E+03</rscale>
<asrwt>0</asrwt>
<pdfrwt beam="1">  1       21 0.31721281E-01 0.22547888E+03</pdfrwt>
<pdfrwt beam="2">  1       21 0.69162533E-01 0.22547888E+03</pdfrwt>
<totfact> 0.17829638E+04</totfact>
</mgrwt>
</event>
<event>
 4    1  0.3957190E+000  0.2005151E+03  0.7546771E-02  0.1149305E+00
         21   -1    0    0  503  502  0.00000000000E+00  0.00000000000E+00  0.31625202884E+03  0.31625202884E+03  0.00000000000E+00 0. -1.
         21   -1    0    0  501  503 -0.00000000000E+00 -0.00000000000E+00 -0.27540558311E+03  0.27540558311E+03  0.00000000000E+00 0. -1.
          6    1    1    2  501    0  0.60498270489E+02 -0.81346596809E+02 -0.19663857921E+03  0.28084344461E+03  0.17300000000E+03 0. -1.
         -6    1    1    2    0  502 -0.60498270489E+02  0.81346596809E+02  0.23748502494E+03  0.31081416733E+03  0.17300000000E+03 0. -1.
<mgrwt>
<rscale>  2 0.20051511E+03</rscale>
<asrwt>0</asrwt>
<pdfrwt beam="1">  1       21 0.48654158E-01 0.20051511E+03</pdfrwt>
<pdfrwt beam="2">  1       21 0.42370090E-01 0.20051511E+03</pdfrwt>
<totfact> 0.21515222E+04</totfact>
</mgrwt>
</event>
<event>
 4    1  0.3957190E+000  0.2834005E+03  0.7546771E-02  0.1093846E+00
         21   -1    0    0  501  502  0.00000000000E+00  0.00000000000E+00  0.38989990550E+03  0.38989990550E+03  0.00000000000E+00 0.  1.
         21   -1    0    0  502  503 -0.00000000000E+00 -0.00000000000E+00 -0.42738443065E+03  0.42738443065E+03  0.00000000000E+00 0.  1.
          6    1    1    2  501    0 -0.22335003926E+03  0.22396412955E+02  0.27537212973E+03  0.39515269098E+03  0.17300000000E+03 0.  1.
         -6    1    1    2    0  503  0.22335003926E+03 -0.22396412955E+02 -0.31285665488E+03  0.42213164517E+03  0.17300000000E+03 0.  1.
<mgrwt>
<rscale>  2 0.28340049E+03</rscale>
<asrwt>0</asrwt>
<pdfrwt beam="1">  1       21 0.59984601E-01 0.28340049E+03</pdfrwt>
<pdfrwt beam="2">  1       21 0.65751451E-01 0.28340049E+03</pdfrwt>
<totfact> 0.51949861E+03</totfact>
</mgrwt>
</event>
<event>
 4    1  0.3957190E+000  0.2435862E+03  0.7546771E-02  0.1117427E+00
         21   -1    0    0  501  502  0.00000000000E+00  0.00000000000E+00  0.22804645297E+03  0.22804645297E+03  0.00000000000E+00 0. -1.
         21   -1    0    0  502  503 -0.00000000000E+00 -0.00000000000E+00 -0.34423170816E+03  0.34423170816E+03  0.00000000000E+00 0. -1.
          6    1    1    2  501    0  0.25047051136E+02 -0.16964041058E+03  0.83295381486E+02  0.25743415517E+03  0.17300000000E+03 0. -1.
         -6    1    1    2    0  503 -0.25047051136E+02  0.16964041058E+03 -0.19948063668E+03  0.31484400595E+03  0.17300000000E+03 0. -1.
<mgrwt>
<rscale>  2 0.24358617E+03</rscale>
<asrwt>0</asrwt>
<pdfrwt beam="1">  1       21 0.35084070E-01 0.24358617E+03</pdfrwt>
<pdfrwt beam="2">  1       21 0.52958724E-01 0.24358617E+03</pdfrwt>
<totfact> 0.25760439E+04</totfact>
</mgrwt>
</event>
<event>
 4    1  0.3957190E+000  0.1890392E+03  0.7546771E-02  0.1159331E+00
         21   -1    0    0  501  502  0.00000000000E+00  0.00000000000E+00  0.41918149102E+03  0.41918149102E+03  0.00000000000E+00 0.  1.
         21   -1    0    0  502  503 -0.00000000000E+00 -0.00000000000E+00 -0.14701764278E+03  0.14701764278E+03  0.00000000000E+00 0.  1.
          6    1    1    2  501    0 -0.55967901132E+02 -0.51714832509E+02  0.31957931532E+03  0.37130414573E+03  0.17300000000E+03 0.  1.
         -6    1    1    2    0  503  0.55967901132E+02  0.51714832509E+02 -0.47415467072E+02  0.19489498807E+03  0.17300000000E+03 0.  1.
<mgrwt>
<rscale>  2 0.18903923E+03</rscale>
<asrwt>0</asrwt>
<pdfrwt beam="1">  1       21 0.64489459E-01 0.18903923E+03</pdfrwt>
<pdfrwt beam="2">  1       21 0.22618099E-01 0.18903923E+03</pdfrwt>
<totfact> 0.40692154E+04</totfact>
</mgrwt>
</event>
<event>
 4    1  0.3957190E+000  0.2462788E+03  0.7546771E-02  0.1115679E+00
         21   -1    0    0  503  502  0.00000000000E+00  0.00000000000E+00  0.46560435267E+03  0.46560435267E+03  0.00000000000E+00 0.  1.
         21   -1    0    0  501  503 -0.00000000000E+00 -0.00000000000E+00 -0.17770145185E+03  0.17770145185E+03  0.00000000000E+00 0.  1.
          6    1    1    2  501    0  0.64214651605E+02  0.16309735916E+03 -0.22230983833E+02  0.24728017852E+03  0.17300000000E+03 0.  1.
         -6    1    1    2    0  502 -0.64214651605E+02 -0.16309735916E+03  0.31013388465E+03  0.39602562600E+03  0.17300000000E+03 0.  1.
<mgrwt>
<rscale>  2 0.24627885E+03</rscale>
<asrwt>0</asrwt>
<pdfrwt beam="1">  1       21 0.71631438E-01 0.24627885E+03</pdfrwt>
<pdfrwt beam="2">  1       21 0.27338685E-01 0.24627885E+03</pdfrwt>
<totfact> 0.21821774E+04</totfact>
</mgrwt>
</event>
<event>
 4    1  0.3957190E+000  0.1886275E+03  0.7546771E-02  0.1159705E+00
         21   -1    0    0  503  502  0.00000000000E+00  0.00000000000E+00  0.65386939632E+03  0.65386939632E+03  0.00000000000E+00 0.  1.
         21   -1    0    0  501  503 -0.00000000000E+00 -0.00000000000E+00 -0.84008321506E+02  0.84008321506E+02  0.00000000000E+00 0. -1.
          6    1    1    2  501    0  0.72500219928E+02 -0.19875653474E+02  0.65957887044E+02  0.19982684092E+03  0.17300000000E+03 0. -1.
         -6    1    1    2    0  502 -0.72500219928E+02  0.19875653474E+02  0.50390318777E+03  0.53805087690E+03  0.17300000000E+03 0.  1.
<mgrwt>
<rscale>  2 0.18862747E+03</rscale>
<asrwt>0</asrwt>
<pdfrwt beam="1">  1       21 0.10059529E+00 0.18862747E+03</pdfrwt>
<pdfrwt beam="2">  1       21 0.12924358E-01 0.18862747E+03</pdfrwt>
<totfact> 0.41667539E+04</totfact>
</mgrwt>
</event>
<event>
 4    1  0.3957190E+000  0.1906231E+03  0.7546771E-02  0.1157901E+00
         21   -1    0    0  501  502  0.00000000000E+00  0.00000000000E+00  0.86739955798E+02  0.86739955798E+02  0.00000000000E+00 0. -1.
         21   -1    0    0  502  503 -0.00000000000E+00 -0.00000000000E+00 -0.42192986668E+03  0.42192986668E+03  0.00000000000E+00 0. -1.
          6    1    1    2  501    0 -0.69702111473E+02 -0.39367173707E+02 -0.14611603071E+03  0.24018129224E+03  0.17300000000E+03 0. -1.
         -6    1    1    2    0  503  0.69702111473E+02  0.39367173707E+02 -0.18907388017E+03  0.26848853025E+03  0.17300000000E+03 0. -1.
<mgrwt>
<rscale>  2 0.19062308E+03</rscale>
<asrwt>0</asrwt>
<pdfrwt beam="1">  1       21 0.13344609E-01 0.19062308E+03</pdfrwt>
<pdfrwt beam="2">  1       21 0.64912286E-01 0.19062308E+03</pdfrwt>
<totfact> 0.10607809E+05</totfact>
</mgrwt>
</event>
<event>
 4    1  0.3957190E+000  0.1818539E+03  0.7546771E-02  0.1166021E+00
         21   -1    0    0  503  502  0.00000000000E+00  0.00000000000E+00  0.11995611527E+03  0.11995611527E+03  0.00000000000E+00 0. -1.
         21   -1    0    0  501  503 -0.00000000000E+00 -0.00000000000E+00 -0.39019215884E+03  0.39019215884E+03  0.00000000000E+00 0. -1.
          6    1    1    2  501    0  0.27710822195E+02  0.48723266623E+02 -0.27329373119E+03  0.32826865505E+03  0.17300000000E+03 0. -1.
         -6    1    1    2    0  502 -0.27710822195E+02 -0.48723266623E+02  0.30576876254E+01  0.18187961906E+03  0.17300000000E+03 0. -1.
<mgrwt>
<rscale>  2 0.18185391E+03</rscale>
<asrwt>0</asrwt>
<pdfrwt beam="1">  1       21 0.18454787E-01 0.18185391E+03</pdfrwt>
<pdfrwt beam="2">  1       21 0.60029563E-01 0.18185391E+03</pdfrwt>
<totfact> 0.69714992E+04</totfact>
</mgrwt>
</event>
<event>
 4    1  0.3957190E+000  0.3333158E+03  0.7546771E-02  0.1069679E+00
         21   -1    0    0  503  502  0.00000000000E+00  0.00000000000E+00  0.52653643124E+03  0.52653643124E+03  0.00000000000E+00 0. -1.
         21   -1    0    0  501  503 -0.00000000000E+00 -0.00000000000E+00 -0.23620694585E+03  0.23620694585E+03  0.00000000000E+00 0. -1.
          6    1    1    2  501    0 -0.81397209125E+02 -0.27302916264E+03  0.26974759428E+03  0.42879271674E+03  0.17300000000E+03 0. -1.
         -6    1    1    2    0  502  0.81397209125E+02  0.27302916264E+03  0.20581891105E+02  0.33395066035E+03  0.17300000000E+03 0. -1.
<mgrwt>
<rscale>  2 0.33331581E+03</rscale>
<asrwt>0</asrwt>
<pdfrwt beam="1">  1       21 0.81005605E-01 0.33331581E+03</pdfrwt>
<pdfrwt beam="2">  1       21 0.36339530E-01 0.33331581E+03</pdfrwt>
<totfact> 0.90461171E+03</totfact>
</mgrwt>
</event>
<event>
 4    1  0.3957190E+000  0.1870868E+03  0.7546771E-02  0.1161115E+00
         21   -1    0    0  501  502  0.00000000000E+00  0.00000000000E+00  0.13128302909E+03  0.13128302909E+03  0.00000000000E+00 0.  1.
         21   -1    0    0  502  503 -0.00000000000E+00 -0.00000000000E+00 -0.36841065920E+03  0.36841065920E+03  0.00000000000E+00 0.  1.
          6    1    1    2  501    0  0.48208310113E+02  0.52425505800E+02  0.12771445594E+02  0.18752222440E+03  0.17300000000E+03 0.  1.
         -6    1    1    2    0  503 -0.48208310113E+02 -0.52425505800E+02 -0.24989907571E+03  0.31217146388E+03  0.17300000000E+03 0.  1.
<mgrwt>
<rscale>  2 0.18708681E+03</rscale>
<asrwt>0</asrwt>
<pdfrwt beam="1">  1       21 0.20197389E-01 0.18708681E+03</pdfrwt>
<pdfrwt beam="2">  1       21 0.56678562E-01 0.18708681E+03</pdfrwt>
<totfact> 0.66485062E+04</totfact>
</mgrwt>
</event>
<event>
 4    1  0.3957190E+000  0.1751564E+03  0.7546771E-02  0.1172575E+00
         21   -1    0    0  503  502  0.00000000000E+00  0.00000000000E+00  0.49894214014E+03  0.49894214014E+03  0.00000000000E+00 0. -1.
         21   -1    0    0  501  503 -0.00000000000E+00 -0.00000000000E+00 -0.68635981489E+02  0.68635981489E+02  0.00000000000E+00 0. -1.
          6    1    1    2  501    0  0.25435679702E+02 -0.10187295211E+02  0.30672507786E+03  0.35321385615E+03  0.17300000000E+03 0. -1.
         -6    1    1    2    0  502 -0.25435679702E+02  0.10187295211E+02  0.12358108079E+03  0.21436426548E+03  0.17300000000E+03 0. -1.
<mgrwt>
<rscale>  2 0.17515637E+03</rscale>
<asrwt>0</asrwt>
<pdfrwt beam="1">  1       21 0.76760327E-01 0.17515637E+03</pdfrwt>
<pdfrwt beam="2">  1       21 0.10559382E-01 0.17515637E+03</pdfrwt>
<totfact> 0.11198308E+05</totfact>
</mgrwt>
</event>
<event>
 4    1  0.3957190E+000  0.1830834E+03  0.7546771E-02  0.1164852E+00
         21   -1    0    0  501  502  0.00000000000E+00  0.00000000000E+00  0.41684172196E+02  0.41684172196E+02  0.00000000000E+00 0. -1.
         21   -1    0    0  502  503 -0.00000000000E+00 -0.00000000000E+00 -0.11694881363E+04  0.11694881363E+04  0.00000000000E+00 0. -1.
          6    1    1    2  501    0 -0.25353498238E+02  0.54292950056E+02 -0.22541889143E+03  0.29040179220E+03  0.17300000000E+03 0. -1.
         -6    1    1    2    0  503  0.25353498238E+02 -0.54292950056E+02 -0.90238507273E+03  0.92077051635E+03  0.17300000000E+03 0. -1.
<mgrwt>
<rscale>  2 0.18308338E+03</rscale>
<asrwt>0</asrwt>
<pdfrwt beam="1">  1       21 0.64129492E-02 0.18308338E+03</pdfrwt>
<pdfrwt beam="2">  1       21 0.17992126E+00 0.18308338E+03</pdfrwt>
<totfact> 0.32252586E+04</totfact>
</mgrwt>
</event>
<event>
 4    1  0.3957190E+000  0.2493187E+03  0.7546771E-02  0.1113736E+00
         21   -1    0    0  501  502  0.00000000000E+00  0.00000000000E+00  0.91948329755E+02  0.91948329755E+02  0.00000000000E+00 0. -1.
         21   -1    0    0  502  503 -0.00000000000E+00 -0.00000000000E+00 -0.68303303740E+03  0.68303303740E+03  0.00000000000E+00 0. -1.
          6    1    1    2  501    0 -0.33033440863E+02  0.17646415983E+03 -0.25630579919E+03  0.35756463838E+03  0.17300000000E+03 0. -1.
         -6    1    1    2    0  503  0.33033440863E+02 -0.17646415983E+03 -0.33477890845E+03  0.41741672877E+03  0.17300000000E+03 0. -1.
<mgrwt>
<rscale>  2 0.24931869E+03</rscale>
<asrwt>0</asrwt>
<pdfrwt beam="1">  1       21 0.14145897E-01 0.24931869E+03</pdfrwt>
<pdfrwt beam="2">  1       21 0.10508200E+00 0.24931869E+03</pdfrwt>
<totfact> 0.30893501E+04</totfact>
</mgrwt>
</event>
<event>
 4    1  0.3957190E+000  0.1894682E+03  0.7546771E-02  0.1158942E+00
         21   -1    0    0  503  502  0.00000000000E+00  0.00000000000E+00  0.16378052344E+03  0.16378052344E+03  0.00000000000E+00 0.  1.
         21   -1    0    0  501  503 -0.00000000000E+00 -0.00000000000E+00 -0.22571712905E+03  0.22571712905E+03  0.00000000000E+00 0.  1.
          6    1    1    2  501    0  0.73045449226E+01 -0.76914546484E+02 -0.64098658330E+02  0.20001710386E+03  0.17300000000E+03 0.  1.
         -6    1    1    2    0  502 -0.73045449226E+01  0.76914546484E+02  0.21620527166E+01  0.18948054863E+03  0.17300000000E+03 0.  1.
<mgrwt>
<rscale>  2 0.18946821E+03</rscale>
<asrwt>0</asrwt>
<pdfrwt beam="1">  1       21 0.25197004E-01 0.18946821E+03</pdfrwt>
<pdfrwt beam="2">  1       21 0.34725712E-01 0.18946821E+03</pdfrwt>
<totfact> 0.11940538E+05</totfact>
</mgrwt>
</event>
<event>
 4    1  0.3957190E+000  0.2286394E+03  0.7546771E-02  0.1127601E+00
         21   -1    0    0  503  502  0.00000000000E+00  0.00000000000E+00  0.11930379456E+04  0.11930379456E+04  0.00000000000E+00 0.  1.
         21   -1    0    0  501  503 -0.00000000000E+00 -0.00000000000E+00 -0.11847572000E+03  0.11847572000E+03  0.00000000000E+00 0. -1.
          6    1    1    2  501    0 -0.29846636900E+02  0.14647926276E+03  0.16725869395E+02  0.22925041082E+03  0.17300000000E+03 0. -1.
         -6    1    1    2    0  502  0.29846636900E+02 -0.14647926276E+03  0.10578363562E+04  0.10822632547E+04  0.17300000000E+03 0.  1.
<mgrwt>
<rscale>  2 0.22863945E+03</rscale>
<asrwt>0</asrwt>
<pdfrwt beam="1">  1       21 0.18354429E+00 0.22863945E+03</pdfrwt>
<pdfrwt beam="2">  1       21 0.18227035E-01 0.22863945E+03</pdfrwt>
<totfact> 0.45804737E+03</totfact>
</mgrwt>
</event>
<event>
 4    1  0.3957190E+000  0.1766310E+03  0.7546771E-02  0.1171104E+00
         21   -1    0    0  501  502  0.00000000000E+00  0.00000000000E+00  0.22209387714E+03  0.22209387714E+03  0.00000000000E+00 0. -1.
         21   -1    0    0  502  503 -0.00000000000E+00 -0.00000000000E+00 -0.14169451866E+03  0.14169451866E+03  0.00000000000E+00 0. -1.
          6    1    1    2  501    0 -0.35036775261E+02 -0.64761500271E+01  0.23321183647E+02  0.17816395187E+03  0.17300000000E+03 0.  1.
         -6    1    1    2    0  503  0.35036775261E+02  0.64761500271E+01  0.57078174833E+02  0.18562444392E+03  0.17300000000E+03 0.  1.
<mgrwt>
<rscale>  2 0.17663102E+03</rscale>
<asrwt>0</asrwt>
<pdfrwt beam="1">  1       21 0.34168289E-01 0.17663102E+03</pdfrwt>
<pdfrwt beam="2">  1       21 0.21799157E-01 0.17663102E+03</pdfrwt>
<totfact> 0.16290858E+05</totfact>
</mgrwt>
</event>
<event>
 4    1  0.3957190E+000  0.2093061E+03  0.7546771E-02  0.1142117E+00
         21   -1    0    0  503  502  0.00000000000E+00  0.00000000000E+00  0.11592855670E+03  0.11592855670E+03  0.00000000000E+00 0. -1.
         21   -1    0    0  501  503 -0.00000000000E+00 -0.00000000000E+00 -0.43236605121E+03  0.43236605121E+03  0.00000000000E+00 0. -1.
          6    1    1    2  501    0 -0.87149278319E+02  0.79278259046E+02 -0.25552339785E+03  0.33030477732E+03  0.17300000000E+03 0. -1.
         -6    1    1    2    0  502  0.87149278319E+02 -0.79278259046E+02 -0.60914096661E+02  0.21798983059E+03  0.17300000000E+03 0. -1.
<mgrwt>
<rscale>  2 0.20930609E+03</rscale>
<asrwt>0</asrwt>
<pdfrwt beam="1">  1       21 0.17835163E-01 0.20930609E+03</pdfrwt>
<pdfrwt beam="2">  1       21 0.66517854E-01 0.20930609E+03</pdfrwt>
<totfact> 0.58722680E+04</totfact>
</mgrwt>
</event>
<event>
 4    1  0.3957190E+000  0.1757542E+03  0.7546771E-02  0.1171977E+00
         21   -1    0    0  503  502  0.00000000000E+00  0.00000000000E+00  0.65293802830E+02  0.65293802830E+02  0.00000000000E+00 0. -1.
         21   -1    0    0  501  503 -0.00000000000E+00 -0.00000000000E+00 -0.60789652719E+03  0.60789652719E+03  0.00000000000E+00 0. -1.
          6    1    1    2  501    0  0.11344079049E+02  0.28842001577E+02 -0.11279167654E+03  0.20883369336E+03  0.17300000000E+03 0. -1.
         -6    1    1    2    0  502 -0.11344079049E+02 -0.28842001577E+02 -0.42981104782E+03  0.46435663667E+03  0.17300000000E+03 0. -1.
<mgrwt>
<rscale>  2 0.17575423E+03</rscale>
<asrwt>0</asrwt>
<pdfrwt beam="1">  1       21 0.10045200E-01 0.17575423E+03</pdfrwt>
<pdfrwt beam="2">  1       21 0.93522546E-01 0.17575423E+03</pdfrwt>
<totfact> 0.77932345E+04</totfact>
</mgrwt>
</event>
<event>
 4    1  0.3957190E+000  0.2295765E+03  0.7546771E-02  0.1126938E+00
         21   -1    0    0  501  502  0.00000000000E+00  0.00000000000E+00  0.90938156216E+02  0.90938156216E+02  0.00000000000E+00 0. -1.
         21   -1    0    0  502  503 -0.00000000000E+00 -0.00000000000E+00 -0.69713104874E+03  0.69713104874E+03  0.00000000000E+00 0. -1.
          6    1    1    2  501    0  0.13379596586E+03 -0.69821278908E+02 -0.46490515107E+03  0.51849992378E+03  0.17300000000E+03 0. -1.
         -6    1    1    2    0  503 -0.13379596586E+03  0.69821278908E+02 -0.14128774146E+03  0.26956928118E+03  0.17300000000E+03 0. -1.
<mgrwt>
<rscale>  2 0.22957650E+03</rscale>
<asrwt>0</asrwt>
<pdfrwt beam="1">  1       21 0.13990486E-01 0.22957650E+03</pdfrwt>
<pdfrwt beam="2">  1       21 0.10725093E+00 0.22957650E+03</pdfrwt>
<totfact> 0.30286655E+04</totfact>
</mgrwt>
</event>
<event>
 4    1  0.3957190E+000  0.2169375E+03  0.7546771E-02  0.1136187E+00
         21   -1    0    0  501  502  0.00000000000E+00  0.00000000000E+00  0.63745265410E+03  0.63745265410E+03  0.00000000000E+00 0.  1.
         21   -1    0    0  502  503 -0.00000000000E+00 -0.00000000000E+00 -0.77111655274E+02  0.77111655274E+02  0.00000000000E+00 0. -1.
          6    1    1    2  501    0  0.12715334191E+03  0.31062921579E+02  0.35389769491E+03  0.41509692352E+03  0.17300000000E+03 0.  1.
         -6    1    1    2    0  503 -0.12715334191E+03 -0.31062921579E+02  0.20644330392E+03  0.29946738585E+03  0.17300000000E+03 0. -1.
<mgrwt>
<rscale>  2 0.21693750E+03</rscale>
<asrwt>0</asrwt>
<pdfrwt beam="1">  1       21 0.98069636E-01 0.21693750E+03</pdfrwt>
<pdfrwt beam="2">  1       21 0.11863332E-01 0.21693750E+03</pdfrwt>
<totfact> 0.50871613E+04</totfact>
</mgrwt>
</event>
<event>
 4    1  0.3957190E+000  0.1764663E+03  0.7546771E-02  0.1171267E+00
         21   -1    0    0  501  502  0.00000000000E+00  0.00000000000E+00  0.11283805143E+03  0.11283805143E+03  0.00000000000E+00 0.  1.
         21   -1    0    0  502  503 -0.00000000000E+00 -0.00000000000E+00 -0.27807296758E+03  0.27807296758E+03  0.00000000000E+00 0.  1.
          6    1    1    2  501    0 -0.24730706869E+02  0.24489840734E+02 -0.99599071632E+02  0.20263349978E+03  0.17300000000E+03 0. -1.
         -6    1    1    2    0  503  0.24730706869E+02 -0.24489840734E+02 -0.65635844518E+02  0.18827751923E+03  0.17300000000E+03 0. -1.
<mgrwt>
<rscale>  2 0.17646631E+03</rscale>
<asrwt>0</asrwt>
<pdfrwt beam="1">  1       21 0.17359700E-01 0.17646631E+03</pdfrwt>
<pdfrwt beam="2">  1       21 0.42780457E-01 0.17646631E+03</pdfrwt>
<totfact> 0.15856567E+05</totfact>
</mgrwt>
</event>
<event>
 4    1  0.3957190E+000  0.1881045E+03  0.7546771E-02  0.1160182E+00
         21   -1    0    0  503  502  0.00000000000E+00  0.00000000000E+00  0.88133024199E+02  0.88133024199E+02  0.00000000000E+00 0. -1.
         21   -1    0    0  501  503 -0.00000000000E+00 -0.00000000000E+00 -0.40597282569E+03  0.40597282569E+03  0.00000000000E+00 0.  1.
          6    1    1    2  501    0 -0.21325425346E+02  0.70707427982E+02 -0.13291929160E+03  0.23032770614E+03  0.17300000000E+03 0. -1.
         -6    1    1    2    0  502  0.21325425346E+02 -0.70707427982E+02 -0.18492050989E+03  0.26377814374E+03  0.17300000000E+03 0.  1.
<mgrwt>
<rscale>  2 0.18810453E+03</rscale>
<asrwt>0</asrwt>
<pdfrwt beam="1">  1       21 0.13558927E-01 0.18810453E+03</pdfrwt>
<pdfrwt beam="2">  1       21 0.62457358E-01 0.18810453E+03</pdfrwt>
<totfact> 0.11215813E+05</totfact>
</mgrwt>
</event>
<event>
 4    1  0.3957190E+000  0.2130952E+03  0.7546771E-02  0.1139138E+00
         21   -1    0    0  503  502  0.00000000000E+00  0.00000000000E+00  0.78321738912E+03  0.78321738912E+03  0.00000000000E+00 0.  1.
         21   -1    0    0  501  503 -0.00000000000E+00 -0.00000000000E+00 -0.24581945045E+03  0.24581945045E+03  0.00000000000E+00 0.  1.
          6    1    1    2  501    0  0.96487984800E+02  0.78553511028E+02 -0.18106868120E+03  0.27963449826E+03  0.17300000000E+03 0.  1.
         -6    1    1    2    0  502 -0.96487984800E+02 -0.78553511028E+02  0.71846661986E+03  0.74940234131E+03  0.17300000000E+03 0.  1.
<mgrwt>
<rscale>  2 0.21309525E+03</rscale>
<asrwt>0</asrwt>
<pdfrwt beam="1">  1       21 0.12049498E+00 0.21309525E+03</pdfrwt>
<pdfrwt beam="2">  1       21 0.37818377E-01 0.21309525E+03</pdfrwt>
<totfact> 0.34652330E+03</totfact>
</mgrwt>
</event>
<event>
 4    1  0.3957190E+000  0.2201408E+03  0.7546771E-02  0.1133778E+00
         21   -1    0    0  503  502  0.00000000000E+00  0.00000000000E+00  0.50758046444E+03  0.50758046444E+03  0.00000000000E+00 0. -1.
         21   -1    0    0  501  503 -0.00000000000E+00 -0.00000000000E+00 -0.13884868533E+03  0.13884868533E+03  0.00000000000E+00 0. -1.
          6    1    1    2  501    0 -0.14199502884E+02 -0.13539325797E+03  0.37208016146E+01  0.22017221566E+03  0.17300000000E+03 0. -1.
         -6    1    1    2    0  502  0.14199502884E+02  0.13539325797E+03  0.36501097749E+03  0.42625693411E+03  0.17300000000E+03 0. -1.
<mgrwt>
<rscale>  2 0.22014077E+03</rscale>
<asrwt>0</asrwt>
<pdfrwt beam="1">  1       21 0.78089301E-01 0.22014077E+03</pdfrwt>
<pdfrwt beam="2">  1       21 0.21361336E-01 0.22014077E+03</pdfrwt>
<totfact> 0.29193235E+04</totfact>
</mgrwt>
</event>
<event>
 4    1  0.3957190E+000  0.1868144E+03  0.7546771E-02  0.1161366E+00
         21   -1    0    0  501  502  0.00000000000E+00  0.00000000000E+00  0.55902430277E+03  0.55902430277E+03  0.00000000000E+00 0. -1.
         21   -1    0    0  502  503 -0.00000000000E+00 -0.00000000000E+00 -0.13547501859E+03  0.13547501859E+03  0.00000000000E+00 0. -1.
          6    1    1    2  501    0  0.50130558179E+02 -0.49573736170E+02  0.46675627610E+03  0.50275346787E+03  0.17300000000E+03 0. -1.
         -6    1    1    2    0  503 -0.50130558179E+02  0.49573736170E+02 -0.43206991910E+02  0.19174585349E+03  0.17300000000E+03 0. -1.
<mgrwt>
<rscale>  2 0.18681442E+03</rscale>
<asrwt>0</asrwt>
<pdfrwt beam="1">  1       21 0.86003737E-01 0.18681442E+03</pdfrwt>
<pdfrwt beam="2">  1       21 0.20842311E-01 0.18681442E+03</pdfrwt>
<totfact> 0.25008818E+04</totfact>
</mgrwt>
</event>
<event>
 4    1  0.3957190E+000  0.2013473E+03  0.7546771E-02  0.1148607E+00
         21   -1    0    0  503  502  0.00000000000E+00  0.00000000000E+00  0.13241584978E+04  0.13241584978E+04  0.00000000000E+00 0. -1.
         21   -1    0    0  501  503 -0.00000000000E+00 -0.00000000000E+00 -0.38945187727E+02  0.38945187727E+02  0.00000000000E+00 0.  1.
          6    1    1    2  501    0  0.94166143190E+02  0.41767034929E+02  0.95779285520E+03  0.97872769512E+03  0.17300000000E+03 0. -1.
         -6    1    1    2    0  502 -0.94166143190E+02 -0.41767034929E+02  0.32742045488E+03  0.38437599041E+03  0.17300000000E+03 0.  1.
<mgrwt>
<rscale>  2 0.20134733E+03</rscale>
<asrwt>0</asrwt>
<pdfrwt beam="1">  1       21 0.20371666E+00 0.20134733E+03</pdfrwt>
<pdfrwt beam="2">  1       21 0.59915684E-02 0.20134733E+03</pdfrwt>
<totfact> 0.24965775E+04</totfact>
</mgrwt>
</event>
<event>
 4    1  0.3957190E+000  0.1925611E+03  0.7546771E-02  0.1156171E+00
         21   -1    0    0  503  502  0.00000000000E+00  0.00000000000E+00  0.18118872691E+03  0.18118872691E+03  0.00000000000E+00 0.  1.
         21   -1    0    0  501  503 -0.00000000000E+00 -0.00000000000E+00 -0.25560422351E+03  0.25560422351E+03  0.00000000000E+00 0.  1.
          6    1    1    2  501    0 -0.83190573302E+01 -0.84152002421E+02 -0.13472099672E+03  0.23500960232E+03  0.17300000000E+03 0.  1.
         -6    1    1    2    0  502  0.83190573302E+01  0.84152002421E+02  0.60305500111E+02  0.20178334810E+03  0.17300000000E+03 0.  1.
<mgrwt>
<rscale>  2 0.19256107E+03</rscale>
<asrwt>0</asrwt>
<pdfrwt beam="1">  1       21 0.27875189E-01 0.19256107E+03</pdfrwt>
<pdfrwt beam="2">  1       21 0.39323727E-01 0.19256107E+03</pdfrwt>
<totfact> 0.76623690E+04</totfact>
</mgrwt>
</event>
<event>
 4    1  0.3957190E+000  0.1815772E+03  0.7546771E-02  0.1166285E+00
         21   -1    0    0  501  502  0.00000000000E+00  0.00000000000E+00  0.18125614185E+03  0.18125614185E+03  0.00000000000E+00 0. -1.
         21   -1    0    0  502  503 -0.00000000000E+00 -0.00000000000E+00 -0.38111841046E+03  0.38111841046E+03  0.00000000000E+00 0. -1.
          6    1    1    2  501    0 -0.22889598347E+02  0.50173231468E+02  0.10336619370E+03  0.20893744726E+03  0.17300000000E+03 0. -1.
         -6    1    1    2    0  503  0.22889598347E+02 -0.50173231468E+02 -0.30322846231E+03  0.35343710505E+03  0.17300000000E+03 0. -1.
<mgrwt>
<rscale>  2 0.18157722E+03</rscale>
<asrwt>0</asrwt>
<pdfrwt beam="1">  1       21 0.27885560E-01 0.18157722E+03</pdfrwt>
<pdfrwt beam="2">  1       21 0.58633602E-01 0.18157722E+03</pdfrwt>
<totfact> 0.33626510E+04</totfact>
</mgrwt>
</event>
<event>
 4    1  0.3957190E+000  0.2632109E+03  0.7546771E-02  0.1105229E+00
         21   -1    0    0  503  502  0.00000000000E+00  0.00000000000E+00  0.10599758128E+03  0.10599758128E+03  0.00000000000E+00 0.  1.
         21   -1    0    0  501  503 -0.00000000000E+00 -0.00000000000E+00 -0.66258329478E+03  0.66258329478E+03  0.00000000000E+00 0. -1.
          6    1    1    2  501    0 -0.99241729356E+02 -0.17176162819E+03 -0.32304013200E+03  0.41669521793E+03  0.17300000000E+03 0. -1.
         -6    1    1    2    0  502  0.99241729356E+02  0.17176162819E+03 -0.23354558150E+03  0.35188565813E+03  0.17300000000E+03 0.  1.
<mgrwt>
<rscale>  2 0.26321090E+03</rscale>
<asrwt>0</asrwt>
<pdfrwt beam="1">  1       21 0.16307320E-01 0.26321090E+03</pdfrwt>
<pdfrwt beam="2">  1       21 0.10193589E+00 0.26321090E+03</pdfrwt>
<totfact> 0.25450090E+04</totfact>
</mgrwt>
</event>
<event>
 4    1  0.3957190E+000  0.1860193E+03  0.7546771E-02  0.1162101E+00
         21   -1    0    0  501  502  0.00000000000E+00  0.00000000000E+00  0.34032360864E+02  0.34032360864E+02  0.00000000000E+00 0.  1.
         21   -1    0    0  502  503 -0.00000000000E+00 -0.00000000000E+00 -0.16731419631E+04  0.16731419631E+04  0.00000000000E+00 0. -1.
          6    1    1    2  501    0 -0.57684218102E+02 -0.36697613935E+02 -0.28492210572E+03  0.34027017238E+03  0.17300000000E+03 0.  1.
         -6    1    1    2    0  503  0.57684218102E+02  0.36697613935E+02 -0.13541874965E+04  0.13669041516E+04  0.17300000000E+03 0. -1.
<mgrwt>
<rscale>  2 0.18601931E+03</rscale>
<asrwt>0</asrwt>
<pdfrwt beam="1">  1       21 0.52357490E-02 0.18601931E+03</pdfrwt>
<pdfrwt beam="2">  1       21 0.25740640E+00 0.18601931E+03</pdfrwt>
<totfact> 0.15060683E+04</totfact>
</mgrwt>
</event>
<event>
 4    1  0.3957190E+000  0.1751444E+03  0.7546771E-02  0.1172587E+00
         21   -1    0    0  501  502  0.00000000000E+00  0.00000000000E+00  0.25017051759E+03  0.25017051759E+03  0.00000000000E+00 0. -1.
         21   -1    0    0  502  503 -0.00000000000E+00 -0.00000000000E+00 -0.13923555787E+03  0.13923555787E+03  0.00000000000E+00 0. -1.
          6    1    1    2  501    0 -0.13672284179E+02 -0.23656350643E+02  0.12273007730E+03  0.21386497178E+03  0.17300000000E+03 0. -1.
         -6    1    1    2    0  503  0.13672284179E+02  0.23656350643E+02 -0.11795117587E+02  0.17554110367E+03  0.17300000000E+03 0. -1.
<mgrwt>
<rscale>  2 0.17514438E+03</rscale>
<asrwt>0</asrwt>
<pdfrwt beam="1">  1       21 0.38487772E-01 0.17514438E+03</pdfrwt>
<pdfrwt beam="2">  1       21 0.21420855E-01 0.17514438E+03</pdfrwt>
<totfact> 0.13292240E+05</totfact>
</mgrwt>
</event>
<event>
 4    1  0.3957190E+000  0.2208540E+03  0.7546771E-02  0.1133248E+00
         21   -1    0    0  503  502  0.00000000000E+00  0.00000000000E+00  0.20689384088E+03  0.20689384088E+03  0.00000000000E+00 0. -1.
         21   -1    0    0  501  503 -0.00000000000E+00 -0.00000000000E+00 -0.36229777165E+03  0.36229777165E+03  0.00000000000E+00 0.  1.
          6    1    1    2  501    0  0.13362464633E+03 -0.31495304091E+02 -0.24589667131E+03  0.33051728132E+03  0.17300000000E+03 0. -1.
         -6    1    1    2    0  502 -0.13362464633E+03  0.31495304091E+02  0.90492740546E+02  0.23867433121E+03  0.17300000000E+03 0. -1.
<mgrwt>
<rscale>  2 0.22085402E+03</rscale>
<asrwt>0</asrwt>
<pdfrwt beam="1">  1       21 0.31829822E-01 0.22085402E+03</pdfrwt>
<pdfrwt beam="2">  1       21 0.55738118E-01 0.22085402E+03</pdfrwt>
<totfact> 0.28344652E+04</totfact>
</mgrwt>
</event>
<event>
 4    1  0.3957190E+000  0.2034781E+03  0.7546771E-02  0.1146837E+00
         21   -1    0    0  503  502  0.00000000000E+00  0.00000000000E+00  0.18576343152E+03  0.18576343152E+03  0.00000000000E+00 0.  1.
         21   -1    0    0  501  503 -0.00000000000E+00 -0.00000000000E+00 -0.23913143352E+03  0.23913143352E+03  0.00000000000E+00 0.  1.
          6    1    1    2  501    0 -0.18564893044E+02  0.10549728640E+03 -0.82063844373E+02  0.21940329816E+03  0.17300000000E+03 0.  1.
         -6    1    1    2    0  502  0.18564893044E+02 -0.10549728640E+03  0.28695842374E+02  0.20549156688E+03  0.17300000000E+03 0.  1.
<mgrwt>
<rscale>  2 0.20347809E+03</rscale>
<asrwt>0</asrwt>
<pdfrwt beam="1">  1       21 0.28578989E-01 0.20347809E+03</pdfrwt>
<pdfrwt beam="2">  1       21 0.36789451E-01 0.20347809E+03</pdfrwt>
<totfact> 0.83059475E+04</totfact>
</mgrwt>
</event>
<event>
 4    1  0.3957190E+000  0.1878079E+03  0.7546771E-02  0.1160453E+00
         21   -1    0    0  503  502  0.00000000000E+00  0.00000000000E+00  0.76835347634E+03  0.76835347634E+03  0.00000000000E+00 0.  1.
         21   -1    0    0  501  503 -0.00000000000E+00 -0.00000000000E+00 -0.74497577234E+02  0.74497577234E+02  0.00000000000E+00 0.  1.
          6    1    1    2  501    0  0.72317342725E+02  0.10631443483E+02  0.85849583036E+02  0.20649933791E+03  0.17300000000E+03 0.  1.
         -6    1    1    2    0  502 -0.72317342725E+02 -0.10631443483E+02  0.60800631607E+03  0.63635171567E+03  0.17300000000E+03 0.  1.
<mgrwt>
<rscale>  2 0.18780795E+03</rscale>
<asrwt>0</asrwt>
<pdfrwt beam="1">  1       21 0.11820822E+00 0.18780795E+03</pdfrwt>
<pdfrwt beam="2">  1       21 0.11461166E-01 0.18780795E+03</pdfrwt>
<totfact> 0.35010705E+04</totfact>
</mgrwt>
</event>
<event>
 4    1  0.3957190E+000  0.1920726E+03  0.7546771E-02  0.1156605E+00
         21   -1    0    0  501  502  0.00000000000E+00  0.00000000000E+00  0.90581200994E+02  0.90581200994E+02  0.00000000000E+00 0.  1.
         21   -1    0    0  502  503 -0.00000000000E+00 -0.00000000000E+00 -0.40932579182E+03  0.40932579182E+03  0.00000000000E+00 0.  1.
          6    1    1    2  501    0 -0.79243885882E+02 -0.26139863307E+02 -0.17704428387E+03  0.26122129384E+03  0.17300000000E+03 0.  1.
         -6    1    1    2    0  503  0.79243885882E+02  0.26139863307E+02 -0.14170030695E+03  0.23868569897E+03  0.17300000000E+03 0.  1.
<mgrwt>
<rscale>  2 0.19207261E+03</rscale>
<asrwt>0</asrwt>
<pdfrwt beam="1">  1       21 0.13935569E-01 0.19207261E+03</pdfrwt>
<pdfrwt beam="2">  1       21 0.62973198E-01 0.19207261E+03</pdfrwt>
<totfact> 0.10470603E+05</totfact>
</mgrwt>
</event>
<event>
 4    1  0.3957190E+000  0.1940618E+03  0.7546771E-02  0.1154848E+00
         21   -1    0    0  503  502  0.00000000000E+00  0.00000000000E+00  0.18299465411E+03  0.18299465411E+03  0.00000000000E+00 0.  1.
         21   -1    0    0  501  503 -0.00000000000E+00 -0.00000000000E+00 -0.26481054244E+03  0.26481054244E+03  0.00000000000E+00 0.  1.
          6    1    1    2  501    0 -0.35816986223E+02  0.80300261586E+02  0.64789031563E+02  0.20459131732E+03  0.17300000000E+03 0.  1.
         -6    1    1    2    0  502  0.35816986223E+02 -0.80300261586E+02 -0.14660491989E+03  0.24321387923E+03  0.17300000000E+03 0.  1.
<mgrwt>
<rscale>  2 0.19406182E+03</rscale>
<asrwt>0</asrwt>
<pdfrwt beam="1">  1       21 0.28153024E-01 0.19406182E+03</pdfrwt>
<pdfrwt beam="2">  1       21 0.40740083E-01 0.19406182E+03</pdfrwt>
<totfact> 0.69934388E+04</totfact>
</mgrwt>
</event>
<event>
 4    1  0.3957190E+000  0.1873340E+03  0.7546771E-02  0.1160888E+00
         21   -1    0    0  503  502  0.00000000000E+00  0.00000000000E+00  0.87549637496E+02  0.87549637496E+02  0.00000000000E+00 0.  1.
         21   -1    0    0  501  503 -0.00000000000E+00 -0.00000000000E+00 -0.46650184480E+03  0.46650184480E+03  0.00000000000E+00 0.  1.
          6    1    1    2  501    0  0.49114947103E+02  0.52466803476E+02 -0.29340242369E+03  0.34810777889E+03  0.17300000000E+03 0.  1.
         -6    1    1    2    0  502 -0.49114947103E+02 -0.52466803476E+02 -0.85549783612E+02  0.20594370340E+03  0.17300000000E+03 0.  1.
<mgrwt>
<rscale>  2 0.18733404E+03</rscale>
<asrwt>0</asrwt>
<pdfrwt beam="1">  1       21 0.13469176E-01 0.18733404E+03</pdfrwt>
<pdfrwt beam="2">  1       21 0.71769512E-01 0.18733404E+03</pdfrwt>
<totfact> 0.83793354E+04</totfact>
</mgrwt>
</event>
<event>
 4    1  0.3957190E+000  0.1838160E+03  0.7546771E-02  0.1164160E+00
         21   -1    0    0  501  502  0.00000000000E+00  0.00000000000E+00  0.15813553587E+03  0.15813553587E+03  0.00000000000E+00 0. -1.
         21   -1    0    0  502  503 -0.00000000000E+00 -0.00000000000E+00 -0.21955339680E+03  0.21955339680E+03  0.00000000000E+00 0. -1.
          6    1    1    2  501    0  0.52735075785E+02 -0.32837907952E+02  0.21293916022E+00  0.18381610854E+03  0.17300000000E+03 0. -1.
         -6    1    1    2    0  503 -0.52735075785E+02  0.32837907952E+02 -0.61630800094E+02  0.19387282413E+03  0.17300000000E+03 0. -1.
<mgrwt>
<rscale>  2 0.18381599E+03</rscale>
<asrwt>0</asrwt>
<pdfrwt beam="1">  1       21 0.24328544E-01 0.18381599E+03</pdfrwt>
<pdfrwt beam="2">  1       21 0.33777446E-01 0.18381599E+03</pdfrwt>
<totfact> 0.13510312E+05</totfact>
</mgrwt>
</event>
<event>
 4    1  0.3957190E+000  0.1738420E+03  0.7546771E-02  0.1173899E+00
         21   -1    0    0  503  502  0.00000000000E+00  0.00000000000E+00  0.40450758068E+02  0.40450758068E+02  0.00000000000E+00 0. -1.
         21   -1    0    0  501  503 -0.00000000000E+00 -0.00000000000E+00 -0.74977420955E+03  0.74977420955E+03  0.00000000000E+00 0. -1.
          6    1    1    2  501    0  0.18801513796E+01 -0.16985274260E+02 -0.33109473173E+03  0.37395822747E+03  0.17300000000E+03 0. -1.
         -6    1    1    2    0  502 -0.18801513796E+01  0.16985274260E+02 -0.37822871975E+03  0.41626674015E+03  0.17300000000E+03 0. -1.
<mgrwt>
<rscale>  2 0.17384198E+03</rscale>
<asrwt>0</asrwt>
<pdfrwt beam="1">  1       21 0.62231935E-02 0.17384198E+03</pdfrwt>
<pdfrwt beam="2">  1       21 0.11534988E+00 0.17384198E+03</pdfrwt>
<totfact> 0.10864287E+05</totfact>
</mgrwt>
</event>
<event>
 4    1  0.3957190E+000  0.1772243E+03  0.7546771E-02  0.1170517E+00
         21   -1    0    0  503  502  0.00000000000E+00  0.00000000000E+00  0.32644231284E+03  0.32644231284E+03  0.00000000000E+00 0. -1.
         21   -1    0    0  501  503 -0.00000000000E+00 -0.00000000000E+00 -0.29164153691E+03  0.29164153691E+03  0.00000000000E+00 0. -1.
          6    1    1    2  501    0 -0.53456815198E+01  0.38090347026E+02 -0.23557900562E+03  0.29479809826E+03  0.17300000000E+03 0. -1.
         -6    1    1    2    0  502  0.53456815198E+01 -0.38090347026E+02  0.27037978155E+03  0.32328575149E+03  0.17300000000E+03 0. -1.
<mgrwt>
<rscale>  2 0.17722430E+03</rscale>
<asrwt>0</asrwt>
<pdfrwt beam="1">  1       21 0.50221894E-01 0.17722430E+03</pdfrwt>
<pdfrwt beam="2">  1       21 0.44867929E-01 0.17722430E+03</pdfrwt>
<totfact> 0.18169658E+04</totfact>
</mgrwt>
</event>
<event>
 4    1  0.3957190E+000  0.2469114E+03  0.7546771E-02  0.1115272E+00
         21   -1    0    0  503  502  0.00000000000E+00  0.00000000000E+00  0.28964059811E+03  0.28964059811E+03  0.00000000000E+00 0. -1.
         21   -1    0    0  501  503 -0.00000000000E+00 -0.00000000000E+00 -0.41795656239E+03  0.41795656239E+03  0.00000000000E+00 0.  1.
          6    1    1    2  501    0  0.25649943139E+02 -0.17429374439E+03 -0.31342738754E+03  0.39900119822E+03  0.17300000000E+03 0.  1.
         -6    1    1    2    0  502 -0.25649943139E+02  0.17429374439E+03  0.18511142326E+03  0.30859596228E+03  0.17300000000E+03 0. -1.
<mgrwt>
<rscale>  2 0.24691138E+03</rscale>
<asrwt>0</asrwt>
<pdfrwt beam="1">  1       21 0.44560092E-01 0.24691138E+03</pdfrwt>
<pdfrwt beam="2">  1       21 0.64301010E-01 0.24691138E+03</pdfrwt>
<totfact> 0.10430247E+04</totfact>
</mgrwt>
</event>
<event>
 4    1  0.3957190E+000  0.1764928E+03  0.7546771E-02  0.1171241E+00
         21   -1    0    0  501  502  0.00000000000E+00  0.00000000000E+00  0.60847355877E+03  0.60847355877E+03  0.00000000000E+00 0. -1.
         21   -1    0    0  502  503 -0.00000000000E+00 -0.00000000000E+00 -0.53194986756E+02  0.53194986756E+02  0.00000000000E+00 0. -1.
          6    1    1    2  501    0  0.34812715209E+02 -0.29630609312E+01  0.21346150306E+03  0.27697566348E+03  0.17300000000E+03 0. -1.
         -6    1    1    2    0  503 -0.34812715209E+02  0.29630609312E+01  0.34181706895E+03  0.38469288204E+03  0.17300000000E+03 0. -1.
<mgrwt>
<rscale>  2 0.17649279E+03</rscale>
<asrwt>0</asrwt>
<pdfrwt beam="1">  1       21 0.93611312E-01 0.17649279E+03</pdfrwt>
<pdfrwt beam="2">  1       21 0.81838446E-02 0.17649279E+03</pdfrwt>
<totfact> 0.11129855E+05</totfact>
</mgrwt>
</event>
<event>
 4    1  0.3957190E+000  0.1735351E+03  0.7546771E-02  0.1174211E+00
         21   -1    0    0  501  502  0.00000000000E+00  0.00000000000E+00  0.22389540658E+03  0.22389540658E+03  0.00000000000E+00 0. -1.
         21   -1    0    0  502  503 -0.00000000000E+00 -0.00000000000E+00 -0.15115591146E+03  0.15115591146E+03  0.00000000000E+00 0. -1.
          6    1    1    2  501    0  0.74968136796E+01 -0.11368501406E+02 -0.25874965428E+02  0.17545358040E+03  0.17300000000E+03 0. -1.
         -6    1    1    2    0  503 -0.74968136796E+01  0.11368501406E+02  0.98614460547E+02  0.19959773763E+03  0.17300000000E+03 0. -1.
<mgrwt>
<rscale>  2 0.17353514E+03</rscale>
<asrwt>0</asrwt>
<pdfrwt beam="1">  1       21 0.34445447E-01 0.17353514E+03</pdfrwt>
<pdfrwt beam="2">  1       21 0.23254756E-01 0.17353514E+03</pdfrwt>
<totfact> 0.14208735E+05</totfact>
</mgrwt>
</event>
<event>
 4    1  0.3957190E+000  0.3592966E+03  0.7546771E-02  0.1058863E+00
         21   -1    0    0  501  502  0.00000000000E+00  0.00000000000E+00  0.84351973373E+02  0.84351973373E+02  0.00000000000E+00 0.  1.
         21   -1    0    0  502  503 -0.00000000000E+00 -0.00000000000E+00 -0.15567832675E+04  0.15567832675E+04  0.00000000000E+00 0. -1.
          6    1    1    2  501    0  0.10175884993E+03  0.29801038692E+03 -0.62943576129E+03  0.72476439747E+03  0.17300000000E+03 0.  1.
         -6    1    1    2    0  503 -0.10175884993E+03 -0.29801038692E+03 -0.84299553279E+03  0.91637084335E+03  0.17300000000E+03 0. -1.
<mgrwt>
<rscale>  2 0.35929661E+03</rscale>
<asrwt>0</asrwt>
<pdfrwt beam="1">  1       21 0.12977228E-01 0.35929661E+03</pdfrwt>
<pdfrwt beam="2">  1       21 0.23950510E+00 0.35929661E+03</pdfrwt>
<totfact> 0.34461910E+03</totfact>
</mgrwt>
</event>
<event>
 4    1  0.3957190E+000  0.2024267E+03  0.7546771E-02  0.1147708E+00
         21   -1    0    0  501  502  0.00000000000E+00  0.00000000000E+00  0.12157519274E+03  0.12157519274E+03  0.00000000000E+00 0.  1.
         21   -1    0    0  502  503 -0.00000000000E+00 -0.00000000000E+00 -0.83884220383E+03  0.83884220383E+03  0.00000000000E+00 0.  1.
          6    1    1    2  501    0  0.71352461592E+02 -0.77177714722E+02  0.12776047390E+02  0.20282948704E+03  0.17300000000E+03 0.  1.
         -6    1    1    2    0  503 -0.71352461592E+02  0.77177714722E+02 -0.73004305848E+03  0.75758790952E+03  0.17300000000E+03 0.  1.
<mgrwt>
<rscale>  2 0.20242671E+03</rscale>
<asrwt>0</asrwt>
<pdfrwt beam="1">  1       21 0.18703876E-01 0.20242671E+03</pdfrwt>
<pdfrwt beam="2">  1       21 0.12905265E+00 0.20242671E+03</pdfrwt>
<totfact> 0.11433801E+04</totfact>
</mgrwt>
</event>
<event>
 4    1  0.3957190E+000  0.1839507E+03  0.7546771E-02  0.1164033E+00
         21   -1    0    0  503  502  0.00000000000E+00  0.00000000000E+00  0.24219232189E+02  0.24219232189E+02  0.00000000000E+00 0. -1.
         21   -1    0    0  501  503 -0.00000000000E+00 -0.00000000000E+00 -0.15667280034E+04  0.15667280034E+04  0.00000000000E+00 0. -1.
          6    1    1    2  501    0 -0.12242161771E+00 -0.62520643131E+02 -0.10329621546E+04  0.10492133523E+04  0.17300000000E+03 0.  1.
         -6    1    1    2    0  502  0.12242161771E+00  0.62520643131E+02 -0.50954661660E+03  0.54173388328E+03  0.17300000000E+03 0.  1.
<mgrwt>
<rscale>  2 0.18395066E+03</rscale>
<asrwt>0</asrwt>
<pdfrwt beam="1">  1       21 0.37260357E-02 0.18395066E+03</pdfrwt>
<pdfrwt beam="2">  1       21 0.24103508E+00 0.18395066E+03</pdfrwt>
<totfact> 0.33378499E+04</totfact>
</mgrwt>
</event>
<event>
 4    1  0.3957190E+000  0.2404512E+03  0.7546771E-02  0.1119493E+00
         21   -1    0    0  501  502  0.00000000000E+00  0.00000000000E+00  0.42283948913E+03  0.42283948913E+03  0.00000000000E+00 0. -1.
         21   -1    0    0  502  503 -0.00000000000E+00 -0.00000000000E+00 -0.13716948043E+03  0.13716948043E+03  0.00000000000E+00 0.  1.
          6    1    1    2  501    0  0.16417508339E+03  0.30566658731E+02  0.15860141096E+03  0.28804719438E+03  0.17300000000E+03 0. -1.
         -6    1    1    2    0  503 -0.16417508339E+03 -0.30566658731E+02  0.12706859774E+03  0.27196177518E+03  0.17300000000E+03 0. -1.
<mgrwt>
<rscale>  2 0.24045120E+03</rscale>
<asrwt>0</asrwt>
<pdfrwt beam="1">  1       21 0.65052228E-01 0.24045120E+03</pdfrwt>
<pdfrwt beam="2">  1       21 0.21102997E-01 0.24045120E+03</pdfrwt>
<totfact> 0.44406733E+04</totfact>
</mgrwt>
</event>
<event>
 4    1  0.3957190E+000  0.1731784E+03  0.7546771E-02  0.1174573E+00
         21   -1    0    0  503  502  0.00000000000E+00  0.00000000000E+00  0.37095004269E+02  0.37095004269E+02  0.00000000000E+00 0.  1.
         21   -1    0    0  501  503 -0.00000000000E+00 -0.00000000000E+00 -0.22471035770E+04  0.22471035770E+04  0.00000000000E+00 0.  1.
          6    1    1    2  501    0 -0.51984829038E+01 -0.58926120860E+01 -0.20188337964E+04  0.20262479228E+04  0.17300000000E+03 0.  1.
         -6    1    1    2    0  502  0.51984829038E+01  0.58926120860E+01 -0.19117477629E+03  0.25795065844E+03  0.17300000000E+03 0.  1.
<mgrwt>
<rscale>  2 0.17317837E+03</rscale>
<asrwt>0</asrwt>
<pdfrwt beam="1">  1       21 0.57069223E-02 0.17317837E+03</pdfrwt>
<pdfrwt beam="2">  1       21 0.34570833E+00 0.17317837E+03</pdfrwt>
<totfact> 0.40880079E+03</totfact>
</mgrwt>
</event>
<event>
 4    1  0.3957190E+000  0.3011908E+03  0.7546771E-02  0.1084647E+00
         21   -1    0    0  503  502  0.00000000000E+00  0.00000000000E+00  0.17960995932E+04  0.17960995932E+04  0.00000000000E+00 0.  1.
         21   -1    0    0  501  503 -0.00000000000E+00 -0.00000000000E+00 -0.87255456179E+02  0.87255456179E+02  0.00000000000E+00 0.  1.
          6    1    1    2  501    0 -0.20351977650E+03  0.13916385836E+03  0.24330481196E+03  0.38718614441E+03  0.17300000000E+03 0.  1.
         -6    1    1    2    0  502  0.20351977650E+03 -0.13916385836E+03  0.14655393251E+04  0.14961689050E+04  0.17300000000E+03 0.  1.
<mgrwt>
<rscale>  2 0.30119077E+03</rscale>
<asrwt>0</asrwt>
<pdfrwt beam="1">  1       21 0.27632299E+00 0.30119077E+03</pdfrwt>
<pdfrwt beam="2">  1       21 0.13423918E-01 0.30119077E+03</pdfrwt>
<totfact> 0.20203766E+03</totfact>
</mgrwt>
</event>
<event>
 4    1  0.3957190E+000  0.1774779E+03  0.7546771E-02  0.1170267E+00
         21   -1    0    0  501  502  0.00000000000E+00  0.00000000000E+00  0.40079307673E+03  0.40079307673E+03  0.00000000000E+00 0.  1.
         21   -1    0    0  502  503 -0.00000000000E+00 -0.00000000000E+00 -0.14669114380E+03  0.14669114380E+03  0.00000000000E+00 0.  1.
          6    1    1    2  501    0  0.33126758413E+02  0.21726023646E+02  0.31356704470E+03  0.36030916412E+03  0.17300000000E+03 0.  1.
         -6    1    1    2    0  503 -0.33126758413E+02 -0.21726023646E+02 -0.59465111770E+02  0.18717505642E+03  0.17300000000E+03 0.  1.
<mgrwt>
<rscale>  2 0.17747789E+03</rscale>
<asrwt>0</asrwt>
<pdfrwt beam="1">  1       21 0.61660473E-01 0.17747789E+03</pdfrwt>
<pdfrwt beam="2">  1       21 0.22567868E-01 0.17747789E+03</pdfrwt>
<totfact> 0.45285585E+04</totfact>
</mgrwt>
</event>
<event>
 4    1  0.3957190E+000  0.1744954E+03  0.7546771E-02  0.1173239E+00
         21   -1    0    0  503  502  0.00000000000E+00  0.00000000000E+00  0.12518390529E+03  0.12518390529E+03  0.00000000000E+00 0. -1.
         21   -1    0    0  501  503 -0.00000000000E+00 -0.00000000000E+00 -0.30812945328E+03  0.30812945328E+03  0.00000000000E+00 0. -1.
          6    1    1    2  501    0 -0.19426355013E+02  0.11927515933E+02 -0.19090370699E+03  0.25863656789E+03  0.17300000000E+03 0. -1.
         -6    1    1    2    0  502  0.19426355013E+02 -0.11927515933E+02  0.79581590023E+01  0.17467679067E+03  0.17300000000E+03 0. -1.
<mgrwt>
<rscale>  2 0.17449541E+03</rscale>
<asrwt>0</asrwt>
<pdfrwt beam="1">  1       21 0.19259063E-01 0.17449541E+03</pdfrwt>
<pdfrwt beam="2">  1       21 0.47404531E-01 0.17449541E+03</pdfrwt>
<totfact> 0.10613803E+05</totfact>
</mgrwt>
</event>
<event>
 4    1  0.3957190E+000  0.1856155E+03  0.7546771E-02  0.1162476E+00
         21   -1    0    0  501  502  0.00000000000E+00  0.00000000000E+00  0.11392518976E+04  0.11392518976E+04  0.00000000000E+00 0. -1.
         21   -1    0    0  502  503 -0.00000000000E+00 -0.00000000000E+00 -0.73715258080E+02  0.73715258080E+02  0.00000000000E+00 0. -1.
          6    1    1    2  501    0 -0.65160512962E+02  0.16679900012E+02  0.99851747745E+03  0.10156230916E+04  0.17300000000E+03 0. -1.
         -6    1    1    2    0  503  0.65160512962E+02 -0.16679900012E+02  0.67019162031E+02  0.19734406399E+03  0.17300000000E+03 0. -1.
<mgrwt>
<rscale>  2 0.18561549E+03</rscale>
<asrwt>0</asrwt>
<pdfrwt beam="1">  1       21 0.17526951E+00 0.18561549E+03</pdfrwt>
<pdfrwt beam="2">  1       21 0.11340810E-01 0.18561549E+03</pdfrwt>
<totfact> 0.12796874E+04</totfact>
</mgrwt>
</event>
<event>
 4    1  0.3957190E+000  0.1859967E+03  0.7546771E-02  0.1162122E+00
         21   -1    0    0  503  502  0.00000000000E+00  0.00000000000E+00  0.34207743954E+03  0.34207743954E+03  0.00000000000E+00 0.  1.
         21   -1    0    0  501  503 -0.00000000000E+00 -0.00000000000E+00 -0.21001649226E+03  0.21001649226E+03  0.00000000000E+00 0.  1.
          6    1    1    2  501    0 -0.12463628539E+02  0.67159623596E+02 -0.13273482567E+03  0.22850227794E+03  0.17300000000E+03 0.  1.
         -6    1    1    2    0  502  0.12463628539E+02 -0.67159623596E+02  0.26479577295E+03  0.32359165386E+03  0.17300000000E+03 0.  1.
<mgrwt>
<rscale>  2 0.18599666E+03</rscale>
<asrwt>0</asrwt>
<pdfrwt beam="1">  1       21 0.52627299E-01 0.18599666E+03</pdfrwt>
<pdfrwt beam="2">  1       21 0.32310229E-01 0.18599666E+03</pdfrwt>
<totfact> 0.31658457E+04</totfact>
</mgrwt>
</event>
<event>
 4    1  0.3957190E+000  0.2315615E+03  0.7546771E-02  0.1125546E+00
         21   -1    0    0  503  502  0.00000000000E+00  0.00000000000E+00  0.16645573944E+03  0.16645573944E+03  0.00000000000E+00 0.  1.
         21   -1    0    0  501  503 -0.00000000000E+00 -0.00000000000E+00 -0.35925812187E+03  0.35925812187E+03  0.00000000000E+00 0.  1.
          6    1    1    2  501    0  0.13914189048E+03 -0.65812380812E+02 -0.18090093739E+03  0.29384670205E+03  0.17300000000E+03 0.  1.
         -6    1    1    2    0  502 -0.13914189048E+03  0.65812380812E+02 -0.11901445042E+02  0.23186715927E+03  0.17300000000E+03 0.  1.
<mgrwt>
<rscale>  2 0.23156151E+03</rscale>
<asrwt>0</asrwt>
<pdfrwt beam="1">  1       21 0.25608575E-01 0.23156151E+03</pdfrwt>
<pdfrwt beam="2">  1       21 0.55270480E-01 0.23156151E+03</pdfrwt>
<totfact> 0.43831646E+04</totfact>
</mgrwt>
</event>
<event>
 4    1  0.3957190E+000  0.2856097E+03  0.7546771E-02  0.1092664E+00
         21   -1    0    0  503  502  0.00000000000E+00  0.00000000000E+00  0.95798286150E+03  0.95798286150E+03  0.00000000000E+00 0. -1.
         21   -1    0    0  501  503 -0.00000000000E+00 -0.00000000000E+00 -0.90363424321E+02  0.90363424321E+02  0.00000000000E+00 0.  1.
          6    1    1    2  501    0  0.23012637261E+02  0.22608480088E+03  0.30791413906E+03  0.41998099445E+03  0.17300000000E+03 0.  1.
         -6    1    1    2    0  502 -0.23012637261E+02 -0.22608480088E+03  0.55970529812E+03  0.62836529138E+03  0.17300000000E+03 0. -1.
<mgrwt>
<rscale>  2 0.28560973E+03</rscale>
<asrwt>0</asrwt>
<pdfrwt beam="1">  1       21 0.14738197E+00 0.28560973E+03</pdfrwt>
<pdfrwt beam="2">  1       21 0.13902066E-01 0.28560973E+03</pdfrwt>
<totfact> 0.13326749E+04</totfact>
</mgrwt>
</event>
<event>
 4    1  0.3957190E+000  0.1893479E+03  0.7546771E-02  0.1159051E+00
         21   -1    0    0  503  502  0.00000000000E+00  0.00000000000E+00  0.34974853983E+03  0.34974853983E+03  0.00000000000E+00 0.  1.
         21   -1    0    0  501  503 -0.00000000000E+00 -0.00000000000E+00 -0.17535528261E+03  0.17535528261E+03  0.00000000000E+00 0.  1.
          6    1    1    2  501    0 -0.28800121794E+02  0.71373440738E+02 -0.82025592856E+02  0.20635118837E+03  0.17300000000E+03 0.  1.
         -6    1    1    2    0  502  0.28800121794E+02 -0.71373440738E+02  0.25641885007E+03  0.31875263408E+03  0.17300000000E+03 0.  1.
<mgrwt>
<rscale>  2 0.18934787E+03</rscale>
<asrwt>0</asrwt>
<pdfrwt beam="1">  1       21 0.53807468E-01 0.18934787E+03</pdfrwt>
<pdfrwt beam="2">  1       21 0.26977736E-01 0.18934787E+03</pdfrwt>
<totfact> 0.42835018E+04</totfact>
</mgrwt>
</event>
<event>
 4    1  0.3957190E+000  0.1801528E+03  0.7546771E-02  0.1167655E+00
         21   -1    0    0  501  502  0.00000000000E+00  0.00000000000E+00  0.93366213956E+02  0.93366213956E+02  0.00000000000E+00 0.  1.
         21   -1    0    0  502  503 -0.00000000000E+00 -0.00000000000E+00 -0.36212515615E+03  0.36212515615E+03  0.00000000000E+00 0.  1.
          6    1    1    2  501    0 -0.46603721024E+02  0.18818524183E+02 -0.17997575168E+03  0.25464939595E+03  0.17300000000E+03 0.  1.
         -6    1    1    2    0  503  0.46603721024E+02 -0.18818524183E+02 -0.88783190521E+02  0.20084197416E+03  0.17300000000E+03 0.  1.
<mgrwt>
<rscale>  2 0.18015283E+03</rscale>
<asrwt>0</asrwt>
<pdfrwt beam="1">  1       21 0.14364033E-01 0.18015283E+03</pdfrwt>
<pdfrwt beam="2">  1       21 0.55711563E-01 0.18015283E+03</pdfrwt>
<totfact> 0.12939053E+05</totfact>
</mgrwt>
</event>
<event>
 4    1  0.3957190E+000  0.3826395E+03  0.7546771E-02  0.1049962E+00
         21   -1    0    0  503  502  0.00000000000E+00  0.00000000000E+00  0.12032284214E+04  0.12032284214E+04  0.00000000000E+00 0.  1.
         21   -1    0    0  501  503 -0.00000000000E+00 -0.00000000000E+00 -0.14224402639E+03  0.14224402639E+03  0.00000000000E+00 0. -1.
          6    1    1    2  501    0 -0.28808916538E+03  0.18299892384E+03  0.27472458838E+03  0.47104837628E+03  0.17300000000E+03 0. -1.
         -6    1    1    2    0  502  0.28808916538E+03 -0.18299892384E+03  0.78625980667E+03  0.87442407156E+03  0.17300000000E+03 0.  1.
<mgrwt>
<rscale>  2 0.38263948E+03</rscale>
<asrwt>0</asrwt>
<pdfrwt beam="1">  1       21 0.18511206E+00 0.38263948E+03</pdfrwt>
<pdfrwt beam="2">  1       21 0.21883697E-01 0.38263948E+03</pdfrwt>
<totfact> 0.28836333E+03</totfact>
</mgrwt>
</event>
<event>
 4    1  0.3957190E+000  0.3436605E+03  0.7546771E-02  0.1065248E+00
         21   -1    0    0  501  502  0.00000000000E+00  0.00000000000E+00  0.46001949167E+03  0.46001949167E+03  0.00000000000E+00 0. -1.
         21   -1    0    0  502  503 -0.00000000000E+00 -0.00000000000E+00 -0.27668519249E+03  0.27668519249E+03  0.00000000000E+00 0.  1.
          6    1    1    2  501    0  0.19284732840E+03  0.22579514856E+03  0.19058105352E+03  0.39296778385E+03  0.17300000000E+03 0. -1.
         -6    1    1    2    0  503 -0.19284732840E+03 -0.22579514856E+03 -0.72467543376E+01  0.34373690030E+03  0.17300000000E+03 0.  1.
<mgrwt>
<rscale>  2 0.34366050E+03</rscale>
<asrwt>0</asrwt>
<pdfrwt beam="1">  1       21 0.70772229E-01 0.34366050E+03</pdfrwt>
<pdfrwt beam="2">  1       21 0.42566953E-01 0.34366050E+03</pdfrwt>
<totfact> 0.88604272E+03</totfact>
</mgrwt>
</event>
<event>
 4    1  0.3957190E+000  0.2155729E+03  0.7546771E-02  0.1137227E+00
         21   -1    0    0  501  502  0.00000000000E+00  0.00000000000E+00  0.15512336897E+03  0.15512336897E+03  0.00000000000E+00 0.  1.
         21   -1    0    0  502  503 -0.00000000000E+00 -0.00000000000E+00 -0.35835458967E+03  0.35835458967E+03  0.00000000000E+00 0.  1.
          6    1    1    2  501    0  0.96823171278E+02  0.84663780841E+02 -0.20559190426E+03  0.29789211701E+03  0.17300000000E+03 0.  1.
         -6    1    1    2    0  503 -0.96823171278E+02 -0.84663780841E+02  0.23606835591E+01  0.21558584163E+03  0.17300000000E+03 0.  1.
<mgrwt>
<rscale>  2 0.21557292E+03</rscale>
<asrwt>0</asrwt>
<pdfrwt beam="1">  1       21 0.23865134E-01 0.21557292E+03</pdfrwt>
<pdfrwt beam="2">  1       21 0.55131475E-01 0.21557292E+03</pdfrwt>
<totfact> 0.50796560E+04</totfact>
</mgrwt>
</event>
<event>
 4    1  0.3957190E+000  0.2282551E+03  0.7546771E-02  0.1127874E+00
         21   -1    0    0  503  502  0.00000000000E+00  0.00000000000E+00  0.10986778311E+04  0.10986778311E+04  0.00000000000E+00 0. -1.
         21   -1    0    0  501  503 -0.00000000000E+00 -0.00000000000E+00 -0.47448913142E+02  0.47448913142E+02  0.00000000000E+00 0.  1.
          6    1    1    2  501    0 -0.14095548104E+03 -0.47989144661E+02  0.53951283516E+03  0.58581098056E+03  0.17300000000E+03 0.  1.
         -6    1    1    2    0  502  0.14095548104E+03  0.47989144661E+02  0.51171608281E+03  0.56031576370E+03  0.17300000000E+03 0. -1.
<mgrwt>
<rscale>  2 0.22825513E+03</rscale>
<asrwt>0</asrwt>
<pdfrwt beam="1">  1       21 0.16902734E+00 0.22825513E+03</pdfrwt>
<pdfrwt beam="2">  1       21 0.72998337E-02 0.22825513E+03</pdfrwt>
<totfact> 0.29823416E+04</totfact>
</mgrwt>
</event>
<event>
 4    1  0.3957190E+000  0.2661404E+03  0.7546771E-02  0.1103509E+00
         21   -1    0    0  503  502  0.00000000000E+00  0.00000000000E+00  0.15021642616E+04  0.15021642616E+04  0.00000000000E+00 0. -1.
         21   -1    0    0  501  503 -0.00000000000E+00 -0.00000000000E+00 -0.16524849895E+03  0.16524849895E+03  0.00000000000E+00 0.  1.
          6    1    1    2  501    0 -0.20082450177E+03 -0.23901013565E+02 -0.36335846842E+02  0.26860944273E+03  0.17300000000E+03 0.  1.
         -6    1    1    2    0  502  0.20082450177E+03  0.23901013565E+02  0.13732516095E+04  0.13988033178E+04  0.17300000000E+03 0. -1.
<mgrwt>
<rscale>  2 0.26614045E+03</rscale>
<asrwt>0</asrwt>
<pdfrwt beam="1">  1       21 0.23110219E+00 0.26614045E+03</pdfrwt>
<pdfrwt beam="2">  1       21 0.25422847E-01 0.26614045E+03</pdfrwt>
<totfact> 0.11737591E+03</totfact>
</mgrwt>
</event>
<event>
 4    1  0.3957190E+000  0.1965960E+03  0.7546771E-02  0.1152643E+00
         21   -1    0    0  503  502  0.00000000000E+00  0.00000000000E+00  0.20592033978E+03  0.20592033978E+03  0.00000000000E+00 0. -1.
         21   -1    0    0  501  503 -0.00000000000E+00 -0.00000000000E+00 -0.32029205686E+03  0.32029205686E+03  0.00000000000E+00 0. -1.
          6    1    1    2  501    0 -0.61400755989E+02  0.70362937289E+02 -0.22647406590E+03  0.29990081411E+03  0.17300000000E+03 0. -1.
         -6    1    1    2    0  502  0.61400755989E+02 -0.70362937289E+02  0.11210234881E+03  0.22631158253E+03  0.17300000000E+03 0. -1.
<mgrwt>
<rscale>  2 0.19659602E+03</rscale>
<asrwt>0</asrwt>
<pdfrwt beam="1">  1       21 0.31680052E-01 0.19659602E+03</pdfrwt>
<pdfrwt beam="2">  1       21 0.49275701E-01 0.19659602E+03</pdfrwt>
<totfact> 0.37550947E+04</totfact>
</mgrwt>
</event>
<event>
 4    1  0.3957190E+000  0.1751557E+03  0.7546771E-02  0.1172575E+00
         21   -1    0    0  501  502  0.00000000000E+00  0.00000000000E+00  0.40468340714E+02  0.40468340714E+02  0.00000000000E+00 0.  1.
         21   -1    0    0  502  503 -0.00000000000E+00 -0.00000000000E+00 -0.89097630477E+03  0.89097630477E+03  0.00000000000E+00 0.  1.
          6    1    1    2  501    0 -0.66661665744E+01  0.26572270804E+02 -0.24540888760E+03  0.30150463589E+03  0.17300000000E+03 0.  1.
         -6    1    1    2    0  503  0.66661665744E+01 -0.26572270804E+02 -0.60509907646E+03  0.62994000959E+03  0.17300000000E+03 0.  1.
<mgrwt>
<rscale>  2 0.17515571E+03</rscale>
<asrwt>0</asrwt>
<pdfrwt beam="1">  1       21 0.62258991E-02 0.17515571E+03</pdfrwt>
<pdfrwt beam="2">  1       21 0.13707327E+00 0.17515571E+03</pdfrwt>
<totfact> 0.70551736E+04</totfact>
</mgrwt>
</event>
<event>
 4    1  0.3957190E+000  0.2200476E+03  0.7546771E-02  0.1133848E+00
         21   -1    0    0  503  502  0.00000000000E+00  0.00000000000E+00  0.64412355227E+03  0.64412355227E+03  0.00000000000E+00 0.  1.
         21   -1    0    0  501  503 -0.00000000000E+00 -0.00000000000E+00 -0.75481799781E+02  0.75481799781E+02  0.00000000000E+00 0.  1.
          6    1    1    2  501    0 -0.12239459226E+02 -0.13543316144E+03  0.26132164784E+03  0.34162837881E+03  0.17300000000E+03 0.  1.
         -6    1    1    2    0  502  0.12239459226E+02  0.13543316144E+03  0.30732010464E+03  0.37797697324E+03  0.17300000000E+03 0.  1.
<mgrwt>
<rscale>  2 0.22004760E+03</rscale>
<asrwt>0</asrwt>
<pdfrwt beam="1">  1       21 0.99095927E-01 0.22004760E+03</pdfrwt>
<pdfrwt beam="2">  1       21 0.11612585E-01 0.22004760E+03</pdfrwt>
<totfact> 0.51492845E+04</totfact>
</mgrwt>
</event>
<event>
 4    1  0.3957190E+000  0.2280344E+03  0.7546771E-02  0.1128031E+00
         21   -1    0    0  501  502  0.00000000000E+00  0.00000000000E+00  0.87432720084E+03  0.87432720084E+03  0.00000000000E+00 0. -1.
         21   -1    0    0  502  503 -0.00000000000E+00 -0.00000000000E+00 -0.60449010752E+02  0.60449010752E+02  0.00000000000E+00 0. -1.
          6    1    1    2  501    0 -0.10683379984E+03  0.10323382351E+03  0.46630009643E+03  0.51907173207E+03  0.17300000000E+03 0. -1.
         -6    1    1    2    0  503  0.10683379984E+03 -0.10323382351E+03  0.34757809366E+03  0.41570447952E+03  0.17300000000E+03 0. -1.
<mgrwt>
<rscale>  2 0.22803439E+03</rscale>
<asrwt>0</asrwt>
<pdfrwt beam="1">  1       21 0.13451187E+00 0.22803439E+03</pdfrwt>
<pdfrwt beam="2">  1       21 0.92998484E-02 0.22803439E+03</pdfrwt>
<totfact> 0.35845102E+04</totfact>
</mgrwt>
</event>
<event>
 4    1  0.3957190E+000  0.2501810E+03  0.7546771E-02  0.1113190E+00
         21   -1    0    0  501  502  0.00000000000E+00  0.00000000000E+00  0.13282619788E+03  0.13282619788E+03  0.00000000000E+00 0.  1.
         21   -1    0    0  502  503 -0.00000000000E+00 -0.00000000000E+00 -0.51015573120E+03  0.51015573120E+03  0.00000000000E+00 0. -1.
          6    1    1    2  501    0  0.38003806089E+02  0.17668408207E+03 -0.99850354978E+02  0.26937083644E+03  0.17300000000E+03 0.  1.
         -6    1    1    2    0  503 -0.38003806089E+02 -0.17668408207E+03 -0.27747917834E+03  0.37361109265E+03  0.17300000000E+03 0. -1.
<mgrwt>
<rscale>  2 0.25018104E+03</rscale>
<asrwt>0</asrwt>
<pdfrwt beam="1">  1       21 0.20434800E-01 0.25018104E+03</pdfrwt>
<pdfrwt beam="2">  1       21 0.78485497E-01 0.25018104E+03</pdfrwt>
<totfact> 0.30927875E+04</totfact>
</mgrwt>
</event>
<event>
 4    1  0.3957190E+000  0.1756155E+03  0.7546771E-02  0.1172115E+00
         21   -1    0    0  501  502  0.00000000000E+00  0.00000000000E+00  0.30801137833E+02  0.30801137833E+02  0.00000000000E+00 0. -1.
         21   -1    0    0  502  503 -0.00000000000E+00 -0.00000000000E+00 -0.16706446370E+04  0.16706446370E+04  0.00000000000E+00 0. -1.
          6    1    1    2  501    0  0.41106251954E+01  0.29914899277E+02 -0.28143504840E+03  0.33173255026E+03  0.17300000000E+03 0. -1.
         -6    1    1    2    0  503 -0.41106251954E+01 -0.29914899277E+02 -0.13584084508E+04  0.13697132246E+04  0.17300000000E+03 0. -1.
<mgrwt>
<rscale>  2 0.17561548E+03</rscale>
<asrwt>0</asrwt>
<pdfrwt beam="1">  1       21 0.47386350E-02 0.17561548E+03</pdfrwt>
<pdfrwt beam="2">  1       21 0.25702234E+00 0.17561548E+03</pdfrwt>
<totfact> 0.18102651E+04</totfact>
</mgrwt>
</event>
<event>
 4    1  0.3957190E+000  0.1759192E+03  0.7546771E-02  0.1171812E+00
         21   -1    0    0  503  502  0.00000000000E+00  0.00000000000E+00  0.10941501139E+03  0.10941501139E+03  0.00000000000E+00 0.  1.
         21   -1    0    0  501  503 -0.00000000000E+00 -0.00000000000E+00 -0.28622016836E+03  0.28622016836E+03  0.00000000000E+00 0.  1.
          6    1    1    2  501    0  0.16509506150E+02 -0.27313131906E+02 -0.10988158780E+03  0.20741633086E+03  0.17300000000E+03 0.  1.
         -6    1    1    2    0  502 -0.16509506150E+02  0.27313131906E+02 -0.66923569178E+02  0.18821884890E+03  0.17300000000E+03 0.  1.
<mgrwt>
<rscale>  2 0.17591922E+03</rscale>
<asrwt>0</asrwt>
<pdfrwt beam="1">  1       21 0.16833079E-01 0.17591922E+03</pdfrwt>
<pdfrwt beam="2">  1       21 0.44033872E-01 0.17591922E+03</pdfrwt>
<totfact> 0.15823122E+05</totfact>
</mgrwt>
</event>
<event>
 4    1  0.3957190E+000  0.2241595E+03  0.7546771E-02  0.1130819E+00
         21   -1    0    0  501  502  0.00000000000E+00  0.00000000000E+00  0.14687652225E+04  0.14687652225E+04  0.00000000000E+00 0. -1.
         21   -1    0    0  502  503 -0.00000000000E+00 -0.00000000000E+00 -0.49321899742E+02  0.49321899742E+02  0.00000000000E+00 0. -1.
          6    1    1    2  501    0  0.14071139416E+03 -0.22777338520E+02  0.11298636700E+04  0.11518851576E+04  0.17300000000E+03 0. -1.
         -6    1    1    2    0  503 -0.14071139416E+03  0.22777338520E+02  0.28957965281E+03  0.36620196465E+03  0.17300000000E+03 0. -1.
<mgrwt>
<rscale>  2 0.22415955E+03</rscale>
<asrwt>0</asrwt>
<pdfrwt beam="1">  1       21 0.22596385E+00 0.22415955E+03</pdfrwt>
<pdfrwt beam="2">  1       21 0.75879857E-02 0.22415955E+03</pdfrwt>
<totfact> 0.11854318E+04</totfact>
</mgrwt>
</event>
<event>
 4    1  0.3957190E+000  0.1916932E+03  0.7546771E-02  0.1156943E+00
         21   -1    0    0  501  502  0.00000000000E+00  0.00000000000E+00  0.53461884274E+03  0.53461884274E+03  0.00000000000E+00 0. -1.
         21   -1    0    0  502  503 -0.00000000000E+00 -0.00000000000E+00 -0.27235908307E+03  0.27235908307E+03  0.00000000000E+00 0. -1.
          6    1    1    2  501    0 -0.73224106568E+02  0.38151399748E+02  0.48001042227E+03  0.51687165193E+03  0.17300000000E+03 0. -1.
         -6    1    1    2    0  503  0.73224106568E+02 -0.38151399748E+02 -0.21775066259E+03  0.29010627388E+03  0.17300000000E+03 0. -1.
<mgrwt>
<rscale>  2 0.19169324E+03</rscale>
<asrwt>0</asrwt>
<pdfrwt beam="1">  1       21 0.82249053E-01 0.19169324E+03</pdfrwt>
<pdfrwt beam="2">  1       21 0.41901397E-01 0.19169324E+03</pdfrwt>
<totfact> 0.70863664E+03</totfact>
</mgrwt>
</event>
<event>
 4    1  0.3957190E+000  0.1939787E+03  0.7546771E-02  0.1154921E+00
         21   -1    0    0  501  502  0.00000000000E+00  0.00000000000E+00  0.10066658660E+03  0.10066658660E+03  0.00000000000E+00 0.  1.
         21   -1    0    0  502  503 -0.00000000000E+00 -0.00000000000E+00 -0.37458514089E+03  0.37458514089E+03  0.00000000000E+00 0.  1.
          6    1    1    2  501    0 -0.26301422390E+01 -0.87702954861E+02 -0.12598125701E+03  0.23129851504E+03  0.17300000000E+03 0.  1.
         -6    1    1    2    0  503  0.26301422390E+01  0.87702954861E+02 -0.14793729728E+03  0.24395321245E+03  0.17300000000E+03 0.  1.
<mgrwt>
<rscale>  2 0.19397867E+03</rscale>
<asrwt>0</asrwt>
<pdfrwt beam="1">  1       21 0.15487167E-01 0.19397867E+03</pdfrwt>
<pdfrwt beam="2">  1       21 0.57628483E-01 0.19397867E+03</pdfrwt>
<totfact> 0.10448925E+05</totfact>
</mgrwt>
</event>
<event>
 4    1  0.3957190E+000  0.1895649E+03  0.7546771E-02  0.1158854E+00
         21   -1    0    0  503  502  0.00000000000E+00  0.00000000000E+00  0.48812078485E+02  0.48812078485E+02  0.00000000000E+00 0. -1.
         21   -1    0    0  501  503 -0.00000000000E+00 -0.00000000000E+00 -0.80031460099E+03  0.80031460099E+03  0.00000000000E+00 0. -1.
          6    1    1    2  501    0  0.41271998475E+02 -0.65593245314E+02 -0.49593127636E+03  0.53092624964E+03  0.17300000000E+03 0. -1.
         -6    1    1    2    0  502 -0.41271998475E+02  0.65593245314E+02 -0.25557124614E+03  0.31820042983E+03  0.17300000000E+03 0. -1.
<mgrwt>
<rscale>  2 0.18956490E+03</rscale>
<asrwt>0</asrwt>
<pdfrwt beam="1">  1       21 0.75095510E-02 0.18956490E+03</pdfrwt>
<pdfrwt beam="2">  1       21 0.12312532E+00 0.18956490E+03</pdfrwt>
<totfact> 0.66454310E+04</totfact>
</mgrwt>
</event>
<event>
 4    1  0.3957190E+000  0.2180640E+03  0.7546771E-02  0.1135335E+00
         21   -1    0    0  501  502  0.00000000000E+00  0.00000000000E+00  0.36146425545E+04  0.36146425545E+04  0.00000000000E+00 0.  1.
         21   -1    0    0  502  503 -0.00000000000E+00 -0.00000000000E+00 -0.19301363600E+02  0.19301363600E+02  0.00000000000E+00 0.  1.
          6    1    1    2  501    0  0.78544428627E+02 -0.10702180322E+03  0.28229705347E+04  0.28313803230E+04  0.17300000000E+03 0.  1.
         -6    1    1    2    0  503 -0.78544428627E+02  0.10702180322E+03  0.77237065617E+03  0.80256359508E+03  0.17300000000E+03 0.  1.
<mgrwt>
<rscale>  2 0.21806397E+03</rscale>
<asrwt>0</asrwt>
<pdfrwt beam="1">  1       21 0.55609831E+00 0.21806397E+03</pdfrwt>
<pdfrwt beam="2">  1       21 0.29694434E-02 0.21806397E+03</pdfrwt>
<totfact> 0.45771202E+02</totfact>
</mgrwt>
</event>
<event>
 4    1  0.3957190E+000  0.1769201E+03  0.7546771E-02  0.1170818E+00
         21   -1    0    0  501  502  0.00000000000E+00  0.00000000000E+00  0.40047264302E+02  0.40047264302E+02  0.00000000000E+00 0.  1.
         21   -1    0    0  502  503 -0.00000000000E+00 -0.00000000000E+00 -0.93455861470E+03  0.93455861470E+03  0.00000000000E+00 0.  1.
          6    1    1    2  501    0 -0.36671631104E+02 -0.51877413921E+01 -0.64440284600E+03  0.66824826908E+03  0.17300000000E+03 0.  1.
         -6    1    1    2    0  503  0.36671631104E+02  0.51877413921E+01 -0.25010850440E+03  0.30635760993E+03  0.17300000000E+03 0.  1.
<mgrwt>
<rscale>  2 0.17692010E+03</rscale>
<asrwt>0</asrwt>
<pdfrwt beam="1">  1       21 0.61611177E-02 0.17692010E+03</pdfrwt>
<pdfrwt beam="2">  1       21 0.14377825E+00 0.17692010E+03</pdfrwt>
<totfact> 0.63448298E+04</totfact>
</mgrwt>
</event>
<event>
 4    1  0.3957190E+000  0.1940789E+03  0.7546771E-02  0.1154833E+00
         21   -1    0    0  503  502  0.00000000000E+00  0.00000000000E+00  0.47504724948E+03  0.47504724948E+03  0.00000000000E+00 0. -1.
         21   -1    0    0  501  503 -0.00000000000E+00 -0.00000000000E+00 -0.22176669158E+03  0.22176669158E+03  0.00000000000E+00 0.  1.
          6    1    1    2  501    0 -0.86881115510E+02  0.13758902545E+02 -0.15262062588E+03  0.24690016419E+03  0.17300000000E+03 0.  1.
         -6    1    1    2    0  502  0.86881115510E+02 -0.13758902545E+02  0.40590118378E+03  0.44991377688E+03  0.17300000000E+03 0. -1.
<mgrwt>
<rscale>  2 0.19407894E+03</rscale>
<asrwt>0</asrwt>
<pdfrwt beam="1">  1       21 0.73084192E-01 0.19407894E+03</pdfrwt>
<pdfrwt beam="2">  1       21 0.34117953E-01 0.19407894E+03</pdfrwt>
<totfact> 0.13929517E+04</totfact>
</mgrwt>
</event>
<event>
 4    1  0.3957190E+000  0.1865065E+03  0.7546771E-02  0.1161650E+00
         21   -1    0    0  503  502  0.00000000000E+00  0.00000000000E+00  0.33531250592E+03  0.33531250592E+03  0.00000000000E+00 0. -1.
         21   -1    0    0  501  503 -0.00000000000E+00 -0.00000000000E+00 -0.11111823120E+03  0.11111823120E+03  0.00000000000E+00 0. -1.
          6    1    1    2  501    0  0.23552769579E+02  0.65581634581E+02  0.16962302712E+03  0.25210445272E+03  0.17300000000E+03 0. -1.
         -6    1    1    2    0  502 -0.23552769579E+02 -0.65581634581E+02  0.54571247596E+02  0.19432628441E+03  0.17300000000E+03 0. -1.
<mgrwt>
<rscale>  2 0.18650652E+03</rscale>
<asrwt>0</asrwt>
<pdfrwt beam="1">  1       21 0.51586539E-01 0.18650652E+03</pdfrwt>
<pdfrwt beam="2">  1       21 0.17095113E-01 0.18650652E+03</pdfrwt>
<totfact> 0.11047109E+05</totfact>
</mgrwt>
</event>
<event>
 4    1  0.3957190E+000  0.3022125E+03  0.7546771E-02  0.1084140E+00
         21   -1    0    0  501  502  0.00000000000E+00  0.00000000000E+00  0.27278015232E+04  0.27278015232E+04  0.00000000000E+00 0.  1.
         21   -1    0    0  502  503 -0.00000000000E+00 -0.00000000000E+00 -0.35816915228E+02  0.35816915228E+02  0.00000000000E+00 0. -1.
          6    1    1    2  501    0 -0.21437914268E+03 -0.12427773522E+03  0.16987978523E+04  0.17254699404E+04  0.17300000000E+03 0.  1.
         -6    1    1    2    0  503  0.21437914268E+03  0.12427773522E+03  0.99318675567E+03  0.10381484980E+04  0.17300000000E+03 0. -1.
<mgrwt>
<rscale>  2 0.30221246E+03</rscale>
<asrwt>0</asrwt>
<pdfrwt beam="1">  1       21 0.41966161E+00 0.30221246E+03</pdfrwt>
<pdfrwt beam="2">  1       21 0.55102968E-02 0.30221246E+03</pdfrwt>
<totfact> 0.13101952E+03</totfact>
</mgrwt>
</event>
<event>
 4    1  0.3957190E+000  0.1963403E+03  0.7546771E-02  0.1152864E+00
         21   -1    0    0  501  502  0.00000000000E+00  0.00000000000E+00  0.18523216159E+03  0.18523216159E+03  0.00000000000E+00 0. -1.
         21   -1    0    0  502  503 -0.00000000000E+00 -0.00000000000E+00 -0.22558799114E+03  0.22558799114E+03  0.00000000000E+00 0. -1.
          6    1    1    2  501    0  0.92807890457E+02 -0.26849894704E+01  0.36990031522E+02  0.19979433458E+03  0.17300000000E+03 0. -1.
         -6    1    1    2    0  503 -0.92807890457E+02  0.26849894704E+01 -0.77345861072E+02  0.21102581815E+03  0.17300000000E+03 0. -1.
<mgrwt>
<rscale>  2 0.19634030E+03</rscale>
<asrwt>0</asrwt>
<pdfrwt beam="1">  1       21 0.28497256E-01 0.19634030E+03</pdfrwt>
<pdfrwt beam="2">  1       21 0.34705845E-01 0.19634030E+03</pdfrwt>
<totfact> 0.94090096E+04</totfact>
</mgrwt>
</event>
<event>
 4    1  0.3957190E+000  0.1777088E+03  0.7546771E-02  0.1170039E+00
         21   -1    0    0  501  502  0.00000000000E+00  0.00000000000E+00  0.18148259282E+03  0.18148259282E+03  0.00000000000E+00 0. -1.
         21   -1    0    0  502  503 -0.00000000000E+00 -0.00000000000E+00 -0.15184294227E+04  0.15184294227E+04  0.00000000000E+00 0. -1.
          6    1    1    2  501    0 -0.31978898420E+02 -0.25074980333E+02  0.13129819053E+03  0.22095162235E+03  0.17300000000E+03 0. -1.
         -6    1    1    2    0  503  0.31978898420E+02  0.25074980333E+02 -0.14682450204E+04  0.14789603931E+04  0.17300000000E+03 0. -1.
<mgrwt>
<rscale>  2 0.17770876E+03</rscale>
<asrwt>0</asrwt>
<pdfrwt beam="1">  1       21 0.27920399E-01 0.17770876E+03</pdfrwt>
<pdfrwt beam="2">  1       21 0.23360453E+00 0.17770876E+03</pdfrwt>
<totfact> 0.10382546E+03</totfact>
</mgrwt>
</event>
<event>
 4    1  0.3957190E+000  0.2073691E+03  0.7546771E-02  0.1143667E+00
         21   -1    0    0  503  502  0.00000000000E+00  0.00000000000E+00  0.10466354174E+03  0.10466354174E+03  0.00000000000E+00 0. -1.
         21   -1    0    0  501  503 -0.00000000000E+00 -0.00000000000E+00 -0.62696893254E+03  0.62696893254E+03  0.00000000000E+00 0.  1.
          6    1    1    2  501    0 -0.10909277874E+03  0.34229977271E+02 -0.47592468594E+03  0.51913989676E+03  0.17300000000E+03 0.  1.
         -6    1    1    2    0  502  0.10909277874E+03 -0.34229977271E+02 -0.46380704860E+02  0.21249257752E+03  0.17300000000E+03 0. -1.
<mgrwt>
<rscale>  2 0.20736906E+03</rscale>
<asrwt>0</asrwt>
<pdfrwt beam="1">  1       21 0.16102084E-01 0.20736906E+03</pdfrwt>
<pdfrwt beam="2">  1       21 0.96456757E-01 0.20736906E+03</pdfrwt>
<totfact> 0.30551725E+04</totfact>
</mgrwt>
</event>
<event>
 4    1  0.3957190E+000  0.2003360E+03  0.7546771E-02  0.1149456E+00
         21   -1    0    0  503  502  0.00000000000E+00  0.00000000000E+00  0.19351271787E+04  0.19351271787E+04  0.00000000000E+00 0. -1.
         21   -1    0    0  501  503 -0.00000000000E+00 -0.00000000000E+00 -0.20474349800E+03  0.20474349800E+03  0.00000000000E+00 0.  1.
          6    1    1    2  501    0  0.49869491684E+02 -0.87855186765E+02 -0.14910607992E+03  0.24973410482E+03  0.17300000000E+03 0.  1.
         -6    1    1    2    0  502 -0.49869491684E+02  0.87855186765E+02  0.18794897606E+04  0.18901365718E+04  0.17300000000E+03 0. -1.
<mgrwt>
<rscale>  2 0.20033597E+03</rscale>
<asrwt>0</asrwt>
<pdfrwt beam="1">  1       21 0.29771186E+00 0.20033597E+03</pdfrwt>
<pdfrwt beam="2">  1       21 0.31499001E-01 0.20033597E+03</pdfrwt>
<totfact> 0.33708228E+02</totfact>
</mgrwt>
</event>
<event>
 4    1  0.3957190E+000  0.2410502E+03  0.7546771E-02  0.1119095E+00
         21   -1    0    0  501  502  0.00000000000E+00  0.00000000000E+00  0.48722116787E+02  0.48722116787E+02  0.00000000000E+00 0. -1.
         21   -1    0    0  502  503 -0.00000000000E+00 -0.00000000000E+00 -0.13313347502E+04  0.13313347502E+04  0.00000000000E+00 0.  1.
          6    1    1    2  501    0 -0.16489554439E+03  0.31395123648E+02 -0.41854398871E+03  0.48299509815E+03  0.17300000000E+03 0. -1.
         -6    1    1    2    0  503  0.16489554439E+03 -0.31395123648E+02 -0.86406864467E+03  0.89706176881E+03  0.17300000000E+03 0. -1.
<mgrwt>
<rscale>  2 0.24105019E+03</rscale>
<asrwt>0</asrwt>
<pdfrwt beam="1">  1       21 0.74957105E-02 0.24105019E+03</pdfrwt>
<pdfrwt beam="2">  1       21 0.20482073E+00 0.24105019E+03</pdfrwt>
<totfact> 0.16224954E+04</totfact>
</mgrwt>
</event>
<event>
 4    1  0.3957190E+000  0.2317013E+03  0.7546771E-02  0.1125448E+00
         21   -1    0    0  501  502  0.00000000000E+00  0.00000000000E+00  0.29264043581E+03  0.29264043581E+03  0.00000000000E+00 0.  1.
         21   -1    0    0  502  503 -0.00000000000E+00 -0.00000000000E+00 -0.29185257565E+03  0.29185257565E+03  0.00000000000E+00 0.  1.
          6    1    1    2  501    0  0.94627032634E+02 -0.12166436962E+03  0.17850184239E+03  0.29248658410E+03  0.17300000000E+03 0.  1.
         -6    1    1    2    0  503 -0.94627032634E+02  0.12166436962E+03 -0.17771398223E+03  0.29200642736E+03  0.17300000000E+03 0.  1.
<mgrwt>
<rscale>  2 0.23170130E+03</rscale>
<asrwt>0</asrwt>
<pdfrwt beam="1">  1       21 0.45021606E-01 0.23170130E+03</pdfrwt>
<pdfrwt beam="2">  1       21 0.44900396E-01 0.23170130E+03</pdfrwt>
<totfact> 0.22050537E+04</totfact>
</mgrwt>
</event>
<event>
 4    1  0.3957190E+000  0.1778667E+03  0.7546771E-02  0.1169884E+00
         21   -1    0    0  503  502  0.00000000000E+00  0.00000000000E+00  0.33344917914E+03  0.33344917914E+03  0.00000000000E+00 0. -1.
         21   -1    0    0  501  503 -0.00000000000E+00 -0.00000000000E+00 -0.11977995114E+03  0.11977995114E+03  0.00000000000E+00 0.  1.
          6    1    1    2  501    0 -0.40265932394E+02  0.92851505611E+01  0.21016397324E+03  0.27532790447E+03  0.17300000000E+03 0. -1.
         -6    1    1    2    0  502  0.40265932394E+02 -0.92851505611E+01  0.35052547573E+01  0.17790122581E+03  0.17300000000E+03 0.  1.
<mgrwt>
<rscale>  2 0.17786669E+03</rscale>
<asrwt>0</asrwt>
<pdfrwt beam="1">  1       21 0.51299873E-01 0.17786669E+03</pdfrwt>
<pdfrwt beam="2">  1       21 0.18427685E-01 0.17786669E+03</pdfrwt>
<totfact> 0.97635663E+04</totfact>
</mgrwt>
</event>
<event>
 4    1  0.3957190E+000  0.7457305E+03  0.7546771E-02  0.9642072E-01
         21   -1    0    0  501  502  0.00000000000E+00  0.00000000000E+00  0.28816659528E+03  0.28816659528E+03  0.00000000000E+00 0. -1.
         21   -1    0    0  502  503 -0.00000000000E+00 -0.00000000000E+00 -0.19673816170E+04  0.19673816170E+04  0.00000000000E+00 0.  1.
          6    1    1    2  501    0  0.55762514784E+03 -0.46393882086E+03 -0.99540560642E+03  0.12437629824E+04  0.17300000000E+03 0.  1.
         -6    1    1    2    0  503 -0.55762514784E+03  0.46393882086E+03 -0.68380941527E+03  0.10117852299E+04  0.17300000000E+03 0. -1.
<mgrwt>
<rscale>  2 0.74573054E+03</rscale>
<asrwt>0</asrwt>
<pdfrwt beam="1">  1       21 0.44333322E-01 0.74573054E+03</pdfrwt>
<pdfrwt beam="2">  1       21 0.30267410E+00 0.74573054E+03</pdfrwt>
<totfact> 0.10840722E+02</totfact>
</mgrwt>
</event>
<event>
 4    1  0.3957190E+000  0.2992071E+03  0.7546771E-02  0.1085638E+00
         21   -1    0    0  503  502  0.00000000000E+00  0.00000000000E+00  0.23304409082E+03  0.23304409082E+03  0.00000000000E+00 0. -1.
         21   -1    0    0  501  503 -0.00000000000E+00 -0.00000000000E+00 -0.40141974218E+03  0.40141974218E+03  0.00000000000E+00 0.  1.
          6    1    1    2  501    0  0.23181362343E+03  0.76539661216E+02 -0.14997892000E+03  0.33469172710E+03  0.17300000000E+03 0. -1.
         -6    1    1    2    0  502 -0.23181362343E+03 -0.76539661216E+02 -0.18396731358E+02  0.29977210589E+03  0.17300000000E+03 0.  1.
<mgrwt>
<rscale>  2 0.29920708E+03</rscale>
<asrwt>0</asrwt>
<pdfrwt beam="1">  1       21 0.35852937E-01 0.29920708E+03</pdfrwt>
<pdfrwt beam="2">  1       21 0.61756883E-01 0.29920708E+03</pdfrwt>
<totfact> 0.17302868E+04</totfact>
</mgrwt>
</event>
<event>
 4    1  0.3957190E+000  0.2562429E+03  0.7546771E-02  0.1109422E+00
         21   -1    0    0  503  502  0.00000000000E+00  0.00000000000E+00  0.17993595322E+03  0.17993595322E+03  0.00000000000E+00 0.  1.
         21   -1    0    0  501  503 -0.00000000000E+00 -0.00000000000E+00 -0.40249813297E+03  0.40249813297E+03  0.00000000000E+00 0. -1.
          6    1    1    2  501    0  0.18304196917E+03  0.47191565311E+02 -0.22287044564E+02  0.25721026159E+03  0.17300000000E+03 0.  1.
         -6    1    1    2    0  502 -0.18304196917E+03 -0.47191565311E+02 -0.20027513518E+03  0.32522382460E+03  0.17300000000E+03 0.  1.
<mgrwt>
<rscale>  2 0.25624287E+03</rscale>
<asrwt>0</asrwt>
<pdfrwt beam="1">  1       21 0.27682454E-01 0.25624287E+03</pdfrwt>
<pdfrwt beam="2">  1       21 0.61922789E-01 0.25624287E+03</pdfrwt>
<totfact> 0.29213029E+04</totfact>
</mgrwt>
</event>
<event>
 4    1  0.3957190E+000  0.1748216E+03  0.7546771E-02  0.1172911E+00
         21   -1    0    0  503  502  0.00000000000E+00  0.00000000000E+00  0.30520134218E+03  0.30520134218E+03  0.00000000000E+00 0.  1.
         21   -1    0    0  501  503 -0.00000000000E+00 -0.00000000000E+00 -0.12481835889E+03  0.12481835889E+03  0.00000000000E+00 0.  1.
          6    1    1    2  501    0 -0.21659123040E+02  0.12825224452E+02  0.18579739538E+03  0.25511424132E+03  0.17300000000E+03 0.  1.
         -6    1    1    2    0  502  0.21659123040E+02 -0.12825224452E+02 -0.54144120977E+01  0.17490545975E+03  0.17300000000E+03 0.  1.
<mgrwt>
<rscale>  2 0.17482163E+03</rscale>
<asrwt>0</asrwt>
<pdfrwt beam="1">  1       21 0.46954052E-01 0.17482163E+03</pdfrwt>
<pdfrwt beam="2">  1       21 0.19202825E-01 0.17482163E+03</pdfrwt>
<totfact> 0.10882431E+05</totfact>
</mgrwt>
</event>
<event>
 4    1  0.3957190E+000  0.1789778E+03  0.7546771E-02  0.1168796E+00
         21   -1    0    0  503  502  0.00000000000E+00  0.00000000000E+00  0.23407748216E+03  0.23407748216E+03  0.00000000000E+00 0.  1.
         21   -1    0    0  501  503 -0.00000000000E+00 -0.00000000000E+00 -0.13685105894E+03  0.13685105894E+03  0.00000000000E+00 0.  1.
          6    1    1    2  501    0  0.45596540611E+02  0.50021938299E+01  0.47755672741E+02  0.18523949562E+03  0.17300000000E+03 0.  1.
         -6    1    1    2    0  502 -0.45596540611E+02 -0.50021938299E+01  0.49470750485E+02  0.18568904548E+03  0.17300000000E+03 0.  1.
<mgrwt>
<rscale>  2 0.17897784E+03</rscale>
<asrwt>0</asrwt>
<pdfrwt beam="1">  1       21 0.36011920E-01 0.17897784E+03</pdfrwt>
<pdfrwt beam="2">  1       21 0.21054009E-01 0.17897784E+03</pdfrwt>
<totfact> 0.15657990E+05</totfact>
</mgrwt>
</event>
<event>
 4    1  0.3957190E+000  0.2285718E+03  0.7546771E-02  0.1127649E+00
         21   -1    0    0  503  502  0.00000000000E+00  0.00000000000E+00  0.80348187525E+03  0.80348187525E+03  0.00000000000E+00 0.  1.
         21   -1    0    0  501  503 -0.00000000000E+00 -0.00000000000E+00 -0.77704869973E+02  0.77704869973E+02  0.00000000000E+00 0.  1.
          6    1    1    2  501    0 -0.71120652270E+02  0.13136941581E+03  0.18489679699E+03  0.29399302054E+03  0.17300000000E+03 0. -1.
         -6    1    1    2    0  502  0.71120652270E+02 -0.13136941581E+03  0.54088020829E+03  0.58719372468E+03  0.17300000000E+03 0. -1.
<mgrwt>
<rscale>  2 0.22857181E+03</rscale>
<asrwt>0</asrwt>
<pdfrwt beam="1">  1       21 0.12361259E+00 0.22857181E+03</pdfrwt>
<pdfrwt beam="2">  1       21 0.11954596E-01 0.22857181E+03</pdfrwt>
<totfact> 0.28390349E+04</totfact>
</mgrwt>
</event>
<event>
 4    1  0.3957190E+000  0.2553254E+03  0.7546771E-02  0.1109985E+00
         21   -1    0    0  503  502  0.00000000000E+00  0.00000000000E+00  0.12795502884E+04  0.12795502884E+04  0.00000000000E+00 0. -1.
         21   -1    0    0  501  503 -0.00000000000E+00 -0.00000000000E+00 -0.59424395535E+03  0.59424395535E+03  0.00000000000E+00 0.  1.
          6    1    1    2  501    0  0.13717817396E+03  0.12823504835E+03 -0.55318091777E+03  0.60926201820E+03  0.17300000000E+03 0.  1.
         -6    1    1    2    0  502 -0.13717817396E+03 -0.12823504835E+03  0.12384872508E+04  0.12645322256E+04  0.17300000000E+03 0. -1.
<mgrwt>
<rscale>  2 0.25532544E+03</rscale>
<asrwt>0</asrwt>
<pdfrwt beam="1">  1       21 0.19685389E+00 0.25532544E+03</pdfrwt>
<pdfrwt beam="2">  1       21 0.91422147E-01 0.25532544E+03</pdfrwt>
<totfact> 0.13207735E+02</totfact>
</mgrwt>
</event>
<event>
 4    1  0.3957190E+000  0.1877823E+03  0.7546771E-02  0.1160477E+00
         21   -1    0    0  501  502  0.00000000000E+00  0.00000000000E+00  0.15728992179E+03  0.15728992179E+03  0.00000000000E+00 0. -1.
         21   -1    0    0  502  503 -0.00000000000E+00 -0.00000000000E+00 -0.24637175003E+03  0.24637175003E+03  0.00000000000E+00 0. -1.
          6    1    1    2  501    0  0.13628599075E+02 -0.71745736660E+02  0.16025195786E+02  0.18846484113E+03  0.17300000000E+03 0. -1.
         -6    1    1    2    0  503 -0.13628599075E+02  0.71745736660E+02 -0.10510702402E+03  0.21519683069E+03  0.17300000000E+03 0. -1.
<mgrwt>
<rscale>  2 0.18778229E+03</rscale>
<asrwt>0</asrwt>
<pdfrwt beam="1">  1       21 0.24198450E-01 0.18778229E+03</pdfrwt>
<pdfrwt beam="2">  1       21 0.37903346E-01 0.18778229E+03</pdfrwt>
<totfact> 0.10838515E+05</totfact>
</mgrwt>
</event>
<event>
 4    1  0.3957190E+000  0.1850814E+03  0.7546771E-02  0.1162974E+00
         21   -1    0    0  501  502  0.00000000000E+00  0.00000000000E+00  0.33959532732E+02  0.33959532732E+02  0.00000000000E+00 0. -1.
         21   -1    0    0  502  503 -0.00000000000E+00 -0.00000000000E+00 -0.10218626701E+04  0.10218626701E+04  0.00000000000E+00 0. -1.
          6    1    1    2  501    0  0.53762135725E+02  0.37891542151E+02 -0.43404686086E+03  0.47185995128E+03  0.17300000000E+03 0.  1.
         -6    1    1    2    0  503 -0.53762135725E+02 -0.37891542151E+02 -0.55385627652E+03  0.58396225156E+03  0.17300000000E+03 0.  1.
<mgrwt>
<rscale>  2 0.18508143E+03</rscale>
<asrwt>0</asrwt>
<pdfrwt beam="1">  1       21 0.52245437E-02 0.18508143E+03</pdfrwt>
<pdfrwt beam="2">  1       21 0.15720964E+00 0.18508143E+03</pdfrwt>
<totfact> 0.66151825E+04</totfact>
</mgrwt>
</event>
<event>
 4    1  0.3957190E+000  0.1746366E+03  0.7546771E-02  0.1173097E+00
         21   -1    0    0  503  502  0.00000000000E+00  0.00000000000E+00  0.16416677614E+03  0.16416677614E+03  0.00000000000E+00 0. -1.
         21   -1    0    0  501  503 -0.00000000000E+00 -0.00000000000E+00 -0.18603525717E+03  0.18603525717E+03  0.00000000000E+00 0. -1.
          6    1    1    2  501    0 -0.21621716527E+02  0.10071060455E+02 -0.43728831681E+01  0.17469129054E+03  0.17300000000E+03 0.  1.
         -6    1    1    2    0  502  0.21621716527E+02 -0.10071060455E+02 -0.17495597861E+02  0.17551074277E+03  0.17300000000E+03 0.  1.
<mgrwt>
<rscale>  2 0.17463655E+03</rscale>
<asrwt>0</asrwt>
<pdfrwt beam="1">  1       21 0.25256427E-01 0.17463655E+03</pdfrwt>
<pdfrwt beam="2">  1       21 0.28620809E-01 0.17463655E+03</pdfrwt>
<totfact> 0.17440482E+05</totfact>
</mgrwt>
</event>
<event>
 4    1  0.3957190E+000  0.2085573E+03  0.7546771E-02  0.1142714E+00
         21   -1    0    0  501  502  0.00000000000E+00  0.00000000000E+00  0.41990298089E+03  0.41990298089E+03  0.00000000000E+00 0.  1.
         21   -1    0    0  502  503 -0.00000000000E+00 -0.00000000000E+00 -0.40399919625E+03  0.40399919625E+03  0.00000000000E+00 0.  1.
          6    1    1    2  501    0 -0.84012967109E+02  0.80678295855E+02  0.36318606908E+03  0.41880817427E+03  0.17300000000E+03 0.  1.
         -6    1    1    2    0  503  0.84012967109E+02 -0.80678295855E+02 -0.34728228444E+03  0.40509400286E+03  0.17300000000E+03 0.  1.
<mgrwt>
<rscale>  2 0.20855734E+03</rscale>
<asrwt>0</asrwt>
<pdfrwt beam="1">  1       21 0.64600459E-01 0.20855734E+03</pdfrwt>
<pdfrwt beam="2">  1       21 0.62153722E-01 0.20855734E+03</pdfrwt>
<totfact> 0.52410882E+03</totfact>
</mgrwt>
</event>
<event>
 4    1  0.3957190E+000  0.2182097E+03  0.7546771E-02  0.1135225E+00
         21   -1    0    0  501  502  0.00000000000E+00  0.00000000000E+00  0.43627613397E+03  0.43627613397E+03  0.00000000000E+00 0.  1.
         21   -1    0    0  502  503 -0.00000000000E+00 -0.00000000000E+00 -0.65259357830E+03  0.65259357830E+03  0.00000000000E+00 0.  1.
          6    1    1    2  501    0 -0.55593135765E+02 -0.12081339269E+03  0.38866861015E+03  0.44573395777E+03  0.17300000000E+03 0.  1.
         -6    1    1    2    0  503  0.55593135765E+02  0.12081339269E+03 -0.60498605448E+03  0.64313575449E+03  0.17300000000E+03 0.  1.
<mgrwt>
<rscale>  2 0.21820970E+03</rscale>
<asrwt>0</asrwt>
<pdfrwt beam="1">  1       21 0.67119406E-01 0.21820970E+03</pdfrwt>
<pdfrwt beam="2">  1       21 0.10039901E+00 0.21820970E+03</pdfrwt>
<totfact> 0.16147639E+03</totfact>
</mgrwt>
</event>
<event>
 4    1  0.3957190E+000  0.1891211E+03  0.7546771E-02  0.1159256E+00
         21   -1    0    0  501  502  0.00000000000E+00  0.00000000000E+00  0.93596889780E+03  0.93596889780E+03  0.00000000000E+00 0. -1.
         21   -1    0    0  502  503 -0.00000000000E+00 -0.00000000000E+00 -0.41833845927E+02  0.41833845927E+02  0.00000000000E+00 0. -1.
          6    1    1    2  501    0  0.36497137708E+02  0.67124800342E+02  0.59088905752E+03  0.62041651991E+03  0.17300000000E+03 0. -1.
         -6    1    1    2    0  503 -0.36497137708E+02 -0.67124800342E+02  0.30324599435E+03  0.35738622381E+03  0.17300000000E+03 0. -1.
<mgrwt>
<rscale>  2 0.18912107E+03</rscale>
<asrwt>0</asrwt>
<pdfrwt beam="1">  1       21 0.14399520E+00 0.18912107E+03</pdfrwt>
<pdfrwt beam="2">  1       21 0.64359770E-02 0.18912107E+03</pdfrwt>
<totfact> 0.58263367E+04</totfact>
</mgrwt>
</event>
<event>
 4    1  0.3957190E+000  0.2056455E+03  0.7546771E-02  0.1145061E+00
         21   -1    0    0  501  502  0.00000000000E+00  0.00000000000E+00  0.11152444684E+03  0.11152444684E+03  0.00000000000E+00 0. -1.
         21   -1    0    0  502  503 -0.00000000000E+00 -0.00000000000E+00 -0.48619782775E+03  0.48619782775E+03  0.00000000000E+00 0. -1.
          6    1    1    2  501    0 -0.64877108346E+02 -0.90288662454E+02 -0.32753739905E+03  0.38674388105E+03  0.17300000000E+03 0. -1.
         -6    1    1    2    0  503  0.64877108346E+02  0.90288662454E+02 -0.47135981870E+02  0.21097839354E+03  0.17300000000E+03 0. -1.
<mgrwt>
<rscale>  2 0.20564552E+03</rscale>
<asrwt>0</asrwt>
<pdfrwt beam="1">  1       21 0.17157607E-01 0.20564552E+03</pdfrwt>
<pdfrwt beam="2">  1       21 0.74799665E-01 0.20564552E+03</pdfrwt>
<totfact> 0.48740640E+04</totfact>
</mgrwt>
</event>
<event>
 4    1  0.3957190E+000  0.1820001E+03  0.7546771E-02  0.1165881E+00
         21   -1    0    0  501  502  0.00000000000E+00  0.00000000000E+00  0.77818652878E+03  0.77818652878E+03  0.00000000000E+00 0. -1.
         21   -1    0    0  502  503 -0.00000000000E+00 -0.00000000000E+00 -0.43492285150E+02  0.43492285150E+02  0.00000000000E+00 0. -1.
          6    1    1    2  501    0  0.46192986322E+02  0.32576537900E+02  0.42731492516E+03  0.46445889815E+03  0.17300000000E+03 0. -1.
         -6    1    1    2    0  503 -0.46192986322E+02 -0.32576537900E+02  0.30737931848E+03  0.35721991578E+03  0.17300000000E+03 0. -1.
<mgrwt>
<rscale>  2 0.18200006E+03</rscale>
<asrwt>0</asrwt>
<pdfrwt beam="1">  1       21 0.11972099E+00 0.18200006E+03</pdfrwt>
<pdfrwt beam="2">  1       21 0.66911214E-02 0.18200006E+03</pdfrwt>
<totfact> 0.87266013E+04</totfact>
</mgrwt>
</event>
<event>
 4    1  0.3957190E+000  0.1810619E+03  0.7546771E-02  0.1166779E+00
         21   -1    0    0  503  502  0.00000000000E+00  0.00000000000E+00  0.12714863866E+03  0.12714863866E+03  0.00000000000E+00 0. -1.
         21   -1    0    0  501  503 -0.00000000000E+00 -0.00000000000E+00 -0.48373160186E+03  0.48373160186E+03  0.00000000000E+00 0. -1.
          6    1    1    2  501    0 -0.52193671721E+02  0.11412180424E+02 -0.38701834073E+03  0.42727814511E+03  0.17300000000E+03 0. -1.
         -6    1    1    2    0  502  0.52193671721E+02 -0.11412180424E+02  0.30435377532E+02  0.18360209540E+03  0.17300000000E+03 0. -1.
<mgrwt>
<rscale>  2 0.18106192E+03</rscale>
<asrwt>0</asrwt>
<pdfrwt beam="1">  1       21 0.19561329E-01 0.18106192E+03</pdfrwt>
<pdfrwt beam="2">  1       21 0.74420246E-01 0.18106192E+03</pdfrwt>
<totfact> 0.39150669E+04</totfact>
</mgrwt>
</event>
<event>
 4    1  0.3957190E+000  0.1848061E+03  0.7546771E-02  0.1163231E+00
         21   -1    0    0  501  502  0.00000000000E+00  0.00000000000E+00  0.31436553626E+04  0.31436553626E+04  0.00000000000E+00 0. -1.
         21   -1    0    0  502  503 -0.00000000000E+00 -0.00000000000E+00 -0.12794445390E+02  0.12794445390E+02  0.00000000000E+00 0. -1.
          6    1    1    2  501    0 -0.24565254594E+02 -0.60173563797E+02  0.21784355793E+04  0.21862604791E+04  0.17300000000E+03 0.  1.
         -6    1    1    2    0  503  0.24565254594E+02  0.60173563797E+02  0.95242533800E+03  0.97018932893E+03  0.17300000000E+03 0.  1.
<mgrwt>
<rscale>  2 0.18480614E+03</rscale>
<asrwt>0</asrwt>
<pdfrwt beam="1">  1       21 0.48363867E+00 0.18480614E+03</pdfrwt>
<pdfrwt beam="2">  1       21 0.19683787E-02 0.18480614E+03</pdfrwt>
<totfact> 0.31487379E+03</totfact>
</mgrwt>
</event>
<event>
 4    1  0.3957190E+000  0.1854353E+03  0.7546771E-02  0.1162644E+00
         21   -1    0    0  501  502  0.00000000000E+00  0.00000000000E+00  0.21239685022E+04  0.21239685022E+04  0.00000000000E+00 0. -1.
         21   -1    0    0  502  503 -0.00000000000E+00 -0.00000000000E+00 -0.16806401067E+02  0.16806401067E+02  0.00000000000E+00 0.  1.
          6    1    1    2  501    0 -0.61045289116E+02 -0.27031887197E+02  0.12586349125E+04  0.12722217154E+04  0.17300000000E+03 0. -1.
         -6    1    1    2    0  503  0.61045289116E+02  0.27031887197E+02  0.84852718859E+03  0.86855318780E+03  0.17300000000E+03 0.  1.
<mgrwt>
<rscale>  2 0.18543530E+03</rscale>
<asrwt>0</asrwt>
<pdfrwt beam="1">  1       21 0.32676417E+00 0.18543530E+03</pdfrwt>
<pdfrwt beam="2">  1       21 0.25856018E-02 0.18543530E+03</pdfrwt>
<totfact> 0.19488736E+04</totfact>
</mgrwt>
</event>
<event>
 4    1  0.3957190E+000  0.2564208E+03  0.7546771E-02  0.1109313E+00
         21   -1    0    0  501  502  0.00000000000E+00  0.00000000000E+00  0.72895041965E+02  0.72895041965E+02  0.00000000000E+00 0.  1.
         21   -1    0    0  502  503 -0.00000000000E+00 -0.00000000000E+00 -0.93487404037E+03  0.93487404037E+03  0.00000000000E+00 0.  1.
          6    1    1    2  501    0  0.17768534460E+03  0.65196361037E+02 -0.33650684416E+03  0.42307032908E+03  0.17300000000E+03 0.  1.
         -6    1    1    2    0  503 -0.17768534460E+03 -0.65196361037E+02 -0.52547215425E+03  0.58469875326E+03  0.17300000000E+03 0.  1.
<mgrwt>
<rscale>  2 0.25642084E+03</rscale>
<asrwt>0</asrwt>
<pdfrwt beam="1">  1       21 0.11214622E-01 0.25642084E+03</pdfrwt>
<pdfrwt beam="2">  1       21 0.14382678E+00 0.25642084E+03</pdfrwt>
<totfact> 0.21279089E+04</totfact>
</mgrwt>
</event>
<event>
 4    1  0.3957190E+000  0.1804478E+03  0.7546771E-02  0.1167370E+00
         21   -1    0    0  501  502  0.00000000000E+00  0.00000000000E+00  0.17811294320E+03  0.17811294320E+03  0.00000000000E+00 0.  1.
         21   -1    0    0  502  503 -0.00000000000E+00 -0.00000000000E+00 -0.23180612299E+03  0.23180612299E+03  0.00000000000E+00 0.  1.
          6    1    1    2  501    0  0.41609349803E+02  0.30017677908E+02  0.67379745326E+02  0.19261731246E+03  0.17300000000E+03 0.  1.
         -6    1    1    2    0  503 -0.41609349803E+02 -0.30017677908E+02 -0.12107292512E+03  0.21730175373E+03  0.17300000000E+03 0.  1.
<mgrwt>
<rscale>  2 0.18044777E+03</rscale>
<asrwt>0</asrwt>
<pdfrwt beam="1">  1       21 0.27401992E-01 0.18044777E+03</pdfrwt>
<pdfrwt beam="2">  1       21 0.35662480E-01 0.18044777E+03</pdfrwt>
<totfact> 0.96750614E+04</totfact>
</mgrwt>
</event>
<event>
 4    1  0.3957190E+000  0.2363382E+03  0.7546771E-02  0.1122257E+00
         21   -1    0    0  503  502  0.00000000000E+00  0.00000000000E+00  0.67522715028E+03  0.67522715028E+03  0.00000000000E+00 0. -1.
         21   -1    0    0  501  503 -0.00000000000E+00 -0.00000000000E+00 -0.13306154681E+03  0.13306154681E+03  0.00000000000E+00 0. -1.
          6    1    1    2  501    0  0.37168608507E+02  0.15666914796E+03  0.51966356376E+03  0.57088172757E+03  0.17300000000E+03 0. -1.
         -6    1    1    2    0  502 -0.37168608507E+02 -0.15666914796E+03  0.22502039720E+02  0.23740696951E+03  0.17300000000E+03 0. -1.
<mgrwt>
<rscale>  2 0.23633816E+03</rscale>
<asrwt>0</asrwt>
<pdfrwt beam="1">  1       21 0.10388110E+00 0.23633816E+03</pdfrwt>
<pdfrwt beam="2">  1       21 0.20471008E-01 0.23633816E+03</pdfrwt>
<totfact> 0.16132363E+04</totfact>
</mgrwt>
</event>
<event>
 4    1  0.3957190E+000  0.1753179E+03  0.7546771E-02  0.1172413E+00
         21   -1    0    0  503  502  0.00000000000E+00  0.00000000000E+00  0.43359577976E+02  0.43359577976E+02  0.00000000000E+00 0.  1.
         21   -1    0    0  501  503 -0.00000000000E+00 -0.00000000000E+00 -0.71689688400E+03  0.71689688400E+03  0.00000000000E+00 0.  1.
          6    1    1    2  501    0  0.25803641231E+02  0.11896352093E+02 -0.29654829687E+03  0.34449563636E+03  0.17300000000E+03 0.  1.
         -6    1    1    2    0  502 -0.25803641231E+02 -0.11896352093E+02 -0.37698900916E+03  0.41576082562E+03  0.17300000000E+03 0.  1.
<mgrwt>
<rscale>  2 0.17531786E+03</rscale>
<asrwt>0</asrwt>
<pdfrwt beam="1">  1       21 0.66707042E-02 0.17531786E+03</pdfrwt>
<pdfrwt beam="2">  1       21 0.11029183E+00 0.17531786E+03</pdfrwt>
<totfact> 0.10744086E+05</totfact>
</mgrwt>
</event>
<event>
 4    1  0.3957190E+000  0.2220725E+03  0.7546771E-02  0.1132347E+00
         21   -1    0    0  503  502  0.00000000000E+00  0.00000000000E+00  0.43071286848E+03  0.43071286848E+03  0.00000000000E+00 0. -1.
         21   -1    0    0  501  503 -0.00000000000E+00 -0.00000000000E+00 -0.13097487252E+03  0.13097487252E+03  0.00000000000E+00 0. -1.
          6    1    1    2  501    0 -0.72772175242E+02  0.11870714843E+03  0.50260666980E+02  0.22768906698E+03  0.17300000000E+03 0. -1.
         -6    1    1    2    0  502  0.72772175242E+02 -0.11870714843E+03  0.24947732898E+03  0.33399867402E+03  0.17300000000E+03 0. -1.
<mgrwt>
<rscale>  2 0.22207246E+03</rscale>
<asrwt>0</asrwt>
<pdfrwt beam="1">  1       21 0.66263517E-01 0.22207246E+03</pdfrwt>
<pdfrwt beam="2">  1       21 0.20149981E-01 0.22207246E+03</pdfrwt>
<totfact> 0.46899637E+04</totfact>
</mgrwt>
</event>
<event>
 4    1  0.3957190E+000  0.1891388E+03  0.7546771E-02  0.1159240E+00
         21   -1    0    0  501  502  0.00000000000E+00  0.00000000000E+00  0.27434683769E+02  0.27434683769E+02  0.00000000000E+00 0.  1.
         21   -1    0    0  502  503 -0.00000000000E+00 -0.00000000000E+00 -0.16450741855E+04  0.16450741855E+04  0.00000000000E+00 0.  1.
          6    1    1    2  501    0  0.71664557418E+02 -0.26621061439E+02 -0.42801604894E+03  0.46794361610E+03  0.17300000000E+03 0.  1.
         -6    1    1    2    0  503 -0.71664557418E+02  0.26621061439E+02 -0.11896234528E+04  0.12045652532E+04  0.17300000000E+03 0.  1.
<mgrwt>
<rscale>  2 0.18913881E+03</rscale>
<asrwt>0</asrwt>
<pdfrwt beam="1">  1       21 0.42207205E-02 0.18913881E+03</pdfrwt>
<pdfrwt beam="2">  1       21 0.25308834E+00 0.18913881E+03</pdfrwt>
<totfact> 0.22905311E+04</totfact>
</mgrwt>
</event>
<event>
 4    1  0.3957190E+000  0.1759827E+03  0.7546771E-02  0.1171749E+00
         21   -1    0    0  503  502  0.00000000000E+00  0.00000000000E+00  0.18192392979E+03  0.18192392979E+03  0.00000000000E+00 0.  1.
         21   -1    0    0  501  503 -0.00000000000E+00 -0.00000000000E+00 -0.55857034533E+03  0.55857034533E+03  0.00000000000E+00 0.  1.
          6    1    1    2  501    0  0.15922088589E+02  0.28060315007E+02 -0.49703698033E+03  0.52727189760E+03  0.17300000000E+03 0.  1.
         -6    1    1    2    0  502 -0.15922088589E+02 -0.28060315007E+02  0.12039056480E+03  0.21322237752E+03  0.17300000000E+03 0.  1.
<mgrwt>
<rscale>  2 0.17598265E+03</rscale>
<asrwt>0</asrwt>
<pdfrwt beam="1">  1       21 0.27988297E-01 0.17598265E+03</pdfrwt>
<pdfrwt beam="2">  1       21 0.85933898E-01 0.17598265E+03</pdfrwt>
<totfact> 0.14407032E+04</totfact>
</mgrwt>
</event>
<event>
 4    1  0.3957190E+000  0.2304600E+03  0.7546771E-02  0.1126316E+00
         21   -1    0    0  501  502  0.00000000000E+00  0.00000000000E+00  0.31725177700E+03  0.31725177700E+03  0.00000000000E+00 0. -1.
         21   -1    0    0  502  503 -0.00000000000E+00 -0.00000000000E+00 -0.20957692689E+03  0.20957692689E+03  0.00000000000E+00 0.  1.
          6    1    1    2  501    0 -0.15097203428E+03 -0.19755061202E+02  0.17198977161E+03  0.28756268728E+03  0.17300000000E+03 0. -1.
         -6    1    1    2    0  503  0.15097203428E+03  0.19755061202E+02 -0.64314921497E+02  0.23926601661E+03  0.17300000000E+03 0.  1.
<mgrwt>
<rscale>  2 0.23046001E+03</rscale>
<asrwt>0</asrwt>
<pdfrwt beam="1">  1       21 0.48807966E-01 0.23046001E+03</pdfrwt>
<pdfrwt beam="2">  1       21 0.32242604E-01 0.23046001E+03</pdfrwt>
<totfact> 0.36382907E+04</totfact>
</mgrwt>
</event>
<event>
 4    1  0.3957190E+000  0.1872908E+03  0.7546771E-02  0.1160928E+00
         21   -1    0    0  501  502  0.00000000000E+00  0.00000000000E+00  0.18717306633E+04  0.18717306633E+04  0.00000000000E+00 0.  1.
         21   -1    0    0  502  503 -0.00000000000E+00 -0.00000000000E+00 -0.24690538096E+02  0.24690538096E+02  0.00000000000E+00 0.  1.
          6    1    1    2  501    0  0.41213665510E+02 -0.58739168863E+02  0.13889839508E+04  0.14015542344E+04  0.17300000000E+03 0.  1.
         -6    1    1    2    0  503 -0.41213665510E+02  0.58739168863E+02  0.45805617438E+03  0.49486696704E+03  0.17300000000E+03 0.  1.
<mgrwt>
<rscale>  2 0.18729083E+03</rscale>
<asrwt>0</asrwt>
<pdfrwt beam="1">  1       21 0.28795845E+00 0.18729083E+03</pdfrwt>
<pdfrwt beam="2">  1       21 0.37985458E-02 0.18729083E+03</pdfrwt>
<totfact> 0.17200603E+04</totfact>
</mgrwt>
</event>
<event>
 4    1  0.3957190E+000  0.1861227E+03  0.7546771E-02  0.1162006E+00
         21   -1    0    0  501  502  0.00000000000E+00  0.00000000000E+00  0.45656995754E+03  0.45656995754E+03  0.00000000000E+00 0. -1.
         21   -1    0    0  502  503 -0.00000000000E+00 -0.00000000000E+00 -0.11459489797E+03  0.11459489797E+03  0.00000000000E+00 0. -1.
          6    1    1    2  501    0  0.66010218687E+02  0.18849756266E+02  0.33699327028E+03  0.38497548817E+03  0.17300000000E+03 0. -1.
         -6    1    1    2    0  503 -0.66010218687E+02 -0.18849756266E+02  0.49817892946E+01  0.18618936733E+03  0.17300000000E+03 0. -1.
<mgrwt>
<rscale>  2 0.18612271E+03</rscale>
<asrwt>0</asrwt>
<pdfrwt beam="1">  1       21 0.70241531E-01 0.18612271E+03</pdfrwt>
<pdfrwt beam="2">  1       21 0.17629985E-01 0.18612271E+03</pdfrwt>
<totfact> 0.53810934E+04</totfact>
</mgrwt>
</event>
<event>
 4    1  0.3957190E+000  0.2414892E+03  0.7546771E-02  0.1118805E+00
         21   -1    0    0  501  502  0.00000000000E+00  0.00000000000E+00  0.96703492303E+02  0.96703492303E+02  0.00000000000E+00 0.  1.
         21   -1    0    0  502  503 -0.00000000000E+00 -0.00000000000E+00 -0.10284555627E+04  0.10284555627E+04  0.00000000000E+00 0.  1.
          6    1    1    2  501    0  0.15530504434E+03  0.65332722025E+02 -0.10405580609E+03  0.26295366920E+03  0.17300000000E+03 0.  1.
         -6    1    1    2    0  503 -0.15530504434E+03 -0.65332722025E+02 -0.82769626428E+03  0.86220538578E+03  0.17300000000E+03 0.  1.
<mgrwt>
<rscale>  2 0.24148917E+03</rscale>
<asrwt>0</asrwt>
<pdfrwt beam="1">  1       21 0.14877460E-01 0.24148917E+03</pdfrwt>
<pdfrwt beam="2">  1       21 0.15822393E+00 0.24148917E+03</pdfrwt>
<totfact> 0.99769355E+03</totfact>
</mgrwt>
</event>
<event>
 4    1  0.3957190E+000  0.1998628E+03  0.7546771E-02  0.1149855E+00
         21   -1    0    0  503  502  0.00000000000E+00  0.00000000000E+00  0.21167048123E+04  0.21167048123E+04  0.00000000000E+00 0.  1.
         21   -1    0    0  501  503 -0.00000000000E+00 -0.00000000000E+00 -0.39613701587E+02  0.39613701587E+02  0.00000000000E+00 0.  1.
          6    1    1    2  501    0  0.98902409551E+02  0.15312430152E+02  0.25837634928E+03  0.32665500914E+03  0.17300000000E+03 0.  1.
         -6    1    1    2    0  502 -0.98902409551E+02 -0.15312430152E+02  0.18187147615E+04  0.18296635048E+04  0.17300000000E+03 0.  1.
<mgrwt>
<rscale>  2 0.19986285E+03</rscale>
<asrwt>0</asrwt>
<pdfrwt beam="1">  1       21 0.32564681E+00 0.19986285E+03</pdfrwt>
<pdfrwt beam="2">  1       21 0.60944173E-02 0.19986285E+03</pdfrwt>
<totfact> 0.46195158E+03</totfact>
</mgrwt>
</event>
<event>
 4    1  0.3957190E+000  0.2759198E+03  0.7546771E-02  0.1097939E+00
         21   -1    0    0  501  502  0.00000000000E+00  0.00000000000E+00  0.34036015113E+03  0.34036015113E+03  0.00000000000E+00 0.  1.
         21   -1    0    0  502  503 -0.00000000000E+00 -0.00000000000E+00 -0.43891856511E+03  0.43891856511E+03  0.00000000000E+00 0.  1.
          6    1    1    2  501    0  0.66614113658E+02  0.20436556855E+03  0.22357520797E+03  0.35513039769E+03  0.17300000000E+03 0.  1.
         -6    1    1    2    0  503 -0.66614113658E+02 -0.20436556855E+03 -0.32213362194E+03  0.42414831855E+03  0.17300000000E+03 0.  1.
<mgrwt>
<rscale>  2 0.27591978E+03</rscale>
<asrwt>0</asrwt>
<pdfrwt beam="1">  1       21 0.52363100E-01 0.27591978E+03</pdfrwt>
<pdfrwt beam="2">  1       21 0.67525933E-01 0.27591978E+03</pdfrwt>
<totfact> 0.65802098E+03</totfact>
</mgrwt>
</event>
<event>
 4    1  0.3957190E+000  0.2083134E+03  0.7546771E-02  0.1142909E+00
         21   -1    0    0  501  502  0.00000000000E+00  0.00000000000E+00  0.13155982781E+04  0.13155982781E+04  0.00000000000E+00 0.  1.
         21   -1    0    0  502  503 -0.00000000000E+00 -0.00000000000E+00 -0.45001029702E+02  0.45001029702E+02  0.00000000000E+00 0. -1.
          6    1    1    2  501    0  0.11546845886E+03 -0.11510825143E+02  0.28375679457E+03  0.35201190683E+03  0.17300000000E+03 0. -1.
         -6    1    1    2    0  503 -0.11546845886E+03  0.11510825143E+02  0.98684045381E+03  0.10085874010E+04  0.17300000000E+03 0.  1.
<mgrwt>
<rscale>  2 0.20831338E+03</rscale>
<asrwt>0</asrwt>
<pdfrwt beam="1">  1       21 0.20239971E+00 0.20831338E+03</pdfrwt>
<pdfrwt beam="2">  1       21 0.69232363E-02 0.20831338E+03</pdfrwt>
<totfact> 0.19746595E+04</totfact>
</mgrwt>
</event>
<event>
 4    1  0.3957190E+000  0.2096311E+03  0.7546771E-02  0.1141858E+00
         21   -1    0    0  503  502  0.00000000000E+00  0.00000000000E+00  0.89269197522E+02  0.89269197522E+02  0.00000000000E+00 0. -1.
         21   -1    0    0  501  503 -0.00000000000E+00 -0.00000000000E+00 -0.51480655340E+03  0.51480655340E+03  0.00000000000E+00 0.  1.
          6    1    1    2  501    0  0.27641566832E+02 -0.11511792520E+03 -0.14958375111E+03  0.25752765195E+03  0.17300000000E+03 0. -1.
         -6    1    1    2    0  502 -0.27641566832E+02  0.11511792520E+03 -0.27595360477E+03  0.34654809898E+03  0.17300000000E+03 0.  1.
<mgrwt>
<rscale>  2 0.20963109E+03</rscale>
<asrwt>0</asrwt>
<pdfrwt beam="1">  1       21 0.13733723E-01 0.20963109E+03</pdfrwt>
<pdfrwt beam="2">  1       21 0.79201009E-01 0.20963109E+03</pdfrwt>
<totfact> 0.64257868E+04</totfact>
</mgrwt>
</event>
<event>
 4    1  0.3957190E+000  0.2325855E+03  0.7546771E-02  0.1124833E+00
         21   -1    0    0  503  502  0.00000000000E+00  0.00000000000E+00  0.21906052076E+03  0.21906052076E+03  0.00000000000E+00 0. -1.
         21   -1    0    0  501  503 -0.00000000000E+00 -0.00000000000E+00 -0.34861834062E+03  0.34861834062E+03  0.00000000000E+00 0.  1.
          6    1    1    2  501    0  0.13369207807E+03 -0.79331200020E+02 -0.21806405821E+03  0.31882274781E+03  0.17300000000E+03 0.  1.
         -6    1    1    2    0  502 -0.13369207807E+03  0.79331200020E+02  0.88506238346E+02  0.24885611357E+03  0.17300000000E+03 0. -1.
<mgrwt>
<rscale>  2 0.23258549E+03</rscale>
<asrwt>0</asrwt>
<pdfrwt beam="1">  1       21 0.33701619E-01 0.23258549E+03</pdfrwt>
<pdfrwt beam="2">  1       21 0.53633591E-01 0.23258549E+03</pdfrwt>
<totfact> 0.27311333E+04</totfact>
</mgrwt>
</event>
<event>
 4    1  0.3957190E+000  0.1735159E+03  0.7546771E-02  0.1174230E+00
         21   -1    0    0  501  502  0.00000000000E+00  0.00000000000E+00  0.80054716523E+03  0.80054716523E+03  0.00000000000E+00 0.  1.
         21   -1    0    0  502  503 -0.00000000000E+00 -0.00000000000E+00 -0.61375422781E+02  0.61375422781E+02  0.00000000000E+00 0.  1.
          6    1    1    2  501    0 -0.74613809281E+01 -0.11095307838E+02  0.63776373721E+03  0.66094656559E+03  0.17300000000E+03 0.  1.
         -6    1    1    2    0  503  0.74613809281E+01  0.11095307838E+02  0.10140800523E+03  0.20097602242E+03  0.17300000000E+03 0.  1.
<mgrwt>
<rscale>  2 0.17351593E+03</rscale>
<asrwt>0</asrwt>
<pdfrwt beam="1">  1       21 0.12316109E+00 0.17351593E+03</pdfrwt>
<pdfrwt beam="2">  1       21 0.94423733E-02 0.17351593E+03</pdfrwt>
<totfact> 0.44910909E+04</totfact>
</mgrwt>
</event>
<event>
 4    1  0.3957190E+000  0.1732622E+03  0.7546771E-02  0.1174488E+00
         21   -1    0    0  501  502  0.00000000000E+00  0.00000000000E+00  0.17591023824E+03  0.17591023824E+03  0.00000000000E+00 0.  1.
         21   -1    0    0  502  503 -0.00000000000E+00 -0.00000000000E+00 -0.19090264514E+03  0.19090264514E+03  0.00000000000E+00 0.  1.
          6    1    1    2  501    0  0.95157795414E+01  0.48197529504E+00 -0.67228169042E+02  0.18584781159E+03  0.17300000000E+03 0.  1.
         -6    1    1    2    0  503 -0.95157795414E+01 -0.48197529504E+00  0.52235762137E+02  0.18096507179E+03  0.17300000000E+03 0.  1.
<mgrwt>
<rscale>  2 0.17326218E+03</rscale>
<asrwt>0</asrwt>
<pdfrwt beam="1">  1       21 0.27063114E-01 0.17326218E+03</pdfrwt>
<pdfrwt beam="2">  1       21 0.29369638E-01 0.17326218E+03</pdfrwt>
<totfact> 0.14542045E+05</totfact>
</mgrwt>
</event>
<event>
 4    1  0.3957190E+000  0.2044426E+03  0.7546771E-02  0.1146044E+00
         21   -1    0    0  501  502  0.00000000000E+00  0.00000000000E+00  0.98573328083E+02  0.98573328083E+02  0.00000000000E+00 0. -1.
         21   -1    0    0  502  503 -0.00000000000E+00 -0.00000000000E+00 -0.50056383534E+03  0.50056383534E+03  0.00000000000E+00 0. -1.
          6    1    1    2  501    0 -0.75026805451E+02  0.78985740593E+02 -0.83848544200E+02  0.22096910897E+03  0.17300000000E+03 0. -1.
         -6    1    1    2    0  503  0.75026805451E+02 -0.78985740593E+02 -0.31814196305E+03  0.37816805445E+03  0.17300000000E+03 0. -1.
<mgrwt>
<rscale>  2 0.20444258E+03</rscale>
<asrwt>0</asrwt>
<pdfrwt beam="1">  1       21 0.15165128E-01 0.20444258E+03</pdfrwt>
<pdfrwt beam="2">  1       21 0.77009820E-01 0.20444258E+03</pdfrwt>
<totfact> 0.57298412E+04</totfact>
</mgrwt>
</event>
<event>
 4    1  0.3957190E+000  0.2027159E+03  0.7546771E-02  0.1147468E+00
         21   -1    0    0  501  502  0.00000000000E+00  0.00000000000E+00  0.67492414156E+02  0.67492414156E+02  0.00000000000E+00 0. -1.
         21   -1    0    0  502  503 -0.00000000000E+00 -0.00000000000E+00 -0.61723607067E+03  0.61723607067E+03  0.00000000000E+00 0. -1.
          6    1    1    2  501    0  0.99821378717E+02 -0.34647239371E+02 -0.23500012889E+03  0.31035270166E+03  0.17300000000E+03 0. -1.
         -6    1    1    2    0  503 -0.99821378717E+02  0.34647239371E+02 -0.31474352762E+03  0.37437578317E+03  0.17300000000E+03 0. -1.
<mgrwt>
<rscale>  2 0.20271591E+03</rscale>
<asrwt>0</asrwt>
<pdfrwt beam="1">  1       21 0.10383448E-01 0.20271591E+03</pdfrwt>
<pdfrwt beam="2">  1       21 0.94959395E-01 0.20271591E+03</pdfrwt>
<totfact> 0.70066286E+04</totfact>
</mgrwt>
</event>
<event>
 4    1  0.3957190E+000  0.2053170E+03  0.7546771E-02  0.1145329E+00
         21   -1    0    0  501  502  0.00000000000E+00  0.00000000000E+00  0.21124378705E+03  0.21124378705E+03  0.00000000000E+00 0.  1.
         21   -1    0    0  502  503 -0.00000000000E+00 -0.00000000000E+00 -0.22687543494E+03  0.22687543494E+03  0.00000000000E+00 0. -1.
          6    1    1    2  501    0  0.88385307766E+02 -0.66438679641E+02 -0.83831092337E+02  0.22177175840E+03  0.17300000000E+03 0. -1.
         -6    1    1    2    0  503 -0.88385307766E+02  0.66438679641E+02  0.68199444440E+02  0.21634746359E+03  0.17300000000E+03 0.  1.
<mgrwt>
<rscale>  2 0.20531698E+03</rscale>
<asrwt>0</asrwt>
<pdfrwt beam="1">  1       21 0.32499044E-01 0.20531698E+03</pdfrwt>
<pdfrwt beam="2">  1       21 0.34903913E-01 0.20531698E+03</pdfrwt>
<totfact> 0.71686994E+04</totfact>
</mgrwt>
</event>
<event>
 4    1  0.3957190E+000  0.2216379E+03  0.7546771E-02  0.1132668E+00
         21   -1    0    0  501  502  0.00000000000E+00  0.00000000000E+00  0.35311971729E+03  0.35311971729E+03  0.00000000000E+00 0.  1.
         21   -1    0    0  502  503 -0.00000000000E+00 -0.00000000000E+00 -0.16603166987E+03  0.16603166987E+03  0.00000000000E+00 0.  1.
          6    1    1    2  501    0  0.13730553118E+03  0.18480838323E+02  0.19806411040E+03  0.29724189157E+03  0.17300000000E+03 0.  1.
         -6    1    1    2    0  503 -0.13730553118E+03 -0.18480838323E+02 -0.10976062975E+02  0.22190949560E+03  0.17300000000E+03 0.  1.
<mgrwt>
<rscale>  2 0.22163788E+03</rscale>
<asrwt>0</asrwt>
<pdfrwt beam="1">  1       21 0.54326110E-01 0.22163788E+03</pdfrwt>
<pdfrwt beam="2">  1       21 0.25543334E-01 0.22163788E+03</pdfrwt>
<totfact> 0.45892440E+04</totfact>
</mgrwt>
</event>
<event>
 4    1  0.3957190E+000  0.1757206E+03  0.7546771E-02  0.1172010E+00
         21   -1    0    0  503  502  0.00000000000E+00  0.00000000000E+00  0.50913547531E+03  0.50913547531E+03  0.00000000000E+00 0. -1.
         21   -1    0    0  501  503 -0.00000000000E+00 -0.00000000000E+00 -0.65433061163E+02  0.65433061163E+02  0.00000000000E+00 0. -1.
          6    1    1    2  501    0 -0.12318486523E+02 -0.28230618238E+02  0.14415731750E+03  0.22728626247E+03  0.17300000000E+03 0. -1.
         -6    1    1    2    0  502  0.12318486523E+02  0.28230618238E+02  0.29954509665E+03  0.34728227401E+03  0.17300000000E+03 0. -1.
<mgrwt>
<rscale>  2 0.17572055E+03</rscale>
<asrwt>0</asrwt>
<pdfrwt beam="1">  1       21 0.78328532E-01 0.17572055E+03</pdfrwt>
<pdfrwt beam="2">  1       21 0.10066625E-01 0.17572055E+03</pdfrwt>
<totfact> 0.11642166E+05</totfact>
</mgrwt>
</event>
<event>
 4    1  0.3957190E+000  0.2255257E+03  0.7546771E-02  0.1129829E+00
         21   -1    0    0  501  502  0.00000000000E+00  0.00000000000E+00  0.58915990681E+03  0.58915990681E+03  0.00000000000E+00 0.  1.
         21   -1    0    0  502  503 -0.00000000000E+00 -0.00000000000E+00 -0.28418454173E+03  0.28418454173E+03  0.00000000000E+00 0.  1.
          6    1    1    2  501    0 -0.10573751367E+03  0.98754374012E+02  0.51684623101E+03  0.56390768277E+03  0.17300000000E+03 0.  1.
         -6    1    1    2    0  503  0.10573751367E+03 -0.98754374012E+02 -0.21187086592E+03  0.30943676577E+03  0.17300000000E+03 0.  1.
<mgrwt>
<rscale>  2 0.22552572E+03</rscale>
<asrwt>0</asrwt>
<pdfrwt beam="1">  1       21 0.90639986E-01 0.22552572E+03</pdfrwt>
<pdfrwt beam="2">  1       21 0.43720699E-01 0.22552572E+03</pdfrwt>
<totfact> 0.50692641E+03</totfact>
</mgrwt>
</event>
<event>
 4    1  0.3957190E+000  0.1755789E+03  0.7546771E-02  0.1172152E+00
         21   -1    0    0  501  502  0.00000000000E+00  0.00000000000E+00  0.84018400004E+03  0.84018400004E+03  0.00000000000E+00 0. -1.
         21   -1    0    0  502  503 -0.00000000000E+00 -0.00000000000E+00 -0.50326025321E+02  0.50326025321E+02  0.00000000000E+00 0. -1.
          6    1    1    2  501    0 -0.29846099751E+02 -0.28570611976E+01  0.62668235015E+03  0.65081389080E+03  0.17300000000E+03 0. -1.
         -6    1    1    2    0  503  0.29846099751E+02  0.28570611976E+01  0.16317562456E+03  0.23969613456E+03  0.17300000000E+03 0. -1.
<mgrwt>
<rscale>  2 0.17557891E+03</rscale>
<asrwt>0</asrwt>
<pdfrwt beam="1">  1       21 0.12925907E+00 0.17557891E+03</pdfrwt>
<pdfrwt beam="2">  1       21 0.77424660E-02 0.17557891E+03</pdfrwt>
<totfact> 0.56203864E+04</totfact>
</mgrwt>
</event>
<event>
 4    1  0.3957190E+000  0.2304397E+03  0.7546771E-02  0.1126331E+00
         21   -1    0    0  503  502  0.00000000000E+00  0.00000000000E+00  0.10294271121E+04  0.10294271121E+04  0.00000000000E+00 0.  1.
         21   -1    0    0  501  503 -0.00000000000E+00 -0.00000000000E+00 -0.60961364063E+02  0.60961364063E+02  0.00000000000E+00 0.  1.
          6    1    1    2  501    0  0.13239203549E+03 -0.75138652102E+02  0.27041054220E+03  0.35528063476E+03  0.17300000000E+03 0.  1.
         -6    1    1    2    0  502 -0.13239203549E+03  0.75138652102E+02  0.69805520586E+03  0.73510784143E+03  0.17300000000E+03 0.  1.
<mgrwt>
<rscale>  2 0.23043973E+03</rscale>
<asrwt>0</asrwt>
<pdfrwt beam="1">  1       21 0.15837339E+00 0.23043973E+03</pdfrwt>
<pdfrwt beam="2">  1       21 0.93786722E-02 0.23043973E+03</pdfrwt>
<totfact> 0.22948579E+04</totfact>
</mgrwt>
</event>
<event>
 4    1  0.3957190E+000  0.1890627E+03  0.7546771E-02  0.1159309E+00
         21   -1    0    0  501  502  0.00000000000E+00  0.00000000000E+00  0.16662991437E+03  0.16662991437E+03  0.00000000000E+00 0. -1.
         21   -1    0    0  502  503 -0.00000000000E+00 -0.00000000000E+00 -0.23468724384E+03  0.23468724384E+03  0.00000000000E+00 0.  1.
          6    1    1    2  501    0  0.15995278542E+02  0.74564439129E+02  0.24799375614E+02  0.19068223187E+03  0.17300000000E+03 0. -1.
         -6    1    1    2    0  503 -0.15995278542E+02 -0.74564439129E+02 -0.92856705080E+02  0.21063492635E+03  0.17300000000E+03 0.  1.
<mgrwt>
<rscale>  2 0.18906270E+03</rscale>
<asrwt>0</asrwt>
<pdfrwt beam="1">  1       21 0.25635371E-01 0.18906270E+03</pdfrwt>
<pdfrwt beam="2">  1       21 0.36105730E-01 0.18906270E+03</pdfrwt>
<totfact> 0.10693979E+05</totfact>
</mgrwt>
</event>
<event>
 4    1  0.3957190E+000  0.2293850E+03  0.7546771E-02  0.1127073E+00
         21   -1    0    0  501  502  0.00000000000E+00  0.00000000000E+00  0.91000878808E+03  0.91000878808E+03  0.00000000000E+00 0. -1.
         21   -1    0    0  502  503 -0.00000000000E+00 -0.00000000000E+00 -0.70911602064E+02  0.70911602064E+02  0.00000000000E+00 0.  1.
          6    1    1    2  501    0 -0.38715414693E+01  0.15057721075E+03  0.63027907044E+03  0.67072288754E+03  0.17300000000E+03 0. -1.
         -6    1    1    2    0  503  0.38715414693E+01 -0.15057721075E+03  0.20881811558E+03  0.31019750261E+03  0.17300000000E+03 0.  1.
<mgrwt>
<rscale>  2 0.22938502E+03</rscale>
<asrwt>0</asrwt>
<pdfrwt beam="1">  1       21 0.14000134E+00 0.22938502E+03</pdfrwt>
<pdfrwt beam="2">  1       21 0.10909478E-01 0.22938502E+03</pdfrwt>
<totfact> 0.24336876E+04</totfact>
</mgrwt>
</event>
<event>
 4    1  0.3957190E+000  0.2126667E+03  0.7546771E-02  0.1139471E+00
         21   -1    0    0  501  502  0.00000000000E+00  0.00000000000E+00  0.36027712614E+02  0.36027712614E+02  0.00000000000E+00 0.  1.
         21   -1    0    0  502  503 -0.00000000000E+00 -0.00000000000E+00 -0.14213355350E+04  0.14213355350E+04  0.00000000000E+00 0.  1.
          6    1    1    2  501    0 -0.10524573274E+03 -0.64972920631E+02 -0.44363432652E+03  0.49197414601E+03  0.17300000000E+03 0.  1.
         -6    1    1    2    0  503  0.10524573274E+03  0.64972920631E+02 -0.94167349586E+03  0.96538910159E+03  0.17300000000E+03 0.  1.
<mgrwt>
<rscale>  2 0.21266675E+03</rscale>
<asrwt>0</asrwt>
<pdfrwt beam="1">  1       21 0.55427255E-02 0.21266675E+03</pdfrwt>
<pdfrwt beam="2">  1       21 0.21866699E+00 0.21266675E+03</pdfrwt>
<totfact> 0.22792021E+04</totfact>
</mgrwt>
</event>
<event>
 4    1  0.3957190E+000  0.1745600E+03  0.7546771E-02  0.1173174E+00
         21   -1    0    0  501  502  0.00000000000E+00  0.00000000000E+00  0.62793178672E+03  0.62793178672E+03  0.00000000000E+00 0.  1.
         21   -1    0    0  502  503 -0.00000000000E+00 -0.00000000000E+00 -0.17516921201E+03  0.17516921201E+03  0.00000000000E+00 0.  1.
          6    1    1    2  501    0 -0.21561103456E+02 -0.87928423201E+01  0.56781134882E+03  0.59403781286E+03  0.17300000000E+03 0.  1.
         -6    1    1    2    0  503  0.21561103456E+02  0.87928423201E+01 -0.11504877411E+03  0.20906318586E+03  0.17300000000E+03 0.  1.
<mgrwt>
<rscale>  2 0.17456000E+03</rscale>
<asrwt>0</asrwt>
<pdfrwt beam="1">  1       21 0.96604889E-01 0.17456000E+03</pdfrwt>
<pdfrwt beam="2">  1       21 0.26949110E-01 0.17456000E+03</pdfrwt>
<totfact> 0.11830450E+04</totfact>
</mgrwt>
</event>
<event>
 4    1  0.3957190E+000  0.1955109E+03  0.7546771E-02  0.1153583E+00
         21   -1    0    0  503  502  0.00000000000E+00  0.00000000000E+00  0.26889285531E+03  0.26889285531E+03  0.00000000000E+00 0. -1.
         21   -1    0    0  501  503 -0.00000000000E+00 -0.00000000000E+00 -0.17546847668E+03  0.17546847668E+03  0.00000000000E+00 0.  1.
          6    1    1    2  501    0  0.79356719027E+02 -0.44699101755E+02 -0.50096836454E+02  0.20182713290E+03  0.17300000000E+03 0.  1.
         -6    1    1    2    0  502 -0.79356719027E+02  0.44699101755E+02  0.14352121508E+03  0.24253419910E+03  0.17300000000E+03 0. -1.
<mgrwt>
<rscale>  2 0.19551087E+03</rscale>
<asrwt>0</asrwt>
<pdfrwt beam="1">  1       21 0.41368132E-01 0.19551087E+03</pdfrwt>
<pdfrwt beam="2">  1       21 0.26995150E-01 0.19551087E+03</pdfrwt>
<totfact> 0.73475516E+04</totfact>
</mgrwt>
</event>
<event>
 4    1  0.3957190E+000  0.2314593E+03  0.7546771E-02  0.1125617E+00
         21   -1    0    0  501  502  0.00000000000E+00  0.00000000000E+00  0.55711866866E+03  0.55711866866E+03  0.00000000000E+00 0. -1.
         21   -1    0    0  502  503 -0.00000000000E+00 -0.00000000000E+00 -0.49089317539E+03  0.49089317539E+03  0.00000000000E+00 0. -1.
          6    1    1    2  501    0 -0.51586752032E+02  0.14485588422E+03  0.50299996776E+03  0.55369882404E+03  0.17300000000E+03 0. -1.
         -6    1    1    2    0  503  0.51586752032E+02 -0.14485588422E+03 -0.43677447449E+03  0.49431302001E+03  0.17300000000E+03 0. -1.
<mgrwt>
<rscale>  2 0.23145933E+03</rscale>
<asrwt>0</asrwt>
<pdfrwt beam="1">  1       21 0.85710564E-01 0.23145933E+03</pdfrwt>
<pdfrwt beam="2">  1       21 0.75522027E-01 0.23145933E+03</pdfrwt>
<totfact> 0.17797584E+03</totfact>
</mgrwt>
</event>
<event>
 4    1  0.3957190E+000  0.1852350E+03  0.7546771E-02  0.1162831E+00
         21   -1    0    0  501  502  0.00000000000E+00  0.00000000000E+00  0.24293688134E+03  0.24293688134E+03  0.00000000000E+00 0.  1.
         21   -1    0    0  502  503 -0.00000000000E+00 -0.00000000000E+00 -0.27997710032E+03  0.27997710032E+03  0.00000000000E+00 0.  1.
          6    1    1    2  501    0 -0.97079677988E+01  0.65488548339E+02  0.16553079425E+03  0.24841988336E+03  0.17300000000E+03 0.  1.
         -6    1    1    2    0  503  0.97079677988E+01 -0.65488548339E+02 -0.20257101323E+03  0.27449409830E+03  0.17300000000E+03 0.  1.
<mgrwt>
<rscale>  2 0.18523497E+03</rscale>
<asrwt>0</asrwt>
<pdfrwt beam="1">  1       21 0.37374905E-01 0.18523497E+03</pdfrwt>
<pdfrwt beam="2">  1       21 0.43073400E-01 0.18523497E+03</pdfrwt>
<totfact> 0.35919121E+04</totfact>
</mgrwt>
</event>
<event>
 4    1  0.3957190E+000  0.2401771E+03  0.7546771E-02  0.1119675E+00
         21   -1    0    0  501  502  0.00000000000E+00  0.00000000000E+00  0.53881839089E+02  0.53881839089E+02  0.00000000000E+00 0.  1.
         21   -1    0    0  502  503 -0.00000000000E+00 -0.00000000000E+00 -0.19620025529E+04  0.19620025529E+04  0.00000000000E+00 0. -1.
          6    1    1    2  501    0 -0.70921568749E+02 -0.15075195533E+03 -0.27465848412E+03  0.36485929322E+03  0.17300000000E+03 0.  1.
         -6    1    1    2    0  503  0.70921568749E+02  0.15075195533E+03 -0.16334622297E+04  0.16510250988E+04  0.17300000000E+03 0. -1.
<mgrwt>
<rscale>  2 0.24017706E+03</rscale>
<asrwt>0</asrwt>
<pdfrwt beam="1">  1       21 0.82895150E-02 0.24017706E+03</pdfrwt>
<pdfrwt beam="2">  1       21 0.30184650E+00 0.24017706E+03</pdfrwt>
<totfact> 0.35680848E+03</totfact>
</mgrwt>
</event>
<event>
 4    1  0.3957190E+000  0.2375867E+03  0.7546771E-02  0.1121411E+00
         21   -1    0    0  501  502  0.00000000000E+00  0.00000000000E+00  0.17402116821E+04  0.17402116821E+04  0.00000000000E+00 0.  1.
         21   -1    0    0  502  503 -0.00000000000E+00 -0.00000000000E+00 -0.11641059187E+03  0.11641059187E+03  0.00000000000E+00 0.  1.
          6    1    1    2  501    0  0.10023468755E+03  0.12834108391E+03  0.16003401098E+04  0.16178800615E+04  0.17300000000E+03 0.  1.
         -6    1    1    2    0  503 -0.10023468755E+03 -0.12834108391E+03  0.23460980444E+02  0.23874221246E+03  0.17300000000E+03 0.  1.
<mgrwt>
<rscale>  2 0.23758667E+03</rscale>
<asrwt>0</asrwt>
<pdfrwt beam="1">  1       21 0.26772486E+00 0.23758667E+03</pdfrwt>
<pdfrwt beam="2">  1       21 0.17909323E-01 0.23758667E+03</pdfrwt>
<totfact> 0.14118886E+03</totfact>
</mgrwt>
</event>
<event>
 4    1  0.3957190E+000  0.1823959E+03  0.7546771E-02  0.1165504E+00
         21   -1    0    0  503  502  0.00000000000E+00  0.00000000000E+00  0.36286587232E+03  0.36286587232E+03  0.00000000000E+00 0. -1.
         21   -1    0    0  501  503 -0.00000000000E+00 -0.00000000000E+00 -0.92039312472E+02  0.92039312472E+02  0.00000000000E+00 0. -1.
          6    1    1    2  501    0 -0.12393434152E+02  0.56441814208E+02  0.12124173877E+03  0.21901560406E+03  0.17300000000E+03 0. -1.
         -6    1    1    2    0  502  0.12393434152E+02 -0.56441814208E+02  0.14958482107E+03  0.23588958073E+03  0.17300000000E+03 0. -1.
<mgrwt>
<rscale>  2 0.18239593E+03</rscale>
<asrwt>0</asrwt>
<pdfrwt beam="1">  1       21 0.55825518E-01 0.18239593E+03</pdfrwt>
<pdfrwt beam="2">  1       21 0.14159894E-01 0.18239593E+03</pdfrwt>
<totfact> 0.13211151E+05</totfact>
</mgrwt>
</event>
<event>
 4    1  0.3957190E+000  0.1756438E+03  0.7546771E-02  0.1172087E+00
         21   -1    0    0  503  502  0.00000000000E+00  0.00000000000E+00  0.20141285434E+02  0.20141285434E+02  0.00000000000E+00 0.  1.
         21   -1    0    0  501  503 -0.00000000000E+00 -0.00000000000E+00 -0.16261829356E+04  0.16261829356E+04  0.00000000000E+00 0.  1.
          6    1    1    2  501    0 -0.16964329472E+02  0.25178579178E+02 -0.10014192797E+04  0.10167061144E+04  0.17300000000E+03 0. -1.
         -6    1    1    2    0  502  0.16964329472E+02 -0.25178579178E+02 -0.60462237051E+03  0.62961810667E+03  0.17300000000E+03 0. -1.
<mgrwt>
<rscale>  2 0.17564381E+03</rscale>
<asrwt>0</asrwt>
<pdfrwt beam="1">  1       21 0.30986596E-02 0.17564381E+03</pdfrwt>
<pdfrwt beam="2">  1       21 0.25018197E+00 0.17564381E+03</pdfrwt>
<totfact> 0.40337270E+04</totfact>
</mgrwt>
</event>
<event>
 4    1  0.3957190E+000  0.1849491E+03  0.7546771E-02  0.1163097E+00
         21   -1    0    0  501  502  0.00000000000E+00  0.00000000000E+00  0.35549349687E+03  0.35549349687E+03  0.00000000000E+00 0.  1.
         21   -1    0    0  502  503 -0.00000000000E+00 -0.00000000000E+00 -0.96523791953E+02  0.96523791953E+02  0.00000000000E+00 0.  1.
          6    1    1    2  501    0  0.38789627202E+02  0.52655016369E+02  0.14212880511E+03  0.23325261664E+03  0.17300000000E+03 0.  1.
         -6    1    1    2    0  503 -0.38789627202E+02 -0.52655016369E+02  0.11684089980E+03  0.21876467218E+03  0.17300000000E+03 0.  1.
<mgrwt>
<rscale>  2 0.18494914E+03</rscale>
<asrwt>0</asrwt>
<pdfrwt beam="1">  1       21 0.54691307E-01 0.18494914E+03</pdfrwt>
<pdfrwt beam="2">  1       21 0.14849814E-01 0.18494914E+03</pdfrwt>
<totfact> 0.12645304E+05</totfact>
</mgrwt>
</event>
<event>
 4    1  0.3957190E+000  0.1816924E+03  0.7546771E-02  0.1166175E+00
         21   -1    0    0  503  502  0.00000000000E+00  0.00000000000E+00  0.13742167009E+03  0.13742167009E+03  0.00000000000E+00 0.  1.
         21   -1    0    0  501  503 -0.00000000000E+00 -0.00000000000E+00 -0.24398309906E+03  0.24398309906E+03  0.00000000000E+00 0.  1.
          6    1    1    2  501    0  0.55524844541E+02 -0.34939964720E+00 -0.29613002981E+02  0.18408981609E+03  0.17300000000E+03 0.  1.
         -6    1    1    2    0  502 -0.55524844541E+02  0.34939964720E+00 -0.76948425988E+02  0.19731495307E+03  0.17300000000E+03 0.  1.
<mgrwt>
<rscale>  2 0.18169241E+03</rscale>
<asrwt>0</asrwt>
<pdfrwt beam="1">  1       21 0.21141795E-01 0.18169241E+03</pdfrwt>
<pdfrwt beam="2">  1       21 0.37535861E-01 0.18169241E+03</pdfrwt>
<totfact> 0.14291452E+05</totfact>
</mgrwt>
</event>
<event>
 4    1  0.3957190E+000  0.1842125E+03  0.7546771E-02  0.1163787E+00
         21   -1    0    0  501  502  0.00000000000E+00  0.00000000000E+00  0.39159868056E+02  0.39159868056E+02  0.00000000000E+00 0. -1.
         21   -1    0    0  502  503 -0.00000000000E+00 -0.00000000000E+00 -0.10513007474E+04  0.10513007474E+04  0.00000000000E+00 0.  1.
          6    1    1    2  501    0 -0.52068405305E+02  0.35973845365E+02 -0.27750949671E+03  0.33308521003E+03  0.17300000000E+03 0. -1.
         -6    1    1    2    0  503  0.52068405305E+02 -0.35973845365E+02 -0.73463138260E+03  0.75737540539E+03  0.17300000000E+03 0.  1.
<mgrwt>
<rscale>  2 0.18421248E+03</rscale>
<asrwt>0</asrwt>
<pdfrwt beam="1">  1       21 0.60245951E-02 0.18421248E+03</pdfrwt>
<pdfrwt beam="2">  1       21 0.16173857E+00 0.18421248E+03</pdfrwt>
<totfact> 0.48100402E+04</totfact>
</mgrwt>
</event>
<event>
 4    1  0.3957190E+000  0.2196353E+03  0.7546771E-02  0.1134155E+00
         21   -1    0    0  501  502  0.00000000000E+00  0.00000000000E+00  0.52058386741E+02  0.52058386741E+02  0.00000000000E+00 0. -1.
         21   -1    0    0  502  503 -0.00000000000E+00 -0.00000000000E+00 -0.92858176777E+03  0.92858176777E+03  0.00000000000E+00 0.  1.
          6    1    1    2  501    0  0.11848083974E+03  0.65367852477E+02 -0.41587130632E+03  0.47030693057E+03  0.17300000000E+03 0. -1.
         -6    1    1    2    0  503 -0.11848083974E+03 -0.65367852477E+02 -0.46065207471E+03  0.51033322394E+03  0.17300000000E+03 0. -1.
<mgrwt>
<rscale>  2 0.21963530E+03</rscale>
<asrwt>0</asrwt>
<pdfrwt beam="1">  1       21 0.80089826E-02 0.21963530E+03</pdfrwt>
<pdfrwt beam="2">  1       21 0.14285873E+00 0.21963530E+03</pdfrwt>
<totfact> 0.40051706E+04</totfact>
</mgrwt>
</event>
<event>
 4    1  0.3957190E+000  0.1930614E+03  0.7546771E-02  0.1155729E+00
         21   -1    0    0  501  502  0.00000000000E+00  0.00000000000E+00  0.12819813166E+03  0.12819813166E+03  0.00000000000E+00 0. -1.
         21   -1    0    0  502  503 -0.00000000000E+00 -0.00000000000E+00 -0.30107309213E+03  0.30107309213E+03  0.00000000000E+00 0. -1.
          6    1    1    2  501    0 -0.34240144448E+02  0.78557691860E+02 -0.12619503834E+03  0.23064666948E+03  0.17300000000E+03 0. -1.
         -6    1    1    2    0  503  0.34240144448E+02 -0.78557691860E+02 -0.46679922135E+02  0.19862455430E+03  0.17300000000E+03 0. -1.
<mgrwt>
<rscale>  2 0.19306139E+03</rscale>
<asrwt>0</asrwt>
<pdfrwt beam="1">  1       21 0.19722790E-01 0.19306139E+03</pdfrwt>
<pdfrwt beam="2">  1       21 0.46318937E-01 0.19306139E+03</pdfrwt>
<totfact> 0.10578182E+05</totfact>
</mgrwt>
</event>
<event>
 4    1  0.3957190E+000  0.2051320E+03  0.7546771E-02  0.1145480E+00
         21   -1    0    0  503  502  0.00000000000E+00  0.00000000000E+00  0.18710110467E+03  0.18710110467E+03  0.00000000000E+00 0.  1.
         21   -1    0    0  501  503 -0.00000000000E+00 -0.00000000000E+00 -0.29343708566E+03  0.29343708566E+03  0.00000000000E+00 0.  1.
          6    1    1    2  501    0 -0.93863505214E+02 -0.57790717753E+02 -0.16928658461E+03  0.26596441942E+03  0.17300000000E+03 0.  1.
         -6    1    1    2    0  502  0.93863505214E+02  0.57790717753E+02  0.62950603619E+02  0.21457377092E+03  0.17300000000E+03 0.  1.
<mgrwt>
<rscale>  2 0.20513197E+03</rscale>
<asrwt>0</asrwt>
<pdfrwt beam="1">  1       21 0.28784785E-01 0.20513197E+03</pdfrwt>
<pdfrwt beam="2">  1       21 0.45144167E-01 0.20513197E+03</pdfrwt>
<totfact> 0.54042347E+04</totfact>
</mgrwt>
</event>
<event>
 4    1  0.3957190E+000  0.2236351E+03  0.7546771E-02  0.1131202E+00
         21   -1    0    0  501  502  0.00000000000E+00  0.00000000000E+00  0.40397323003E+03  0.40397323003E+03  0.00000000000E+00 0.  1.
         21   -1    0    0  502  503 -0.00000000000E+00 -0.00000000000E+00 -0.32182920480E+03  0.32182920480E+03  0.00000000000E+00 0.  1.
          6    1    1    2  501    0  0.91004939138E+02  0.10863588011E+03  0.32573974212E+03  0.39511901118E+03  0.17300000000E+03 0.  1.
         -6    1    1    2    0  503 -0.91004939138E+02 -0.10863588011E+03 -0.24359571689E+03  0.33068342366E+03  0.17300000000E+03 0.  1.
<mgrwt>
<rscale>  2 0.22363509E+03</rscale>
<asrwt>0</asrwt>
<pdfrwt beam="1">  1       21 0.62149728E-01 0.22363509E+03</pdfrwt>
<pdfrwt beam="2">  1       21 0.49512185E-01 0.22363509E+03</pdfrwt>
<totfact> 0.91490688E+03</totfact>
</mgrwt>
</event>
<event>
 4    1  0.3957190E+000  0.1751709E+03  0.7546771E-02  0.1172560E+00
         21   -1    0    0  503  502  0.00000000000E+00  0.00000000000E+00  0.57754148490E+02  0.57754148490E+02  0.00000000000E+00 0. -1.
         21   -1    0    0  501  503 -0.00000000000E+00 -0.00000000000E+00 -0.80456304824E+03  0.80456304824E+03  0.00000000000E+00 0. -1.
          6    1    1    2  501    0  0.25213814188E+02  0.10959442575E+02 -0.62467786736E+03  0.64877367686E+03  0.17300000000E+03 0. -1.
         -6    1    1    2    0  502 -0.25213814188E+02 -0.10959442575E+02 -0.12213103238E+03  0.21354351987E+03  0.17300000000E+03 0. -1.
<mgrwt>
<rscale>  2 0.17517090E+03</rscale>
<asrwt>0</asrwt>
<pdfrwt beam="1">  1       21 0.88852542E-02 0.17517090E+03</pdfrwt>
<pdfrwt beam="2">  1       21 0.12377892E+00 0.17517090E+03</pdfrwt>
<totfact> 0.49297404E+04</totfact>
</mgrwt>
</event>
<event>
 4    1  0.3957190E+000  0.1920458E+03  0.7546771E-02  0.1156629E+00
         21   -1    0    0  501  502  0.00000000000E+00  0.00000000000E+00  0.63850343141E+02  0.63850343141E+02  0.00000000000E+00 0. -1.
         21   -1    0    0  502  503 -0.00000000000E+00 -0.00000000000E+00 -0.58889267426E+03  0.58889267426E+03  0.00000000000E+00 0. -1.
          6    1    1    2  501    0  0.38289599412E+02  0.74070942832E+02 -0.21737736034E+03  0.29005950215E+03  0.17300000000E+03 0. -1.
         -6    1    1    2    0  503 -0.38289599412E+02 -0.74070942832E+02 -0.30766497078E+03  0.36268351526E+03  0.17300000000E+03 0. -1.
<mgrwt>
<rscale>  2 0.19204582E+03</rscale>
<asrwt>0</asrwt>
<pdfrwt beam="1">  1       21 0.98231291E-02 0.19204582E+03</pdfrwt>
<pdfrwt beam="2">  1       21 0.90598879E-01 0.19204582E+03</pdfrwt>
<totfact> 0.86663456E+04</totfact>
</mgrwt>
</event>
<event>
 4    1  0.3957190E+000  0.1867120E+03  0.7546771E-02  0.1161461E+00
         21   -1    0    0  501  502  0.00000000000E+00  0.00000000000E+00  0.65840267877E+03  0.65840267877E+03  0.00000000000E+00 0. -1.
         21   -1    0    0  502  503 -0.00000000000E+00 -0.00000000000E+00 -0.57505441390E+02  0.57505441390E+02  0.00000000000E+00 0.  1.
          6    1    1    2  501    0  0.43158442284E+02  0.55405198707E+02  0.40121437037E+03  0.44253175951E+03  0.17300000000E+03 0. -1.
         -6    1    1    2    0  503 -0.43158442284E+02 -0.55405198707E+02  0.19968286701E+03  0.27337636065E+03  0.17300000000E+03 0.  1.
<mgrwt>
<rscale>  2 0.18671204E+03</rscale>
<asrwt>0</asrwt>
<pdfrwt beam="1">  1       21 0.10129271E+00 0.18671204E+03</pdfrwt>
<pdfrwt beam="2">  1       21 0.88469915E-02 0.18671204E+03</pdfrwt>
<totfact> 0.80361165E+04</totfact>
</mgrwt>
</event>
<event>
 4    1  0.3957190E+000  0.2001220E+03  0.7546771E-02  0.1149636E+00
         21   -1    0    0  503  502  0.00000000000E+00  0.00000000000E+00  0.50280970741E+02  0.50280970741E+02  0.00000000000E+00 0.  1.
         21   -1    0    0  501  503 -0.00000000000E+00 -0.00000000000E+00 -0.11850073847E+04  0.11850073847E+04  0.00000000000E+00 0.  1.
          6    1    1    2  501    0  0.87138231652E+02  0.50266624622E+02 -0.92101619491E+03  0.94250710144E+03  0.17300000000E+03 0.  1.
         -6    1    1    2    0  502 -0.87138231652E+02 -0.50266624622E+02 -0.21371021901E+03  0.29278125397E+03  0.17300000000E+03 0.  1.
<mgrwt>
<rscale>  2 0.20012198E+03</rscale>
<asrwt>0</asrwt>
<pdfrwt beam="1">  1       21 0.77355342E-02 0.20012198E+03</pdfrwt>
<pdfrwt beam="2">  1       21 0.18230882E+00 0.20012198E+03</pdfrwt>
<totfact> 0.22211857E+04</totfact>
</mgrwt>
</event>
<event>
 4    1  0.3957190E+000  0.1795202E+03  0.7546771E-02  0.1168268E+00
         21   -1    0    0  501  502  0.00000000000E+00  0.00000000000E+00  0.13760327516E+03  0.13760327516E+03  0.00000000000E+00 0.  1.
         21   -1    0    0  502  503 -0.00000000000E+00 -0.00000000000E+00 -0.28985719661E+03  0.28985719661E+03  0.00000000000E+00 0.  1.
          6    1    1    2  501    0 -0.31616960787E+02 -0.36039779484E+02  0.17523861127E+02  0.18037345598E+03  0.17300000000E+03 0.  1.
         -6    1    1    2    0  503  0.31616960787E+02  0.36039779484E+02 -0.16977778258E+03  0.24708701579E+03  0.17300000000E+03 0.  1.
<mgrwt>
<rscale>  2 0.17952019E+03</rscale>
<asrwt>0</asrwt>
<pdfrwt beam="1">  1       21 0.21169735E-01 0.17952019E+03</pdfrwt>
<pdfrwt beam="2">  1       21 0.44593414E-01 0.17952019E+03</pdfrwt>
<totfact> 0.10068238E+05</totfact>
</mgrwt>
</event>
<event>
 4    1  0.3957190E+000  0.1839306E+03  0.7546771E-02  0.1164052E+00
         21   -1    0    0  501  502  0.00000000000E+00  0.00000000000E+00  0.25173294048E+03  0.25173294048E+03  0.00000000000E+00 0. -1.
         21   -1    0    0  502  503 -0.00000000000E+00 -0.00000000000E+00 -0.14803773958E+03  0.14803773958E+03  0.00000000000E+00 0. -1.
          6    1    1    2  501    0 -0.55874523443E+02 -0.27919364176E+02  0.11253815100E+03  0.21562766218E+03  0.17300000000E+03 0. -1.
         -6    1    1    2    0  503  0.55874523443E+02  0.27919364176E+02 -0.88429501003E+01  0.18414301788E+03  0.17300000000E+03 0. -1.
<mgrwt>
<rscale>  2 0.18393057E+03</rscale>
<asrwt>0</asrwt>
<pdfrwt beam="1">  1       21 0.38728145E-01 0.18393057E+03</pdfrwt>
<pdfrwt beam="2">  1       21 0.22775037E-01 0.18393057E+03</pdfrwt>
<totfact> 0.11660362E+05</totfact>
</mgrwt>
</event>
<event>
 4    1  0.3957190E+000  0.3595959E+03  0.7546771E-02  0.1058744E+00
         21   -1    0    0  503  502  0.00000000000E+00  0.00000000000E+00  0.30949670558E+03  0.30949670558E+03  0.00000000000E+00 0.  1.
         21   -1    0    0  501  503 -0.00000000000E+00 -0.00000000000E+00 -0.41864960456E+03  0.41864960456E+03  0.00000000000E+00 0. -1.
          6    1    1    2  501    0  0.21472894129E+03 -0.23080662879E+03 -0.38222072283E+02  0.36162154932E+03  0.17300000000E+03 0.  1.
         -6    1    1    2    0  502 -0.21472894129E+03  0.23080662879E+03 -0.70930826702E+02  0.36652476082E+03  0.17300000000E+03 0. -1.
<mgrwt>
<rscale>  2 0.35959591E+03</rscale>
<asrwt>0</asrwt>
<pdfrwt beam="1">  1       21 0.47614878E-01 0.35959591E+03</pdfrwt>
<pdfrwt beam="2">  1       21 0.64407632E-01 0.35959591E+03</pdfrwt>
<totfact> 0.85978957E+03</totfact>
</mgrwt>
</event>
<event>
 4    1  0.3957190E+000  0.1774597E+03  0.7546771E-02  0.1170284E+00
         21   -1    0    0  501  502  0.00000000000E+00  0.00000000000E+00  0.39067722932E+03  0.39067722932E+03  0.00000000000E+00 0. -1.
         21   -1    0    0  502  503 -0.00000000000E+00 -0.00000000000E+00 -0.10228057624E+03  0.10228057624E+03  0.00000000000E+00 0. -1.
          6    1    1    2  501    0 -0.29732290417E+02 -0.26056416885E+02  0.25765561232E+03  0.31285517498E+03  0.17300000000E+03 0.  1.
         -6    1    1    2    0  503  0.29732290417E+02  0.26056416885E+02  0.30741040755E+02  0.18010263058E+03  0.17300000000E+03 0.  1.
<mgrwt>
<rscale>  2 0.17745970E+03</rscale>
<asrwt>0</asrwt>
<pdfrwt beam="1">  1       21 0.60104189E-01 0.17745970E+03</pdfrwt>
<pdfrwt beam="2">  1       21 0.15735473E-01 0.17745970E+03</pdfrwt>
<totfact> 0.93358408E+04</totfact>
</mgrwt>
</event>
<event>
 4    1  0.3957190E+000  0.2551050E+03  0.7546771E-02  0.1110120E+00
         21   -1    0    0  501  502  0.00000000000E+00  0.00000000000E+00  0.85234520641E+03  0.85234520641E+03  0.00000000000E+00 0. -1.
         21   -1    0    0  502  503 -0.00000000000E+00 -0.00000000000E+00 -0.21031265237E+03  0.21031265237E+03  0.00000000000E+00 0. -1.
          6    1    1    2  501    0  0.99654217439E+02  0.15880371583E+03  0.74506794608E+03  0.78753084224E+03  0.17300000000E+03 0. -1.
         -6    1    1    2    0  503 -0.99654217439E+02 -0.15880371583E+03 -0.10303539205E+03  0.27512701654E+03  0.17300000000E+03 0. -1.
<mgrwt>
<rscale>  2 0.25510504E+03</rscale>
<asrwt>0</asrwt>
<pdfrwt beam="1">  1       21 0.13113003E+00 0.25510504E+03</pdfrwt>
<pdfrwt beam="2">  1       21 0.32355793E-01 0.25510504E+03</pdfrwt>
<totfact> 0.37063963E+03</totfact>
</mgrwt>
</event>
<event>
 4    1  0.3957190E+000  0.2122212E+03  0.7546771E-02  0.1139819E+00
         21   -1    0    0  503  502  0.00000000000E+00  0.00000000000E+00  0.12768071126E+03  0.12768071126E+03  0.00000000000E+00 0. -1.
         21   -1    0    0  501  503 -0.00000000000E+00 -0.00000000000E+00 -0.43890013163E+03  0.43890013163E+03  0.00000000000E+00 0. -1.
          6    1    1    2  501    0 -0.45387798569E+02 -0.11423119872E+03 -0.28112818149E+03  0.35223695639E+03  0.17300000000E+03 0. -1.
         -6    1    1    2    0  502  0.45387798569E+02  0.11423119872E+03 -0.30091238882E+02  0.21434388650E+03  0.17300000000E+03 0. -1.
<mgrwt>
<rscale>  2 0.21222116E+03</rscale>
<asrwt>0</asrwt>
<pdfrwt beam="1">  1       21 0.19643186E-01 0.21222116E+03</pdfrwt>
<pdfrwt beam="2">  1       21 0.67523098E-01 0.21222116E+03</pdfrwt>
<totfact> 0.47416931E+04</totfact>
</mgrwt>
</event>
<event>
 4    1  0.3957190E+000  0.2372965E+03  0.7546771E-02  0.1121607E+00
         21   -1    0    0  503  502  0.00000000000E+00  0.00000000000E+00  0.91584484784E+03  0.91584484784E+03  0.00000000000E+00 0.  1.
         21   -1    0    0  501  503 -0.00000000000E+00 -0.00000000000E+00 -0.62248203359E+02  0.62248203359E+02  0.00000000000E+00 0. -1.
          6    1    1    2  501    0 -0.59538237318E+02  0.15111526205E+03  0.48099182622E+03  0.53634201869E+03  0.17300000000E+03 0. -1.
         -6    1    1    2    0  502  0.59538237318E+02 -0.15111526205E+03  0.37260481827E+03  0.44175103251E+03  0.17300000000E+03 0. -1.
<mgrwt>
<rscale>  2 0.23729649E+03</rscale>
<asrwt>0</asrwt>
<pdfrwt beam="1">  1       21 0.14089920E+00 0.23729649E+03</pdfrwt>
<pdfrwt beam="2">  1       21 0.95766473E-02 0.23729649E+03</pdfrwt>
<totfact> 0.30042885E+04</totfact>
</mgrwt>
</event>
<event>
 4    1  0.3957190E+000  0.1772657E+03  0.7546771E-02  0.1170476E+00
         21   -1    0    0  503  502  0.00000000000E+00  0.00000000000E+00  0.60700639314E+02  0.60700639314E+02  0.00000000000E+00 0.  1.
         21   -1    0    0  501  503 -0.00000000000E+00 -0.00000000000E+00 -0.65120802476E+03  0.65120802476E+03  0.00000000000E+00 0.  1.
          6    1    1    2  501    0  0.97627355813E+01 -0.37400899697E+02 -0.45644087361E+03  0.48965437750E+03  0.17300000000E+03 0.  1.
         -6    1    1    2    0  502 -0.97627355813E+01  0.37400899697E+02 -0.13406651184E+03  0.22225428657E+03  0.17300000000E+03 0.  1.
<mgrwt>
<rscale>  2 0.17726573E+03</rscale>
<asrwt>0</asrwt>
<pdfrwt beam="1">  1       21 0.93385605E-02 0.17726573E+03</pdfrwt>
<pdfrwt beam="2">  1       21 0.10018584E+00 0.17726573E+03</pdfrwt>
<totfact> 0.75346101E+04</totfact>
</mgrwt>
</event>
<event>
 4    1  0.3957190E+000  0.2212003E+03  0.7546771E-02  0.1132991E+00
         21   -1    0    0  503  502  0.00000000000E+00  0.00000000000E+00  0.12662156484E+04  0.12662156484E+04  0.00000000000E+00 0. -1.
         21   -1    0    0  501  503 -0.00000000000E+00 -0.00000000000E+00 -0.93539551781E+02  0.93539551781E+02  0.00000000000E+00 0.  1.
          6    1    1    2  501    0  0.69394063979E+02 -0.11910098791E+03  0.65493538204E+02  0.23069240339E+03  0.17300000000E+03 0.  1.
         -6    1    1    2    0  502 -0.69394063979E+02  0.11910098791E+03  0.11071825584E+04  0.11290627968E+04  0.17300000000E+03 0. -1.
<mgrwt>
<rscale>  2 0.22120032E+03</rscale>
<asrwt>0</asrwt>
<pdfrwt beam="1">  1       21 0.19480240E+00 0.22120032E+03</pdfrwt>
<pdfrwt beam="2">  1       21 0.14390701E-01 0.22120032E+03</pdfrwt>
<totfact> 0.59883876E+03</totfact>
</mgrwt>
</event>
<event>
 4    1  0.3957190E+000  0.2728697E+03  0.7546771E-02  0.1099648E+00
         21   -1    0    0  501  502  0.00000000000E+00  0.00000000000E+00  0.42154328421E+03  0.42154328421E+03  0.00000000000E+00 0.  1.
         21   -1    0    0  502  503 -0.00000000000E+00 -0.00000000000E+00 -0.19857958281E+03  0.19857958281E+03  0.00000000000E+00 0. -1.
          6    1    1    2  501    0  0.22954624268E+02 -0.20976641200E+03  0.84010424527E+01  0.27299897416E+03  0.17300000000E+03 0. -1.
         -6    1    1    2    0  503 -0.22954624268E+02  0.20976641200E+03  0.21456265895E+03  0.34712389286E+03  0.17300000000E+03 0.  1.
<mgrwt>
<rscale>  2 0.27286968E+03</rscale>
<asrwt>0</asrwt>
<pdfrwt beam="1">  1       21 0.64852813E-01 0.27286968E+03</pdfrwt>
<pdfrwt beam="2">  1       21 0.30550705E-01 0.27286968E+03</pdfrwt>
<totfact> 0.21616115E+04</totfact>
</mgrwt>
</event>
<event>
 4    1  0.3957190E+000  0.1778903E+03  0.7546771E-02  0.1169861E+00
         21   -1    0    0  503  502  0.00000000000E+00  0.00000000000E+00  0.12271393458E+04  0.12271393458E+04  0.00000000000E+00 0. -1.
         21   -1    0    0  501  503 -0.00000000000E+00 -0.00000000000E+00 -0.30634372797E+02  0.30634372797E+02  0.00000000000E+00 0. -1.
          6    1    1    2  501    0 -0.28567592702E+02 -0.29997710876E+02  0.34810584991E+03  0.39092538003E+03  0.17300000000E+03 0. -1.
         -6    1    1    2    0  502  0.28567592702E+02  0.29997710876E+02  0.84839912308E+03  0.86684833856E+03  0.17300000000E+03 0. -1.
<mgrwt>
<rscale>  2 0.17789033E+03</rscale>
<asrwt>0</asrwt>
<pdfrwt beam="1">  1       21 0.18879063E+00 0.17789033E+03</pdfrwt>
<pdfrwt beam="2">  1       21 0.47129814E-02 0.17789033E+03</pdfrwt>
<totfact> 0.47681351E+04</totfact>
</mgrwt>
</event>
<event>
 4    1  0.3957190E+000  0.1949835E+03  0.7546771E-02  0.1154042E+00
         21   -1    0    0  501  502  0.00000000000E+00  0.00000000000E+00  0.48506137078E+03  0.48506137078E+03  0.00000000000E+00 0.  1.
         21   -1    0    0  502  503 -0.00000000000E+00 -0.00000000000E+00 -0.38391094275E+03  0.38391094275E+03  0.00000000000E+00 0.  1.
          6    1    1    2  501    0 -0.31690665842E+02 -0.84173928868E+02  0.43817999142E+03  0.47960426758E+03  0.17300000000E+03 0.  1.
         -6    1    1    2    0  503  0.31690665842E+02  0.84173928868E+02 -0.33702956339E+03  0.38936804594E+03  0.17300000000E+03 0.  1.
<mgrwt>
<rscale>  2 0.19498346E+03</rscale>
<asrwt>0</asrwt>
<pdfrwt beam="1">  1       21 0.74624827E-01 0.19498346E+03</pdfrwt>
<pdfrwt beam="2">  1       21 0.59063221E-01 0.19498346E+03</pdfrwt>
<totfact> 0.43012699E+03</totfact>
</mgrwt>
</event>
<event>
 4    1  0.3957190E+000  0.1831049E+03  0.7546771E-02  0.1164831E+00
         21   -1    0    0  501  502  0.00000000000E+00  0.00000000000E+00  0.74565191633E+03  0.74565191633E+03  0.00000000000E+00 0.  1.
         21   -1    0    0  502  503 -0.00000000000E+00 -0.00000000000E+00 -0.46771339600E+02  0.46771339600E+02  0.00000000000E+00 0.  1.
          6    1    1    2  501    0  0.72110566684E+01  0.59551767936E+02  0.42732821504E+03  0.46490516858E+03  0.17300000000E+03 0.  1.
         -6    1    1    2    0  503 -0.72110566684E+01 -0.59551767936E+02  0.27155236169E+03  0.32751808735E+03  0.17300000000E+03 0.  1.
<mgrwt>
<rscale>  2 0.18310492E+03</rscale>
<asrwt>0</asrwt>
<pdfrwt beam="1">  1       21 0.11471567E+00 0.18310492E+03</pdfrwt>
<pdfrwt beam="2">  1       21 0.71955912E-02 0.18310492E+03</pdfrwt>
<totfact> 0.85429567E+04</totfact>
</mgrwt>
</event>
<event>
 4    1  0.3957190E+000  0.2762000E+03  0.7546771E-02  0.1097783E+00
         21   -1    0    0  501  502  0.00000000000E+00  0.00000000000E+00  0.84345877807E+02  0.84345877807E+02  0.00000000000E+00 0. -1.
         21   -1    0    0  502  503 -0.00000000000E+00 -0.00000000000E+00 -0.11173605754E+04  0.11173605754E+04  0.00000000000E+00 0.  1.
          6    1    1    2  501    0  0.23835459022E+02 -0.21398440495E+03 -0.25422295351E+03  0.37538748615E+03  0.17300000000E+03 0. -1.
         -6    1    1    2    0  503 -0.23835459022E+02  0.21398440495E+03 -0.77879174407E+03  0.82631896705E+03  0.17300000000E+03 0.  1.
<mgrwt>
<rscale>  2 0.27620003E+03</rscale>
<asrwt>0</asrwt>
<pdfrwt beam="1">  1       21 0.12976290E-01 0.27620003E+03</pdfrwt>
<pdfrwt beam="2">  1       21 0.17190161E+00 0.27620003E+03</pdfrwt>
<totfact> 0.99744720E+03</totfact>
</mgrwt>
</event>
<event>
 4    1  0.3957190E+000  0.3328521E+03  0.7546771E-02  0.1069882E+00
         21   -1    0    0  503  502  0.00000000000E+00  0.00000000000E+00  0.11780126893E+03  0.11780126893E+03  0.00000000000E+00 0. -1.
         21   -1    0    0  501  503 -0.00000000000E+00 -0.00000000000E+00 -0.11554594029E+04  0.11554594029E+04  0.00000000000E+00 0.  1.
          6    1    1    2  501    0  0.11535026613E+03  0.25991505765E+03 -0.24422833533E+03  0.41284137495E+03  0.17300000000E+03 0. -1.
         -6    1    1    2    0  502 -0.11535026613E+03 -0.25991505765E+03 -0.79342979866E+03  0.86041929691E+03  0.17300000000E+03 0.  1.
<mgrwt>
<rscale>  2 0.33285210E+03</rscale>
<asrwt>0</asrwt>
<pdfrwt beam="1">  1       21 0.18123272E-01 0.33285210E+03</pdfrwt>
<pdfrwt beam="2">  1       21 0.17776299E+00 0.33285210E+03</pdfrwt>
<totfact> 0.47510358E+03</totfact>
</mgrwt>
</event>
<event>
 4    1  0.3957190E+000  0.2099167E+03  0.7546771E-02  0.1141632E+00
         21   -1    0    0  501  502  0.00000000000E+00  0.00000000000E+00  0.11521567999E+03  0.11521567999E+03  0.00000000000E+00 0.  1.
         21   -1    0    0  502  503 -0.00000000000E+00 -0.00000000000E+00 -0.38351797287E+03  0.38351797287E+03  0.00000000000E+00 0. -1.
          6    1    1    2  501    0 -0.19534361912E+02 -0.11727921141E+03 -0.14726911280E+03  0.25642386065E+03  0.17300000000E+03 0. -1.
         -6    1    1    2    0  503  0.19534361912E+02  0.11727921141E+03 -0.12103318008E+03  0.24230979222E+03  0.17300000000E+03 0.  1.
<mgrwt>
<rscale>  2 0.20991666E+03</rscale>
<asrwt>0</asrwt>
<pdfrwt beam="1">  1       21 0.17725489E-01 0.20991666E+03</pdfrwt>
<pdfrwt beam="2">  1       21 0.59002766E-01 0.20991666E+03</pdfrwt>
<totfact> 0.77002821E+04</totfact>
</mgrwt>
</event>
<event>
 4    1  0.3957190E+000  0.1867504E+03  0.7546771E-02  0.1161425E+00
         21   -1    0    0  501  502  0.00000000000E+00  0.00000000000E+00  0.14193761002E+03  0.14193761002E+03  0.00000000000E+00 0. -1.
         21   -1    0    0  502  503 -0.00000000000E+00 -0.00000000000E+00 -0.27755174660E+03  0.27755174660E+03  0.00000000000E+00 0.  1.
          6    1    1    2  501    0 -0.20604477744E+02 -0.67247175809E+02  0.32334337704E+01  0.18677843090E+03  0.17300000000E+03 0. -1.
         -6    1    1    2    0  503  0.20604477744E+02  0.67247175809E+02 -0.13884757035E+03  0.23271092572E+03  0.17300000000E+03 0.  1.
<mgrwt>
<rscale>  2 0.18675044E+03</rscale>
<asrwt>0</asrwt>
<pdfrwt beam="1">  1       21 0.21836555E-01 0.18675044E+03</pdfrwt>
<pdfrwt beam="2">  1       21 0.42700269E-01 0.18675044E+03</pdfrwt>
<totfact> 0.10350245E+05</totfact>
</mgrwt>
</event>
<event>
 4    1  0.3957190E+000  0.1815612E+03  0.7546771E-02  0.1166301E+00
         21   -1    0    0  503  502  0.00000000000E+00  0.00000000000E+00  0.10254262886E+04  0.10254262886E+04  0.00000000000E+00 0. -1.
         21   -1    0    0  501  503 -0.00000000000E+00 -0.00000000000E+00 -0.58123564134E+02  0.58123564134E+02  0.00000000000E+00 0.  1.
          6    1    1    2  501    0  0.40430557818E+02 -0.37427638684E+02  0.12146425160E+03  0.21844455260E+03  0.17300000000E+03 0.  1.
         -6    1    1    2    0  502 -0.40430557818E+02  0.37427638684E+02  0.84583847289E+03  0.86510530016E+03  0.17300000000E+03 0. -1.
<mgrwt>
<rscale>  2 0.18156117E+03</rscale>
<asrwt>0</asrwt>
<pdfrwt beam="1">  1       21 0.15775788E+00 0.18156117E+03</pdfrwt>
<pdfrwt beam="2">  1       21 0.89420876E-02 0.18156117E+03</pdfrwt>
<totfact> 0.26017076E+04</totfact>
</mgrwt>
</event>
<event>
 4    1  0.3957190E+000  0.3424632E+03  0.7546771E-02  0.1065752E+00
         21   -1    0    0  501  502  0.00000000000E+00  0.00000000000E+00  0.15693710036E+04  0.15693710036E+04  0.00000000000E+00 0.  1.
         21   -1    0    0  502  503 -0.00000000000E+00 -0.00000000000E+00 -0.93575939308E+02  0.93575939308E+02  0.00000000000E+00 0. -1.
          6    1    1    2  501    0 -0.19693406265E+03 -0.22038379783E+03  0.11110281517E+04  0.11626111118E+04  0.17300000000E+03 0.  1.
         -6    1    1    2    0  503  0.19693406265E+03  0.22038379783E+03  0.36476691257E+03  0.50033583110E+03  0.17300000000E+03 0. -1.
<mgrwt>
<rscale>  2 0.34246320E+03</rscale>
<asrwt>0</asrwt>
<pdfrwt beam="1">  1       21 0.24144167E+00 0.34246320E+03</pdfrwt>
<pdfrwt beam="2">  1       21 0.14396299E-01 0.34246320E+03</pdfrwt>
<totfact> 0.27992765E+03</totfact>
</mgrwt>
</event>
<event>
 4    1  0.3957190E+000  0.4529480E+03  0.7546771E-02  0.1026847E+00
         21   -1    0    0  503  502  0.00000000000E+00  0.00000000000E+00  0.14658604331E+04  0.14658604331E+04  0.00000000000E+00 0. -1.
         21   -1    0    0  501  503 -0.00000000000E+00 -0.00000000000E+00 -0.55323920118E+03  0.55323920118E+03  0.00000000000E+00 0.  1.
          6    1    1    2  501    0  0.28747468621E+03 -0.30428805330E+03 -0.41624481237E+03  0.61515986412E+03  0.17300000000E+03 0.  1.
         -6    1    1    2    0  502 -0.28747468621E+03  0.30428805330E+03  0.13288660443E+04  0.14039397702E+04  0.17300000000E+03 0. -1.
<mgrwt>
<rscale>  2 0.45294803E+03</rscale>
<asrwt>0</asrwt>
<pdfrwt beam="1">  1       21 0.22551699E+00 0.45294803E+03</pdfrwt>
<pdfrwt beam="2">  1       21 0.85113724E-01 0.45294803E+03</pdfrwt>
<totfact> 0.87551334E+01</totfact>
</mgrwt>
</event>
<event>
 4    1  0.3957190E+000  0.1998618E+03  0.7546771E-02  0.1149856E+00
         21   -1    0    0  501  502  0.00000000000E+00  0.00000000000E+00  0.98656333508E+02  0.98656333508E+02  0.00000000000E+00 0. -1.
         21   -1    0    0  502  503 -0.00000000000E+00 -0.00000000000E+00 -0.68181150634E+03  0.68181150634E+03  0.00000000000E+00 0.  1.
          6    1    1    2  501    0 -0.74824774268E+02 -0.66460539965E+02 -0.42879246520E+02  0.20440983342E+03  0.17300000000E+03 0. -1.
         -6    1    1    2    0  503  0.74824774268E+02  0.66460539965E+02 -0.54027592631E+03  0.57605800643E+03  0.17300000000E+03 0.  1.
<mgrwt>
<rscale>  2 0.19986183E+03</rscale>
<asrwt>0</asrwt>
<pdfrwt beam="1">  1       21 0.15177897E-01 0.19986183E+03</pdfrwt>
<pdfrwt beam="2">  1       21 0.10489408E+00 0.19986183E+03</pdfrwt>
<totfact> 0.28001038E+04</totfact>
</mgrwt>
</event>
<event>
 4    1  0.3957190E+000  0.2492028E+03  0.7546771E-02  0.1113810E+00
         21   -1    0    0  501  502  0.00000000000E+00  0.00000000000E+00  0.32409633459E+02  0.32409633459E+02  0.00000000000E+00 0. -1.
         21   -1    0    0  502  503 -0.00000000000E+00 -0.00000000000E+00 -0.20261212701E+04  0.20261212701E+04  0.00000000000E+00 0.  1.
          6    1    1    2  501    0  0.15664875875E+03  0.87374029981E+02 -0.75707532378E+03  0.79703519409E+03  0.17300000000E+03 0. -1.
         -6    1    1    2    0  503 -0.15664875875E+03 -0.87374029981E+02 -0.12366363129E+04  0.12614957095E+04  0.17300000000E+03 0.  1.
<mgrwt>
<rscale>  2 0.24920284E+03</rscale>
<asrwt>0</asrwt>
<pdfrwt beam="1">  1       21 0.49860977E-02 0.24920284E+03</pdfrwt>
<pdfrwt beam="2">  1       21 0.31171095E+00 0.24920284E+03</pdfrwt>
<totfact> 0.74606068E+03</totfact>
</mgrwt>
</event>
<event>
 4    1  0.3957190E+000  0.1741212E+03  0.7546771E-02  0.1173617E+00
         21   -1    0    0  503  502  0.00000000000E+00  0.00000000000E+00  0.49297754900E+03  0.49297754900E+03  0.00000000000E+00 0. -1.
         21   -1    0    0  501  503 -0.00000000000E+00 -0.00000000000E+00 -0.32553728614E+03  0.32553728614E+03  0.00000000000E+00 0. -1.
          6    1    1    2  501    0 -0.19192822478E+02  0.45650901212E+01 -0.28485724823E+03  0.33385903665E+03  0.17300000000E+03 0. -1.
         -6    1    1    2    0  502  0.19192822478E+02 -0.45650901212E+01  0.45229751108E+03  0.48465579849E+03  0.17300000000E+03 0. -1.
<mgrwt>
<rscale>  2 0.17412124E+03</rscale>
<asrwt>0</asrwt>
<pdfrwt beam="1">  1       21 0.75842700E-01 0.17412124E+03</pdfrwt>
<pdfrwt beam="2">  1       21 0.50082659E-01 0.17412124E+03</pdfrwt>
<totfact> 0.59742648E+03</totfact>
</mgrwt>
</event>
<event>
 4    1  0.3957190E+000  0.3562556E+03  0.7546771E-02  0.1060076E+00
         21   -1    0    0  503  502  0.00000000000E+00  0.00000000000E+00  0.48101813738E+03  0.48101813738E+03  0.00000000000E+00 0. -1.
         21   -1    0    0  501  503 -0.00000000000E+00 -0.00000000000E+00 -0.57434223364E+03  0.57434223364E+03  0.00000000000E+00 0. -1.
          6    1    1    2  501    0  0.31112183476E+03 -0.13865243025E+02 -0.43464151109E+03  0.56198868689E+03  0.17300000000E+03 0. -1.
         -6    1    1    2    0  502 -0.31112183476E+03  0.13865243025E+02  0.34131741484E+03  0.49337168413E+03  0.17300000000E+03 0. -1.
<mgrwt>
<rscale>  2 0.35625558E+03</rscale>
<asrwt>0</asrwt>
<pdfrwt beam="1">  1       21 0.74002790E-01 0.35625558E+03</pdfrwt>
<pdfrwt beam="2">  1       21 0.88360344E-01 0.35625558E+03</pdfrwt>
<totfact> 0.16063970E+03</totfact>
</mgrwt>
</event>
<event>
 4    1  0.3957190E+000  0.2638581E+03  0.7546771E-02  0.1104847E+00
         21   -1    0    0  501  502  0.00000000000E+00  0.00000000000E+00  0.57639386699E+03  0.57639386699E+03  0.00000000000E+00 0.  1.
         21   -1    0    0  502  503 -0.00000000000E+00 -0.00000000000E+00 -0.34910851678E+03  0.34910851678E+03  0.00000000000E+00 0. -1.
          6    1    1    2  501    0 -0.14758049234E+02 -0.19868140412E+03  0.48787421859E+03  0.55465516632E+03  0.17300000000E+03 0.  1.
         -6    1    1    2    0  503  0.14758049234E+02  0.19868140412E+03 -0.26058886839E+03  0.37084721745E+03  0.17300000000E+03 0. -1.
<mgrwt>
<rscale>  2 0.26385811E+03</rscale>
<asrwt>0</asrwt>
<pdfrwt beam="1">  1       21 0.88675979E-01 0.26385811E+03</pdfrwt>
<pdfrwt beam="2">  1       21 0.53709003E-01 0.26385811E+03</pdfrwt>
<totfact> 0.33852355E+03</totfact>
</mgrwt>
</event>
<event>
 4    1  0.3957190E+000  0.1880741E+03  0.7546771E-02  0.1160210E+00
         21   -1    0    0  503  502  0.00000000000E+00  0.00000000000E+00  0.28415296670E+04  0.28415296670E+04  0.00000000000E+00 0.  1.
         21   -1    0    0  501  503 -0.00000000000E+00 -0.00000000000E+00 -0.29275893659E+02  0.29275893659E+02  0.00000000000E+00 0.  1.
          6    1    1    2  501    0  0.19539671033E+02  0.71141289112E+02  0.31787051521E+03  0.36934204499E+03  0.17300000000E+03 0.  1.
         -6    1    1    2    0  502 -0.19539671033E+02 -0.71141289112E+02  0.24943832581E+04  0.25014635156E+04  0.17300000000E+03 0.  1.
<mgrwt>
<rscale>  2 0.18807414E+03</rscale>
<asrwt>0</asrwt>
<pdfrwt beam="1">  1       21 0.43715819E+00 0.18807414E+03</pdfrwt>
<pdfrwt beam="2">  1       21 0.45039859E-02 0.18807414E+03</pdfrwt>
<totfact> 0.16336062E+03</totfact>
</mgrwt>
</event>
<event>
 4    1  0.3957190E+000  0.2212796E+03  0.7546771E-02  0.1132933E+00
         21   -1    0    0  501  502  0.00000000000E+00  0.00000000000E+00  0.77784001690E+02  0.77784001690E+02  0.00000000000E+00 0.  1.
         21   -1    0    0  502  503 -0.00000000000E+00 -0.00000000000E+00 -0.89663815596E+03  0.89663815596E+03  0.00000000000E+00 0. -1.
          6    1    1    2  501    0 -0.13737104261E+03  0.12840215818E+02 -0.14348918970E+03  0.26373058611E+03  0.17300000000E+03 0.  1.
         -6    1    1    2    0  503  0.13737104261E+03 -0.12840215818E+02 -0.67536496457E+03  0.71069157154E+03  0.17300000000E+03 0. -1.
<mgrwt>
<rscale>  2 0.22127963E+03</rscale>
<asrwt>0</asrwt>
<pdfrwt beam="1">  1       21 0.11966771E-01 0.22127963E+03</pdfrwt>
<pdfrwt beam="2">  1       21 0.13794432E+00 0.22127963E+03</pdfrwt>
<totfact> 0.21532846E+04</totfact>
</mgrwt>
</event>
<event>
 4    1  0.3957190E+000  0.1745893E+03  0.7546771E-02  0.1173145E+00
         21   -1    0    0  503  502  0.00000000000E+00  0.00000000000E+00  0.18090241432E+04  0.18090241432E+04  0.00000000000E+00 0.  1.
         21   -1    0    0  501  503 -0.00000000000E+00 -0.00000000000E+00 -0.28052106594E+02  0.28052106594E+02  0.00000000000E+00 0.  1.
          6    1    1    2  501    0  0.72084064499E+01 -0.22370796473E+02  0.31002750034E+03  0.35580677990E+03  0.17300000000E+03 0.  1.
         -6    1    1    2    0  502 -0.72084064499E+01  0.22370796473E+02  0.14709445363E+04  0.14812694699E+04  0.17300000000E+03 0.  1.
<mgrwt>
<rscale>  2 0.17458927E+03</rscale>
<asrwt>0</asrwt>
<pdfrwt beam="1">  1       21 0.27831131E+00 0.17458927E+03</pdfrwt>
<pdfrwt beam="2">  1       21 0.43157101E-02 0.17458927E+03</pdfrwt>
<totfact> 0.15985960E+04</totfact>
</mgrwt>
</event>
<event>
 4    1  0.3957190E+000  0.1779501E+03  0.7546771E-02  0.1169802E+00
         21   -1    0    0  503  502  0.00000000000E+00  0.00000000000E+00  0.13307026055E+03  0.13307026055E+03  0.00000000000E+00 0. -1.
         21   -1    0    0  501  503 -0.00000000000E+00 -0.00000000000E+00 -0.23798024628E+03  0.23798024628E+03  0.00000000000E+00 0. -1.
          6    1    1    2  501    0 -0.11935137319E+02  0.39934971854E+02 -0.51039327199E+02  0.18512499129E+03  0.17300000000E+03 0.  1.
         -6    1    1    2    0  502  0.11935137319E+02 -0.39934971854E+02 -0.53870658529E+02  0.18592551554E+03  0.17300000000E+03 0.  1.
<mgrwt>
<rscale>  2 0.17795013E+03</rscale>
<asrwt>0</asrwt>
<pdfrwt beam="1">  1       21 0.20472348E-01 0.17795013E+03</pdfrwt>
<pdfrwt beam="2">  1       21 0.36612345E-01 0.17795013E+03</pdfrwt>
<totfact> 0.15971741E+05</totfact>
</mgrwt>
</event>
<event>
 4    1  0.3957190E+000  0.2513980E+03  0.7546771E-02  0.1112424E+00
         21   -1    0    0  501  502  0.00000000000E+00  0.00000000000E+00  0.40145143882E+03  0.40145143882E+03  0.00000000000E+00 0. -1.
         21   -1    0    0  502  503 -0.00000000000E+00 -0.00000000000E+00 -0.15793477169E+03  0.15793477169E+03  0.00000000000E+00 0.  1.
          6    1    1    2  501    0  0.60653124185E+02 -0.17202661613E+03  0.13755257991E+03  0.28656878820E+03  0.17300000000E+03 0. -1.
         -6    1    1    2    0  503 -0.60653124185E+02  0.17202661613E+03  0.10596408722E+03  0.27281742230E+03  0.17300000000E+03 0. -1.
<mgrwt>
<rscale>  2 0.25139801E+03</rscale>
<asrwt>0</asrwt>
<pdfrwt beam="1">  1       21 0.61761759E-01 0.25139801E+03</pdfrwt>
<pdfrwt beam="2">  1       21 0.24297657E-01 0.25139801E+03</pdfrwt>
<totfact> 0.37862576E+04</totfact>
</mgrwt>
</event>
<event>
 4    1  0.3957190E+000  0.2771791E+03  0.7546771E-02  0.1097240E+00
         21   -1    0    0  503  502  0.00000000000E+00  0.00000000000E+00  0.80109836961E+02  0.80109836961E+02  0.00000000000E+00 0. -1.
         21   -1    0    0  501  503 -0.00000000000E+00 -0.00000000000E+00 -0.10194870865E+04  0.10194870865E+04  0.00000000000E+00 0.  1.
          6    1    1    2  501    0  0.16994707006E+03  0.13422836236E+03 -0.60356773433E+03  0.66417036204E+03  0.17300000000E+03 0.  1.
         -6    1    1    2    0  502 -0.16994707006E+03 -0.13422836236E+03 -0.33580951516E+03  0.43542656138E+03  0.17300000000E+03 0. -1.
<mgrwt>
<rscale>  2 0.27717911E+03</rscale>
<asrwt>0</asrwt>
<pdfrwt beam="1">  1       21 0.12324591E-01 0.27717911E+03</pdfrwt>
<pdfrwt beam="2">  1       21 0.15684416E+00 0.27717911E+03</pdfrwt>
<totfact> 0.14096025E+04</totfact>
</mgrwt>
</event>
<event>
 4    1  0.3957190E+000  0.2509294E+03  0.7546771E-02  0.1112719E+00
         21   -1    0    0  503  502  0.00000000000E+00  0.00000000000E+00  0.29145241497E+03  0.29145241497E+03  0.00000000000E+00 0.  1.
         21   -1    0    0  501  503 -0.00000000000E+00 -0.00000000000E+00 -0.21604084341E+03  0.21604084341E+03  0.00000000000E+00 0. -1.
          6    1    1    2  501    0 -0.90930347533E+02 -0.15737935307E+03  0.37512141298E+02  0.25371785436E+03  0.17300000000E+03 0.  1.
         -6    1    1    2    0  502  0.90930347533E+02  0.15737935307E+03  0.37899430264E+02  0.25377540403E+03  0.17300000000E+03 0. -1.
<mgrwt>
<rscale>  2 0.25092945E+03</rscale>
<asrwt>0</asrwt>
<pdfrwt beam="1">  1       21 0.44838833E-01 0.25092945E+03</pdfrwt>
<pdfrwt beam="2">  1       21 0.33237053E-01 0.25092945E+03</pdfrwt>
<totfact> 0.40495693E+04</totfact>
</mgrwt>
</event>
<event>
 4    1  0.3957190E+000  0.2451131E+03  0.7546771E-02  0.1116433E+00
         21   -1    0    0  503  502  0.00000000000E+00  0.00000000000E+00  0.11683513472E+04  0.11683513472E+04  0.00000000000E+00 0.  1.
         21   -1    0    0  501  503 -0.00000000000E+00 -0.00000000000E+00 -0.14030700722E+03  0.14030700722E+03  0.00000000000E+00 0.  1.
          6    1    1    2  501    0 -0.16515498043E+03 -0.53621704506E+02 -0.67739529822E+01  0.24520673154E+03  0.17300000000E+03 0.  1.
         -6    1    1    2    0  502  0.16515498043E+03  0.53621704506E+02  0.10348182930E+04  0.10634516229E+04  0.17300000000E+03 0.  1.
<mgrwt>
<rscale>  2 0.24511315E+03</rscale>
<asrwt>0</asrwt>
<pdfrwt beam="1">  1       21 0.17974635E+00 0.24511315E+03</pdfrwt>
<pdfrwt beam="2">  1       21 0.21585694E-01 0.24511315E+03</pdfrwt>
<totfact> 0.34965860E+03</totfact>
</mgrwt>
</event>
<event>
 4    1  0.3957190E+000  0.1909022E+03  0.7546771E-02  0.1157650E+00
         21   -1    0    0  501  502  0.00000000000E+00  0.00000000000E+00  0.43051253212E+02  0.43051253212E+02  0.00000000000E+00 0. -1.
         21   -1    0    0  502  503 -0.00000000000E+00 -0.00000000000E+00 -0.88193804148E+03  0.88193804148E+03  0.00000000000E+00 0. -1.
          6    1    1    2  501    0  0.25129327259E+02  0.76701720456E+02 -0.32675708494E+03  0.37843603101E+03  0.17300000000E+03 0. -1.
         -6    1    1    2    0  503 -0.25129327259E+02 -0.76701720456E+02 -0.51212970333E+03  0.54655326368E+03  0.17300000000E+03 0. -1.
<mgrwt>
<rscale>  2 0.19090217E+03</rscale>
<asrwt>0</asrwt>
<pdfrwt beam="1">  1       21 0.66232702E-02 0.19090217E+03</pdfrwt>
<pdfrwt beam="2">  1       21 0.13568277E+00 0.19090217E+03</pdfrwt>
<totfact> 0.64595246E+04</totfact>
</mgrwt>
</event>
<event>
 4    1  0.3957190E+000  0.1758434E+03  0.7546771E-02  0.1171888E+00
         21   -1    0    0  501  502  0.00000000000E+00  0.00000000000E+00  0.67288836798E+03  0.67288836798E+03  0.00000000000E+00 0.  1.
         21   -1    0    0  502  503 -0.00000000000E+00 -0.00000000000E+00 -0.52890280408E+02  0.52890280408E+02  0.00000000000E+00 0. -1.
          6    1    1    2  501    0 -0.19426221200E+02  0.24789455857E+02  0.44142976244E+03  0.47516431932E+03  0.17300000000E+03 0.  1.
         -6    1    1    2    0  503  0.19426221200E+02 -0.24789455857E+02  0.17856832514E+03  0.25061432907E+03  0.17300000000E+03 0. -1.
<mgrwt>
<rscale>  2 0.17584338E+03</rscale>
<asrwt>0</asrwt>
<pdfrwt beam="1">  1       21 0.10352128E+00 0.17584338E+03</pdfrwt>
<pdfrwt beam="2">  1       21 0.81369667E-02 0.17584338E+03</pdfrwt>
<totfact> 0.88709339E+04</totfact>
</mgrwt>
</event>
<event>
 4    1  0.3957190E+000  0.1765708E+03  0.7546771E-02  0.1171164E+00
         21   -1    0    0  501  502  0.00000000000E+00  0.00000000000E+00  0.86676407910E+02  0.86676407910E+02  0.00000000000E+00 0.  1.
         21   -1    0    0  502  503 -0.00000000000E+00 -0.00000000000E+00 -0.47869199998E+03  0.47869199998E+03  0.00000000000E+00 0.  1.
          6    1    1    2  501    0 -0.32494110736E+02  0.13870144104E+02 -0.55066674177E+02  0.18495833784E+03  0.17300000000E+03 0.  1.
         -6    1    1    2    0  503  0.32494110736E+02 -0.13870144104E+02 -0.33694891789E+03  0.38041007005E+03  0.17300000000E+03 0.  1.
<mgrwt>
<rscale>  2 0.17657080E+03</rscale>
<asrwt>0</asrwt>
<pdfrwt beam="1">  1       21 0.13334832E-01 0.17657080E+03</pdfrwt>
<pdfrwt beam="2">  1       21 0.73644923E-01 0.17657080E+03</pdfrwt>
<totfact> 0.80943684E+04</totfact>
</mgrwt>
</event>
<event>
 4    1  0.3957190E+000  0.1897435E+03  0.7546771E-02  0.1158693E+00
         21   -1    0    0  501  502  0.00000000000E+00  0.00000000000E+00  0.18798926785E+03  0.18798926785E+03  0.00000000000E+00 0. -1.
         21   -1    0    0  502  503 -0.00000000000E+00 -0.00000000000E+00 -0.22193887243E+03  0.22193887243E+03  0.00000000000E+00 0. -1.
          6    1    1    2  501    0  0.31056833042E+02  0.71477777089E+02  0.58913452304E+02  0.19867912411E+03  0.17300000000E+03 0.  1.
         -6    1    1    2    0  503 -0.31056833042E+02 -0.71477777089E+02 -0.92863056891E+02  0.21124901617E+03  0.17300000000E+03 0.  1.
<mgrwt>
<rscale>  2 0.18974351E+03</rscale>
<asrwt>0</asrwt>
<pdfrwt beam="1">  1       21 0.28921426E-01 0.18974351E+03</pdfrwt>
<pdfrwt beam="2">  1       21 0.34144442E-01 0.18974351E+03</pdfrwt>
<totfact> 0.94681443E+04</totfact>
</mgrwt>
</event>
<event>
 4    1  0.3957190E+000  0.1833745E+03  0.7546771E-02  0.1164577E+00
         21   -1    0    0  501  502  0.00000000000E+00  0.00000000000E+00  0.43141969408E+03  0.43141969408E+03  0.00000000000E+00 0. -1.
         21   -1    0    0  502  503 -0.00000000000E+00 -0.00000000000E+00 -0.13065497724E+03  0.13065497724E+03  0.00000000000E+00 0.  1.
          6    1    1    2  501    0 -0.50999425571E+02  0.33109762927E+02 -0.28124617024E+02  0.18551871036E+03  0.17300000000E+03 0.  1.
         -6    1    1    2    0  503  0.50999425571E+02 -0.33109762927E+02  0.32888933386E+03  0.37655596096E+03  0.17300000000E+03 0. -1.
<mgrwt>
<rscale>  2 0.18337447E+03</rscale>
<asrwt>0</asrwt>
<pdfrwt beam="1">  1       21 0.66372260E-01 0.18337447E+03</pdfrwt>
<pdfrwt beam="2">  1       21 0.20100766E-01 0.18337447E+03</pdfrwt>
<totfact> 0.47832572E+04</totfact>
</mgrwt>
</event>
<event>
 4    1  0.3957190E+000  0.2379837E+03  0.7546771E-02  0.1121143E+00
         21   -1    0    0  501  502  0.00000000000E+00  0.00000000000E+00  0.17258249235E+03  0.17258249235E+03  0.00000000000E+00 0. -1.
         21   -1    0    0  502  503 -0.00000000000E+00 -0.00000000000E+00 -0.36043418364E+03  0.36043418364E+03  0.00000000000E+00 0.  1.
          6    1    1    2  501    0 -0.16341007210E+03  0.20960023984E+01 -0.14188078920E+02  0.23840626350E+03  0.17300000000E+03 0. -1.
         -6    1    1    2    0  503  0.16341007210E+03 -0.20960023984E+01 -0.17366361236E+03  0.29461041249E+03  0.17300000000E+03 0.  1.
<mgrwt>
<rscale>  2 0.23798371E+03</rscale>
<asrwt>0</asrwt>
<pdfrwt beam="1">  1       21 0.26551153E-01 0.23798371E+03</pdfrwt>
<pdfrwt beam="2">  1       21 0.55451412E-01 0.23798371E+03</pdfrwt>
<totfact> 0.40485847E+04</totfact>
</mgrwt>
</event>
<event>
 4    1  0.3957190E+000  0.2386607E+03  0.7546771E-02  0.1120688E+00
         21   -1    0    0  503  502  0.00000000000E+00  0.00000000000E+00  0.84040317429E+03  0.84040317429E+03  0.00000000000E+00 0. -1.
         21   -1    0    0  501  503 -0.00000000000E+00 -0.00000000000E+00 -0.91880162097E+02  0.91880162097E+02  0.00000000000E+00 0. -1.
          6    1    1    2  501    0  0.14331656998E+03 -0.80562279191E+02  0.13550473292E+03  0.27444571905E+03  0.17300000000E+03 0. -1.
         -6    1    1    2    0  502 -0.14331656998E+03  0.80562279191E+02  0.61301827928E+03  0.65783761734E+03  0.17300000000E+03 0. -1.
<mgrwt>
<rscale>  2 0.23866068E+03</rscale>
<asrwt>0</asrwt>
<pdfrwt beam="1">  1       21 0.12929279E+00 0.23866068E+03</pdfrwt>
<pdfrwt beam="2">  1       21 0.14135410E-01 0.23866068E+03</pdfrwt>
<totfact> 0.18618193E+04</totfact>
</mgrwt>
</event>
<event>
 4    1  0.3957190E+000  0.2573537E+03  0.7546771E-02  0.1108744E+00
         21   -1    0    0  501  502  0.00000000000E+00  0.00000000000E+00  0.83097090563E+02  0.83097090563E+02  0.00000000000E+00 0. -1.
         21   -1    0    0  502  503 -0.00000000000E+00 -0.00000000000E+00 -0.11476216799E+04  0.11476216799E+04  0.00000000000E+00 0.  1.
          6    1    1    2  501    0  0.71849395814E+02 -0.17646418557E+03 -0.19214420210E+03  0.32117026461E+03  0.17300000000E+03 0. -1.
         -6    1    1    2    0  503 -0.71849395814E+02  0.17646418557E+03 -0.87238038722E+03  0.90954850584E+03  0.17300000000E+03 0.  1.
<mgrwt>
<rscale>  2 0.25735373E+03</rscale>
<asrwt>0</asrwt>
<pdfrwt beam="1">  1       21 0.12784169E-01 0.25735373E+03</pdfrwt>
<pdfrwt beam="2">  1       21 0.17655717E+00 0.25735373E+03</pdfrwt>
<totfact> 0.96106360E+03</totfact>
</mgrwt>
</event>
<event>
 4    1  0.3957190E+000  0.1750365E+03  0.7546771E-02  0.1172695E+00
         21   -1    0    0  503  502  0.00000000000E+00  0.00000000000E+00  0.36978191127E+03  0.36978191127E+03  0.00000000000E+00 0. -1.
         21   -1    0    0  501  503 -0.00000000000E+00 -0.00000000000E+00 -0.86236956285E+02  0.86236956285E+02  0.00000000000E+00 0. -1.
          6    1    1    2  501    0 -0.73336594117E+01  0.25592923152E+02  0.96610089368E+02  0.19992821122E+03  0.17300000000E+03 0.  1.
         -6    1    1    2    0  502  0.73336594117E+01 -0.25592923152E+02  0.18693486561E+03  0.25609065633E+03  0.17300000000E+03 0.  1.
<mgrwt>
<rscale>  2 0.17503651E+03</rscale>
<asrwt>0</asrwt>
<pdfrwt beam="1">  1       21 0.56889524E-01 0.17503651E+03</pdfrwt>
<pdfrwt beam="2">  1       21 0.13267224E-01 0.17503651E+03</pdfrwt>
<totfact> 0.14312330E+05</totfact>
</mgrwt>
</event>
<event>
 4    1  0.3957190E+000  0.1735613E+03  0.7546771E-02  0.1174184E+00
         21   -1    0    0  503  502  0.00000000000E+00  0.00000000000E+00  0.10679621934E+04  0.10679621934E+04  0.00000000000E+00 0. -1.
         21   -1    0    0  501  503 -0.00000000000E+00 -0.00000000000E+00 -0.56805606694E+02  0.56805606694E+02  0.00000000000E+00 0. -1.
          6    1    1    2  501    0 -0.13567557048E+02 -0.32320948764E+01  0.10654129914E+03  0.20365307134E+03  0.17300000000E+03 0. -1.
         -6    1    1    2    0  502  0.13567557048E+02  0.32320948764E+01  0.90461528753E+03  0.92111472872E+03  0.17300000000E+03 0. -1.
<mgrwt>
<rscale>  2 0.17356130E+03</rscale>
<asrwt>0</asrwt>
<pdfrwt beam="1">  1       21 0.16430186E+00 0.17356130E+03</pdfrwt>
<pdfrwt beam="2">  1       21 0.87393250E-02 0.17356130E+03</pdfrwt>
<totfact> 0.24408055E+04</totfact>
</mgrwt>
</event>
<event>
 4    1  0.3957190E+000  0.1778970E+03  0.7546771E-02  0.1169854E+00
         21   -1    0    0  501  502  0.00000000000E+00  0.00000000000E+00  0.10009341071E+03  0.10009341071E+03  0.00000000000E+00 0.  1.
         21   -1    0    0  502  503 -0.00000000000E+00 -0.00000000000E+00 -0.31620082332E+03  0.31620082332E+03  0.00000000000E+00 0.  1.
          6    1    1    2  501    0 -0.35675918033E+02 -0.21108201203E+02 -0.10628255921E+03  0.20722767595E+03  0.17300000000E+03 0.  1.
         -6    1    1    2    0  503  0.35675918033E+02  0.21108201203E+02 -0.10982485340E+03  0.20906655809E+03  0.17300000000E+03 0.  1.
<mgrwt>
<rscale>  2 0.17789696E+03</rscale>
<asrwt>0</asrwt>
<pdfrwt beam="1">  1       21 0.15398987E-01 0.17789696E+03</pdfrwt>
<pdfrwt beam="2">  1       21 0.48646279E-01 0.17789696E+03</pdfrwt>
<totfact> 0.15159271E+05</totfact>
</mgrwt>
</event>
<event>
 4    1  0.3957190E+000  0.2270350E+03  0.7546771E-02  0.1128744E+00
         21   -1    0    0  503  502  0.00000000000E+00  0.00000000000E+00  0.81050779948E+02  0.81050779948E+02  0.00000000000E+00 0.  1.
         21   -1    0    0  501  503 -0.00000000000E+00 -0.00000000000E+00 -0.80392192629E+03  0.80392192629E+03  0.00000000000E+00 0.  1.
          6    1    1    2  501    0 -0.12719746015E+03  0.73734043038E+02 -0.56369127640E+03  0.60769462566E+03  0.17300000000E+03 0.  1.
         -6    1    1    2    0  502  0.12719746015E+03 -0.73734043038E+02 -0.15917986994E+03  0.27727808058E+03  0.17300000000E+03 0.  1.
<mgrwt>
<rscale>  2 0.22703503E+03</rscale>
<asrwt>0</asrwt>
<pdfrwt beam="1">  1       21 0.12469351E-01 0.22703503E+03</pdfrwt>
<pdfrwt beam="2">  1       21 0.12368029E+00 0.22703503E+03</pdfrwt>
<totfact> 0.26303283E+04</totfact>
</mgrwt>
</event>
<event>
 4    1  0.3957190E+000  0.2376927E+03  0.7546771E-02  0.1121339E+00
         21   -1    0    0  501  502  0.00000000000E+00  0.00000000000E+00  0.75853593887E+03  0.75853593887E+03  0.00000000000E+00 0. -1.
         21   -1    0    0  502  503 -0.00000000000E+00 -0.00000000000E+00 -0.14026708127E+03  0.14026708127E+03  0.00000000000E+00 0. -1.
          6    1    1    2  501    0 -0.13371099852E+03 -0.93221272953E+02  0.61689849048E+03  0.66110633367E+03  0.17300000000E+03 0. -1.
         -6    1    1    2    0  503  0.13371099852E+03  0.93221272953E+02  0.13703671126E+01  0.23769668648E+03  0.17300000000E+03 0. -1.
<mgrwt>
<rscale>  2 0.23769274E+03</rscale>
<asrwt>0</asrwt>
<pdfrwt beam="1">  1       21 0.11669783E+00 0.23769274E+03</pdfrwt>
<pdfrwt beam="2">  1       21 0.21579551E-01 0.23769274E+03</pdfrwt>
<totfact> 0.10992192E+04</totfact>
</mgrwt>
</event>
<event>
 4    1  0.3957190E+000  0.2253772E+03  0.7546771E-02  0.1129936E+00
         21   -1    0    0  501  502  0.00000000000E+00  0.00000000000E+00  0.14412591787E+04  0.14412591787E+04  0.00000000000E+00 0. -1.
         21   -1    0    0  502  503 -0.00000000000E+00 -0.00000000000E+00 -0.39033620169E+02  0.39033620169E+02  0.00000000000E+00 0.  1.
          6    1    1    2  501    0  0.12137904750E+03 -0.78313488168E+02  0.93175051200E+03  0.95862082818E+03  0.17300000000E+03 0. -1.
         -6    1    1    2    0  503 -0.12137904750E+03  0.78313488168E+02  0.47047504655E+03  0.52167197071E+03  0.17300000000E+03 0.  1.
<mgrwt>
<rscale>  2 0.22537719E+03</rscale>
<asrwt>0</asrwt>
<pdfrwt beam="1">  1       21 0.22173214E+00 0.22537719E+03</pdfrwt>
<pdfrwt beam="2">  1       21 0.60051734E-02 0.22537719E+03</pdfrwt>
<totfact> 0.18844577E+04</totfact>
</mgrwt>
</event>
<event>
 4    1  0.3957190E+000  0.1758896E+03  0.7546771E-02  0.1171841E+00
         21   -1    0    0  503  502  0.00000000000E+00  0.00000000000E+00  0.57697564291E+02  0.57697564291E+02  0.00000000000E+00 0. -1.
         21   -1    0    0  501  503 -0.00000000000E+00 -0.00000000000E+00 -0.55188255740E+03  0.55188255740E+03  0.00000000000E+00 0. -1.
          6    1    1    2  501    0  0.26319284765E+02 -0.17761252666E+02 -0.19570588210E+03  0.26313106836E+03  0.17300000000E+03 0.  1.
         -6    1    1    2    0  502 -0.26319284765E+02  0.17761252666E+02 -0.29847911101E+03  0.34644905334E+03  0.17300000000E+03 0.  1.
<mgrwt>
<rscale>  2 0.17588964E+03</rscale>
<asrwt>0</asrwt>
<pdfrwt beam="1">  1       21 0.88765486E-02 0.17588964E+03</pdfrwt>
<pdfrwt beam="2">  1       21 0.84905006E-01 0.17588964E+03</pdfrwt>
<totfact> 0.12098596E+05</totfact>
</mgrwt>
</event>
<event>
 4    1  0.3957190E+000  0.1747359E+03  0.7546771E-02  0.1172997E+00
         21   -1    0    0  501  502  0.00000000000E+00  0.00000000000E+00  0.86779207114E+03  0.86779207114E+03  0.00000000000E+00 0.  1.
         21   -1    0    0  502  503 -0.00000000000E+00 -0.00000000000E+00 -0.10483705513E+03  0.10483705513E+03  0.00000000000E+00 0.  1.
          6    1    1    2  501    0  0.15980987172E+02 -0.18661496425E+02  0.77787332756E+03  0.79725752247E+03  0.17300000000E+03 0.  1.
         -6    1    1    2    0  503 -0.15980987172E+02  0.18661496425E+02 -0.14918311550E+02  0.17537160380E+03  0.17300000000E+03 0.  1.
<mgrwt>
<rscale>  2 0.17473592E+03</rscale>
<asrwt>0</asrwt>
<pdfrwt beam="1">  1       21 0.13350647E+00 0.17473592E+03</pdfrwt>
<pdfrwt beam="2">  1       21 0.16128778E-01 0.17473592E+03</pdfrwt>
<totfact> 0.14062296E+04</totfact>
</mgrwt>
</event>
<event>
 4    1  0.3957190E+000  0.2344443E+03  0.7546771E-02  0.1123550E+00
         21   -1    0    0  501  502  0.00000000000E+00  0.00000000000E+00  0.16358490041E+04  0.16358490041E+04  0.00000000000E+00 0. -1.
         21   -1    0    0  502  503 -0.00000000000E+00 -0.00000000000E+00 -0.36989584279E+02  0.36989584279E+02  0.00000000000E+00 0. -1.
          6    1    1    2  501    0 -0.14560664549E+03 -0.61918051591E+02  0.54622448686E+03  0.59441175154E+03  0.17300000000E+03 0.  1.
         -6    1    1    2    0  503  0.14560664549E+03  0.61918051591E+02  0.10526349329E+04  0.10784268368E+04  0.17300000000E+03 0.  1.
<mgrwt>
<rscale>  2 0.23444432E+03</rscale>
<asrwt>0</asrwt>
<pdfrwt beam="1">  1       21 0.25166902E+00 0.23444432E+03</pdfrwt>
<pdfrwt beam="2">  1       21 0.56907065E-02 0.23444432E+03</pdfrwt>
<totfact> 0.13537646E+04</totfact>
</mgrwt>
</event>
<event>
 4    1  0.3957190E+000  0.1924360E+03  0.7546771E-02  0.1156282E+00
         21   -1    0    0  501  502  0.00000000000E+00  0.00000000000E+00  0.41085916934E+02  0.41085916934E+02  0.00000000000E+00 0.  1.
         21   -1    0    0  502  503 -0.00000000000E+00 -0.00000000000E+00 -0.95181872523E+03  0.95181872523E+03  0.00000000000E+00 0. -1.
          6    1    1    2  501    0  0.76394477872E+02  0.35587886967E+02 -0.56971605512E+03  0.60133850484E+03  0.17300000000E+03 0.  1.
         -6    1    1    2    0  503 -0.76394477872E+02 -0.35587886967E+02 -0.34101675318E+03  0.39156613732E+03  0.17300000000E+03 0. -1.
<mgrwt>
<rscale>  2 0.19243600E+03</rscale>
<asrwt>0</asrwt>
<pdfrwt beam="1">  1       21 0.63209103E-02 0.19243600E+03</pdfrwt>
<pdfrwt beam="2">  1       21 0.14643365E+00 0.19243600E+03</pdfrwt>
<totfact> 0.57422063E+04</totfact>
</mgrwt>
</event>
<event>
 4    1  0.3957190E+000  0.1978540E+03  0.7546771E-02  0.1151562E+00
         21   -1    0    0  503  502  0.00000000000E+00  0.00000000000E+00  0.34078966937E+02  0.34078966937E+02  0.00000000000E+00 0.  1.
         21   -1    0    0  501  503 -0.00000000000E+00 -0.00000000000E+00 -0.12122432289E+04  0.12122432289E+04  0.00000000000E+00 0.  1.
          6    1    1    2  501    0 -0.60869618377E+01 -0.95813054340E+02 -0.73176500825E+03  0.75804104097E+03  0.17300000000E+03 0.  1.
         -6    1    1    2    0  502  0.60869618377E+01  0.95813054340E+02 -0.44639925367E+03  0.48828115484E+03  0.17300000000E+03 0.  1.
<mgrwt>
<rscale>  2 0.19785397E+03</rscale>
<asrwt>0</asrwt>
<pdfrwt beam="1">  1       21 0.52429171E-02 0.19785397E+03</pdfrwt>
<pdfrwt beam="2">  1       21 0.18649899E+00 0.19785397E+03</pdfrwt>
<totfact> 0.40692504E+04</totfact>
</mgrwt>
</event>
<event>
 4    1  0.3957190E+000  0.2784213E+03  0.7546771E-02  0.1096554E+00
         21   -1    0    0  501  502  0.00000000000E+00  0.00000000000E+00  0.13182456675E+03  0.13182456675E+03  0.00000000000E+00 0. -1.
         21   -1    0    0  502  503 -0.00000000000E+00 -0.00000000000E+00 -0.58865377694E+03  0.58865377694E+03  0.00000000000E+00 0. -1.
          6    1    1    2  501    0 -0.43644681199E+02 -0.21373950802E+03 -0.21680511519E+03  0.35287801498E+03  0.17300000000E+03 0. -1.
         -6    1    1    2    0  503  0.43644681199E+02  0.21373950802E+03 -0.24002409501E+03  0.36760032871E+03  0.17300000000E+03 0. -1.
<mgrwt>
<rscale>  2 0.27842133E+03</rscale>
<asrwt>0</asrwt>
<pdfrwt beam="1">  1       21 0.20280703E-01 0.27842133E+03</pdfrwt>
<pdfrwt beam="2">  1       21 0.90562119E-01 0.27842133E+03</pdfrwt>
<totfact> 0.22281079E+04</totfact>
</mgrwt>
</event>
<event>
 4    1  0.3957190E+000  0.1787237E+03  0.7546771E-02  0.1169044E+00
         21   -1    0    0  501  502  0.00000000000E+00  0.00000000000E+00  0.75549114129E+02  0.75549114129E+02  0.00000000000E+00 0.  1.
         21   -1    0    0  502  503 -0.00000000000E+00 -0.00000000000E+00 -0.64857203346E+03  0.64857203346E+03  0.00000000000E+00 0.  1.
          6    1    1    2  501    0  0.40368121608E+02 -0.19585465827E+02 -0.72893841652E+02  0.19301732530E+03  0.17300000000E+03 0.  1.
         -6    1    1    2    0  503 -0.40368121608E+02  0.19585465827E+02 -0.50012907768E+03  0.53110382230E+03  0.17300000000E+03 0.  1.
<mgrwt>
<rscale>  2 0.17872374E+03</rscale>
<asrwt>0</asrwt>
<pdfrwt beam="1">  1       21 0.11622941E-01 0.17872374E+03</pdfrwt>
<pdfrwt beam="2">  1       21 0.99780314E-01 0.17872374E+03</pdfrwt>
<totfact> 0.51626684E+04</totfact>
</mgrwt>
</event>
<event>
 4    1  0.3957190E+000  0.1866752E+03  0.7546771E-02  0.1161495E+00
         21   -1    0    0  503  502  0.00000000000E+00  0.00000000000E+00  0.10048969896E+04  0.10048969896E+04  0.00000000000E+00 0.  1.
         21   -1    0    0  501  503 -0.00000000000E+00 -0.00000000000E+00 -0.42006625598E+02  0.42006625598E+02  0.00000000000E+00 0.  1.
          6    1    1    2  501    0 -0.69631062563E+02 -0.83743898850E+01  0.26280245018E+03  0.32235499547E+03  0.17300000000E+03 0.  1.
         -6    1    1    2    0  502  0.69631062563E+02  0.83743898850E+01  0.70008791380E+03  0.72454861971E+03  0.17300000000E+03 0.  1.
<mgrwt>
<rscale>  2 0.18667516E+03</rscale>
<asrwt>0</asrwt>
<pdfrwt beam="1">  1       21 0.15459952E+00 0.18667516E+03</pdfrwt>
<pdfrwt beam="2">  1       21 0.64625585E-02 0.18667516E+03</pdfrwt>
<totfact> 0.48068600E+04</totfact>
</mgrwt>
</event>
<event>
 4    1  0.3957190E+000  0.1845500E+03  0.7546771E-02  0.1163471E+00
         21   -1    0    0  503  502  0.00000000000E+00  0.00000000000E+00  0.86521684733E+02  0.86521684733E+02  0.00000000000E+00 0.  1.
         21   -1    0    0  501  503 -0.00000000000E+00 -0.00000000000E+00 -0.70782263324E+03  0.70782263324E+03  0.00000000000E+00 0.  1.
          6    1    1    2  501    0 -0.44778631506E+02  0.46093192731E+02 -0.57525981333E+03  0.60413786597E+03  0.17300000000E+03 0.  1.
         -6    1    1    2    0  502  0.44778631506E+02 -0.46093192731E+02 -0.46041135168E+02  0.19020645200E+03  0.17300000000E+03 0.  1.
<mgrwt>
<rscale>  2 0.18455002E+03</rscale>
<asrwt>0</asrwt>
<pdfrwt beam="1">  1       21 0.13311029E-01 0.18455002E+03</pdfrwt>
<pdfrwt beam="2">  1       21 0.10889579E+00 0.18455002E+03</pdfrwt>
<totfact> 0.32746610E+04</totfact>
</mgrwt>
</event>
<event>
 4    1  0.3957190E+000  0.2063835E+03  0.7546771E-02  0.1144462E+00
         21   -1    0    0  501  502  0.00000000000E+00  0.00000000000E+00  0.25302221611E+03  0.25302221611E+03  0.00000000000E+00 0.  1.
         21   -1    0    0  502  503 -0.00000000000E+00 -0.00000000000E+00 -0.18959647415E+03  0.18959647415E+03  0.00000000000E+00 0.  1.
          6    1    1    2  501    0  0.26127449598E+02  0.10946466086E+03  0.10581219753E+03  0.23192752477E+03  0.17300000000E+03 0.  1.
         -6    1    1    2    0  503 -0.26127449598E+02 -0.10946466086E+03 -0.42386455574E+02  0.21069116549E+03  0.17300000000E+03 0.  1.
<mgrwt>
<rscale>  2 0.20638352E+03</rscale>
<asrwt>0</asrwt>
<pdfrwt beam="1">  1       21 0.38926495E-01 0.20638352E+03</pdfrwt>
<pdfrwt beam="2">  1       21 0.29168688E-01 0.20638352E+03</pdfrwt>
<totfact> 0.71184086E+04</totfact>
</mgrwt>
</event>
<event>
 4    1  0.3957190E+000  0.2182228E+03  0.7546771E-02  0.1135215E+00
         21   -1    0    0  501  502  0.00000000000E+00  0.00000000000E+00  0.13806035442E+03  0.13806035442E+03  0.00000000000E+00 0. -1.
         21   -1    0    0  502  503 -0.00000000000E+00 -0.00000000000E+00 -0.64196080272E+03  0.64196080272E+03  0.00000000000E+00 0.  1.
          6    1    1    2  501    0 -0.11550980171E+03 -0.65952095246E+02  0.13340881495E+02  0.21863021812E+03  0.17300000000E+03 0. -1.
         -6    1    1    2    0  503  0.11550980171E+03  0.65952095246E+02 -0.51724132979E+03  0.56139093901E+03  0.17300000000E+03 0.  1.
<mgrwt>
<rscale>  2 0.21822281E+03</rscale>
<asrwt>0</asrwt>
<pdfrwt beam="1">  1       21 0.21240055E-01 0.21822281E+03</pdfrwt>
<pdfrwt beam="2">  1       21 0.98763199E-01 0.21822281E+03</pdfrwt>
<totfact> 0.17161830E+04</totfact>
</mgrwt>
</event>
<event>
 4    1  0.3957190E+000  0.1792660E+03  0.7546771E-02  0.1168515E+00
         21   -1    0    0  503  502  0.00000000000E+00  0.00000000000E+00  0.37373711322E+02  0.37373711322E+02  0.00000000000E+00 0. -1.
         21   -1    0    0  501  503 -0.00000000000E+00 -0.00000000000E+00 -0.85987754756E+03  0.85987754756E+03  0.00000000000E+00 0. -1.
          6    1    1    2  501    0 -0.43902135388E+02  0.16729779482E+02 -0.40942621962E+03  0.44695202463E+03  0.17300000000E+03 0. -1.
         -6    1    1    2    0  502  0.43902135388E+02 -0.16729779482E+02 -0.41307761662E+03  0.45029923425E+03  0.17300000000E+03 0. -1.
<mgrwt>
<rscale>  2 0.17926596E+03</rscale>
<asrwt>0</asrwt>
<pdfrwt beam="1">  1       21 0.57498019E-02 0.17926596E+03</pdfrwt>
<pdfrwt beam="2">  1       21 0.13228885E+00 0.17926596E+03</pdfrwt>
<totfact> 0.88260674E+04</totfact>
</mgrwt>
</event>
<event>
 4    1  0.3957190E+000  0.1885409E+03  0.7546771E-02  0.1159784E+00
         21   -1    0    0  503  502  0.00000000000E+00  0.00000000000E+00  0.57394721848E+02  0.57394721848E+02  0.00000000000E+00 0. -1.
         21   -1    0    0  501  503 -0.00000000000E+00 -0.00000000000E+00 -0.66579432581E+03  0.66579432581E+03  0.00000000000E+00 0. -1.
          6    1    1    2  501    0 -0.69828890102E+02  0.27250454642E+02 -0.20870085914E+03  0.28125381735E+03  0.17300000000E+03 0. -1.
         -6    1    1    2    0  502  0.69828890102E+02 -0.27250454642E+02 -0.39969874482E+03  0.44193523030E+03  0.17300000000E+03 0. -1.
<mgrwt>
<rscale>  2 0.18854087E+03</rscale>
<asrwt>0</asrwt>
<pdfrwt beam="1">  1       21 0.88299571E-02 0.18854087E+03</pdfrwt>
<pdfrwt beam="2">  1       21 0.10242990E+00 0.18854087E+03</pdfrwt>
<totfact> 0.78451431E+04</totfact>
</mgrwt>
</event>
<event>
 4    1  0.3957190E+000  0.1997031E+03  0.7546771E-02  0.1149990E+00
         21   -1    0    0  501  502  0.00000000000E+00  0.00000000000E+00  0.32460745716E+02  0.32460745716E+02  0.00000000000E+00 0.  1.
         21   -1    0    0  502  503 -0.00000000000E+00 -0.00000000000E+00 -0.12486284451E+04  0.12486284451E+04  0.00000000000E+00 0.  1.
          6    1    1    2  501    0  0.41850340398E+01 -0.99673599120E+02 -0.68920487553E+03  0.71755466783E+03  0.17300000000E+03 0.  1.
         -6    1    1    2    0  503 -0.41850340398E+01  0.99673599120E+02 -0.52696282385E+03  0.56353452298E+03  0.17300000000E+03 0.  1.
<mgrwt>
<rscale>  2 0.19970313E+03</rscale>
<asrwt>0</asrwt>
<pdfrwt beam="1">  1       21 0.49939602E-02 0.19970313E+03</pdfrwt>
<pdfrwt beam="2">  1       21 0.19209671E+00 0.19970313E+03</pdfrwt>
<totfact> 0.40537673E+04</totfact>
</mgrwt>
</event>
<event>
 4    1  0.3957190E+000  0.2419442E+03  0.7546771E-02  0.1118504E+00
         21   -1    0    0  503  502  0.00000000000E+00  0.00000000000E+00  0.13129825721E+03  0.13129825721E+03  0.00000000000E+00 0.  1.
         21   -1    0    0  501  503 -0.00000000000E+00 -0.00000000000E+00 -0.45155187416E+03  0.45155187416E+03  0.00000000000E+00 0.  1.
          6    1    1    2  501    0 -0.12574771965E+03 -0.11311721090E+03 -0.19292563311E+03  0.30944675197E+03  0.17300000000E+03 0.  1.
         -6    1    1    2    0  502  0.12574771965E+03  0.11311721090E+03 -0.12732798383E+03  0.27340337940E+03  0.17300000000E+03 0.  1.
<mgrwt>
<rscale>  2 0.24194419E+03</rscale>
<asrwt>0</asrwt>
<pdfrwt beam="1">  1       21 0.20199732E-01 0.24194419E+03</pdfrwt>
<pdfrwt beam="2">  1       21 0.69469518E-01 0.24194419E+03</pdfrwt>
<totfact> 0.41699122E+04</totfact>
</mgrwt>
</event>
<event>
 4    1  0.3957190E+000  0.1738810E+03  0.7546771E-02  0.1173860E+00
         21   -1    0    0  503  502  0.00000000000E+00  0.00000000000E+00  0.27604632739E+03  0.27604632739E+03  0.00000000000E+00 0.  1.
         21   -1    0    0  501  503 -0.00000000000E+00 -0.00000000000E+00 -0.11454804051E+03  0.11454804051E+03  0.00000000000E+00 0.  1.
          6    1    1    2  501    0  0.14545737699E+02 -0.96967306909E+01  0.39862012341E+02  0.17839166208E+03  0.17300000000E+03 0.  1.
         -6    1    1    2    0  502 -0.14545737699E+02  0.96967306909E+01  0.12163627454E+03  0.21220270581E+03  0.17300000000E+03 0.  1.
<mgrwt>
<rscale>  2 0.17388101E+03</rscale>
<asrwt>0</asrwt>
<pdfrwt beam="1">  1       21 0.42468666E-01 0.17388101E+03</pdfrwt>
<pdfrwt beam="2">  1       21 0.17622776E-01 0.17388101E+03</pdfrwt>
<totfact> 0.15668242E+05</totfact>
</mgrwt>
</event>
<event>
 4    1  0.3957190E+000  0.2209178E+03  0.7546771E-02  0.1133201E+00
         21   -1    0    0  503  502  0.00000000000E+00  0.00000000000E+00  0.52201003121E+03  0.52201003121E+03  0.00000000000E+00 0.  1.
         21   -1    0    0  501  503 -0.00000000000E+00 -0.00000000000E+00 -0.40554181173E+03  0.40554181173E+03  0.00000000000E+00 0.  1.
          6    1    1    2  501    0 -0.74150485269E+02  0.11566068231E+03 -0.34858477644E+03  0.41269363245E+03  0.17300000000E+03 0.  1.
         -6    1    1    2    0  502  0.74150485269E+02 -0.11566068231E+03  0.46505299592E+03  0.51485821049E+03  0.17300000000E+03 0.  1.
<mgrwt>
<rscale>  2 0.22091783E+03</rscale>
<asrwt>0</asrwt>
<pdfrwt beam="1">  1       21 0.80309236E-01 0.22091783E+03</pdfrwt>
<pdfrwt beam="2">  1       21 0.62391048E-01 0.22091783E+03</pdfrwt>
<totfact> 0.31742470E+03</totfact>
</mgrwt>
</event>
<event>
 4    1  0.3957190E+000  0.1831324E+03  0.7546771E-02  0.1164805E+00
         21   -1    0    0  501  502  0.00000000000E+00  0.00000000000E+00  0.47997416493E+03  0.47997416493E+03  0.00000000000E+00 0. -1.
         21   -1    0    0  502  503 -0.00000000000E+00 -0.00000000000E+00 -0.75451761536E+02  0.75451761536E+02  0.00000000000E+00 0. -1.
          6    1    1    2  501    0  0.81560589554E+01 -0.59514313990E+02  0.12675008508E+03  0.22271744192E+03  0.17300000000E+03 0.  1.
         -6    1    1    2    0  503 -0.81560589554E+01  0.59514313990E+02  0.27777231832E+03  0.33270848455E+03  0.17300000000E+03 0.  1.
<mgrwt>
<rscale>  2 0.18313240E+03</rscale>
<asrwt>0</asrwt>
<pdfrwt beam="1">  1       21 0.73842177E-01 0.18313240E+03</pdfrwt>
<pdfrwt beam="2">  1       21 0.11607964E-01 0.18313240E+03</pdfrwt>
<totfact> 0.10287590E+05</totfact>
</mgrwt>
</event>
<event>
 4    1  0.3957190E+000  0.1973729E+03  0.7546771E-02  0.1151975E+00
         21   -1    0    0  503  502  0.00000000000E+00  0.00000000000E+00  0.69130779581E+03  0.69130779581E+03  0.00000000000E+00 0. -1.
         21   -1    0    0  501  503 -0.00000000000E+00 -0.00000000000E+00 -0.59549365516E+02  0.59549365516E+02  0.00000000000E+00 0. -1.
          6    1    1    2  501    0 -0.27456680653E+02  0.90957007064E+02  0.40288277292E+03  0.44863189272E+03  0.17300000000E+03 0. -1.
         -6    1    1    2    0  502  0.27456680653E+02 -0.90957007064E+02  0.22887565737E+03  0.30222526860E+03  0.17300000000E+03 0. -1.
<mgrwt>
<rscale>  2 0.19737286E+03</rscale>
<asrwt>0</asrwt>
<pdfrwt beam="1">  1       21 0.10635504E+00 0.19737286E+03</pdfrwt>
<pdfrwt beam="2">  1       21 0.91614413E-02 0.19737286E+03</pdfrwt>
<totfact> 0.66922797E+04</totfact>
</mgrwt>
</event>
<event>
 4    1  0.3957190E+000  0.2068225E+03  0.7546771E-02  0.1144107E+00
         21   -1    0    0  501  502  0.00000000000E+00  0.00000000000E+00  0.28887833370E+03  0.28887833370E+03  0.00000000000E+00 0.  1.
         21   -1    0    0  502  503 -0.00000000000E+00 -0.00000000000E+00 -0.41878380520E+03  0.41878380520E+03  0.00000000000E+00 0.  1.
          6    1    1    2  501    0  0.65405558970E+02 -0.92567163178E+02  0.21952774512E+03  0.30160901465E+03  0.17300000000E+03 0.  1.
         -6    1    1    2    0  503 -0.65405558970E+02  0.92567163178E+02 -0.34943321661E+03  0.40605312425E+03  0.17300000000E+03 0.  1.
<mgrwt>
<rscale>  2 0.20682255E+03</rscale>
<asrwt>0</asrwt>
<pdfrwt beam="1">  1       21 0.44442820E-01 0.20682255E+03</pdfrwt>
<pdfrwt beam="2">  1       21 0.64428278E-01 0.20682255E+03</pdfrwt>
<totfact> 0.10697734E+04</totfact>
</mgrwt>
</event>
<event>
 4    1  0.3957190E+000  0.2856008E+03  0.7546771E-02  0.1092669E+00
         21   -1    0    0  503  502  0.00000000000E+00  0.00000000000E+00  0.41091728432E+03  0.41091728432E+03  0.00000000000E+00 0.  1.
         21   -1    0    0  501  503 -0.00000000000E+00 -0.00000000000E+00 -0.70887168363E+03  0.70887168363E+03  0.00000000000E+00 0. -1.
          6    1    1    2  501    0  0.13876882314E+01  0.22723746110E+03 -0.62405520736E+03  0.68630364362E+03  0.17300000000E+03 0. -1.
         -6    1    1    2    0  502 -0.13876882314E+01 -0.22723746110E+03  0.32610080805E+03  0.43348532434E+03  0.17300000000E+03 0.  1.
<mgrwt>
<rscale>  2 0.28560075E+03</rscale>
<asrwt>0</asrwt>
<pdfrwt beam="1">  1       21 0.63218045E-01 0.28560075E+03</pdfrwt>
<pdfrwt beam="2">  1       21 0.10905718E+00 0.28560075E+03</pdfrwt>
<totfact> 0.14336040E+03</totfact>
</mgrwt>
</event>
<event>
 4    1  0.3957190E+000  0.3032161E+03  0.7546771E-02  0.1083644E+00
         21   -1    0    0  503  502  0.00000000000E+00  0.00000000000E+00  0.46789146825E+03  0.46789146825E+03  0.00000000000E+00 0.  1.
         21   -1    0    0  501  503 -0.00000000000E+00 -0.00000000000E+00 -0.21223357769E+03  0.21223357769E+03  0.00000000000E+00 0. -1.
          6    1    1    2  501    0  0.24557756907E+03  0.41263649258E+02  0.35234610561E+02  0.30525646424E+03  0.17300000000E+03 0.  1.
         -6    1    1    2    0  502 -0.24557756907E+03 -0.41263649258E+02  0.22042328000E+03  0.37486858170E+03  0.17300000000E+03 0. -1.
<mgrwt>
<rscale>  2 0.30321615E+03</rscale>
<asrwt>0</asrwt>
<pdfrwt beam="1">  1       21 0.71983302E-01 0.30321615E+03</pdfrwt>
<pdfrwt beam="2">  1       21 0.32651320E-01 0.30321615E+03</pdfrwt>
<totfact> 0.14842587E+04</totfact>
</mgrwt>
</event>
<event>
 4    1  0.3957190E+000  0.2838183E+03  0.7546771E-02  0.1093622E+00
         21   -1    0    0  503  502  0.00000000000E+00  0.00000000000E+00  0.17380110754E+03  0.17380110754E+03  0.00000000000E+00 0. -1.
         21   -1    0    0  501  503 -0.00000000000E+00 -0.00000000000E+00 -0.16949642295E+04  0.16949642295E+04  0.00000000000E+00 0.  1.
          6    1    1    2  501    0  0.20236650941E+03 -0.98344382380E+02 -0.15570332839E+04  0.15826893154E+04  0.17300000000E+03 0.  1.
         -6    1    1    2    0  502 -0.20236650941E+03  0.98344382380E+02  0.35870161952E+02  0.28607602171E+03  0.17300000000E+03 0. -1.
<mgrwt>
<rscale>  2 0.28381829E+03</rscale>
<asrwt>0</asrwt>
<pdfrwt beam="1">  1       21 0.26738633E-01 0.28381829E+03</pdfrwt>
<pdfrwt beam="2">  1       21 0.26076372E+00 0.28381829E+03</pdfrwt>
<totfact> 0.69464976E+02</totfact>
</mgrwt>
</event>
<event>
 4    1  0.3957190E+000  0.2317867E+03  0.7546771E-02  0.1125388E+00
         21   -1    0    0  503  502  0.00000000000E+00  0.00000000000E+00  0.34263917281E+02  0.34263917281E+02  0.00000000000E+00 0. -1.
         21   -1    0    0  501  503 -0.00000000000E+00 -0.00000000000E+00 -0.18244358562E+04  0.18244358562E+04  0.00000000000E+00 0. -1.
          6    1    1    2  501    0  0.90563768432E+01 -0.15399373883E+03 -0.12435214998E+04  0.12649390539E+04  0.17300000000E+03 0. -1.
         -6    1    1    2    0  502 -0.90563768432E+01  0.15399373883E+03 -0.54665043918E+03  0.59376071967E+03  0.17300000000E+03 0. -1.
<mgrwt>
<rscale>  2 0.23178673E+03</rscale>
<asrwt>0</asrwt>
<pdfrwt beam="1">  1       21 0.52713719E-02 0.23178673E+03</pdfrwt>
<pdfrwt beam="2">  1       21 0.28068244E+00 0.23178673E+03</pdfrwt>
<totfact> 0.10447042E+04</totfact>
</mgrwt>
</event>
<event>
 4    1  0.3957190E+000  0.1851559E+03  0.7546771E-02  0.1162904E+00
         21   -1    0    0  501  502  0.00000000000E+00  0.00000000000E+00  0.19342690324E+03  0.19342690324E+03  0.00000000000E+00 0.  1.
         21   -1    0    0  502  503 -0.00000000000E+00 -0.00000000000E+00 -0.17729324823E+03  0.17729324823E+03  0.00000000000E+00 0.  1.
          6    1    1    2  501    0  0.64714870830E+02 -0.12872239207E+02  0.48118333322E+01  0.18521841914E+03  0.17300000000E+03 0.  1.
         -6    1    1    2    0  503 -0.64714870830E+02  0.12872239207E+02  0.11321821677E+02  0.18550173232E+03  0.17300000000E+03 0.  1.
<mgrwt>
<rscale>  2 0.18515590E+03</rscale>
<asrwt>0</asrwt>
<pdfrwt beam="1">  1       21 0.29757985E-01 0.18515590E+03</pdfrwt>
<pdfrwt beam="2">  1       21 0.27275884E-01 0.18515590E+03</pdfrwt>
<totfact> 0.13908327E+05</totfact>
</mgrwt>
</event>
<event>
 4    1  0.3957190E+000  0.1893495E+03  0.7546771E-02  0.1159049E+00
         21   -1    0    0  501  502  0.00000000000E+00  0.00000000000E+00  0.17115060415E+03  0.17115060415E+03  0.00000000000E+00 0.  1.
         21   -1    0    0  502  503 -0.00000000000E+00 -0.00000000000E+00 -0.21734645003E+03  0.21734645003E+03  0.00000000000E+00 0.  1.
          6    1    1    2  501    0  0.75043158465E+02  0.17109944425E+02  0.13848678825E+02  0.18985523889E+03  0.17300000000E+03 0.  1.
         -6    1    1    2    0  503 -0.75043158465E+02 -0.17109944425E+02 -0.60044524704E+02  0.19864181528E+03  0.17300000000E+03 0.  1.
<mgrwt>
<rscale>  2 0.18934948E+03</rscale>
<asrwt>0</asrwt>
<pdfrwt beam="1">  1       21 0.26330862E-01 0.18934948E+03</pdfrwt>
<pdfrwt beam="2">  1       21 0.33437915E-01 0.18934948E+03</pdfrwt>
<totfact> 0.11827788E+05</totfact>
</mgrwt>
</event>
<event>
 4    1  0.3957190E+000  0.2262384E+03  0.7546771E-02  0.1129316E+00
         21   -1    0    0  503  502  0.00000000000E+00  0.00000000000E+00  0.47694126701E+03  0.47694126701E+03  0.00000000000E+00 0.  1.
         21   -1    0    0  501  503 -0.00000000000E+00 -0.00000000000E+00 -0.19109747611E+03  0.19109747611E+03  0.00000000000E+00 0. -1.
          6    1    1    2  501    0  0.10381373558E+03 -0.10235977438E+03 -0.78242944125E+02  0.23938624316E+03  0.17300000000E+03 0. -1.
         -6    1    1    2    0  502 -0.10381373558E+03  0.10235977438E+03  0.36408673502E+03  0.42865249997E+03  0.17300000000E+03 0.  1.
<mgrwt>
<rscale>  2 0.22623840E+03</rscale>
<asrwt>0</asrwt>
<pdfrwt beam="1">  1       21 0.73375579E-01 0.22623840E+03</pdfrwt>
<pdfrwt beam="2">  1       21 0.29399612E-01 0.22623840E+03</pdfrwt>
<totfact> 0.18139890E+04</totfact>
</mgrwt>
</event>
<event>
 4    1  0.3957190E+000  0.2031367E+03  0.7546771E-02  0.1147119E+00
         21   -1    0    0  503  502  0.00000000000E+00  0.00000000000E+00  0.38919895346E+03  0.38919895346E+03  0.00000000000E+00 0. -1.
         21   -1    0    0  501  503 -0.00000000000E+00 -0.00000000000E+00 -0.45237427462E+03  0.45237427462E+03  0.00000000000E+00 0. -1.
          6    1    1    2  501    0 -0.80292178327E+02 -0.69919223488E+02 -0.39977645753E+03  0.44842585530E+03  0.17300000000E+03 0. -1.
         -6    1    1    2    0  502  0.80292178327E+02  0.69919223488E+02  0.33660113637E+03  0.39314737278E+03  0.17300000000E+03 0. -1.
<mgrwt>
<rscale>  2 0.20313673E+03</rscale>
<asrwt>0</asrwt>
<pdfrwt beam="1">  1       21 0.59876762E-01 0.20313673E+03</pdfrwt>
<pdfrwt beam="2">  1       21 0.69596043E-01 0.20313673E+03</pdfrwt>
<totfact> 0.48445371E+03</totfact>
</mgrwt>
</event>
<event>
 4    1  0.3957190E+000  0.2317809E+03  0.7546771E-02  0.1125393E+00
         21   -1    0    0  501  502  0.00000000000E+00  0.00000000000E+00  0.10934015342E+03  0.10934015342E+03  0.00000000000E+00 0. -1.
         21   -1    0    0  502  503 -0.00000000000E+00 -0.00000000000E+00 -0.10902296439E+04  0.10902296439E+04  0.00000000000E+00 0.  1.
          6    1    1    2  501    0 -0.40625719125E+02 -0.14880495540E+03 -0.45902868885E+02  0.23628253676E+03  0.17300000000E+03 0. -1.
         -6    1    1    2    0  503  0.40625719125E+02  0.14880495540E+03 -0.93498662162E+03  0.96328726059E+03  0.17300000000E+03 0.  1.
<mgrwt>
<rscale>  2 0.23178085E+03</rscale>
<asrwt>0</asrwt>
<pdfrwt beam="1">  1       21 0.16821561E-01 0.23178085E+03</pdfrwt>
<pdfrwt beam="2">  1       21 0.16772764E+00 0.23178085E+03</pdfrwt>
<totfact> 0.68308635E+03</totfact>
</mgrwt>
</event>
<event>
 4    1  0.3957190E+000  0.2397112E+03  0.7546771E-02  0.1119985E+00
         21   -1    0    0  503  502  0.00000000000E+00  0.00000000000E+00  0.35312573325E+03  0.35312573325E+03  0.00000000000E+00 0.  1.
         21   -1    0    0  501  503 -0.00000000000E+00 -0.00000000000E+00 -0.17896452368E+03  0.17896452368E+03  0.00000000000E+00 0.  1.
          6    1    1    2  501    0 -0.32848546142E+01 -0.16589654214E+03  0.16722880373E+03  0.29227884933E+03  0.17300000000E+03 0.  1.
         -6    1    1    2    0  502  0.32848546142E+01  0.16589654214E+03  0.69324058308E+01  0.23981140760E+03  0.17300000000E+03 0.  1.
<mgrwt>
<rscale>  2 0.23971119E+03</rscale>
<asrwt>0</asrwt>
<pdfrwt beam="1">  1       21 0.54327036E-01 0.23971119E+03</pdfrwt>
<pdfrwt beam="2">  1       21 0.27533004E-01 0.23971119E+03</pdfrwt>
<totfact> 0.39388798E+04</totfact>
</mgrwt>
</event>
<event>
 4    1  0.3957190E+000  0.1957314E+03  0.7546771E-02  0.1153391E+00
         21   -1    0    0  503  502  0.00000000000E+00  0.00000000000E+00  0.17310783171E+03  0.17310783171E+03  0.00000000000E+00 0. -1.
         21   -1    0    0  501  503 -0.00000000000E+00 -0.00000000000E+00 -0.28673400999E+03  0.28673400999E+03  0.00000000000E+00 0.  1.
          6    1    1    2  501    0 -0.53243127706E+02 -0.74477847787E+02 -0.16663828281E+03  0.25705854928E+03  0.17300000000E+03 0.  1.
         -6    1    1    2    0  502  0.53243127706E+02  0.74477847787E+02  0.53012104531E+02  0.20278329242E+03  0.17300000000E+03 0. -1.
<mgrwt>
<rscale>  2 0.19573140E+03</rscale>
<asrwt>0</asrwt>
<pdfrwt beam="1">  1       21 0.26631974E-01 0.19573140E+03</pdfrwt>
<pdfrwt beam="2">  1       21 0.44112925E-01 0.19573140E+03</pdfrwt>
<totfact> 0.66147190E+04</totfact>
</mgrwt>
</event>
<event>
 4    1  0.3957190E+000  0.1758323E+03  0.7546771E-02  0.1171899E+00
         21   -1    0    0  503  502  0.00000000000E+00  0.00000000000E+00  0.90969608112E+02  0.90969608112E+02  0.00000000000E+00 0.  1.
         21   -1    0    0  501  503 -0.00000000000E+00 -0.00000000000E+00 -0.35485286340E+03  0.35485286340E+03  0.00000000000E+00 0.  1.
          6    1    1    2  501    0 -0.49400592543E+01 -0.31041992196E+02 -0.17775978334E+03  0.25003109814E+03  0.17300000000E+03 0. -1.
         -6    1    1    2    0  502  0.49400592543E+01  0.31041992196E+02 -0.86123471945E+02  0.19579137337E+03  0.17300000000E+03 0. -1.
<mgrwt>
<rscale>  2 0.17583233E+03</rscale>
<asrwt>0</asrwt>
<pdfrwt beam="1">  1       21 0.13995324E-01 0.17583233E+03</pdfrwt>
<pdfrwt beam="2">  1       21 0.54592748E-01 0.17583233E+03</pdfrwt>
<totfact> 0.14177588E+05</totfact>
</mgrwt>
</event>
<event>
 4    1  0.3957190E+000  0.1802133E+03  0.7546771E-02  0.1167597E+00
         21   -1    0    0  503  502  0.00000000000E+00  0.00000000000E+00  0.93716122633E+02  0.93716122633E+02  0.00000000000E+00 0. -1.
         21   -1    0    0  501  503 -0.00000000000E+00 -0.00000000000E+00 -0.35298879816E+03  0.35298879816E+03  0.00000000000E+00 0.  1.
          6    1    1    2  501    0  0.35234169367E+02 -0.36144167167E+02 -0.15981385280E+03  0.24086783733E+03  0.17300000000E+03 0.  1.
         -6    1    1    2    0  502 -0.35234169367E+02  0.36144167167E+02 -0.99458822724E+02  0.20583708346E+03  0.17300000000E+03 0. -1.
<mgrwt>
<rscale>  2 0.18021334E+03</rscale>
<asrwt>0</asrwt>
<pdfrwt beam="1">  1       21 0.14417865E-01 0.18021334E+03</pdfrwt>
<pdfrwt beam="2">  1       21 0.54305969E-01 0.18021334E+03</pdfrwt>
<totfact> 0.13563987E+05</totfact>
</mgrwt>
</event>
<event>
 4    1  0.3957190E+000  0.2068952E+03  0.7546771E-02  0.1144049E+00
         21   -1    0    0  503  502  0.00000000000E+00  0.00000000000E+00  0.93174161234E+02  0.93174161234E+02  0.00000000000E+00 0. -1.
         21   -1    0    0  501  503 -0.00000000000E+00 -0.00000000000E+00 -0.49794156340E+03  0.49794156340E+03  0.00000000000E+00 0. -1.
          6    1    1    2  501    0  0.98344409563E+01  0.11304820633E+03 -0.12017209998E+03  0.23926334194E+03  0.17300000000E+03 0. -1.
         -6    1    1    2    0  502 -0.98344409563E+01 -0.11304820633E+03 -0.28459530219E+03  0.35185238270E+03  0.17300000000E+03 0. -1.
<mgrwt>
<rscale>  2 0.20689517E+03</rscale>
<asrwt>0</asrwt>
<pdfrwt beam="1">  1       21 0.14334487E-01 0.20689517E+03</pdfrwt>
<pdfrwt beam="2">  1       21 0.76606393E-01 0.20689517E+03</pdfrwt>
<totfact> 0.64168727E+04</totfact>
</mgrwt>
</event>
<event>
 4    1  0.3957190E+000  0.2650984E+03  0.7546771E-02  0.1104118E+00
         21   -1    0    0  503  502  0.00000000000E+00  0.00000000000E+00  0.11336579744E+03  0.11336579744E+03  0.00000000000E+00 0. -1.
         21   -1    0    0  501  503 -0.00000000000E+00 -0.00000000000E+00 -0.67292973452E+03  0.67292973452E+03  0.00000000000E+00 0.  1.
          6    1    1    2  501    0 -0.85227405379E+02 -0.18189136228E+03 -0.16943293689E+03  0.31461833768E+03  0.17300000000E+03 0.  1.
         -6    1    1    2    0  502  0.85227405379E+02  0.18189136228E+03 -0.39013100018E+03  0.47167719428E+03  0.17300000000E+03 0.  1.
<mgrwt>
<rscale>  2 0.26509843E+03</rscale>
<asrwt>0</asrwt>
<pdfrwt beam="1">  1       21 0.17440892E-01 0.26509843E+03</pdfrwt>
<pdfrwt beam="2">  1       21 0.10352765E+00 0.26509843E+03</pdfrwt>
<totfact> 0.21627912E+04</totfact>
</mgrwt>
</event>
<event>
 4    1  0.3957190E+000  0.1897051E+03  0.7546771E-02  0.1158728E+00
         21   -1    0    0  501  502  0.00000000000E+00  0.00000000000E+00  0.19911616098E+03  0.19911616098E+03  0.00000000000E+00 0.  1.
         21   -1    0    0  502  503 -0.00000000000E+00 -0.00000000000E+00 -0.20487782625E+03  0.20487782625E+03  0.00000000000E+00 0.  1.
          6    1    1    2  501    0  0.66266421057E+02 -0.40838695906E+02  0.66454774448E+02  0.20100814583E+03  0.17300000000E+03 0.  1.
         -6    1    1    2    0  503 -0.66266421057E+02  0.40838695906E+02 -0.72216439714E+02  0.20298584140E+03  0.17300000000E+03 0.  1.
<mgrwt>
<rscale>  2 0.18970513E+03</rscale>
<asrwt>0</asrwt>
<pdfrwt beam="1">  1       21 0.30633255E-01 0.18970513E+03</pdfrwt>
<pdfrwt beam="2">  1       21 0.31519666E-01 0.18970513E+03</pdfrwt>
<totfact> 0.99094320E+04</totfact>
</mgrwt>
</event>
<event>
 4    1  0.3957190E+000  0.1757383E+03  0.7546771E-02  0.1171992E+00
         21   -1    0    0  503  502  0.00000000000E+00  0.00000000000E+00  0.32730677379E+03  0.32730677379E+03  0.00000000000E+00 0. -1.
         21   -1    0    0  501  503 -0.00000000000E+00 -0.00000000000E+00 -0.12390180371E+03  0.12390180371E+03  0.00000000000E+00 0. -1.
          6    1    1    2  501    0 -0.99966333212E+01 -0.29240655696E+02 -0.84623979252E+01  0.17594192451E+03  0.17300000000E+03 0. -1.
         -6    1    1    2    0  502  0.99966333212E+01  0.29240655696E+02  0.21186736800E+03  0.27526665299E+03  0.17300000000E+03 0. -1.
<mgrwt>
<rscale>  2 0.17573830E+03</rscale>
<asrwt>0</asrwt>
<pdfrwt beam="1">  1       21 0.50354888E-01 0.17573830E+03</pdfrwt>
<pdfrwt beam="2">  1       21 0.19061816E-01 0.17573830E+03</pdfrwt>
<totfact> 0.95411461E+04</totfact>
</mgrwt>
</event>
<event>
 4    1  0.3957190E+000  0.1970644E+03  0.7546771E-02  0.1152240E+00
         21   -1    0    0  501  502  0.00000000000E+00  0.00000000000E+00  0.19128070903E+03  0.19128070903E+03  0.00000000000E+00 0.  1.
         21   -1    0    0  502  503 -0.00000000000E+00 -0.00000000000E+00 -0.25593134632E+03  0.25593134632E+03  0.00000000000E+00 0.  1.
          6    1    1    2  501    0  0.94365139706E+02  0.77710980797E+00  0.69342582379E+02  0.20890853794E+03  0.17300000000E+03 0.  1.
         -6    1    1    2    0  503 -0.94365139706E+02 -0.77710980797E+00 -0.13399321967E+03  0.23830351741E+03  0.17300000000E+03 0.  1.
<mgrwt>
<rscale>  2 0.19706441E+03</rscale>
<asrwt>0</asrwt>
<pdfrwt beam="1">  1       21 0.29427801E-01 0.19706441E+03</pdfrwt>
<pdfrwt beam="2">  1       21 0.39374053E-01 0.19706441E+03</pdfrwt>
<totfact> 0.68661115E+04</totfact>
</mgrwt>
</event>
<event>
 4    1  0.3957190E+000  0.2153908E+03  0.7546771E-02  0.1137367E+00
         21   -1    0    0  503  502  0.00000000000E+00  0.00000000000E+00  0.12609732642E+03  0.12609732642E+03  0.00000000000E+00 0. -1.
         21   -1    0    0  501  503 -0.00000000000E+00 -0.00000000000E+00 -0.55333443438E+03  0.55333443438E+03  0.00000000000E+00 0.  1.
          6    1    1    2  501    0 -0.37314536559E+02 -0.12276742267E+03 -0.41027063239E+03  0.46337372229E+03  0.17300000000E+03 0.  1.
         -6    1    1    2    0  502  0.37314536559E+02  0.12276742267E+03 -0.16966475565E+02  0.21605803850E+03  0.17300000000E+03 0. -1.
<mgrwt>
<rscale>  2 0.21539084E+03</rscale>
<asrwt>0</asrwt>
<pdfrwt beam="1">  1       21 0.19399589E-01 0.21539084E+03</pdfrwt>
<pdfrwt beam="2">  1       21 0.85128372E-01 0.21539084E+03</pdfrwt>
<totfact> 0.28809968E+04</totfact>
</mgrwt>
</event>
<event>
 4    1  0.3957190E+000  0.1808949E+03  0.7546771E-02  0.1166940E+00
         21   -1    0    0  501  502  0.00000000000E+00  0.00000000000E+00  0.72610392366E+02  0.72610392366E+02  0.00000000000E+00 0. -1.
         21   -1    0    0  502  503 -0.00000000000E+00 -0.00000000000E+00 -0.82455606832E+03  0.82455606832E+03  0.00000000000E+00 0. -1.
          6    1    1    2  501    0 -0.29012373330E+02 -0.44184044288E+02 -0.73904224276E+02  0.19540926780E+03  0.17300000000E+03 0. -1.
         -6    1    1    2    0  503  0.29012373330E+02  0.44184044288E+02 -0.67804145168E+03  0.70175719289E+03  0.17300000000E+03 0. -1.
<mgrwt>
<rscale>  2 0.18089485E+03</rscale>
<asrwt>0</asrwt>
<pdfrwt beam="1">  1       21 0.11170830E-01 0.18089485E+03</pdfrwt>
<pdfrwt beam="2">  1       21 0.12685478E+00 0.18089485E+03</pdfrwt>
<totfact> 0.30868064E+04</totfact>
</mgrwt>
</event>
<event>
 4    1  0.3957190E+000  0.2003929E+03  0.7546771E-02  0.1149408E+00
         21   -1    0    0  501  502  0.00000000000E+00  0.00000000000E+00  0.46013161616E+02  0.46013161616E+02  0.00000000000E+00 0.  1.
         21   -1    0    0  502  503 -0.00000000000E+00 -0.00000000000E+00 -0.14234659232E+04  0.14234659232E+04  0.00000000000E+00 0. -1.
          6    1    1    2  501    0  0.47383168219E+01 -0.10102397280E+03 -0.23171225550E+03  0.30634598753E+03  0.17300000000E+03 0.  1.
         -6    1    1    2    0  503 -0.47383168219E+01  0.10102397280E+03 -0.11457405061E+04  0.11631330973E+04  0.17300000000E+03 0. -1.
<mgrwt>
<rscale>  2 0.20039285E+03</rscale>
<asrwt>0</asrwt>
<pdfrwt beam="1">  1       21 0.70789482E-02 0.20039285E+03</pdfrwt>
<pdfrwt beam="2">  1       21 0.21899475E+00 0.20039285E+03</pdfrwt>
<totfact> 0.15041684E+04</totfact>
</mgrwt>
</event>
<event>
 4    1  0.3957190E+000  0.2486248E+03  0.7546771E-02  0.1114177E+00
         21   -1    0    0  501  502  0.00000000000E+00  0.00000000000E+00  0.48610589855E+02  0.48610589855E+02  0.00000000000E+00 0. -1.
         21   -1    0    0  502  503 -0.00000000000E+00 -0.00000000000E+00 -0.19689264729E+04  0.19689264729E+04  0.00000000000E+00 0.  1.
          6    1    1    2  501    0  0.15995814336E+02 -0.17784657157E+03 -0.35983053374E+03  0.43736973159E+03  0.17300000000E+03 0. -1.
         -6    1    1    2    0  503 -0.15995814336E+02  0.17784657157E+03 -0.15604853493E+04  0.15801673311E+04  0.17300000000E+03 0.  1.
<mgrwt>
<rscale>  2 0.24862476E+03</rscale>
<asrwt>0</asrwt>
<pdfrwt beam="1">  1       21 0.74785533E-02 0.24862476E+03</pdfrwt>
<pdfrwt beam="2">  1       21 0.30291172E+00 0.24862476E+03</pdfrwt>
<totfact> 0.41781375E+03</totfact>
</mgrwt>
</event>
<event>
 4    1  0.3957190E+000  0.1972682E+03  0.7546771E-02  0.1152065E+00
         21   -1    0    0  501  502  0.00000000000E+00  0.00000000000E+00  0.29734191390E+03  0.29734191390E+03  0.00000000000E+00 0.  1.
         21   -1    0    0  502  503 -0.00000000000E+00 -0.00000000000E+00 -0.18414391107E+03  0.18414391107E+03  0.00000000000E+00 0.  1.
          6    1    1    2  501    0  0.91277591560E+02  0.25576039392E+02  0.18608125117E+03  0.27118437372E+03  0.17300000000E+03 0.  1.
         -6    1    1    2    0  503 -0.91277591560E+02 -0.25576039392E+02 -0.72883248331E+02  0.21030145125E+03  0.17300000000E+03 0.  1.
<mgrwt>
<rscale>  2 0.19726817E+03</rscale>
<asrwt>0</asrwt>
<pdfrwt beam="1">  1       21 0.45744910E-01 0.19726817E+03</pdfrwt>
<pdfrwt beam="2">  1       21 0.28329832E-01 0.19726817E+03</pdfrwt>
<totfact> 0.54447199E+04</totfact>
</mgrwt>
</event>
<event>
 4    1  0.3957190E+000  0.1732762E+03  0.7546771E-02  0.1174474E+00
         21   -1    0    0  501  502  0.00000000000E+00  0.00000000000E+00  0.61517661240E+02  0.61517661240E+02  0.00000000000E+00 0. -1.
         21   -1    0    0  502  503 -0.00000000000E+00 -0.00000000000E+00 -0.56707456298E+03  0.56707456298E+03  0.00000000000E+00 0. -1.
          6    1    1    2  501    0 -0.32076710745E+01 -0.92390571427E+01 -0.13546242959E+03  0.21994253604E+03  0.17300000000E+03 0. -1.
         -6    1    1    2    0  503  0.32076710745E+01  0.92390571427E+01 -0.37009447215E+03  0.40864968818E+03  0.17300000000E+03 0. -1.
<mgrwt>
<rscale>  2 0.17327622E+03</rscale>
<asrwt>0</asrwt>
<pdfrwt beam="1">  1       21 0.94642557E-02 0.17327622E+03</pdfrwt>
<pdfrwt beam="2">  1       21 0.87242240E-01 0.17327622E+03</pdfrwt>
<totfact> 0.10172634E+05</totfact>
</mgrwt>
</event>
<event>
 4    1  0.3957190E+000  0.1733937E+03  0.7546771E-02  0.1174354E+00
         21   -1    0    0  503  502  0.00000000000E+00  0.00000000000E+00  0.78812136404E+02  0.78812136404E+02  0.00000000000E+00 0. -1.
         21   -1    0    0  501  503 -0.00000000000E+00 -0.00000000000E+00 -0.41156254619E+03  0.41156254619E+03  0.00000000000E+00 0. -1.
          6    1    1    2  501    0  0.61632899508E+01 -0.99190598754E+01 -0.10008850197E+03  0.20020759755E+03  0.17300000000E+03 0. -1.
         -6    1    1    2    0  502 -0.61632899508E+01  0.99190598754E+01 -0.23266190781E+03  0.29016708504E+03  0.17300000000E+03 0. -1.
<mgrwt>
<rscale>  2 0.17339370E+03</rscale>
<asrwt>0</asrwt>
<pdfrwt beam="1">  1       21 0.12124944E-01 0.17339370E+03</pdfrwt>
<pdfrwt beam="2">  1       21 0.63317314E-01 0.17339370E+03</pdfrwt>
<totfact> 0.13380789E+05</totfact>
</mgrwt>
</event>
<event>
 4    1  0.3957190E+000  0.1915244E+03  0.7546771E-02  0.1157094E+00
         21   -1    0    0  503  502  0.00000000000E+00  0.00000000000E+00  0.10103784781E+03  0.10103784781E+03  0.00000000000E+00 0.  1.
         21   -1    0    0  501  503 -0.00000000000E+00 -0.00000000000E+00 -0.42242849599E+03  0.42242849599E+03  0.00000000000E+00 0. -1.
          6    1    1    2  501    0  0.81701943040E+02  0.87970108072E+01 -0.62564861456E+02  0.20148438348E+03  0.17300000000E+03 0.  1.
         -6    1    1    2    0  502 -0.81701943040E+02 -0.87970108072E+01 -0.25882578673E+03  0.32198196032E+03  0.17300000000E+03 0. -1.
<mgrwt>
<rscale>  2 0.19152440E+03</rscale>
<asrwt>0</asrwt>
<pdfrwt beam="1">  1       21 0.15544284E-01 0.19152440E+03</pdfrwt>
<pdfrwt beam="2">  1       21 0.64988999E-01 0.19152440E+03</pdfrwt>
<totfact> 0.80188028E+04</totfact>
</mgrwt>
</event>
<event>
 4    1  0.3957190E+000  0.1839794E+03  0.7546771E-02  0.1164006E+00
         21   -1    0    0  503  502  0.00000000000E+00  0.00000000000E+00  0.74701205796E+02  0.74701205796E+02  0.00000000000E+00 0.  1.
         21   -1    0    0  501  503 -0.00000000000E+00 -0.00000000000E+00 -0.82224020200E+03  0.82224020200E+03  0.00000000000E+00 0.  1.
          6    1    1    2  501    0 -0.39507781277E+02 -0.48564904501E+02 -0.73286313866E+02  0.19803862889E+03  0.17300000000E+03 0.  1.
         -6    1    1    2    0  502  0.39507781277E+02  0.48564904501E+02 -0.67425268233E+03  0.69890277891E+03  0.17300000000E+03 0.  1.
<mgrwt>
<rscale>  2 0.18397939E+03</rscale>
<asrwt>0</asrwt>
<pdfrwt beam="1">  1       21 0.11492493E-01 0.18397939E+03</pdfrwt>
<pdfrwt beam="2">  1       21 0.12649849E+00 0.18397939E+03</pdfrwt>
<totfact> 0.29500414E+04</totfact>
</mgrwt>
</event>
<event>
 4    1  0.3957190E+000  0.3914608E+03  0.7546771E-02  0.1046777E+00
         21   -1    0    0  503  502  0.00000000000E+00  0.00000000000E+00  0.10555928922E+04  0.10555928922E+04  0.00000000000E+00 0. -1.
         21   -1    0    0  501  503 -0.00000000000E+00 -0.00000000000E+00 -0.33457640694E+03  0.33457640694E+03  0.00000000000E+00 0.  1.
          6    1    1    2  501    0  0.22328645730E+03 -0.27102711056E+03 -0.16247305852E+03  0.42383844967E+03  0.17300000000E+03 0.  1.
         -6    1    1    2    0  502 -0.22328645730E+03  0.27102711056E+03  0.88348954376E+03  0.96633084945E+03  0.17300000000E+03 0. -1.
<mgrwt>
<rscale>  2 0.39146077E+03</rscale>
<asrwt>0</asrwt>
<pdfrwt beam="1">  1       21 0.16239890E+00 0.39146077E+03</pdfrwt>
<pdfrwt beam="2">  1       21 0.51473294E-01 0.39146077E+03</pdfrwt>
<totfact> 0.74676307E+02</totfact>
</mgrwt>
</event>
<event>
 4    1  0.3957190E+000  0.1869183E+03  0.7546771E-02  0.1161271E+00
         21   -1    0    0  501  502  0.00000000000E+00  0.00000000000E+00  0.18965558431E+04  0.18965558431E+04  0.00000000000E+00 0. -1.
         21   -1    0    0  502  503 -0.00000000000E+00 -0.00000000000E+00 -0.38283190959E+02  0.38283190959E+02  0.00000000000E+00 0. -1.
          6    1    1    2  501    0 -0.37598890252E+02  0.59964884742E+02  0.16259437620E+04  0.16366525536E+04  0.17300000000E+03 0. -1.
         -6    1    1    2    0  503  0.37598890252E+02 -0.59964884742E+02  0.23232889016E+03  0.29818648050E+03  0.17300000000E+03 0. -1.
<mgrwt>
<rscale>  2 0.18691833E+03</rscale>
<asrwt>0</asrwt>
<pdfrwt beam="1">  1       21 0.29177775E+00 0.18691833E+03</pdfrwt>
<pdfrwt beam="2">  1       21 0.58897232E-02 0.18691833E+03</pdfrwt>
<totfact> 0.77968215E+03</totfact>
</mgrwt>
</event>
<event>
 4    1  0.3957190E+000  0.3355665E+03  0.7546771E-02  0.1068700E+00
         21   -1    0    0  501  502  0.00000000000E+00  0.00000000000E+00  0.54616316100E+02  0.54616316100E+02  0.00000000000E+00 0. -1.
         21   -1    0    0  502  503 -0.00000000000E+00 -0.00000000000E+00 -0.21198122067E+04  0.21198122067E+04  0.00000000000E+00 0.  1.
          6    1    1    2  501    0 -0.15987141431E+03  0.23899168744E+03 -0.85265561441E+03  0.91631135132E+03  0.17300000000E+03 0. -1.
         -6    1    1    2    0  503  0.15987141431E+03 -0.23899168744E+03 -0.12125402762E+04  0.12581171715E+04  0.17300000000E+03 0.  1.
<mgrwt>
<rscale>  2 0.33556653E+03</rscale>
<asrwt>0</asrwt>
<pdfrwt beam="1">  1       21 0.84025115E-02 0.33556653E+03</pdfrwt>
<pdfrwt beam="2">  1       21 0.32612490E+00 0.33556653E+03</pdfrwt>
<totfact> 0.23135780E+03</totfact>
</mgrwt>
</event>
<event>
 4    1  0.3957190E+000  0.1903060E+03  0.7546771E-02  0.1158186E+00
         21   -1    0    0  501  502  0.00000000000E+00  0.00000000000E+00  0.11184621338E+03  0.11184621338E+03  0.00000000000E+00 0.  1.
         21   -1    0    0  502  503 -0.00000000000E+00 -0.00000000000E+00 -0.39819671210E+03  0.39819671210E+03  0.00000000000E+00 0.  1.
          6    1    1    2  501    0  0.18714424828E+02 -0.77052900090E+02 -0.25340269854E+03  0.31690583260E+03  0.17300000000E+03 0.  1.
         -6    1    1    2    0  503 -0.18714424828E+02  0.77052900090E+02 -0.32947800189E+02  0.19313709288E+03  0.17300000000E+03 0.  1.
<mgrwt>
<rscale>  2 0.19030601E+03</rscale>
<asrwt>0</asrwt>
<pdfrwt beam="1">  1       21 0.17207110E-01 0.19030601E+03</pdfrwt>
<pdfrwt beam="2">  1       21 0.61261033E-01 0.19030601E+03</pdfrwt>
<totfact> 0.75673277E+04</totfact>
</mgrwt>
</event>
<event>
 4    1  0.3957190E+000  0.3875451E+03  0.7546771E-02  0.1048180E+00
         21   -1    0    0  501  502  0.00000000000E+00  0.00000000000E+00  0.60612187630E+03  0.60612187630E+03  0.00000000000E+00 0.  1.
         21   -1    0    0  502  503 -0.00000000000E+00 -0.00000000000E+00 -0.26165813169E+03  0.26165813169E+03  0.00000000000E+00 0. -1.
          6    1    1    2  501    0 -0.22367582171E+03 -0.26501201328E+03  0.27211996897E+03  0.47354040790E+03  0.17300000000E+03 0. -1.
         -6    1    1    2    0  503  0.22367582171E+03  0.26501201328E+03  0.72343775641E+02  0.39423960008E+03  0.17300000000E+03 0.  1.
<mgrwt>
<rscale>  2 0.38754515E+03</rscale>
<asrwt>0</asrwt>
<pdfrwt beam="1">  1       21 0.93249520E-01 0.38754515E+03</pdfrwt>
<pdfrwt beam="2">  1       21 0.40255097E-01 0.38754515E+03</pdfrwt>
<totfact> 0.51713163E+03</totfact>
</mgrwt>
</event>
<event>
 4    1  0.3957190E+000  0.2276533E+03  0.7546771E-02  0.1128302E+00
         21   -1    0    0  501  502  0.00000000000E+00  0.00000000000E+00  0.66496562239E+03  0.66496562239E+03  0.00000000000E+00 0. -1.
         21   -1    0    0  502  503 -0.00000000000E+00 -0.00000000000E+00 -0.11007788387E+03  0.11007788387E+03  0.00000000000E+00 0. -1.
          6    1    1    2  501    0  0.14758199733E+03 -0.10796981907E+02  0.48684012523E+03  0.53743774364E+03  0.17300000000E+03 0. -1.
         -6    1    1    2    0  503 -0.14758199733E+03  0.10796981907E+02  0.68047613294E+02  0.23760576262E+03  0.17300000000E+03 0. -1.
<mgrwt>
<rscale>  2 0.22765329E+03</rscale>
<asrwt>0</asrwt>
<pdfrwt beam="1">  1       21 0.10230240E+00 0.22765329E+03</pdfrwt>
<pdfrwt beam="2">  1       21 0.16935059E-01 0.22765329E+03</pdfrwt>
<totfact> 0.23944187E+04</totfact>
</mgrwt>
</event>
<event>
 4    1  0.3957190E+000  0.1856565E+03  0.7546771E-02  0.1162438E+00
         21   -1    0    0  503  502  0.00000000000E+00  0.00000000000E+00  0.14105893455E+03  0.14105893455E+03  0.00000000000E+00 0. -1.
         21   -1    0    0  501  503 -0.00000000000E+00 -0.00000000000E+00 -0.73025726813E+03  0.73025726813E+03  0.00000000000E+00 0. -1.
          6    1    1    2  501    0  0.38176975875E+02 -0.55514489728E+02 -0.64997073656E+03  0.67596619623E+03  0.17300000000E+03 0. -1.
         -6    1    1    2    0  502 -0.38176975875E+02  0.55514489728E+02  0.60772402982E+02  0.19535000645E+03  0.17300000000E+03 0. -1.
<mgrwt>
<rscale>  2 0.18565651E+03</rscale>
<asrwt>0</asrwt>
<pdfrwt beam="1">  1       21 0.21701375E-01 0.18565651E+03</pdfrwt>
<pdfrwt beam="2">  1       21 0.11234727E+00 0.18565651E+03</pdfrwt>
<totfact> 0.12349535E+04</totfact>
</mgrwt>
</event>
<event>
 4    1  0.3957190E+000  0.1915320E+03  0.7546771E-02  0.1157087E+00
         21   -1    0    0  501  502  0.00000000000E+00  0.00000000000E+00  0.69404509313E+02  0.69404509313E+02  0.00000000000E+00 0.  1.
         21   -1    0    0  502  503 -0.00000000000E+00 -0.00000000000E+00 -0.60951846347E+03  0.60951846347E+03  0.00000000000E+00 0.  1.
          6    1    1    2  501    0 -0.45049269963E+02  0.68746282629E+02 -0.14634075972E+03  0.24103963586E+03  0.17300000000E+03 0. -1.
         -6    1    1    2    0  503  0.45049269963E+02 -0.68746282629E+02 -0.39377319444E+03  0.43788333692E+03  0.17300000000E+03 0. -1.
<mgrwt>
<rscale>  2 0.19153195E+03</rscale>
<asrwt>0</asrwt>
<pdfrwt beam="1">  1       21 0.10677616E-01 0.19153195E+03</pdfrwt>
<pdfrwt beam="2">  1       21 0.93772074E-01 0.19153195E+03</pdfrwt>
<totfact> 0.69034690E+04</totfact>
</mgrwt>
</event>
<event>
 4    1  0.3957190E+000  0.1763574E+03  0.7546771E-02  0.1171376E+00
         21   -1    0    0  503  502  0.00000000000E+00  0.00000000000E+00  0.49686845127E+03  0.49686845127E+03  0.00000000000E+00 0. -1.
         21   -1    0    0  501  503 -0.00000000000E+00 -0.00000000000E+00 -0.86221810862E+02  0.86221810862E+02  0.00000000000E+00 0. -1.
          6    1    1    2  501    0 -0.32856155523E+02  0.96652341050E+01  0.35793620823E+03  0.39902415073E+03  0.17300000000E+03 0.  1.
         -6    1    1    2    0  502  0.32856155523E+02 -0.96652341050E+01  0.52710432182E+02  0.18406611140E+03  0.17300000000E+03 0.  1.
<mgrwt>
<rscale>  2 0.17635743E+03</rscale>
<asrwt>0</asrwt>
<pdfrwt beam="1">  1       21 0.76441298E-01 0.17635743E+03</pdfrwt>
<pdfrwt beam="2">  1       21 0.13264894E-01 0.17635743E+03</pdfrwt>
<totfact> 0.75211218E+04</totfact>
</mgrwt>
</event>
<event>
 4    1  0.3957190E+000  0.2522330E+03  0.7546771E-02  0.1111902E+00
         21   -1    0    0  501  502  0.00000000000E+00  0.00000000000E+00  0.78208099731E+03  0.78208099731E+03  0.00000000000E+00 0. -1.
         21   -1    0    0  502  503 -0.00000000000E+00 -0.00000000000E+00 -0.12917000772E+03  0.12917000772E+03  0.00000000000E+00 0. -1.
          6    1    1    2  501    0 -0.18351254889E+03  0.39523720404E+01  0.60368325685E+03  0.65425908587E+03  0.17300000000E+03 0. -1.
         -6    1    1    2    0  503  0.18351254889E+03 -0.39523720404E+01  0.49227732735E+02  0.25699191916E+03  0.17300000000E+03 0. -1.
<mgrwt>
<rscale>  2 0.25223298E+03</rscale>
<asrwt>0</asrwt>
<pdfrwt beam="1">  1       21 0.12032015E+00 0.25223298E+03</pdfrwt>
<pdfrwt beam="2">  1       21 0.19872309E-01 0.25223298E+03</pdfrwt>
<totfact> 0.11802720E+04</totfact>
</mgrwt>
</event>
<event>
 4    1  0.3957190E+000  0.1757585E+03  0.7546771E-02  0.1171972E+00
         21   -1    0    0  503  502  0.00000000000E+00  0.00000000000E+00  0.40816295437E+03  0.40816295437E+03  0.00000000000E+00 0. -1.
         21   -1    0    0  501  503 -0.00000000000E+00 -0.00000000000E+00 -0.87890782102E+02  0.87890782102E+02  0.00000000000E+00 0. -1.
          6    1    1    2  501    0  0.99157907371E+01  0.29389206084E+02  0.67699647091E+02  0.18834619868E+03  0.17300000000E+03 0.  1.
         -6    1    1    2    0  502 -0.99157907371E+01 -0.29389206084E+02  0.25257252517E+03  0.30770753779E+03  0.17300000000E+03 0.  1.
<mgrwt>
<rscale>  2 0.17575849E+03</rscale>
<asrwt>0</asrwt>
<pdfrwt beam="1">  1       21 0.62794300E-01 0.17575849E+03</pdfrwt>
<pdfrwt beam="2">  1       21 0.13521659E-01 0.17575849E+03</pdfrwt>
<totfact> 0.11192789E+05</totfact>
</mgrwt>
</event>
<event>
 4    1  0.3957190E+000  0.2152833E+03  0.7546771E-02  0.1137449E+00
         21   -1    0    0  503  502  0.00000000000E+00  0.00000000000E+00  0.78350843288E+02  0.78350843288E+02  0.00000000000E+00 0.  1.
         21   -1    0    0  501  503 -0.00000000000E+00 -0.00000000000E+00 -0.12169198126E+04  0.12169198126E+04  0.00000000000E+00 0.  1.
          6    1    1    2  501    0  0.75162873132E+02 -0.10377109253E+03 -0.10335590054E+04  0.10557419736E+04  0.17300000000E+03 0.  1.
         -6    1    1    2    0  502 -0.75162873132E+02  0.10377109253E+03 -0.10500996397E+03  0.23952868236E+03  0.17300000000E+03 0.  1.
<mgrwt>
<rscale>  2 0.21528330E+03</rscale>
<asrwt>0</asrwt>
<pdfrwt beam="1">  1       21 0.12053977E-01 0.21528330E+03</pdfrwt>
<pdfrwt beam="2">  1       21 0.18721842E+00 0.21528330E+03</pdfrwt>
<totfact> 0.93019199E+03</totfact>
</mgrwt>
</event>
<event>
 4    1  0.3957190E+000  0.1990080E+03  0.7546771E-02  0.1150579E+00
         21   -1    0    0  501  502  0.00000000000E+00  0.00000000000E+00  0.22709371095E+03  0.22709371095E+03  0.00000000000E+00 0.  1.
         21   -1    0    0  502  503 -0.00000000000E+00 -0.00000000000E+00 -0.18743133273E+03  0.18743133273E+03  0.00000000000E+00 0.  1.
          6    1    1    2  501    0  0.27472174793E+02  0.94448219380E+02  0.74490516570E+02  0.21249240831E+03  0.17300000000E+03 0.  1.
         -6    1    1    2    0  503 -0.27472174793E+02 -0.94448219380E+02 -0.34828138342E+02  0.20203263536E+03  0.17300000000E+03 0.  1.
<mgrwt>
<rscale>  2 0.19900801E+03</rscale>
<asrwt>0</asrwt>
<pdfrwt beam="1">  1       21 0.34937494E-01 0.19900801E+03</pdfrwt>
<pdfrwt beam="2">  1       21 0.28835590E-01 0.19900801E+03</pdfrwt>
<totfact> 0.90651692E+04</totfact>
</mgrwt>
</event>
<event>
 4    1  0.3957190E+000  0.2094264E+03  0.7546771E-02  0.1142021E+00
         21   -1    0    0  503  502  0.00000000000E+00  0.00000000000E+00  0.97591291583E+02  0.97591291583E+02  0.00000000000E+00 0. -1.
         21   -1    0    0  501  503 -0.00000000000E+00 -0.00000000000E+00 -0.46024172601E+03  0.46024172601E+03  0.00000000000E+00 0.  1.
          6    1    1    2  501    0  0.77699356206E+02  0.88843928895E+02 -0.22409515948E+03  0.30672149282E+03  0.17300000000E+03 0. -1.
         -6    1    1    2    0  502 -0.77699356206E+02 -0.88843928895E+02 -0.13855527494E+03  0.25111152477E+03  0.17300000000E+03 0.  1.
<mgrwt>
<rscale>  2 0.20942644E+03</rscale>
<asrwt>0</asrwt>
<pdfrwt beam="1">  1       21 0.15014044E-01 0.20942644E+03</pdfrwt>
<pdfrwt beam="2">  1       21 0.70806422E-01 0.20942644E+03</pdfrwt>
<totfact> 0.70217649E+04</totfact>
</mgrwt>
</event>
<event>
 4    1  0.3957190E+000  0.3735958E+03  0.7546771E-02  0.1053327E+00
         21   -1    0    0  503  502  0.00000000000E+00  0.00000000000E+00  0.24821394182E+03  0.24821394182E+03  0.00000000000E+00 0.  1.
         21   -1    0    0  501  503 -0.00000000000E+00 -0.00000000000E+00 -0.79809776788E+03  0.79809776788E+03  0.00000000000E+00 0. -1.
          6    1    1    2  501    0 -0.33032921951E+03 -0.22965057790E+02 -0.55929728085E+03  0.67259737994E+03  0.17300000000E+03 0.  1.
         -6    1    1    2    0  502  0.33032921951E+03  0.22965057790E+02  0.94134547904E+01  0.37371432977E+03  0.17300000000E+03 0. -1.
<mgrwt>
<rscale>  2 0.37359575E+03</rscale>
<asrwt>0</asrwt>
<pdfrwt beam="1">  1       21 0.38186760E-01 0.37359575E+03</pdfrwt>
<pdfrwt beam="2">  1       21 0.12278427E+00 0.37359575E+03</pdfrwt>
<totfact> 0.29473888E+03</totfact>
</mgrwt>
</event>
<event>
 4    1  0.3957190E+000  0.3254784E+03  0.7546771E-02  0.1073155E+00
         21   -1    0    0  503  502  0.00000000000E+00  0.00000000000E+00  0.11287474664E+04  0.11287474664E+04  0.00000000000E+00 0. -1.
         21   -1    0    0  501  503 -0.00000000000E+00 -0.00000000000E+00 -0.14528581672E+03  0.14528581672E+03  0.00000000000E+00 0.  1.
          6    1    1    2  501    0  0.13615132442E+03 -0.23972898971E+03  0.11271273575E+03  0.34444205964E+03  0.17300000000E+03 0.  1.
         -6    1    1    2    0  502 -0.13615132442E+03  0.23972898971E+03  0.87074891389E+03  0.92959122344E+03  0.17300000000E+03 0. -1.
<mgrwt>
<rscale>  2 0.32547837E+03</rscale>
<asrwt>0</asrwt>
<pdfrwt beam="1">  1       21 0.17365345E+00 0.32547837E+03</pdfrwt>
<pdfrwt beam="2">  1       21 0.22351665E-01 0.32547837E+03</pdfrwt>
<totfact> 0.34295098E+03</totfact>
</mgrwt>
</event>
<event>
 4    1  0.3957190E+000  0.1799362E+03  0.7546771E-02  0.1167865E+00
         21   -1    0    0  501  502  0.00000000000E+00  0.00000000000E+00  0.80669037269E+03  0.80669037269E+03  0.00000000000E+00 0.  1.
         21   -1    0    0  502  503 -0.00000000000E+00 -0.00000000000E+00 -0.69447685081E+02  0.69447685081E+02  0.00000000000E+00 0.  1.
          6    1    1    2  501    0  0.43740309669E+02 -0.23126259399E+02  0.65322251614E+03  0.67755198631E+03  0.17300000000E+03 0.  1.
         -6    1    1    2    0  503 -0.43740309669E+02  0.23126259399E+02  0.84020171470E+02  0.19858607146E+03  0.17300000000E+03 0.  1.
<mgrwt>
<rscale>  2 0.17993621E+03</rscale>
<asrwt>0</asrwt>
<pdfrwt beam="1">  1       21 0.12410621E+00 0.17993621E+03</pdfrwt>
<pdfrwt beam="2">  1       21 0.10684260E-01 0.17993621E+03</pdfrwt>
<totfact> 0.35305936E+04</totfact>
</mgrwt>
</event>
<event>
 4    1  0.3957190E+000  0.3272358E+03  0.7546771E-02  0.1072367E+00
         21   -1    0    0  501  502  0.00000000000E+00  0.00000000000E+00  0.98164541262E+03  0.98164541262E+03  0.00000000000E+00 0. -1.
         21   -1    0    0  502  503 -0.00000000000E+00 -0.00000000000E+00 -0.50895062554E+03  0.50895062554E+03  0.00000000000E+00 0.  1.
          6    1    1    2  501    0 -0.11693226367E+03  0.25195457416E+03  0.89696313102E+03  0.95479113954E+03  0.17300000000E+03 0. -1.
         -6    1    1    2    0  503  0.11693226367E+03 -0.25195457416E+03 -0.42426834394E+03  0.53580489863E+03  0.17300000000E+03 0.  1.
<mgrwt>
<rscale>  2 0.32723579E+03</rscale>
<asrwt>0</asrwt>
<pdfrwt beam="1">  1       21 0.15102237E+00 0.32723579E+03</pdfrwt>
<pdfrwt beam="2">  1       21 0.78300097E-01 0.32723579E+03</pdfrwt>
<totfact> 0.37575965E+02</totfact>
</mgrwt>
</event>
<event>
 4    1  0.3957190E+000  0.1755313E+03  0.7546771E-02  0.1172199E+00
         21   -1    0    0  501  502  0.00000000000E+00  0.00000000000E+00  0.66210541046E+02  0.66210541046E+02  0.00000000000E+00 0.  1.
         21   -1    0    0  502  503 -0.00000000000E+00 -0.00000000000E+00 -0.61323755134E+03  0.61323755134E+03  0.00000000000E+00 0.  1.
          6    1    1    2  501    0  0.27762772672E+02  0.10557550437E+02 -0.10668347835E+03  0.20540836879E+03  0.17300000000E+03 0.  1.
         -6    1    1    2    0  503 -0.27762772672E+02 -0.10557550437E+02 -0.44034353194E+03  0.47403972359E+03  0.17300000000E+03 0.  1.
<mgrwt>
<rscale>  2 0.17553129E+03</rscale>
<asrwt>0</asrwt>
<pdfrwt beam="1">  1       21 0.10186237E-01 0.17553129E+03</pdfrwt>
<pdfrwt beam="2">  1       21 0.94344240E-01 0.17553129E+03</pdfrwt>
<totfact> 0.74513095E+04</totfact>
</mgrwt>
</event>
<event>
 4    1  0.3957190E+000  0.2027222E+03  0.7546771E-02  0.1147462E+00
         21   -1    0    0  501  502  0.00000000000E+00  0.00000000000E+00  0.42818069996E+02  0.42818069996E+02  0.00000000000E+00 0. -1.
         21   -1    0    0  502  503 -0.00000000000E+00 -0.00000000000E+00 -0.12298978353E+04  0.12298978353E+04  0.00000000000E+00 0. -1.
          6    1    1    2  501    0 -0.10346308950E+03 -0.21509752693E+02 -0.29531975094E+03  0.35820390233E+03  0.17300000000E+03 0. -1.
         -6    1    1    2    0  503  0.10346308950E+03  0.21509752693E+02 -0.89176001441E+03  0.91451200302E+03  0.17300000000E+03 0. -1.
<mgrwt>
<rscale>  2 0.20272218E+03</rscale>
<asrwt>0</asrwt>
<pdfrwt beam="1">  1       21 0.65873951E-02 0.20272218E+03</pdfrwt>
<pdfrwt beam="2">  1       21 0.18921506E+00 0.20272218E+03</pdfrwt>
<totfact> 0.26324791E+04</totfact>
</mgrwt>
</event>
<event>
 4    1  0.3957190E+000  0.2277217E+03  0.7546771E-02  0.1128254E+00
         21   -1    0    0  501  502  0.00000000000E+00  0.00000000000E+00  0.25002103623E+03  0.25002103623E+03  0.00000000000E+00 0.  1.
         21   -1    0    0  502  503 -0.00000000000E+00 -0.00000000000E+00 -0.24625267968E+03  0.24625267968E+03  0.00000000000E+00 0.  1.
          6    1    1    2  501    0  0.85737905735E+02  0.12073592637E+03 -0.96664072416E+02  0.24738855126E+03  0.17300000000E+03 0.  1.
         -6    1    1    2    0  503 -0.85737905735E+02 -0.12073592637E+03  0.10043242897E+03  0.24888516466E+03  0.17300000000E+03 0.  1.
<mgrwt>
<rscale>  2 0.22772166E+03</rscale>
<asrwt>0</asrwt>
<pdfrwt beam="1">  1       21 0.38464775E-01 0.22772166E+03</pdfrwt>
<pdfrwt beam="2">  1       21 0.37885028E-01 0.22772166E+03</pdfrwt>
<totfact> 0.43058776E+04</totfact>
</mgrwt>
</event>
<event>
 4    1  0.3957190E+000  0.2473188E+03  0.7546771E-02  0.1115011E+00
         21   -1    0    0  503  502  0.00000000000E+00  0.00000000000E+00  0.83517106871E+03  0.83517106871E+03  0.00000000000E+00 0. -1.
         21   -1    0    0  501  503 -0.00000000000E+00 -0.00000000000E+00 -0.86499193526E+02  0.86499193526E+02  0.00000000000E+00 0. -1.
          6    1    1    2  501    0  0.16747972628E+03  0.56463423263E+02  0.19389934427E+03  0.31426665841E+03  0.17300000000E+03 0. -1.
         -6    1    1    2    0  502 -0.16747972628E+03 -0.56463423263E+02  0.55477253091E+03  0.60740360382E+03  0.17300000000E+03 0. -1.
<mgrwt>
<rscale>  2 0.24731878E+03</rscale>
<asrwt>0</asrwt>
<pdfrwt beam="1">  1       21 0.12848785E+00 0.24731878E+03</pdfrwt>
<pdfrwt beam="2">  1       21 0.13307569E-01 0.24731878E+03</pdfrwt>
<totfact> 0.21012133E+04</totfact>
</mgrwt>
</event>
<event>
 4    1  0.3957190E+000  0.1856222E+03  0.7546771E-02  0.1162470E+00
         21   -1    0    0  503  502  0.00000000000E+00  0.00000000000E+00  0.98565171421E+03  0.98565171421E+03  0.00000000000E+00 0. -1.
         21   -1    0    0  501  503 -0.00000000000E+00 -0.00000000000E+00 -0.37776780350E+02  0.37776780350E+02  0.00000000000E+00 0. -1.
          6    1    1    2  501    0  0.65882401248E+02 -0.13641797019E+02  0.61373837296E+03  0.64119449456E+03  0.17300000000E+03 0. -1.
         -6    1    1    2    0  502 -0.65882401248E+02  0.13641797019E+02  0.33413656090E+03  0.38223400000E+03  0.17300000000E+03 0. -1.
<mgrwt>
<rscale>  2 0.18562217E+03</rscale>
<asrwt>0</asrwt>
<pdfrwt beam="1">  1       21 0.15163871E+00 0.18562217E+03</pdfrwt>
<pdfrwt beam="2">  1       21 0.58118131E-02 0.18562217E+03</pdfrwt>
<totfact> 0.60709286E+04</totfact>
</mgrwt>
</event>
<event>
 4    1  0.3957190E+000  0.1813517E+03  0.7546771E-02  0.1166501E+00
         21   -1    0    0  501  502  0.00000000000E+00  0.00000000000E+00  0.11136637973E+04  0.11136637973E+04  0.00000000000E+00 0.  1.
         21   -1    0    0  502  503 -0.00000000000E+00 -0.00000000000E+00 -0.23664661143E+03  0.23664661143E+03  0.00000000000E+00 0.  1.
          6    1    1    2  501    0 -0.51374468627E+02  0.17891310644E+02  0.10701333024E+04  0.10853910447E+04  0.17300000000E+03 0.  1.
         -6    1    1    2    0  503  0.51374468627E+02 -0.17891310644E+02 -0.19311611648E+03  0.26491936408E+03  0.17300000000E+03 0.  1.
<mgrwt>
<rscale>  2 0.18135169E+03</rscale>
<asrwt>0</asrwt>
<pdfrwt beam="1">  1       21 0.17133289E+00 0.18135169E+03</pdfrwt>
<pdfrwt beam="2">  1       21 0.36407172E-01 0.18135169E+03</pdfrwt>
<totfact> 0.15375921E+03</totfact>
</mgrwt>
</event>
<event>
 4    1  0.3957190E+000  0.2335254E+03  0.7546771E-02  0.1124183E+00
         21   -1    0    0  501  502  0.00000000000E+00  0.00000000000E+00  0.11197013724E+03  0.11197013724E+03  0.00000000000E+00 0.  1.
         21   -1    0    0  502  503 -0.00000000000E+00 -0.00000000000E+00 -0.50820905505E+03  0.50820905505E+03  0.00000000000E+00 0. -1.
          6    1    1    2  501    0 -0.11122213085E+03 -0.11061076584E+03 -0.26140453638E+03  0.35052308847E+03  0.17300000000E+03 0.  1.
         -6    1    1    2    0  503  0.11122213085E+03  0.11061076584E+03 -0.13483438143E+03  0.26965610382E+03  0.17300000000E+03 0. -1.
<mgrwt>
<rscale>  2 0.23352538E+03</rscale>
<asrwt>0</asrwt>
<pdfrwt beam="1">  1       21 0.17226175E-01 0.23352538E+03</pdfrwt>
<pdfrwt beam="2">  1       21 0.78186009E-01 0.23352538E+03</pdfrwt>
<totfact> 0.43229277E+04</totfact>
</mgrwt>
</event>
<event>
 4    1  0.3957190E+000  0.1829760E+03  0.7546771E-02  0.1164954E+00
         21   -1    0    0  501  502  0.00000000000E+00  0.00000000000E+00  0.77219324754E+02  0.77219324754E+02  0.00000000000E+00 0.  1.
         21   -1    0    0  502  503 -0.00000000000E+00 -0.00000000000E+00 -0.45579807626E+03  0.45579807626E+03  0.00000000000E+00 0. -1.
          6    1    1    2  501    0 -0.53677394438E+02  0.25883701451E+02 -0.13043958029E+03  0.22471028632E+03  0.17300000000E+03 0. -1.
         -6    1    1    2    0  503  0.53677394438E+02 -0.25883701451E+02 -0.24813917122E+03  0.30830711469E+03  0.17300000000E+03 0. -1.
<mgrwt>
<rscale>  2 0.18297603E+03</rscale>
<asrwt>0</asrwt>
<pdfrwt beam="1">  1       21 0.11879896E-01 0.18297603E+03</pdfrwt>
<pdfrwt beam="2">  1       21 0.70122780E-01 0.18297603E+03</pdfrwt>
<totfact> 0.11067851E+05</totfact>
</mgrwt>
</event>
<event>
 4    1  0.3957190E+000  0.2144989E+03  0.7546771E-02  0.1138052E+00
         21   -1    0    0  501  502  0.00000000000E+00  0.00000000000E+00  0.19633213369E+03  0.19633213369E+03  0.00000000000E+00 0. -1.
         21   -1    0    0  502  503 -0.00000000000E+00 -0.00000000000E+00 -0.32359726024E+03  0.32359726024E+03  0.00000000000E+00 0. -1.
          6    1    1    2  501    0 -0.36510104621E+02  0.12144046395E+03  0.72894139321E+02  0.22654652849E+03  0.17300000000E+03 0. -1.
         -6    1    1    2    0  503  0.36510104621E+02 -0.12144046395E+03 -0.20015926586E+03  0.29338286544E+03  0.17300000000E+03 0. -1.
<mgrwt>
<rscale>  2 0.21449889E+03</rscale>
<asrwt>0</asrwt>
<pdfrwt beam="1">  1       21 0.30204944E-01 0.21449889E+03</pdfrwt>
<pdfrwt beam="2">  1       21 0.49784194E-01 0.21449889E+03</pdfrwt>
<totfact> 0.39987457E+04</totfact>
</mgrwt>
</event>
<event>
 4    1  0.3957190E+000  0.1744145E+03  0.7546771E-02  0.1173321E+00
         21   -1    0    0  503  502  0.00000000000E+00  0.00000000000E+00  0.79525875166E+02  0.79525875166E+02  0.00000000000E+00 0. -1.
         21   -1    0    0  501  503 -0.00000000000E+00 -0.00000000000E+00 -0.44805938827E+03  0.44805938827E+03  0.00000000000E+00 0. -1.
          6    1    1    2  501    0  0.91372961296E+01  0.20197307889E+02 -0.83379012756E+02  0.19331963479E+03  0.17300000000E+03 0. -1.
         -6    1    1    2    0  502 -0.91372961296E+01 -0.20197307889E+02 -0.28515450034E+03  0.33426562864E+03  0.17300000000E+03 0. -1.
<mgrwt>
<rscale>  2 0.17441451E+03</rscale>
<asrwt>0</asrwt>
<pdfrwt beam="1">  1       21 0.12234750E-01 0.17441451E+03</pdfrwt>
<pdfrwt beam="2">  1       21 0.68932214E-01 0.17441451E+03</pdfrwt>
<totfact> 0.10939655E+05</totfact>
</mgrwt>
</event>
<event>
 4    1  0.3957190E+000  0.4021303E+03  0.7546771E-02  0.1043045E+00
         21   -1    0    0  501  502  0.00000000000E+00  0.00000000000E+00  0.39307539289E+03  0.39307539289E+03  0.00000000000E+00 0. -1.
         21   -1    0    0  502  503 -0.00000000000E+00 -0.00000000000E+00 -0.50513194257E+03  0.50513194257E+03  0.00000000000E+00 0. -1.
          6    1    1    2  501    0  0.35033717768E+03  0.95097904794E+02 -0.24949333124E+03  0.47323955022E+03  0.17300000000E+03 0. -1.
         -6    1    1    2    0  503 -0.35033717768E+03 -0.95097904794E+02  0.13743678156E+03  0.42496778523E+03  0.17300000000E+03 0. -1.
<mgrwt>
<rscale>  2 0.40213026E+03</rscale>
<asrwt>0</asrwt>
<pdfrwt beam="1">  1       21 0.60473138E-01 0.40213026E+03</pdfrwt>
<pdfrwt beam="2">  1       21 0.77712606E-01 0.40213026E+03</pdfrwt>
<totfact> 0.33215182E+03</totfact>
</mgrwt>
</event>
<event>
 4    1  0.3957190E+000  0.1882809E+03  0.7546771E-02  0.1160021E+00
         21   -1    0    0  501  502  0.00000000000E+00  0.00000000000E+00  0.86075971731E+03  0.86075971731E+03  0.00000000000E+00 0. -1.
         21   -1    0    0  502  503 -0.00000000000E+00 -0.00000000000E+00 -0.41971036177E+02  0.41971036177E+02  0.00000000000E+00 0.  1.
          6    1    1    2  501    0  0.18554691001E+02 -0.71947306296E+02  0.34759292644E+03  0.39531068029E+03  0.17300000000E+03 0.  1.
         -6    1    1    2    0  503 -0.18554691001E+02  0.71947306296E+02  0.47119575469E+03  0.50742007320E+03  0.17300000000E+03 0. -1.
<mgrwt>
<rscale>  2 0.18828088E+03</rscale>
<asrwt>0</asrwt>
<pdfrwt beam="1">  1       21 0.13242456E+00 0.18828088E+03</pdfrwt>
<pdfrwt beam="2">  1       21 0.64570832E-02 0.18828088E+03</pdfrwt>
<totfact> 0.71867946E+04</totfact>
</mgrwt>
</event>
<event>
 4    1  0.3957190E+000  0.2119315E+03  0.7546771E-02  0.1140045E+00
         21   -1    0    0  503  502  0.00000000000E+00  0.00000000000E+00  0.20369254082E+03  0.20369254082E+03  0.00000000000E+00 0.  1.
         21   -1    0    0  501  503 -0.00000000000E+00 -0.00000000000E+00 -0.27754627071E+03  0.27754627071E+03  0.00000000000E+00 0.  1.
          6    1    1    2  501    0  0.11160286862E+03 -0.50306775804E+02 -0.14601116577E+03  0.25736012221E+03  0.17300000000E+03 0.  1.
         -6    1    1    2    0  502 -0.11160286862E+03  0.50306775804E+02  0.72157435881E+02  0.22387868931E+03  0.17300000000E+03 0.  1.
<mgrwt>
<rscale>  2 0.21193153E+03</rscale>
<asrwt>0</asrwt>
<pdfrwt beam="1">  1       21 0.31337314E-01 0.21193153E+03</pdfrwt>
<pdfrwt beam="2">  1       21 0.42699426E-01 0.21193153E+03</pdfrwt>
<totfact> 0.51153623E+04</totfact>
</mgrwt>
</event>
<event>
 4    1  0.3957190E+000  0.2032054E+03  0.7546771E-02  0.1147062E+00
         21   -1    0    0  501  502  0.00000000000E+00  0.00000000000E+00  0.12037079348E+04  0.12037079348E+04  0.00000000000E+00 0. -1.
         21   -1    0    0  502  503 -0.00000000000E+00 -0.00000000000E+00 -0.65047595548E+02  0.65047595548E+02  0.00000000000E+00 0.  1.
          6    1    1    2  501    0 -0.61236760694E+02  0.87255225991E+02  0.10054513744E+04  0.10257801332E+04  0.17300000000E+03 0. -1.
         -6    1    1    2    0  503  0.61236760694E+02 -0.87255225991E+02  0.13320896488E+03  0.24297539720E+03  0.17300000000E+03 0.  1.
<mgrwt>
<rscale>  2 0.20320535E+03</rscale>
<asrwt>0</asrwt>
<pdfrwt beam="1">  1       21 0.18518582E+00 0.20320535E+03</pdfrwt>
<pdfrwt beam="2">  1       21 0.10007323E-01 0.20320535E+03</pdfrwt>
<totfact> 0.13494098E+04</totfact>
</mgrwt>
</event>
<event>
 4    1  0.3957190E+000  0.1953236E+03  0.7546771E-02  0.1153746E+00
         21   -1    0    0  501  502  0.00000000000E+00  0.00000000000E+00  0.73956827890E+02  0.73956827890E+02  0.00000000000E+00 0. -1.
         21   -1    0    0  502  503 -0.00000000000E+00 -0.00000000000E+00 -0.64754542198E+03  0.64754542198E+03  0.00000000000E+00 0. -1.
          6    1    1    2  501    0  0.91315181277E+01 -0.90216057987E+02 -0.12411118031E+03  0.23141933113E+03  0.17300000000E+03 0. -1.
         -6    1    1    2    0  503 -0.91315181277E+01  0.90216057987E+02 -0.44947741378E+03  0.49008291874E+03  0.17300000000E+03 0. -1.
<mgrwt>
<rscale>  2 0.19532363E+03</rscale>
<asrwt>0</asrwt>
<pdfrwt beam="1">  1       21 0.11377974E-01 0.19532363E+03</pdfrwt>
<pdfrwt beam="2">  1       21 0.99622373E-01 0.19532363E+03</pdfrwt>
<totfact> 0.53386066E+04</totfact>
</mgrwt>
</event>
<event>
 4    1  0.3957190E+000  0.1841329E+03  0.7546771E-02  0.1163862E+00
         21   -1    0    0  501  502  0.00000000000E+00  0.00000000000E+00  0.28915440351E+02  0.28915440351E+02  0.00000000000E+00 0. -1.
         21   -1    0    0  502  503 -0.00000000000E+00 -0.00000000000E+00 -0.11740940768E+04  0.11740940768E+04  0.00000000000E+00 0.  1.
          6    1    1    2  501    0 -0.37458731278E+02  0.50722551587E+02 -0.55080879227E+03  0.58077126257E+03  0.17300000000E+03 0.  1.
         -6    1    1    2    0  503  0.37458731278E+02 -0.50722551587E+02 -0.59436984413E+03  0.62223825453E+03  0.17300000000E+03 0. -1.
<mgrwt>
<rscale>  2 0.18413292E+03</rscale>
<asrwt>0</asrwt>
<pdfrwt beam="1">  1       21 0.44485291E-02 0.18413292E+03</pdfrwt>
<pdfrwt beam="2">  1       21 0.18062986E+00 0.18413292E+03</pdfrwt>
<totfact> 0.59350568E+04</totfact>
</mgrwt>
</event>
<event>
 4    1  0.3957190E+000  0.1953790E+03  0.7546771E-02  0.1153697E+00
         21   -1    0    0  503  502  0.00000000000E+00  0.00000000000E+00  0.19116233012E+03  0.19116233012E+03  0.00000000000E+00 0. -1.
         21   -1    0    0  501  503 -0.00000000000E+00 -0.00000000000E+00 -0.50004114737E+03  0.50004114737E+03  0.00000000000E+00 0. -1.
          6    1    1    2  501    0  0.89344648552E+02 -0.16170105764E+02 -0.42228759207E+03  0.46529533520E+03  0.17300000000E+03 0. -1.
         -6    1    1    2    0  502 -0.89344648552E+02  0.16170105764E+02  0.11340877481E+03  0.22590814228E+03  0.17300000000E+03 0. -1.
<mgrwt>
<rscale>  2 0.19537896E+03</rscale>
<asrwt>0</asrwt>
<pdfrwt beam="1">  1       21 0.29409589E-01 0.19537896E+03</pdfrwt>
<pdfrwt beam="2">  1       21 0.76929407E-01 0.19537896E+03</pdfrwt>
<totfact> 0.16609714E+04</totfact>
</mgrwt>
</event>
<event>
 4    1  0.3957190E+000  0.2006957E+03  0.7546771E-02  0.1149153E+00
         21   -1    0    0  501  502  0.00000000000E+00  0.00000000000E+00  0.16727445413E+04  0.16727445413E+04  0.00000000000E+00 0. -1.
         21   -1    0    0  502  503 -0.00000000000E+00 -0.00000000000E+00 -0.12121240501E+03  0.12121240501E+03  0.00000000000E+00 0. -1.
          6    1    1    2  501    0  0.44316625393E+02 -0.91573973992E+02  0.15787221716E+04  0.15914278026E+04  0.17300000000E+03 0. -1.
         -6    1    1    2    0  503 -0.44316625393E+02  0.91573973992E+02 -0.27190035318E+02  0.20252914363E+03  0.17300000000E+03 0. -1.
<mgrwt>
<rscale>  2 0.20069568E+03</rscale>
<asrwt>0</asrwt>
<pdfrwt beam="1">  1       21 0.25734530E+00 0.20069568E+03</pdfrwt>
<pdfrwt beam="2">  1       21 0.18648064E-01 0.20069568E+03</pdfrwt>
<totfact> 0.15685368E+03</totfact>
</mgrwt>
</event>
<event>
 4    1  0.3957190E+000  0.1745453E+03  0.7546771E-02  0.1173189E+00
         21   -1    0    0  503  502  0.00000000000E+00  0.00000000000E+00  0.20604325704E+03  0.20604325704E+03  0.00000000000E+00 0. -1.
         21   -1    0    0  501  503 -0.00000000000E+00 -0.00000000000E+00 -0.20286657180E+03  0.20286657180E+03  0.00000000000E+00 0. -1.
          6    1    1    2  501    0 -0.23052431646E+02  0.23766002650E+01 -0.10487249708E+03  0.20362785536E+03  0.17300000000E+03 0.  1.
         -6    1    1    2    0  502  0.23052431646E+02 -0.23766002650E+01  0.10804918233E+03  0.20528197348E+03  0.17300000000E+03 0.  1.
<mgrwt>
<rscale>  2 0.17454530E+03</rscale>
<asrwt>0</asrwt>
<pdfrwt beam="1">  1       21 0.31698963E-01 0.17454530E+03</pdfrwt>
<pdfrwt beam="2">  1       21 0.31210242E-01 0.17454530E+03</pdfrwt>
<totfact> 0.95042288E+04</totfact>
</mgrwt>
</event>
<event>
 4    1  0.3957190E+000  0.1797261E+03  0.7546771E-02  0.1168068E+00
         21   -1    0    0  501  502  0.00000000000E+00  0.00000000000E+00  0.10779522431E+04  0.10779522431E+04  0.00000000000E+00 0. -1.
         21   -1    0    0  502  503 -0.00000000000E+00 -0.00000000000E+00 -0.32705604812E+02  0.32705604812E+02  0.00000000000E+00 0. -1.
          6    1    1    2  501    0 -0.84298673520E+01 -0.47973065146E+02  0.68336017145E+03  0.70659932180E+03  0.17300000000E+03 0.  1.
         -6    1    1    2    0  503  0.84298673520E+01  0.47973065146E+02  0.36188646684E+03  0.40405852611E+03  0.17300000000E+03 0.  1.
<mgrwt>
<rscale>  2 0.17972612E+03</rscale>
<asrwt>0</asrwt>
<pdfrwt beam="1">  1       21 0.16583878E+00 0.17972612E+03</pdfrwt>
<pdfrwt beam="2">  1       21 0.50316324E-02 0.17972612E+03</pdfrwt>
<totfact> 0.61222268E+04</totfact>
</mgrwt>
</event>
<event>
 4    1  0.3957190E+000  0.1926669E+03  0.7546771E-02  0.1156078E+00
         21   -1    0    0  501  502  0.00000000000E+00  0.00000000000E+00  0.24954171285E+03  0.24954171285E+03  0.00000000000E+00 0.  1.
         21   -1    0    0  502  503 -0.00000000000E+00 -0.00000000000E+00 -0.15945680200E+03  0.15945680200E+03  0.00000000000E+00 0. -1.
          6    1    1    2  501    0 -0.23257443955E+02 -0.81551382000E+02  0.98021240048E+02  0.21616822178E+03  0.17300000000E+03 0.  1.
         -6    1    1    2    0  503  0.23257443955E+02  0.81551382000E+02 -0.79363291939E+01  0.19283029307E+03  0.17300000000E+03 0. -1.
<mgrwt>
<rscale>  2 0.19266691E+03</rscale>
<asrwt>0</asrwt>
<pdfrwt beam="1">  1       21 0.38391033E-01 0.19266691E+03</pdfrwt>
<pdfrwt beam="2">  1       21 0.24531816E-01 0.19266691E+03</pdfrwt>
<totfact> 0.10274660E+05</totfact>
</mgrwt>
</event>
<event>
 4    1  0.3957190E+000  0.1799640E+03  0.7546771E-02  0.1167838E+00
         21   -1    0    0  503  502  0.00000000000E+00  0.00000000000E+00  0.65471331441E+03  0.65471331441E+03  0.00000000000E+00 0.  1.
         21   -1    0    0  501  503 -0.00000000000E+00 -0.00000000000E+00 -0.82638698285E+02  0.82638698285E+02  0.00000000000E+00 0.  1.
          6    1    1    2  501    0 -0.41750687197E+02  0.26737794086E+02  0.52458340533E+02  0.18745374631E+03  0.17300000000E+03 0.  1.
         -6    1    1    2    0  502  0.41750687197E+02 -0.26737794086E+02  0.51961627559E+03  0.54989826639E+03  0.17300000000E+03 0.  1.
<mgrwt>
<rscale>  2 0.17996397E+03</rscale>
<asrwt>0</asrwt>
<pdfrwt beam="1">  1       21 0.10072512E+00 0.17996397E+03</pdfrwt>
<pdfrwt beam="2">  1       21 0.12713646E-01 0.17996397E+03</pdfrwt>
<totfact> 0.42978310E+04</totfact>
</mgrwt>
</event>
<event>
 4    1  0.3957190E+000  0.2029955E+03  0.7546771E-02  0.1147236E+00
         21   -1    0    0  503  502  0.00000000000E+00  0.00000000000E+00  0.40043149846E+03  0.40043149846E+03  0.00000000000E+00 0. -1.
         21   -1    0    0  501  503 -0.00000000000E+00 -0.00000000000E+00 -0.29448052701E+03  0.29448052701E+03  0.00000000000E+00 0. -1.
          6    1    1    2  501    0 -0.68564372731E+02 -0.81099384988E+02 -0.22727046551E+03  0.30472782602E+03  0.17300000000E+03 0. -1.
         -6    1    1    2    0  502  0.68564372731E+02  0.81099384988E+02  0.33322143697E+03  0.39018419946E+03  0.17300000000E+03 0. -1.
<mgrwt>
<rscale>  2 0.20299553E+03</rscale>
<asrwt>0</asrwt>
<pdfrwt beam="1">  1       21 0.61604846E-01 0.20299553E+03</pdfrwt>
<pdfrwt beam="2">  1       21 0.45304696E-01 0.20299553E+03</pdfrwt>
<totfact> 0.11361682E+04</totfact>
</mgrwt>
</event>
<event>
 4    1  0.3957190E+000  0.2177198E+03  0.7546771E-02  0.1135595E+00
         21   -1    0    0  503  502  0.00000000000E+00  0.00000000000E+00  0.25081453764E+03  0.25081453764E+03  0.00000000000E+00 0.  1.
         21   -1    0    0  501  503 -0.00000000000E+00 -0.00000000000E+00 -0.19997336835E+03  0.19997336835E+03  0.00000000000E+00 0. -1.
          6    1    1    2  501    0 -0.12812430372E+03  0.32512583533E+02 -0.27398057472E+02  0.21943691313E+03  0.17300000000E+03 0.  1.
         -6    1    1    2    0  502  0.12812430372E+03 -0.32512583533E+02  0.78239226753E+02  0.23135099286E+03  0.17300000000E+03 0.  1.
<mgrwt>
<rscale>  2 0.21771979E+03</rscale>
<asrwt>0</asrwt>
<pdfrwt beam="1">  1       21 0.38586852E-01 0.21771979E+03</pdfrwt>
<pdfrwt beam="2">  1       21 0.30765134E-01 0.21771979E+03</pdfrwt>
<totfact> 0.64974351E+04</totfact>
</mgrwt>
</event>
<event>
 4    1  0.3957190E+000  0.3069369E+03  0.7546771E-02  0.1081823E+00
         21   -1    0    0  501  502  0.00000000000E+00  0.00000000000E+00  0.77761653259E+02  0.77761653259E+02  0.00000000000E+00 0. -1.
         21   -1    0    0  502  503 -0.00000000000E+00 -0.00000000000E+00 -0.30872946555E+04  0.30872946555E+04  0.00000000000E+00 0.  1.
          6    1    1    2  501    0  0.23867019454E+03 -0.85544043645E+02 -0.27122981279E+03  0.40960451232E+03  0.17300000000E+03 0. -1.
         -6    1    1    2    0  503 -0.23867019454E+03  0.85544043645E+02 -0.27383031894E+04  0.27554517964E+04  0.17300000000E+03 0.  1.
<mgrwt>
<rscale>  2 0.30693687E+03</rscale>
<asrwt>0</asrwt>
<pdfrwt beam="1">  1       21 0.11963334E-01 0.30693687E+03</pdfrwt>
<pdfrwt beam="2">  1       21 0.47496830E+00 0.30693687E+03</pdfrwt>
<totfact> 0.14199765E+02</totfact>
</mgrwt>
</event>
<event>
 4    1  0.3957190E+000  0.1843121E+03  0.7546771E-02  0.1163694E+00
         21   -1    0    0  503  502  0.00000000000E+00  0.00000000000E+00  0.53399503815E+02  0.53399503815E+02  0.00000000000E+00 0. -1.
         21   -1    0    0  501  503 -0.00000000000E+00 -0.00000000000E+00 -0.63793170427E+03  0.63793170427E+03  0.00000000000E+00 0. -1.
          6    1    1    2  501    0  0.61866350647E+02 -0.14645750807E+02 -0.31045223724E+03  0.36104228972E+03  0.17300000000E+03 0. -1.
         -6    1    1    2    0  502 -0.61866350647E+02  0.14645750807E+02 -0.27407996321E+03  0.33028891836E+03  0.17300000000E+03 0. -1.
<mgrwt>
<rscale>  2 0.18431208E+03</rscale>
<asrwt>0</asrwt>
<pdfrwt beam="1">  1       21 0.82153082E-02 0.18431208E+03</pdfrwt>
<pdfrwt beam="2">  1       21 0.98143340E-01 0.18431208E+03</pdfrwt>
<totfact> 0.98658925E+04</totfact>
</mgrwt>
</event>
<event>
 4    1  0.3957190E+000  0.2966395E+03  0.7546771E-02  0.1086933E+00
         21   -1    0    0  501  502  0.00000000000E+00  0.00000000000E+00  0.30803099086E+03  0.30803099086E+03  0.00000000000E+00 0.  1.
         21   -1    0    0  502  503 -0.00000000000E+00 -0.00000000000E+00 -0.28791512293E+03  0.28791512293E+03  0.00000000000E+00 0. -1.
          6    1    1    2  501    0  0.14870549269E+03 -0.18961193290E+03  0.36374488186E+02  0.29886135924E+03  0.17300000000E+03 0.  1.
         -6    1    1    2    0  503 -0.14870549269E+03  0.18961193290E+03 -0.16258620257E+02  0.29708475455E+03  0.17300000000E+03 0. -1.
<mgrwt>
<rscale>  2 0.29663953E+03</rscale>
<asrwt>0</asrwt>
<pdfrwt beam="1">  1       21 0.47389384E-01 0.29663953E+03</pdfrwt>
<pdfrwt beam="2">  1       21 0.44294634E-01 0.29663953E+03</pdfrwt>
<totfact> 0.19798950E+04</totfact>
</mgrwt>
</event>
<event>
 4    1  0.3957190E+000  0.2263129E+03  0.7546771E-02  0.1129262E+00
         21   -1    0    0  501  502  0.00000000000E+00  0.00000000000E+00  0.21603119114E+03  0.21603119114E+03  0.00000000000E+00 0. -1.
         21   -1    0    0  502  503 -0.00000000000E+00 -0.00000000000E+00 -0.11412909125E+04  0.11412909125E+04  0.00000000000E+00 0. -1.
          6    1    1    2  501    0  0.11569822032E+02 -0.14544637198E+03  0.14144212040E+03  0.26687709030E+03  0.17300000000E+03 0. -1.
         -6    1    1    2    0  503 -0.11569822032E+02  0.14544637198E+03 -0.10667018418E+04  0.10904450134E+04  0.17300000000E+03 0. -1.
<mgrwt>
<rscale>  2 0.22631285E+03</rscale>
<asrwt>0</asrwt>
<pdfrwt beam="1">  1       21 0.33235569E-01 0.22631285E+03</pdfrwt>
<pdfrwt beam="2">  1       21 0.17558321E+00 0.22631285E+03</pdfrwt>
<totfact> 0.16465699E+03</totfact>
</mgrwt>
</event>
<event>
 4    1  0.3957190E+000  0.1992755E+03  0.7546771E-02  0.1150352E+00
         21   -1    0    0  503  502  0.00000000000E+00  0.00000000000E+00  0.17115153971E+03  0.17115153971E+03  0.00000000000E+00 0. -1.
         21   -1    0    0  501  503 -0.00000000000E+00 -0.00000000000E+00 -0.23207587704E+03  0.23207587704E+03  0.00000000000E+00 0.  1.
          6    1    1    2  501    0  0.52230241379E+02  0.83986574241E+02 -0.27360468815E+02  0.20114506711E+03  0.17300000000E+03 0.  1.
         -6    1    1    2    0  502 -0.52230241379E+02 -0.83986574241E+02 -0.33563868517E+02  0.20208234964E+03  0.17300000000E+03 0. -1.
<mgrwt>
<rscale>  2 0.19927554E+03</rscale>
<asrwt>0</asrwt>
<pdfrwt beam="1">  1       21 0.26331006E-01 0.19927554E+03</pdfrwt>
<pdfrwt beam="2">  1       21 0.35703981E-01 0.19927554E+03</pdfrwt>
<totfact> 0.10346796E+05</totfact>
</mgrwt>
</event>
<event>
 4    1  0.3957190E+000  0.2331931E+03  0.7546771E-02  0.1124412E+00
         21   -1    0    0  501  502  0.00000000000E+00  0.00000000000E+00  0.51797880382E+03  0.51797880382E+03  0.00000000000E+00 0.  1.
         21   -1    0    0  502  503 -0.00000000000E+00 -0.00000000000E+00 -0.12146657216E+03  0.12146657216E+03  0.00000000000E+00 0.  1.
          6    1    1    2  501    0  0.15625245875E+03 -0.59304118573E+01  0.31603567472E+03  0.39275634731E+03  0.17300000000E+03 0.  1.
         -6    1    1    2    0  503 -0.15625245875E+03  0.59304118573E+01  0.80476556944E+02  0.24668902868E+03  0.17300000000E+03 0.  1.
<mgrwt>
<rscale>  2 0.23319305E+03</rscale>
<asrwt>0</asrwt>
<pdfrwt beam="1">  1       21 0.79689045E-01 0.23319305E+03</pdfrwt>
<pdfrwt beam="2">  1       21 0.18687165E-01 0.23319305E+03</pdfrwt>
<totfact> 0.35600770E+04</totfact>
</mgrwt>
</event>
<event>
 4    1  0.3957190E+000  0.2109491E+03  0.7546771E-02  0.1140817E+00
         21   -1    0    0  501  502  0.00000000000E+00  0.00000000000E+00  0.29429105337E+03  0.29429105337E+03  0.00000000000E+00 0.  1.
         21   -1    0    0  502  503 -0.00000000000E+00 -0.00000000000E+00 -0.19192812551E+03  0.19192812551E+03  0.00000000000E+00 0.  1.
          6    1    1    2  501    0 -0.12069259637E+03 -0.19589109957E+01  0.16315888816E+03  0.26668401327E+03  0.17300000000E+03 0.  1.
         -6    1    1    2    0  503  0.12069259637E+03  0.19589109957E+01 -0.60795960298E+02  0.21953516561E+03  0.17300000000E+03 0.  1.
<mgrwt>
<rscale>  2 0.21094914E+03</rscale>
<asrwt>0</asrwt>
<pdfrwt beam="1">  1       21 0.45275547E-01 0.21094914E+03</pdfrwt>
<pdfrwt beam="2">  1       21 0.29527404E-01 0.21094914E+03</pdfrwt>
<totfact> 0.50982880E+04</totfact>
</mgrwt>
</event>
<event>
 4    1  0.3957190E+000  0.2870170E+03  0.7546771E-02  0.1091917E+00
         21   -1    0    0  503  502  0.00000000000E+00  0.00000000000E+00  0.12953283011E+03  0.12953283011E+03  0.00000000000E+00 0.  1.
         21   -1    0    0  501  503 -0.00000000000E+00 -0.00000000000E+00 -0.86354263942E+03  0.86354263942E+03  0.00000000000E+00 0. -1.
          6    1    1    2  501    0  0.20735752153E+03 -0.97224698505E+02 -0.62190613823E+03  0.68494235415E+03  0.17300000000E+03 0. -1.
         -6    1    1    2    0  502 -0.20735752153E+03  0.97224698505E+02 -0.11210367108E+03  0.30813311539E+03  0.17300000000E+03 0.  1.
<mgrwt>
<rscale>  2 0.28701704E+03</rscale>
<asrwt>0</asrwt>
<pdfrwt beam="1">  1       21 0.19928127E-01 0.28701704E+03</pdfrwt>
<pdfrwt beam="2">  1       21 0.13285272E+00 0.28701704E+03</pdfrwt>
<totfact> 0.89626691E+03</totfact>
</mgrwt>
</event>
<event>
 4    1  0.3957190E+000  0.2820346E+03  0.7546771E-02  0.1094583E+00
         21   -1    0    0  503  502  0.00000000000E+00  0.00000000000E+00  0.14265879956E+04  0.14265879956E+04  0.00000000000E+00 0. -1.
         21   -1    0    0  501  503 -0.00000000000E+00 -0.00000000000E+00 -0.89884343723E+02  0.89884343723E+02  0.00000000000E+00 0. -1.
          6    1    1    2  501    0  0.18080814426E+03  0.13008820008E+03  0.20114615670E+03  0.34641492633E+03  0.17300000000E+03 0. -1.
         -6    1    1    2    0  502 -0.18080814426E+03 -0.13008820008E+03  0.11355574952E+04  0.11700574130E+04  0.17300000000E+03 0. -1.
<mgrwt>
<rscale>  2 0.28203462E+03</rscale>
<asrwt>0</asrwt>
<pdfrwt beam="1">  1       21 0.21947506E+00 0.28203462E+03</pdfrwt>
<pdfrwt beam="2">  1       21 0.13828362E-01 0.28203462E+03</pdfrwt>
<totfact> 0.42813599E+03</totfact>
</mgrwt>
</event>
<event>
 4    1  0.3957190E+000  0.2639829E+03  0.7546771E-02  0.1104774E+00
         21   -1    0    0  503  502  0.00000000000E+00  0.00000000000E+00  0.30504821903E+03  0.30504821903E+03  0.00000000000E+00 0. -1.
         21   -1    0    0  501  503 -0.00000000000E+00 -0.00000000000E+00 -0.23140423388E+03  0.23140423388E+03  0.00000000000E+00 0. -1.
          6    1    1    2  501    0  0.19743813147E+03  0.27859384665E+02  0.67150577306E+02  0.27238972283E+03  0.17300000000E+03 0. -1.
         -6    1    1    2    0  502 -0.19743813147E+03 -0.27859384665E+02  0.64934078406E+01  0.26406273008E+03  0.17300000000E+03 0. -1.
<mgrwt>
<rscale>  2 0.26398288E+03</rscale>
<asrwt>0</asrwt>
<pdfrwt beam="1">  1       21 0.46930495E-01 0.26398288E+03</pdfrwt>
<pdfrwt beam="2">  1       21 0.35600651E-01 0.26398288E+03</pdfrwt>
<totfact> 0.31952110E+04</totfact>
</mgrwt>
</event>
<event>
 4    1  0.3957190E+000  0.2002977E+03  0.7546771E-02  0.1149488E+00
         21   -1    0    0  503  502  0.00000000000E+00  0.00000000000E+00  0.57236211385E+02  0.57236211385E+02  0.00000000000E+00 0. -1.
         21   -1    0    0  501  503 -0.00000000000E+00 -0.00000000000E+00 -0.98103703391E+03  0.98103703391E+03  0.00000000000E+00 0. -1.
          6    1    1    2  501    0 -0.73867840767E+02 -0.68801839180E+02 -0.73929194902E+03  0.76594499598E+03  0.17300000000E+03 0. -1.
         -6    1    1    2    0  502  0.73867840767E+02  0.68801839180E+02 -0.18450887350E+03  0.27232824931E+03  0.17300000000E+03 0. -1.
<mgrwt>
<rscale>  2 0.20029766E+03</rscale>
<asrwt>0</asrwt>
<pdfrwt beam="1">  1       21 0.88055711E-02 0.20029766E+03</pdfrwt>
<pdfrwt beam="2">  1       21 0.15092877E+00 0.20029766E+03</pdfrwt>
<totfact> 0.29703879E+04</totfact>
</mgrwt>
</event>
<event>
 4    1  0.3957190E+000  0.1766354E+03  0.7546771E-02  0.1171100E+00
         21   -1    0    0  503  502  0.00000000000E+00  0.00000000000E+00  0.10084512236E+04  0.10084512236E+04  0.00000000000E+00 0. -1.
         21   -1    0    0  501  503 -0.00000000000E+00 -0.00000000000E+00 -0.63125916726E+02  0.63125916726E+02  0.00000000000E+00 0.  1.
          6    1    1    2  501    0  0.95197508057E+01 -0.34357375925E+02  0.90074008097E+02  0.19827602445E+03  0.17300000000E+03 0.  1.
         -6    1    1    2    0  502 -0.95197508057E+01  0.34357375925E+02  0.85525129880E+03  0.87330111591E+03  0.17300000000E+03 0. -1.
<mgrwt>
<rscale>  2 0.17663537E+03</rscale>
<asrwt>0</asrwt>
<pdfrwt beam="1">  1       21 0.15514633E+00 0.17663537E+03</pdfrwt>
<pdfrwt beam="2">  1       21 0.97116802E-02 0.17663537E+03</pdfrwt>
<totfact> 0.23611596E+04</totfact>
</mgrwt>
</event>
<event>
 4    1  0.3957190E+000  0.2578470E+03  0.7546771E-02  0.1108444E+00
         21   -1    0    0  503  502  0.00000000000E+00  0.00000000000E+00  0.32499567738E+03  0.32499567738E+03  0.00000000000E+00 0.  1.
         21   -1    0    0  501  503 -0.00000000000E+00 -0.00000000000E+00 -0.45977750957E+03  0.45977750957E+03  0.00000000000E+00 0.  1.
          6    1    1    2  501    0 -0.38876959622E+02 -0.18720216117E+03 -0.35972885938E+03  0.44259453161E+03  0.17300000000E+03 0.  1.
         -6    1    1    2    0  502  0.38876959622E+02  0.18720216117E+03  0.22494702719E+03  0.34217865535E+03  0.17300000000E+03 0.  1.
<mgrwt>
<rscale>  2 0.25784698E+03</rscale>
<asrwt>0</asrwt>
<pdfrwt beam="1">  1       21 0.49999335E-01 0.25784698E+03</pdfrwt>
<pdfrwt beam="2">  1       21 0.70735001E-01 0.25784698E+03</pdfrwt>
<totfact> 0.66093470E+03</totfact>
</mgrwt>
</event>
<event>
 4    1  0.3957190E+000  0.2164725E+03  0.7546771E-02  0.1136541E+00
         21   -1    0    0  501  502  0.00000000000E+00  0.00000000000E+00  0.21431957075E+02  0.21431957075E+02  0.00000000000E+00 0.  1.
         21   -1    0    0  502  503 -0.00000000000E+00 -0.00000000000E+00 -0.22605304059E+04  0.22605304059E+04  0.00000000000E+00 0.  1.
          6    1    1    2  501    0 -0.22180894424E+02 -0.12821607295E+03 -0.91302865956E+03  0.93833985667E+03  0.17300000000E+03 0.  1.
         -6    1    1    2    0  503  0.22180894424E+02  0.12821607295E+03 -0.13260697892E+04  0.13436225063E+04  0.17300000000E+03 0.  1.
<mgrwt>
<rscale>  2 0.21647252E+03</rscale>
<asrwt>0</asrwt>
<pdfrwt beam="1">  1       21 0.32972262E-02 0.21647252E+03</pdfrwt>
<pdfrwt beam="2">  1       21 0.34777370E+00 0.21647252E+03</pdfrwt>
<totfact> 0.94906253E+03</totfact>
</mgrwt>
</event>
<event>
 4    1  0.3957190E+000  0.2228717E+03  0.7546771E-02  0.1131760E+00
         21   -1    0    0  501  502  0.00000000000E+00  0.00000000000E+00  0.20748498190E+03  0.20748498190E+03  0.00000000000E+00 0.  1.
         21   -1    0    0  502  503 -0.00000000000E+00 -0.00000000000E+00 -0.29398142629E+03  0.29398142629E+03  0.00000000000E+00 0.  1.
          6    1    1    2  501    0 -0.13476678226E+03  0.39758249562E+02  0.64789712735E+02  0.23209806308E+03  0.17300000000E+03 0.  1.
         -6    1    1    2    0  503  0.13476678226E+03 -0.39758249562E+02 -0.15128615712E+03  0.26936834511E+03  0.17300000000E+03 0.  1.
<mgrwt>
<rscale>  2 0.22287172E+03</rscale>
<asrwt>0</asrwt>
<pdfrwt beam="1">  1       21 0.31920766E-01 0.22287172E+03</pdfrwt>
<pdfrwt beam="2">  1       21 0.45227912E-01 0.22287172E+03</pdfrwt>
<totfact> 0.43615861E+04</totfact>
</mgrwt>
</event>
<event>
 4    1  0.3957190E+000  0.2205132E+03  0.7546771E-02  0.1133501E+00
         21   -1    0    0  501  502  0.00000000000E+00  0.00000000000E+00  0.15205230598E+03  0.15205230598E+03  0.00000000000E+00 0.  1.
         21   -1    0    0  502  503 -0.00000000000E+00 -0.00000000000E+00 -0.33966270059E+03  0.33966270059E+03  0.00000000000E+00 0.  1.
          6    1    1    2  501    0 -0.10479506521E+03  0.87835528439E+02 -0.15326124873E+03  0.26854254060E+03  0.17300000000E+03 0.  1.
         -6    1    1    2    0  503  0.10479506521E+03 -0.87835528439E+02 -0.34349145883E+02  0.22317246598E+03  0.17300000000E+03 0.  1.
<mgrwt>
<rscale>  2 0.22051323E+03</rscale>
<asrwt>0</asrwt>
<pdfrwt beam="1">  1       21 0.23392663E-01 0.22051323E+03</pdfrwt>
<pdfrwt beam="2">  1       21 0.52255799E-01 0.22051323E+03</pdfrwt>
<totfact> 0.58966030E+04</totfact>
</mgrwt>
</event>
<event>
 4    1  0.3957190E+000  0.1840951E+03  0.7546771E-02  0.1163898E+00
         21   -1    0    0  503  502  0.00000000000E+00  0.00000000000E+00  0.14169310277E+04  0.14169310277E+04  0.00000000000E+00 0. -1.
         21   -1    0    0  501  503 -0.00000000000E+00 -0.00000000000E+00 -0.51295152047E+02  0.51295152047E+02  0.00000000000E+00 0. -1.
          6    1    1    2  501    0 -0.40470436812E+02  0.48209352793E+02  0.14650999390E+03  0.23527893289E+03  0.17300000000E+03 0. -1.
         -6    1    1    2    0  502  0.40470436812E+02 -0.48209352793E+02  0.12191258818E+04  0.12329472469E+04  0.17300000000E+03 0. -1.
<mgrwt>
<rscale>  2 0.18409508E+03</rscale>
<asrwt>0</asrwt>
<pdfrwt beam="1">  1       21 0.21798936E+00 0.18409508E+03</pdfrwt>
<pdfrwt beam="2">  1       21 0.78915629E-02 0.18409508E+03</pdfrwt>
<totfact> 0.12813238E+04</totfact>
</mgrwt>
</event>
<event>
 4    1  0.3957190E+000  0.3928855E+03  0.7546771E-02  0.1046271E+00
         21   -1    0    0  501  502  0.00000000000E+00  0.00000000000E+00  0.58022189713E+03  0.58022189713E+03  0.00000000000E+00 0. -1.
         21   -1    0    0  502  503 -0.00000000000E+00 -0.00000000000E+00 -0.27046078982E+03  0.27046078982E+03  0.00000000000E+00 0.  1.
          6    1    1    2  501    0  0.30267450495E+03 -0.18115780942E+03  0.20929425606E+03  0.44515513417E+03  0.17300000000E+03 0. -1.
         -6    1    1    2    0  503 -0.30267450495E+03  0.18115780942E+03  0.10046685125E+03  0.40552755277E+03  0.17300000000E+03 0. -1.
<mgrwt>
<rscale>  2 0.39288549E+03</rscale>
<asrwt>0</asrwt>
<pdfrwt beam="1">  1       21 0.89264907E-01 0.39288549E+03</pdfrwt>
<pdfrwt beam="2">  1       21 0.41609352E-01 0.39288549E+03</pdfrwt>
<totfact> 0.53454096E+03</totfact>
</mgrwt>
</event>
<event>
 4    1  0.3957190E+000  0.2146550E+03  0.7546771E-02  0.1137932E+00
         21   -1    0    0  501  502  0.00000000000E+00  0.00000000000E+00  0.35986054635E+02  0.35986054635E+02  0.00000000000E+00 0.  1.
         21   -1    0    0  502  503 -0.00000000000E+00 -0.00000000000E+00 -0.13005299014E+04  0.13005299014E+04  0.00000000000E+00 0.  1.
          6    1    1    2  501    0 -0.31418003112E+02  0.12312873941E+03 -0.71539755129E+03  0.74690724577E+03  0.17300000000E+03 0.  1.
         -6    1    1    2    0  503  0.31418003112E+02 -0.12312873941E+03 -0.54914629545E+03  0.58960871024E+03  0.17300000000E+03 0.  1.
<mgrwt>
<rscale>  2 0.21465502E+03</rscale>
<asrwt>0</asrwt>
<pdfrwt beam="1">  1       21 0.55363163E-02 0.21465502E+03</pdfrwt>
<pdfrwt beam="2">  1       21 0.20008152E+00 0.21465502E+03</pdfrwt>
<totfact> 0.29875202E+04</totfact>
</mgrwt>
</event>
<event>
 4    1  0.3957190E+000  0.3102282E+03  0.7546771E-02  0.1080237E+00
         21   -1    0    0  503  502  0.00000000000E+00  0.00000000000E+00  0.16584197886E+04  0.16584197886E+04  0.00000000000E+00 0. -1.
         21   -1    0    0  501  503 -0.00000000000E+00 -0.00000000000E+00 -0.60799375502E+02  0.60799375502E+02  0.00000000000E+00 0. -1.
          6    1    1    2  501    0 -0.12733895095E+03 -0.22382427271E+03  0.61541787257E+03  0.68918841499E+03  0.17300000000E+03 0. -1.
         -6    1    1    2    0  502  0.12733895095E+03  0.22382427271E+03  0.98220254049E+03  0.10300307491E+04  0.17300000000E+03 0. -1.
<mgrwt>
<rscale>  2 0.31022816E+03</rscale>
<asrwt>0</asrwt>
<pdfrwt beam="1">  1       21 0.25514147E+00 0.31022816E+03</pdfrwt>
<pdfrwt beam="2">  1       21 0.93537514E-02 0.31022816E+03</pdfrwt>
<totfact> 0.51421185E+03</totfact>
</mgrwt>
</event>
<event>
 4    1  0.3957190E+000  0.1889933E+03  0.7546771E-02  0.1159372E+00
         21   -1    0    0  501  502  0.00000000000E+00  0.00000000000E+00  0.94449454699E+03  0.94449454699E+03  0.00000000000E+00 0.  1.
         21   -1    0    0  502  503 -0.00000000000E+00 -0.00000000000E+00 -0.56922838876E+02  0.56922838876E+02  0.00000000000E+00 0.  1.
          6    1    1    2  501    0 -0.75242311055E+02  0.11316581469E+02  0.73386643230E+03  0.75781159324E+03  0.17300000000E+03 0.  1.
         -6    1    1    2    0  503  0.75242311055E+02 -0.11316581469E+02  0.15370527581E+03  0.24360579263E+03  0.17300000000E+03 0.  1.
<mgrwt>
<rscale>  2 0.18899331E+03</rscale>
<asrwt>0</asrwt>
<pdfrwt beam="1">  1       21 0.14530684E+00 0.18899331E+03</pdfrwt>
<pdfrwt beam="2">  1       21 0.87573606E-02 0.18899331E+03</pdfrwt>
<totfact> 0.33364361E+04</totfact>
</mgrwt>
</event>
<event>
 4    1  0.3957190E+000  0.2114738E+03  0.7546771E-02  0.1140404E+00
         21   -1    0    0  503  502  0.00000000000E+00  0.00000000000E+00  0.49768545382E+03  0.49768545382E+03  0.00000000000E+00 0. -1.
         21   -1    0    0  501  503 -0.00000000000E+00 -0.00000000000E+00 -0.10706714831E+03  0.10706714831E+03  0.00000000000E+00 0.  1.
          6    1    1    2  501    0  0.12101380476E+03 -0.12158580166E+02  0.74083242337E+02  0.22407476165E+03  0.17300000000E+03 0.  1.
         -6    1    1    2    0  502 -0.12101380476E+03  0.12158580166E+02  0.31653506317E+03  0.38067784048E+03  0.17300000000E+03 0. -1.
<mgrwt>
<rscale>  2 0.21147381E+03</rscale>
<asrwt>0</asrwt>
<pdfrwt beam="1">  1       21 0.76566991E-01 0.21147381E+03</pdfrwt>
<pdfrwt beam="2">  1       21 0.16471869E-01 0.21147381E+03</pdfrwt>
<totfact> 0.49723004E+04</totfact>
</mgrwt>
</event>
<event>
 4    1  0.3957190E+000  0.1784201E+03  0.7546771E-02  0.1169341E+00
         21   -1    0    0  503  502  0.00000000000E+00  0.00000000000E+00  0.26173914139E+03  0.26173914139E+03  0.00000000000E+00 0.  1.
         21   -1    0    0  501  503 -0.00000000000E+00 -0.00000000000E+00 -0.13545670987E+03  0.13545670987E+03  0.00000000000E+00 0.  1.
          6    1    1    2  501    0 -0.30265173444E+02  0.31444478316E+02  0.12660553173E+03  0.21877544790E+03  0.17300000000E+03 0.  1.
         -6    1    1    2    0  502  0.30265173444E+02 -0.31444478316E+02 -0.32310020276E+00  0.17842040336E+03  0.17300000000E+03 0.  1.
<mgrwt>
<rscale>  2 0.17842011E+03</rscale>
<asrwt>0</asrwt>
<pdfrwt beam="1">  1       21 0.40267560E-01 0.17842011E+03</pdfrwt>
<pdfrwt beam="2">  1       21 0.20839494E-01 0.17842011E+03</pdfrwt>
<totfact> 0.12764429E+05</totfact>
</mgrwt>
</event>
<event>
 4    1  0.3957190E+000  0.1884250E+03  0.7546771E-02  0.1159890E+00
         21   -1    0    0  501  502  0.00000000000E+00  0.00000000000E+00  0.37263243210E+03  0.37263243210E+03  0.00000000000E+00 0. -1.
         21   -1    0    0  502  503 -0.00000000000E+00 -0.00000000000E+00 -0.10277883800E+03  0.10277883800E+03  0.00000000000E+00 0. -1.
          6    1    1    2  501    0 -0.47189237272E+02 -0.57863404635E+02  0.19913895716E+03  0.27415382903E+03  0.17300000000E+03 0. -1.
         -6    1    1    2    0  503  0.47189237272E+02  0.57863404635E+02  0.70714636940E+02  0.20125744107E+03  0.17300000000E+03 0. -1.
<mgrwt>
<rscale>  2 0.18842505E+03</rscale>
<asrwt>0</asrwt>
<pdfrwt beam="1">  1       21 0.57328066E-01 0.18842505E+03</pdfrwt>
<pdfrwt beam="2">  1       21 0.15812129E-01 0.18842505E+03</pdfrwt>
<totfact> 0.10193806E+05</totfact>
</mgrwt>
</event>
<event>
 4    1  0.3957190E+000  0.2621631E+03  0.7546771E-02  0.1105851E+00
         21   -1    0    0  501  502  0.00000000000E+00  0.00000000000E+00  0.60809542314E+03  0.60809542314E+03  0.00000000000E+00 0. -1.
         21   -1    0    0  502  503 -0.00000000000E+00 -0.00000000000E+00 -0.23503524385E+03  0.23503524385E+03  0.00000000000E+00 0. -1.
          6    1    1    2  501    0 -0.18130501807E+03  0.76999878854E+02  0.49026729273E+03  0.55595998888E+03  0.17300000000E+03 0. -1.
         -6    1    1    2    0  503  0.18130501807E+03 -0.76999878854E+02 -0.11720711344E+03  0.28717067810E+03  0.17300000000E+03 0. -1.
<mgrwt>
<rscale>  2 0.26216310E+03</rscale>
<asrwt>0</asrwt>
<pdfrwt beam="1">  1       21 0.93553142E-01 0.26216310E+03</pdfrwt>
<pdfrwt beam="2">  1       21 0.36159268E-01 0.26216310E+03</pdfrwt>
<totfact> 0.67647683E+03</totfact>
</mgrwt>
</event>
<event>
 4    1  0.3957190E+000  0.3916363E+03  0.7546771E-02  0.1046715E+00
         21   -1    0    0  503  502  0.00000000000E+00  0.00000000000E+00  0.28623560965E+03  0.28623560965E+03  0.00000000000E+00 0. -1.
         21   -1    0    0  501  503 -0.00000000000E+00 -0.00000000000E+00 -0.54144043603E+03  0.54144043603E+03  0.00000000000E+00 0.  1.
          6    1    1    2  501    0 -0.20705678934E+03 -0.28386174603E+03 -0.16965811759E+03  0.42680543781E+03  0.17300000000E+03 0. -1.
         -6    1    1    2    0  502  0.20705678934E+03  0.28386174603E+03 -0.85546708791E+02  0.40087060788E+03  0.17300000000E+03 0.  1.
<mgrwt>
<rscale>  2 0.39163632E+03</rscale>
<asrwt>0</asrwt>
<pdfrwt beam="1">  1       21 0.44036248E-01 0.39163632E+03</pdfrwt>
<pdfrwt beam="2">  1       21 0.83298527E-01 0.39163632E+03</pdfrwt>
<totfact> 0.55898443E+03</totfact>
</mgrwt>
</event>
<event>
 4    1  0.3957190E+000  0.1840777E+03  0.7546771E-02  0.1163914E+00
         21   -1    0    0  503  502  0.00000000000E+00  0.00000000000E+00  0.43359772680E+03  0.43359772680E+03  0.00000000000E+00 0. -1.
         21   -1    0    0  501  503 -0.00000000000E+00 -0.00000000000E+00 -0.15531475546E+03  0.15531475546E+03  0.00000000000E+00 0. -1.
          6    1    1    2  501    0 -0.51965665728E+02 -0.35428142536E+02 -0.68412414041E+02  0.19637933214E+03  0.17300000000E+03 0. -1.
         -6    1    1    2    0  502  0.51965665728E+02  0.35428142536E+02  0.34669538538E+03  0.39253315012E+03  0.17300000000E+03 0. -1.
<mgrwt>
<rscale>  2 0.18407766E+03</rscale>
<asrwt>0</asrwt>
<pdfrwt beam="1">  1       21 0.66707342E-01 0.18407766E+03</pdfrwt>
<pdfrwt beam="2">  1       21 0.23894578E-01 0.18407766E+03</pdfrwt>
<totfact> 0.34156710E+04</totfact>
</mgrwt>
</event>
<event>
 4    1  0.3957190E+000  0.2506097E+03  0.7546771E-02  0.1112920E+00
         21   -1    0    0  501  502  0.00000000000E+00  0.00000000000E+00  0.45458702842E+03  0.45458702842E+03  0.00000000000E+00 0. -1.
         21   -1    0    0  502  503 -0.00000000000E+00 -0.00000000000E+00 -0.16052905696E+03  0.16052905696E+03  0.00000000000E+00 0. -1.
          6    1    1    2  501    0  0.77765652076E+02 -0.16379471660E+03  0.26184053773E+03  0.36244402744E+03  0.17300000000E+03 0. -1.
         -6    1    1    2    0  503 -0.77765652076E+02  0.16379471660E+03  0.32217433736E+02  0.25267205794E+03  0.17300000000E+03 0. -1.
<mgrwt>
<rscale>  2 0.25060967E+03</rscale>
<asrwt>0</asrwt>
<pdfrwt beam="1">  1       21 0.69936465E-01 0.25060967E+03</pdfrwt>
<pdfrwt beam="2">  1       21 0.24696778E-01 0.25060967E+03</pdfrwt>
<totfact> 0.27942386E+04</totfact>
</mgrwt>
</event>
<event>
 4    1  0.3957190E+000  0.2279074E+03  0.7546771E-02  0.1128121E+00
         21   -1    0    0  503  502  0.00000000000E+00  0.00000000000E+00  0.47773698964E+03  0.47773698964E+03  0.00000000000E+00 0.  1.
         21   -1    0    0  501  503 -0.00000000000E+00 -0.00000000000E+00 -0.32254430031E+03  0.32254430031E+03  0.00000000000E+00 0. -1.
          6    1    1    2  501    0 -0.42015216452E+02  0.14229366174E+03 -0.24819672149E+03  0.33696198175E+03  0.17300000000E+03 0. -1.
         -6    1    1    2    0  502  0.42015216452E+02 -0.14229366174E+03  0.40338941083E+03  0.46331930820E+03  0.17300000000E+03 0.  1.
<mgrwt>
<rscale>  2 0.22790736E+03</rscale>
<asrwt>0</asrwt>
<pdfrwt beam="1">  1       21 0.73497998E-01 0.22790736E+03</pdfrwt>
<pdfrwt beam="2">  1       21 0.49622200E-01 0.22790736E+03</pdfrwt>
<totfact> 0.62787813E+03</totfact>
</mgrwt>
</event>
<event>
 4    1  0.3957190E+000  0.1945683E+03  0.7546771E-02  0.1154404E+00
         21   -1    0    0  501  502  0.00000000000E+00  0.00000000000E+00  0.51687547864E+03  0.51687547864E+03  0.00000000000E+00 0. -1.
         21   -1    0    0  502  503 -0.00000000000E+00 -0.00000000000E+00 -0.30744947981E+03  0.30744947981E+03  0.00000000000E+00 0. -1.
          6    1    1    2  501    0  0.11205678814E+02 -0.88330455779E+02  0.46444761897E+03  0.50355578382E+03  0.17300000000E+03 0. -1.
         -6    1    1    2    0  503 -0.11205678814E+02  0.88330455779E+02 -0.25502162013E+03  0.32076917463E+03  0.17300000000E+03 0. -1.
<mgrwt>
<rscale>  2 0.19456833E+03</rscale>
<asrwt>0</asrwt>
<pdfrwt beam="1">  1       21 0.79519304E-01 0.19456833E+03</pdfrwt>
<pdfrwt beam="2">  1       21 0.47299920E-01 0.19456833E+03</pdfrwt>
<totfact> 0.59532295E+03</totfact>
</mgrwt>
</event>
<event>
 4    1  0.3957190E+000  0.2355021E+03  0.7546771E-02  0.1122826E+00
         21   -1    0    0  501  502  0.00000000000E+00  0.00000000000E+00  0.59126751660E+03  0.59126751660E+03  0.00000000000E+00 0. -1.
         21   -1    0    0  502  503 -0.00000000000E+00 -0.00000000000E+00 -0.11010740527E+03  0.11010740527E+03  0.00000000000E+00 0.  1.
          6    1    1    2  501    0  0.87440735738E+02  0.13373983949E+03  0.37553751268E+03  0.44327153119E+03  0.17300000000E+03 0. -1.
         -6    1    1    2    0  503 -0.87440735738E+02 -0.13373983949E+03  0.10562259866E+03  0.25810339068E+03  0.17300000000E+03 0. -1.
<mgrwt>
<rscale>  2 0.23550207E+03</rscale>
<asrwt>0</asrwt>
<pdfrwt beam="1">  1       21 0.90964231E-01 0.23550207E+03</pdfrwt>
<pdfrwt beam="2">  1       21 0.16939601E-01 0.23550207E+03</pdfrwt>
<totfact> 0.31467067E+04</totfact>
</mgrwt>
</event>
<event>
 4    1  0.3957190E+000  0.2062083E+03  0.7546771E-02  0.1144604E+00
         21   -1    0    0  501  502  0.00000000000E+00  0.00000000000E+00  0.14944040461E+04  0.14944040461E+04  0.00000000000E+00 0.  1.
         21   -1    0    0  502  503 -0.00000000000E+00 -0.00000000000E+00 -0.45494523821E+02  0.45494523821E+02  0.00000000000E+00 0.  1.
          6    1    1    2  501    0  0.56993534926E+02 -0.96667431779E+02  0.25323518574E+03  0.32657298524E+03  0.17300000000E+03 0.  1.
         -6    1    1    2    0  503 -0.56993534926E+02  0.96667431779E+02  0.11956743365E+04  0.12133255847E+04  0.17300000000E+03 0.  1.
<mgrwt>
<rscale>  2 0.20620828E+03</rscale>
<asrwt>0</asrwt>
<pdfrwt beam="1">  1       21 0.22990828E+00 0.20620828E+03</pdfrwt>
<pdfrwt beam="2">  1       21 0.69991587E-02 0.20620828E+03</pdfrwt>
<totfact> 0.13094801E+04</totfact>
</mgrwt>
</event>
<event>
 4    1  0.3957190E+000  0.1890978E+03  0.7546771E-02  0.1159278E+00
         21   -1    0    0  503  502  0.00000000000E+00  0.00000000000E+00  0.25962758603E+03  0.25962758603E+03  0.00000000000E+00 0.  1.
         21   -1    0    0  501  503 -0.00000000000E+00 -0.00000000000E+00 -0.34369751473E+03  0.34369751473E+03  0.00000000000E+00 0.  1.
          6    1    1    2  501    0 -0.76091049194E+02 -0.62549345100E+01 -0.27556069588E+03  0.33420303572E+03  0.17300000000E+03 0.  1.
         -6    1    1    2    0  502  0.76091049194E+02  0.62549345100E+01  0.19149076718E+03  0.26912206503E+03  0.17300000000E+03 0.  1.
<mgrwt>
<rscale>  2 0.18909778E+03</rscale>
<asrwt>0</asrwt>
<pdfrwt beam="1">  1       21 0.39942706E-01 0.18909778E+03</pdfrwt>
<pdfrwt beam="2">  1       21 0.52876540E-01 0.18909778E+03</pdfrwt>
<totfact> 0.20517700E+04</totfact>
</mgrwt>
</event>
<event>
 4    1  0.3957190E+000  0.1798685E+03  0.7546771E-02  0.1167930E+00
         21   -1    0    0  501  502  0.00000000000E+00  0.00000000000E+00  0.89722785012E+02  0.89722785012E+02  0.00000000000E+00 0. -1.
         21   -1    0    0  502  503 -0.00000000000E+00 -0.00000000000E+00 -0.36441547543E+03  0.36441547543E+03  0.00000000000E+00 0. -1.
          6    1    1    2  501    0  0.37734772207E+02 -0.31619271464E+02 -0.16062647755E+03  0.24115048549E+03  0.17300000000E+03 0. -1.
         -6    1    1    2    0  503 -0.37734772207E+02  0.31619271464E+02 -0.11406621287E+03  0.21298777496E+03  0.17300000000E+03 0. -1.
<mgrwt>
<rscale>  2 0.17986854E+03</rscale>
<asrwt>0</asrwt>
<pdfrwt beam="1">  1       21 0.13803505E-01 0.17986854E+03</pdfrwt>
<pdfrwt beam="2">  1       21 0.56063920E-01 0.17986854E+03</pdfrwt>
<totfact> 0.13722004E+05</totfact>
</mgrwt>
</event>
<event>
 4    1  0.3957190E+000  0.1961645E+03  0.7546771E-02  0.1153016E+00
         21   -1    0    0  503  502  0.00000000000E+00  0.00000000000E+00  0.68541253565E+02  0.68541253565E+02  0.00000000000E+00 0.  1.
         21   -1    0    0  501  503 -0.00000000000E+00 -0.00000000000E+00 -0.85249051923E+03  0.85249051923E+03  0.00000000000E+00 0.  1.
          6    1    1    2  501    0 -0.65581880818E+02 -0.65195985794E+02 -0.66106502781E+03  0.68955599529E+03  0.17300000000E+03 0.  1.
         -6    1    1    2    0  502  0.65581880818E+02  0.65195985794E+02 -0.12288423785E+03  0.23147577750E+03  0.17300000000E+03 0.  1.
<mgrwt>
<rscale>  2 0.19616447E+03</rscale>
<asrwt>0</asrwt>
<pdfrwt beam="1">  1       21 0.10544809E-01 0.19616447E+03</pdfrwt>
<pdfrwt beam="2">  1       21 0.13115238E+00 0.19616447E+03</pdfrwt>
<totfact> 0.31163000E+04</totfact>
</mgrwt>
</event>
<event>
 4    1  0.3957190E+000  0.1922569E+03  0.7546771E-02  0.1156441E+00
         21   -1    0    0  501  502  0.00000000000E+00  0.00000000000E+00  0.10755003445E+03  0.10755003445E+03  0.00000000000E+00 0.  1.
         21   -1    0    0  502  503 -0.00000000000E+00 -0.00000000000E+00 -0.38666518734E+03  0.38666518734E+03  0.00000000000E+00 0.  1.
          6    1    1    2  501    0  0.11632652879E+01  0.83859143212E+02 -0.57166140479E+02  0.20057586271E+03  0.17300000000E+03 0.  1.
         -6    1    1    2    0  503 -0.11632652879E+01 -0.83859143212E+02 -0.22194901242E+03  0.29363935908E+03  0.17300000000E+03 0.  1.
<mgrwt>
<rscale>  2 0.19225688E+03</rscale>
<asrwt>0</asrwt>
<pdfrwt beam="1">  1       21 0.16546159E-01 0.19225688E+03</pdfrwt>
<pdfrwt beam="2">  1       21 0.59486952E-01 0.19225688E+03</pdfrwt>
<totfact> 0.86557653E+04</totfact>
</mgrwt>
</event>
<event>
 4    1  0.3957190E+000  0.2315812E+03  0.7546771E-02  0.1125532E+00
         21   -1    0    0  503  502  0.00000000000E+00  0.00000000000E+00  0.22036292485E+04  0.22036292485E+04  0.00000000000E+00 0. -1.
         21   -1    0    0  501  503 -0.00000000000E+00 -0.00000000000E+00 -0.25772444550E+02  0.25772444550E+02  0.00000000000E+00 0. -1.
          6    1    1    2  501    0 -0.81379807086E+01  0.15373562940E+03  0.13519938130E+04  0.13716840528E+04  0.17300000000E+03 0. -1.
         -6    1    1    2    0  502  0.81379807086E+01 -0.15373562940E+03  0.82586299097E+03  0.85771764021E+03  0.17300000000E+03 0. -1.
<mgrwt>
<rscale>  2 0.23158124E+03</rscale>
<asrwt>0</asrwt>
<pdfrwt beam="1">  1       21 0.33901973E+00 0.23158124E+03</pdfrwt>
<pdfrwt beam="2">  1       21 0.39649932E-02 0.23158124E+03</pdfrwt>
<totfact> 0.77269446E+03</totfact>
</mgrwt>
</event>
<event>
 4    1  0.3957190E+000  0.2036600E+03  0.7546771E-02  0.1146687E+00
         21   -1    0    0  503  502  0.00000000000E+00  0.00000000000E+00  0.11325201127E+03  0.11325201127E+03  0.00000000000E+00 0.  1.
         21   -1    0    0  501  503 -0.00000000000E+00 -0.00000000000E+00 -0.36659804360E+03  0.36659804360E+03  0.00000000000E+00 0.  1.
          6    1    1    2  501    0  0.91089363241E+02  0.57018689451E+02 -0.11917371039E+03  0.23596562523E+03  0.17300000000E+03 0.  1.
         -6    1    1    2    0  502 -0.91089363241E+02 -0.57018689451E+02 -0.13417232194E+03  0.24388442963E+03  0.17300000000E+03 0.  1.
<mgrwt>
<rscale>  2 0.20366002E+03</rscale>
<asrwt>0</asrwt>
<pdfrwt beam="1">  1       21 0.17423386E-01 0.20366002E+03</pdfrwt>
<pdfrwt beam="2">  1       21 0.56399700E-01 0.20366002E+03</pdfrwt>
<totfact> 0.87764779E+04</totfact>
</mgrwt>
</event>
<event>
 4    1  0.3957190E+000  0.3075150E+03  0.7546771E-02  0.1081543E+00
         21   -1    0    0  501  502  0.00000000000E+00  0.00000000000E+00  0.95908039546E+02  0.95908039546E+02  0.00000000000E+00 0. -1.
         21   -1    0    0  502  503 -0.00000000000E+00 -0.00000000000E+00 -0.10412791390E+04  0.10412791390E+04  0.00000000000E+00 0. -1.
          6    1    1    2  501    0  0.22499975799E+03  0.11837057706E+03 -0.60369196236E+03  0.67750237640E+03  0.17300000000E+03 0. -1.
         -6    1    1    2    0  503 -0.22499975799E+03 -0.11837057706E+03 -0.34167913714E+03  0.45968480220E+03  0.17300000000E+03 0. -1.
<mgrwt>
<rscale>  2 0.30751502E+03</rscale>
<asrwt>0</asrwt>
<pdfrwt beam="1">  1       21 0.14755083E-01 0.30751502E+03</pdfrwt>
<pdfrwt beam="2">  1       21 0.16019679E+00 0.30751502E+03</pdfrwt>
<totfact> 0.94374890E+03</totfact>
</mgrwt>
</event>
<event>
 4    1  0.3957190E+000  0.1978306E+03  0.7546771E-02  0.1151582E+00
         21   -1    0    0  501  502  0.00000000000E+00  0.00000000000E+00  0.48537235399E+03  0.48537235399E+03  0.00000000000E+00 0. -1.
         21   -1    0    0  502  503 -0.00000000000E+00 -0.00000000000E+00 -0.99716842533E+02  0.99716842533E+02  0.00000000000E+00 0.  1.
          6    1    1    2  501    0 -0.18210343743E+02  0.94214196184E+02  0.32080802668E+03  0.37690147435E+03  0.17300000000E+03 0. -1.
         -6    1    1    2    0  503  0.18210343743E+02 -0.94214196184E+02  0.64847484770E+02  0.20818772217E+03  0.17300000000E+03 0. -1.
<mgrwt>
<rscale>  2 0.19783056E+03</rscale>
<asrwt>0</asrwt>
<pdfrwt beam="1">  1       21 0.74672669E-01 0.19783056E+03</pdfrwt>
<pdfrwt beam="2">  1       21 0.15341053E-01 0.19783056E+03</pdfrwt>
<totfact> 0.60305469E+04</totfact>
</mgrwt>
</event>
<event>
 4    1  0.3957190E+000  0.1789936E+03  0.7546771E-02  0.1168781E+00
         21   -1    0    0  503  502  0.00000000000E+00  0.00000000000E+00  0.25181721825E+03  0.25181721825E+03  0.00000000000E+00 0. -1.
         21   -1    0    0  501  503 -0.00000000000E+00 -0.00000000000E+00 -0.22108453336E+03  0.22108453336E+03  0.00000000000E+00 0. -1.
          6    1    1    2  501    0  0.29933892267E+02  0.34837755902E+02 -0.13869346513E+03  0.22643891983E+03  0.17300000000E+03 0. -1.
         -6    1    1    2    0  502 -0.29933892267E+02 -0.34837755902E+02  0.16942615001E+03  0.24646283178E+03  0.17300000000E+03 0. -1.
<mgrwt>
<rscale>  2 0.17899360E+03</rscale>
<asrwt>0</asrwt>
<pdfrwt beam="1">  1       21 0.38741111E-01 0.17899360E+03</pdfrwt>
<pdfrwt beam="2">  1       21 0.34013005E-01 0.17899360E+03</pdfrwt>
<totfact> 0.53842908E+04</totfact>
</mgrwt>
</event>
<event>
 4    1  0.3957190E+000  0.2333214E+03  0.7546771E-02  0.1124324E+00
         21   -1    0    0  503  502  0.00000000000E+00  0.00000000000E+00  0.87473649712E+03  0.87473649712E+03  0.00000000000E+00 0. -1.
         21   -1    0    0  501  503 -0.00000000000E+00 -0.00000000000E+00 -0.18298728501E+03  0.18298728501E+03  0.00000000000E+00 0. -1.
          6    1    1    2  501    0  0.93253825259E+02  0.12575206821E+03 -0.83741199622E+02  0.24789402393E+03  0.17300000000E+03 0. -1.
         -6    1    1    2    0  502 -0.93253825259E+02 -0.12575206821E+03  0.77549041173E+03  0.80982975821E+03  0.17300000000E+03 0. -1.
<mgrwt>
<rscale>  2 0.23332136E+03</rscale>
<asrwt>0</asrwt>
<pdfrwt beam="1">  1       21 0.13457484E+00 0.23332136E+03</pdfrwt>
<pdfrwt beam="2">  1       21 0.28151891E-01 0.23332136E+03</pdfrwt>
<totfact> 0.46254392E+03</totfact>
</mgrwt>
</event>
<event>
 4    1  0.3957190E+000  0.2528070E+03  0.7546771E-02  0.1111544E+00
         21   -1    0    0  501  502  0.00000000000E+00  0.00000000000E+00  0.98168513533E+02  0.98168513533E+02  0.00000000000E+00 0. -1.
         21   -1    0    0  502  503 -0.00000000000E+00 -0.00000000000E+00 -0.66062400747E+03  0.66062400747E+03  0.00000000000E+00 0.  1.
          6    1    1    2  501    0  0.15615998114E+03  0.97961439987E+02 -0.23552459817E+03  0.34551876907E+03  0.17300000000E+03 0. -1.
         -6    1    1    2    0  503 -0.15615998114E+03 -0.97961439987E+02 -0.32693089576E+03  0.41327375193E+03  0.17300000000E+03 0.  1.
<mgrwt>
<rscale>  2 0.25280701E+03</rscale>
<asrwt>0</asrwt>
<pdfrwt beam="1">  1       21 0.15102849E-01 0.25280701E+03</pdfrwt>
<pdfrwt beam="2">  1       21 0.10163446E+00 0.25280701E+03</pdfrwt>
<totfact> 0.29659024E+04</totfact>
</mgrwt>
</event>
<event>
 4    1  0.3957190E+000  0.2124576E+03  0.7546771E-02  0.1139634E+00
         21   -1    0    0  501  502  0.00000000000E+00  0.00000000000E+00  0.21205956763E+03  0.21205956763E+03  0.00000000000E+00 0. -1.
         21   -1    0    0  502  503 -0.00000000000E+00 -0.00000000000E+00 -0.25534859042E+03  0.25534859042E+03  0.00000000000E+00 0. -1.
          6    1    1    2  501    0  0.89475767456E+02  0.84872469624E+02 -0.11697982698E+03  0.24253356259E+03  0.17300000000E+03 0. -1.
         -6    1    1    2    0  503 -0.89475767456E+02 -0.84872469624E+02  0.73690804181E+02  0.22487459546E+03  0.17300000000E+03 0. -1.
<mgrwt>
<rscale>  2 0.21245764E+03</rscale>
<asrwt>0</asrwt>
<pdfrwt beam="1">  1       21 0.32624549E-01 0.21245764E+03</pdfrwt>
<pdfrwt beam="2">  1       21 0.39284399E-01 0.21245764E+03</pdfrwt>
<totfact> 0.55965994E+04</totfact>
</mgrwt>
</event>
<event>
 4    1  0.3957190E+000  0.1797413E+03  0.7546771E-02  0.1168054E+00
         21   -1    0    0  503  502  0.00000000000E+00  0.00000000000E+00  0.23937652710E+03  0.23937652710E+03  0.00000000000E+00 0.  1.
         21   -1    0    0  501  503 -0.00000000000E+00 -0.00000000000E+00 -0.20979296806E+03  0.20979296806E+03  0.00000000000E+00 0.  1.
          6    1    1    2  501    0 -0.39995053723E+02  0.27898713230E+02 -0.11933730457E+03  0.21575063101E+03  0.17300000000E+03 0.  1.
         -6    1    1    2    0  502  0.39995053723E+02 -0.27898713230E+02  0.14892086361E+03  0.23341886415E+03  0.17300000000E+03 0.  1.
<mgrwt>
<rscale>  2 0.17974132E+03</rscale>
<asrwt>0</asrwt>
<pdfrwt beam="1">  1       21 0.36827158E-01 0.17974132E+03</pdfrwt>
<pdfrwt beam="2">  1       21 0.32275841E-01 0.17974132E+03</pdfrwt>
<totfact> 0.66039813E+04</totfact>
</mgrwt>
</event>
<event>
 4    1  0.3957190E+000  0.2170962E+03  0.7546771E-02  0.1136067E+00
         21   -1    0    0  503  502  0.00000000000E+00  0.00000000000E+00  0.77728895788E+02  0.77728895788E+02  0.00000000000E+00 0. -1.
         21   -1    0    0  501  503 -0.00000000000E+00 -0.00000000000E+00 -0.60845879230E+03  0.60845879230E+03  0.00000000000E+00 0. -1.
          6    1    1    2  501    0  0.12580338211E+03  0.37084727827E+02 -0.24515756010E+03  0.32746449771E+03  0.17300000000E+03 0. -1.
         -6    1    1    2    0  502 -0.12580338211E+03 -0.37084727827E+02 -0.28557233641E+03  0.35872319037E+03  0.17300000000E+03 0. -1.
<mgrwt>
<rscale>  2 0.21709622E+03</rscale>
<asrwt>0</asrwt>
<pdfrwt beam="1">  1       21 0.11958291E-01 0.21709622E+03</pdfrwt>
<pdfrwt beam="2">  1       21 0.93609047E-01 0.21709622E+03</pdfrwt>
<totfact> 0.55952408E+04</totfact>
</mgrwt>
</event>
<event>
 4    1  0.3957190E+000  0.1885739E+03  0.7546771E-02  0.1159754E+00
         21   -1    0    0  501  502  0.00000000000E+00  0.00000000000E+00  0.55924771578E+03  0.55924771578E+03  0.00000000000E+00 0.  1.
         21   -1    0    0  502  503 -0.00000000000E+00 -0.00000000000E+00 -0.71163130376E+02  0.71163130376E+02  0.00000000000E+00 0.  1.
          6    1    1    2  501    0 -0.45012120858E+02 -0.60041705344E+02  0.34689843096E+03  0.39483999140E+03  0.17300000000E+03 0.  1.
         -6    1    1    2    0  503  0.45012120858E+02  0.60041705344E+02  0.14118615444E+03  0.23557085476E+03  0.17300000000E+03 0.  1.
<mgrwt>
<rscale>  2 0.18857385E+03</rscale>
<asrwt>0</asrwt>
<pdfrwt beam="1">  1       21 0.86038107E-01 0.18857385E+03</pdfrwt>
<pdfrwt beam="2">  1       21 0.10948174E-01 0.18857385E+03</pdfrwt>
<totfact> 0.80682188E+04</totfact>
</mgrwt>
</event>
<event>
 4    1  0.3957190E+000  0.1760454E+03  0.7546771E-02  0.1171686E+00
         21   -1    0    0  503  502  0.00000000000E+00  0.00000000000E+00  0.10241748914E+04  0.10241748914E+04  0.00000000000E+00 0.  1.
         21   -1    0    0  501  503 -0.00000000000E+00 -0.00000000000E+00 -0.53850735950E+02  0.53850735950E+02  0.00000000000E+00 0.  1.
          6    1    1    2  501    0  0.10148545008E+02  0.30983850446E+02  0.12840723185E+03  0.21789999804E+03  0.17300000000E+03 0.  1.
         -6    1    1    2    0  502 -0.10148545008E+02 -0.30983850446E+02  0.84191692359E+03  0.86012562930E+03  0.17300000000E+03 0.  1.
<mgrwt>
<rscale>  2 0.17604543E+03</rscale>
<asrwt>0</asrwt>
<pdfrwt beam="1">  1       21 0.15756535E+00 0.17604543E+03</pdfrwt>
<pdfrwt beam="2">  1       21 0.82847294E-02 0.17604543E+03</pdfrwt>
<totfact> 0.29933718E+04</totfact>
</mgrwt>
</event>
<event>
 4    1  0.3957190E+000  0.2233912E+03  0.7546771E-02  0.1131380E+00
         21   -1    0    0  501  502  0.00000000000E+00  0.00000000000E+00  0.69917477415E+03  0.69917477415E+03  0.00000000000E+00 0. -1.
         21   -1    0    0  502  503 -0.00000000000E+00 -0.00000000000E+00 -0.78328176267E+02  0.78328176267E+02  0.00000000000E+00 0. -1.
          6    1    1    2  501    0 -0.12652184658E+03  0.62982875990E+02  0.19459791940E+03  0.29626334664E+03  0.17300000000E+03 0. -1.
         -6    1    1    2    0  503  0.12652184658E+03 -0.62982875990E+02  0.42624867848E+03  0.48123960377E+03  0.17300000000E+03 0. -1.
<mgrwt>
<rscale>  2 0.22339118E+03</rscale>
<asrwt>0</asrwt>
<pdfrwt beam="1">  1       21 0.10756535E+00 0.22339118E+03</pdfrwt>
<pdfrwt beam="2">  1       21 0.12050489E-01 0.22339118E+03</pdfrwt>
<totfact> 0.39505906E+04</totfact>
</mgrwt>
</event>
<event>
 4    1  0.3957190E+000  0.1749421E+03  0.7546771E-02  0.1172790E+00
         21   -1    0    0  501  502  0.00000000000E+00  0.00000000000E+00  0.15738647008E+02  0.15738647008E+02  0.00000000000E+00 0. -1.
         21   -1    0    0  502  503 -0.00000000000E+00 -0.00000000000E+00 -0.25320622528E+04  0.25320622528E+04  0.00000000000E+00 0. -1.
          6    1    1    2  501    0 -0.25866219054E+02  0.25840149458E+01 -0.64453660218E+03  0.66785639921E+03  0.17300000000E+03 0. -1.
         -6    1    1    2    0  503  0.25866219054E+02 -0.25840149458E+01 -0.18717870036E+04  0.18799445006E+04  0.17300000000E+03 0. -1.
<mgrwt>
<rscale>  2 0.17494210E+03</rscale>
<asrwt>0</asrwt>
<pdfrwt beam="1">  1       21 0.24213328E-02 0.17494210E+03</pdfrwt>
<pdfrwt beam="2">  1       21 0.38954764E+00 0.17494210E+03</pdfrwt>
<totfact> 0.93250016E+03</totfact>
</mgrwt>
</event>
<event>
 4    1  0.3957190E+000  0.2695116E+03  0.7546771E-02  0.1101559E+00
         21   -1    0    0  501  502  0.00000000000E+00  0.00000000000E+00  0.51993786388E+03  0.51993786388E+03  0.00000000000E+00 0. -1.
         21   -1    0    0  502  503 -0.00000000000E+00 -0.00000000000E+00 -0.27291805272E+03  0.27291805272E+03  0.00000000000E+00 0.  1.
          6    1    1    2  501    0 -0.11807249002E+03 -0.16960663076E+03  0.40047555837E+03  0.48271854631E+03  0.17300000000E+03 0. -1.
         -6    1    1    2    0  503  0.11807249002E+03  0.16960663076E+03 -0.15345574722E+03  0.31013737029E+03  0.17300000000E+03 0.  1.
<mgrwt>
<rscale>  2 0.26951164E+03</rscale>
<asrwt>0</asrwt>
<pdfrwt beam="1">  1       21 0.79990440E-01 0.26951164E+03</pdfrwt>
<pdfrwt beam="2">  1       21 0.41987393E-01 0.26951164E+03</pdfrwt>
<totfact> 0.71517559E+03</totfact>
</mgrwt>
</event>
<event>
 4    1  0.3957190E+000  0.1897462E+03  0.7546771E-02  0.1158690E+00
         21   -1    0    0  501  502  0.00000000000E+00  0.00000000000E+00  0.12430590704E+03  0.12430590704E+03  0.00000000000E+00 0.  1.
         21   -1    0    0  502  503 -0.00000000000E+00 -0.00000000000E+00 -0.30153678266E+03  0.30153678266E+03  0.00000000000E+00 0.  1.
          6    1    1    2  501    0 -0.77932929998E+02 -0.10421311666E+01 -0.46318098966E+02  0.19531767433E+03  0.17300000000E+03 0.  1.
         -6    1    1    2    0  503  0.77932929998E+02  0.10421311666E+01 -0.13091277666E+03  0.23052501536E+03  0.17300000000E+03 0.  1.
<mgrwt>
<rscale>  2 0.18974622E+03</rscale>
<asrwt>0</asrwt>
<pdfrwt beam="1">  1       21 0.19123986E-01 0.18974622E+03</pdfrwt>
<pdfrwt beam="2">  1       21 0.46390274E-01 0.18974622E+03</pdfrwt>
<totfact> 0.11180941E+05</totfact>
</mgrwt>
</event>
<event>
 4    1  0.3957190E+000  0.1944132E+03  0.7546771E-02  0.1154540E+00
         21   -1    0    0  503  502  0.00000000000E+00  0.00000000000E+00  0.10021298052E+03  0.10021298052E+03  0.00000000000E+00 0.  1.
         21   -1    0    0  501  503 -0.00000000000E+00 -0.00000000000E+00 -0.49091736105E+03  0.49091736105E+03  0.00000000000E+00 0.  1.
          6    1    1    2  501    0  0.81840539115E+02  0.34199632526E+02 -0.33762953397E+03  0.38960260640E+03  0.17300000000E+03 0.  1.
         -6    1    1    2    0  502 -0.81840539115E+02 -0.34199632526E+02 -0.53074846561E+02  0.20152773518E+03  0.17300000000E+03 0.  1.
<mgrwt>
<rscale>  2 0.19441319E+03</rscale>
<asrwt>0</asrwt>
<pdfrwt beam="1">  1       21 0.15417382E-01 0.19441319E+03</pdfrwt>
<pdfrwt beam="2">  1       21 0.75525747E-01 0.19441319E+03</pdfrwt>
<totfact> 0.58361470E+04</totfact>
</mgrwt>
</event>
<event>
 4    1  0.3957190E+000  0.1816867E+03  0.7546771E-02  0.1166181E+00
         21   -1    0    0  503  502  0.00000000000E+00  0.00000000000E+00  0.35180934167E+03  0.35180934167E+03  0.00000000000E+00 0. -1.
         21   -1    0    0  501  503 -0.00000000000E+00 -0.00000000000E+00 -0.96755192080E+02  0.96755192080E+02  0.00000000000E+00 0. -1.
          6    1    1    2  501    0  0.27361542896E+02  0.48294859387E+02  0.16652864144E+03  0.24645858860E+03  0.17300000000E+03 0. -1.
         -6    1    1    2    0  502 -0.27361542896E+02 -0.48294859387E+02  0.88525508146E+02  0.20210594515E+03  0.17300000000E+03 0. -1.
<mgrwt>
<rscale>  2 0.18168667E+03</rscale>
<asrwt>0</asrwt>
<pdfrwt beam="1">  1       21 0.54124513E-01 0.18168667E+03</pdfrwt>
<pdfrwt beam="2">  1       21 0.14885414E-01 0.18168667E+03</pdfrwt>
<totfact> 0.12884758E+05</totfact>
</mgrwt>
</event>
<event>
 4    1  0.3957190E+000  0.1883535E+03  0.7546771E-02  0.1159955E+00
         21   -1    0    0  503  502  0.00000000000E+00  0.00000000000E+00  0.23501646557E+03  0.23501646557E+03  0.00000000000E+00 0.  1.
         21   -1    0    0  501  503 -0.00000000000E+00 -0.00000000000E+00 -0.62404849534E+03  0.62404849534E+03  0.00000000000E+00 0.  1.
          6    1    1    2  501    0  0.73554611623E+02 -0.11737682843E+02 -0.56850606483E+03  0.59889581718E+03  0.17300000000E+03 0.  1.
         -6    1    1    2    0  502 -0.73554611623E+02  0.11737682843E+02  0.17947403506E+03  0.26016914373E+03  0.17300000000E+03 0.  1.
<mgrwt>
<rscale>  2 0.18835353E+03</rscale>
<asrwt>0</asrwt>
<pdfrwt beam="1">  1       21 0.36156380E-01 0.18835353E+03</pdfrwt>
<pdfrwt beam="2">  1       21 0.96007460E-01 0.18835353E+03</pdfrwt>
<totfact> 0.66882646E+03</totfact>
</mgrwt>
</event>
<event>
 4    1  0.3957190E+000  0.2354294E+03  0.7546771E-02  0.1122876E+00
         21   -1    0    0  503  502  0.00000000000E+00  0.00000000000E+00  0.98963517132E+02  0.98963517132E+02  0.00000000000E+00 0. -1.
         21   -1    0    0  501  503 -0.00000000000E+00 -0.00000000000E+00 -0.57392925335E+03  0.57392925335E+03  0.00000000000E+00 0. -1.
          6    1    1    2  501    0  0.15926858132E+03  0.11468737119E+02 -0.18521017067E+03  0.29954936195E+03  0.17300000000E+03 0. -1.
         -6    1    1    2    0  502 -0.15926858132E+03 -0.11468737119E+02 -0.28975556554E+03  0.37334340853E+03  0.17300000000E+03 0. -1.
<mgrwt>
<rscale>  2 0.23542942E+03</rscale>
<asrwt>0</asrwt>
<pdfrwt beam="1">  1       21 0.15225157E-01 0.23542942E+03</pdfrwt>
<pdfrwt beam="2">  1       21 0.88296806E-01 0.23542942E+03</pdfrwt>
<totfact> 0.41038049E+04</totfact>
</mgrwt>
</event>
<event>
 4    1  0.3957190E+000  0.2413511E+03  0.7546771E-02  0.1118896E+00
         21   -1    0    0  501  502  0.00000000000E+00  0.00000000000E+00  0.95456443313E+02  0.95456443313E+02  0.00000000000E+00 0.  1.
         21   -1    0    0  502  503 -0.00000000000E+00 -0.00000000000E+00 -0.66214306053E+03  0.66214306053E+03  0.00000000000E+00 0.  1.
          6    1    1    2  501    0  0.16449592456E+03 -0.35530832660E+02 -0.17727792422E+03  0.29946253802E+03  0.17300000000E+03 0.  1.
         -6    1    1    2    0  503 -0.16449592456E+03  0.35530832660E+02 -0.38940869300E+03  0.45813696582E+03  0.17300000000E+03 0.  1.
<mgrwt>
<rscale>  2 0.24135109E+03</rscale>
<asrwt>0</asrwt>
<pdfrwt beam="1">  1       21 0.14685608E-01 0.24135109E+03</pdfrwt>
<pdfrwt beam="2">  1       21 0.10186816E+00 0.24135109E+03</pdfrwt>
<totfact> 0.31213218E+04</totfact>
</mgrwt>
</event>
<event>
 4    1  0.3957190E+000  0.2030105E+03  0.7546771E-02  0.1147224E+00
         21   -1    0    0  503  502  0.00000000000E+00  0.00000000000E+00  0.13792884312E+04  0.13792884312E+04  0.00000000000E+00 0. -1.
         21   -1    0    0  501  503 -0.00000000000E+00 -0.00000000000E+00 -0.11465433668E+03  0.11465433668E+03  0.00000000000E+00 0. -1.
          6    1    1    2  501    0  0.14764574021E+02 -0.10519627239E+03 -0.99870868297E+01  0.20325597230E+03  0.17300000000E+03 0. -1.
         -6    1    1    2    0  502 -0.14764574021E+02  0.10519627239E+03  0.12746211814E+04  0.12906867956E+04  0.17300000000E+03 0. -1.
<mgrwt>
<rscale>  2 0.20301046E+03</rscale>
<asrwt>0</asrwt>
<pdfrwt beam="1">  1       21 0.21219821E+00 0.20301046E+03</pdfrwt>
<pdfrwt beam="2">  1       21 0.17639130E-01 0.20301046E+03</pdfrwt>
<totfact> 0.32432406E+03</totfact>
</mgrwt>
</event>
<event>
 4    1  0.3957190E+000  0.5544419E+03  0.7546771E-02  0.1000471E+00
         21   -1    0    0  501  502  0.00000000000E+00  0.00000000000E+00  0.36809786226E+03  0.36809786226E+03  0.00000000000E+00 0. -1.
         21   -1    0    0  502  503 -0.00000000000E+00 -0.00000000000E+00 -0.97024041092E+03  0.97024041092E+03  0.00000000000E+00 0.  1.
          6    1    1    2  501    0  0.41497933191E+03  0.32445175597E+03 -0.55079346317E+03  0.78152365731E+03  0.17300000000E+03 0.  1.
         -6    1    1    2    0  503 -0.41497933191E+03 -0.32445175597E+03 -0.51349085490E+02  0.55681461587E+03  0.17300000000E+03 0. -1.
<mgrwt>
<rscale>  2 0.55444187E+03</rscale>
<asrwt>0</asrwt>
<pdfrwt beam="1">  1       21 0.56630441E-01 0.55444187E+03</pdfrwt>
<pdfrwt beam="2">  1       21 0.14926775E+00 0.55444187E+03</pdfrwt>
<totfact> 0.71531425E+02</totfact>
</mgrwt>
</event>
<event>
 4    1  0.3957190E+000  0.1762420E+03  0.7546771E-02  0.1171490E+00
         21   -1    0    0  503  502  0.00000000000E+00  0.00000000000E+00  0.25629041407E+02  0.25629041407E+02  0.00000000000E+00 0. -1.
         21   -1    0    0  501  503 -0.00000000000E+00 -0.00000000000E+00 -0.12173445143E+04  0.12173445143E+04  0.00000000000E+00 0. -1.
          6    1    1    2  501    0 -0.16652152134E+02 -0.29239621212E+02 -0.63720935397E+03  0.66113312608E+03  0.17300000000E+03 0.  1.
         -6    1    1    2    0  502  0.16652152134E+02  0.29239621212E+02 -0.55450611891E+03  0.58184042961E+03  0.17300000000E+03 0.  1.
<mgrwt>
<rscale>  2 0.17624202E+03</rscale>
<asrwt>0</asrwt>
<pdfrwt beam="1">  1       21 0.39429295E-02 0.17624202E+03</pdfrwt>
<pdfrwt beam="2">  1       21 0.18728377E+00 0.17624202E+03</pdfrwt>
<totfact> 0.65900396E+04</totfact>
</mgrwt>
</event>
<event>
 4    1  0.3957190E+000  0.1757987E+03  0.7546771E-02  0.1171932E+00
         21   -1    0    0  503  502  0.00000000000E+00  0.00000000000E+00  0.23888952682E+03  0.23888952682E+03  0.00000000000E+00 0.  1.
         21   -1    0    0  501  503 -0.00000000000E+00 -0.00000000000E+00 -0.22261956992E+03  0.22261956992E+03  0.00000000000E+00 0.  1.
          6    1    1    2  501    0  0.30546606253E+02 -0.65638170511E+01 -0.14121034293E+03  0.22548955585E+03  0.17300000000E+03 0.  1.
         -6    1    1    2    0  502 -0.30546606253E+02  0.65638170511E+01  0.15748029983E+03  0.23601954089E+03  0.17300000000E+03 0.  1.
<mgrwt>
<rscale>  2 0.17579869E+03</rscale>
<asrwt>0</asrwt>
<pdfrwt beam="1">  1       21 0.36752235E-01 0.17579869E+03</pdfrwt>
<pdfrwt beam="2">  1       21 0.34249165E-01 0.17579869E+03</pdfrwt>
<totfact> 0.59103294E+04</totfact>
</mgrwt>
</event>
<event>
 4    1  0.3957190E+000  0.1751276E+03  0.7546771E-02  0.1172604E+00
         21   -1    0    0  503  502  0.00000000000E+00  0.00000000000E+00  0.76454116917E+03  0.76454116917E+03  0.00000000000E+00 0.  1.
         21   -1    0    0  501  503 -0.00000000000E+00 -0.00000000000E+00 -0.47849517516E+02  0.47849517516E+02  0.00000000000E+00 0.  1.
          6    1    1    2  501    0  0.72013363050E+01  0.26245588727E+02  0.52165415024E+03  0.55026606531E+03  0.17300000000E+03 0.  1.
         -6    1    1    2    0  502 -0.72013363050E+01 -0.26245588727E+02  0.19503750142E+03  0.26212462138E+03  0.17300000000E+03 0.  1.
<mgrwt>
<rscale>  2 0.17512764E+03</rscale>
<asrwt>0</asrwt>
<pdfrwt beam="1">  1       21 0.11762171E+00 0.17512764E+03</pdfrwt>
<pdfrwt beam="2">  1       21 0.73614648E-02 0.17512764E+03</pdfrwt>
<totfact> 0.77560658E+04</totfact>
</mgrwt>
</event>
<event>
 4    1  0.3957190E+000  0.2092237E+03  0.7546771E-02  0.1142182E+00
         21   -1    0    0  503  502  0.00000000000E+00  0.00000000000E+00  0.45518287753E+02  0.45518287753E+02  0.00000000000E+00 0.  1.
         21   -1    0    0  501  503 -0.00000000000E+00 -0.00000000000E+00 -0.12707864611E+04  0.12707864611E+04  0.00000000000E+00 0.  1.
          6    1    1    2  501    0 -0.11500631710E+03  0.24881893523E+02 -0.93722469735E+03  0.96029406690E+03  0.17300000000E+03 0.  1.
         -6    1    1    2    0  502  0.11500631710E+03 -0.24881893523E+02 -0.28804347598E+03  0.35601068194E+03  0.17300000000E+03 0.  1.
<mgrwt>
<rscale>  2 0.20922371E+03</rscale>
<asrwt>0</asrwt>
<pdfrwt beam="1">  1       21 0.70028133E-02 0.20922371E+03</pdfrwt>
<pdfrwt beam="2">  1       21 0.19550561E+00 0.20922371E+03</pdfrwt>
<totfact> 0.21437573E+04</totfact>
</mgrwt>
</event>
<event>
 4    1  0.3957190E+000  0.2162691E+03  0.7546771E-02  0.1136696E+00
         21   -1    0    0  501  502  0.00000000000E+00  0.00000000000E+00  0.51320877941E+03  0.51320877941E+03  0.00000000000E+00 0.  1.
         21   -1    0    0  502  503 -0.00000000000E+00 -0.00000000000E+00 -0.19392389358E+03  0.19392389358E+03  0.00000000000E+00 0. -1.
          6    1    1    2  501    0  0.13265106437E+02 -0.12910206618E+03  0.41705167924E+03  0.46979187913E+03  0.17300000000E+03 0.  1.
         -6    1    1    2    0  503 -0.13265106437E+02  0.12910206618E+03 -0.97766793410E+02  0.23734079387E+03  0.17300000000E+03 0. -1.
<mgrwt>
<rscale>  2 0.21626906E+03</rscale>
<asrwt>0</asrwt>
<pdfrwt beam="1">  1       21 0.78955196E-01 0.21626906E+03</pdfrwt>
<pdfrwt beam="2">  1       21 0.29834445E-01 0.21626906E+03</pdfrwt>
<totfact> 0.15036454E+04</totfact>
</mgrwt>
</event>
<event>
 4    1  0.3957190E+000  0.1779460E+03  0.7546771E-02  0.1169806E+00
         21   -1    0    0  501  502  0.00000000000E+00  0.00000000000E+00  0.10037613169E+04  0.10037613169E+04  0.00000000000E+00 0.  1.
         21   -1    0    0  502  503 -0.00000000000E+00 -0.00000000000E+00 -0.59114961484E+02  0.59114961484E+02  0.00000000000E+00 0.  1.
          6    1    1    2  501    0  0.48816040910E+01  0.41375512035E+02  0.83524523562E+03  0.85399026147E+03  0.17300000000E+03 0.  1.
         -6    1    1    2    0  503 -0.48816040910E+01 -0.41375512035E+02  0.10940111981E+03  0.20888601694E+03  0.17300000000E+03 0.  1.
<mgrwt>
<rscale>  2 0.17794596E+03</rscale>
<asrwt>0</asrwt>
<pdfrwt beam="1">  1       21 0.15442481E+00 0.17794596E+03</pdfrwt>
<pdfrwt beam="2">  1       21 0.90946102E-02 0.17794596E+03</pdfrwt>
<totfact> 0.26801549E+04</totfact>
</mgrwt>
</event>
<event>
 4    1  0.3957190E+000  0.4081569E+03  0.7546771E-02  0.1040991E+00
         21   -1    0    0  503  502  0.00000000000E+00  0.00000000000E+00  0.14879394442E+03  0.14879394442E+03  0.00000000000E+00 0.  1.
         21   -1    0    0  501  503 -0.00000000000E+00 -0.00000000000E+00 -0.15597247641E+04  0.15597247641E+04  0.00000000000E+00 0. -1.
          6    1    1    2  501    0  0.27805287871E+03  0.24361779672E+03 -0.11592460071E+04  0.12290009517E+04  0.17300000000E+03 0. -1.
         -6    1    1    2    0  502 -0.27805287871E+03 -0.24361779672E+03 -0.25168481253E+03  0.47951775681E+03  0.17300000000E+03 0.  1.
<mgrwt>
<rscale>  2 0.40815687E+03</rscale>
<asrwt>0</asrwt>
<pdfrwt beam="1">  1       21 0.22891376E-01 0.40815687E+03</pdfrwt>
<pdfrwt beam="2">  1       21 0.23995765E+00 0.40815687E+03</pdfrwt>
<totfact> 0.11517541E+03</totfact>
</mgrwt>
</event>
<event>
 4    1  0.3957190E+000  0.1736580E+03  0.7546771E-02  0.1174086E+00
         21   -1    0    0  501  502  0.00000000000E+00  0.00000000000E+00  0.71498476477E+03  0.71498476477E+03  0.00000000000E+00 0.  1.
         21   -1    0    0  502  503 -0.00000000000E+00 -0.00000000000E+00 -0.66234392639E+02  0.66234392639E+02  0.00000000000E+00 0.  1.
          6    1    1    2  501    0  0.64478896252E+01 -0.13657195136E+02  0.55977735916E+03  0.58609537286E+03  0.17300000000E+03 0.  1.
         -6    1    1    2    0  503 -0.64478896252E+01  0.13657195136E+02  0.88973012971E+02  0.19512378455E+03  0.17300000000E+03 0.  1.
<mgrwt>
<rscale>  2 0.17365798E+03</rscale>
<asrwt>0</asrwt>
<pdfrwt beam="1">  1       21 0.10999765E+00 0.17365798E+03</pdfrwt>
<pdfrwt beam="2">  1       21 0.10189907E-01 0.17365798E+03</pdfrwt>
<totfact> 0.51766060E+04</totfact>
</mgrwt>
</event>
<event>
 4    1  0.3957190E+000  0.1991276E+03  0.7546771E-02  0.1150477E+00
         21   -1    0    0  503  502  0.00000000000E+00  0.00000000000E+00  0.19036398164E+03  0.19036398164E+03  0.00000000000E+00 0.  1.
         21   -1    0    0  501  503 -0.00000000000E+00 -0.00000000000E+00 -0.54819890365E+03  0.54819890365E+03  0.00000000000E+00 0.  1.
          6    1    1    2  501    0  0.13979923216E+02 -0.97608270597E+02 -0.46969888287E+03  0.51016551560E+03  0.17300000000E+03 0.  1.
         -6    1    1    2    0  502 -0.13979923216E+02  0.97608270597E+02  0.11186396086E+03  0.22839736969E+03  0.17300000000E+03 0.  1.
<mgrwt>
<rscale>  2 0.19912763E+03</rscale>
<asrwt>0</asrwt>
<pdfrwt beam="1">  1       21 0.29286766E-01 0.19912763E+03</pdfrwt>
<pdfrwt beam="2">  1       21 0.84338294E-01 0.19912763E+03</pdfrwt>
<totfact> 0.13564154E+04</totfact>
</mgrwt>
</event>
<event>
 4    1  0.3957190E+000  0.3000845E+03  0.7546771E-02  0.1085198E+00
         21   -1    0    0  503  502  0.00000000000E+00  0.00000000000E+00  0.10720817485E+04  0.10720817485E+04  0.00000000000E+00 0. -1.
         21   -1    0    0  501  503 -0.00000000000E+00 -0.00000000000E+00 -0.21933597765E+03  0.21933597765E+03  0.00000000000E+00 0.  1.
          6    1    1    2  501    0  0.18472267066E+03 -0.16124283337E+03 -0.80845110988E+02  0.31078392549E+03  0.17300000000E+03 0.  1.
         -6    1    1    2    0  502 -0.18472267066E+03  0.16124283337E+03  0.93359088184E+03  0.98063380068E+03  0.17300000000E+03 0. -1.
<mgrwt>
<rscale>  2 0.30008452E+03</rscale>
<asrwt>0</asrwt>
<pdfrwt beam="1">  1       21 0.16493565E+00 0.30008452E+03</pdfrwt>
<pdfrwt beam="2">  1       21 0.33743997E-01 0.30008452E+03</pdfrwt>
<totfact> 0.17999956E+03</totfact>
</mgrwt>
</event>
<event>
 4    1  0.3957190E+000  0.1983167E+03  0.7546771E-02  0.1151167E+00
         21   -1    0    0  501  502  0.00000000000E+00  0.00000000000E+00  0.19412117035E+03  0.19412117035E+03  0.00000000000E+00 0.  1.
         21   -1    0    0  502  503 -0.00000000000E+00 -0.00000000000E+00 -0.20801505590E+03  0.20801505590E+03  0.00000000000E+00 0. -1.
          6    1    1    2  501    0 -0.54860566941E+02  0.79942586104E+02  0.25485801078E+02  0.19994755546E+03  0.17300000000E+03 0. -1.
         -6    1    1    2    0  503  0.54860566941E+02 -0.79942586104E+02 -0.39379686633E+02  0.20218867079E+03  0.17300000000E+03 0. -1.
<mgrwt>
<rscale>  2 0.19831666E+03</rscale>
<asrwt>0</asrwt>
<pdfrwt beam="1">  1       21 0.29864796E-01 0.19831666E+03</pdfrwt>
<pdfrwt beam="2">  1       21 0.32002316E-01 0.19831666E+03</pdfrwt>
<totfact> 0.10072845E+05</totfact>
</mgrwt>
</event>
<event>
 4    1  0.3957190E+000  0.1843990E+03  0.7546771E-02  0.1163612E+00
         21   -1    0    0  503  502  0.00000000000E+00  0.00000000000E+00  0.45165124466E+02  0.45165124466E+02  0.00000000000E+00 0. -1.
         21   -1    0    0  501  503 -0.00000000000E+00 -0.00000000000E+00 -0.11591136449E+04  0.11591136449E+04  0.00000000000E+00 0. -1.
          6    1    1    2  501    0 -0.51460176531E+02 -0.37760428690E+02 -0.91345235512E+03  0.93187885737E+03  0.17300000000E+03 0. -1.
         -6    1    1    2    0  502  0.51460176531E+02  0.37760428690E+02 -0.20049616528E+03  0.27239991196E+03  0.17300000000E+03 0. -1.
<mgrwt>
<rscale>  2 0.18439902E+03</rscale>
<asrwt>0</asrwt>
<pdfrwt beam="1">  1       21 0.69484801E-02 0.18439902E+03</pdfrwt>
<pdfrwt beam="2">  1       21 0.17832519E+00 0.18439902E+03</pdfrwt>
<totfact> 0.28781507E+04</totfact>
</mgrwt>
</event>
<event>
 4    1  0.3957190E+000  0.1771950E+03  0.7546771E-02  0.1170546E+00
         21   -1    0    0  503  502  0.00000000000E+00  0.00000000000E+00  0.23088272478E+03  0.23088272478E+03  0.00000000000E+00 0. -1.
         21   -1    0    0  501  503 -0.00000000000E+00 -0.00000000000E+00 -0.19303378958E+03  0.19303378958E+03  0.00000000000E+00 0. -1.
          6    1    1    2  501    0  0.11543803178E+02  0.36548836542E+02 -0.96296715709E+02  0.20167085635E+03  0.17300000000E+03 0. -1.
         -6    1    1    2    0  502 -0.11543803178E+02 -0.36548836542E+02  0.13414565091E+03  0.22224565800E+03  0.17300000000E+03 0. -1.
<mgrwt>
<rscale>  2 0.17719502E+03</rscale>
<asrwt>0</asrwt>
<pdfrwt beam="1">  1       21 0.35520419E-01 0.17719502E+03</pdfrwt>
<pdfrwt beam="2">  1       21 0.29697506E-01 0.17719502E+03</pdfrwt>
<totfact> 0.83575621E+04</totfact>
</mgrwt>
</event>
<event>
 4    1  0.3957190E+000  0.1904381E+03  0.7546771E-02  0.1158067E+00
         21   -1    0    0  503  502  0.00000000000E+00  0.00000000000E+00  0.18197195967E+03  0.18197195967E+03  0.00000000000E+00 0. -1.
         21   -1    0    0  501  503 -0.00000000000E+00 -0.00000000000E+00 -0.89362271269E+03  0.89362271269E+03  0.00000000000E+00 0. -1.
          6    1    1    2  501    0 -0.10915807112E+02 -0.78857461517E+02 -0.82987395429E+03  0.85144432237E+03  0.17300000000E+03 0. -1.
         -6    1    1    2    0  502  0.10915807112E+02  0.78857461517E+02  0.11822320128E+03  0.22415034999E+03  0.17300000000E+03 0. -1.
<mgrwt>
<rscale>  2 0.19043806E+03</rscale>
<asrwt>0</asrwt>
<pdfrwt beam="1">  1       21 0.27995686E-01 0.19043806E+03</pdfrwt>
<pdfrwt beam="2">  1       21 0.13748042E+00 0.19043806E+03</pdfrwt>
<totfact> 0.45786091E+03</totfact>
</mgrwt>
</event>
<event>
 4    1  0.3957190E+000  0.2427349E+03  0.7546771E-02  0.1117984E+00
         21   -1    0    0  501  502  0.00000000000E+00  0.00000000000E+00  0.16776299029E+04  0.16776299029E+04  0.00000000000E+00 0. -1.
         21   -1    0    0  502  503 -0.00000000000E+00 -0.00000000000E+00 -0.51920979999E+02  0.51920979999E+02  0.00000000000E+00 0. -1.
          6    1    1    2  501    0  0.16962698941E+03 -0.14761652323E+02  0.13047635951E+04  0.13271504290E+04  0.17300000000E+03 0. -1.
         -6    1    1    2    0  503 -0.16962698941E+03  0.14761652323E+02  0.32094532780E+03  0.40240045396E+03  0.17300000000E+03 0. -1.
<mgrwt>
<rscale>  2 0.24273488E+03</rscale>
<asrwt>0</asrwt>
<pdfrwt beam="1">  1       21 0.25809687E+00 0.24273488E+03</pdfrwt>
<pdfrwt beam="2">  1       21 0.79878444E-02 0.24273488E+03</pdfrwt>
<totfact> 0.68490269E+03</totfact>
</mgrwt>
</event>
<event>
 4    1  0.3957190E+000  0.2309918E+03  0.7546771E-02  0.1125944E+00
         21   -1    0    0  503  502  0.00000000000E+00  0.00000000000E+00  0.71517932604E+02  0.71517932604E+02  0.00000000000E+00 0. -1.
         21   -1    0    0  501  503 -0.00000000000E+00 -0.00000000000E+00 -0.77810208041E+03  0.77810208041E+03  0.00000000000E+00 0.  1.
          6    1    1    2  501    0  0.15292117499E+03 -0.65807340940E+01 -0.26709604934E+03  0.35312531967E+03  0.17300000000E+03 0.  1.
         -6    1    1    2    0  502 -0.15292117499E+03  0.65807340940E+01 -0.43948809847E+03  0.49649469334E+03  0.17300000000E+03 0.  1.
<mgrwt>
<rscale>  2 0.23099176E+03</rscale>
<asrwt>0</asrwt>
<pdfrwt beam="1">  1       21 0.11002758E-01 0.23099176E+03</pdfrwt>
<pdfrwt beam="2">  1       21 0.11970802E+00 0.23099176E+03</pdfrwt>
<totfact> 0.35647739E+04</totfact>
</mgrwt>
</event>
<event>
 4    1  0.3957190E+000  0.1997730E+03  0.7546771E-02  0.1149931E+00
         21   -1    0    0  503  502  0.00000000000E+00  0.00000000000E+00  0.80424523480E+02  0.80424523480E+02  0.00000000000E+00 0.  1.
         21   -1    0    0  501  503 -0.00000000000E+00 -0.00000000000E+00 -0.91294185560E+03  0.91294185560E+03  0.00000000000E+00 0. -1.
          6    1    1    2  501    0  0.22307942624E+02  0.97378748901E+02 -0.75182200732E+03  0.77791104615E+03  0.17300000000E+03 0. -1.
         -6    1    1    2    0  502 -0.22307942624E+02 -0.97378748901E+02 -0.80695324803E+02  0.21545533293E+03  0.17300000000E+03 0.  1.
<mgrwt>
<rscale>  2 0.19977303E+03</rscale>
<asrwt>0</asrwt>
<pdfrwt beam="1">  1       21 0.12373003E-01 0.19977303E+03</pdfrwt>
<pdfrwt beam="2">  1       21 0.14045260E+00 0.19977303E+03</pdfrwt>
<totfact> 0.19619570E+04</totfact>
</mgrwt>
</event>
<event>
 4    1  0.3957190E+000  0.3263031E+03  0.7546771E-02  0.1072784E+00
         21   -1    0    0  501  502  0.00000000000E+00  0.00000000000E+00  0.81129914499E+02  0.81129914499E+02  0.00000000000E+00 0. -1.
         21   -1    0    0  502  503 -0.00000000000E+00 -0.00000000000E+00 -0.14854928322E+04  0.14854928322E+04  0.00000000000E+00 0.  1.
          6    1    1    2  501    0 -0.19104541838E+03 -0.20011580664E+03 -0.43478390378E+03  0.54360898718E+03  0.17300000000E+03 0.  1.
         -6    1    1    2    0  503  0.19104541838E+03  0.20011580664E+03 -0.96957901396E+03  0.10230137596E+04  0.17300000000E+03 0. -1.
<mgrwt>
<rscale>  2 0.32630306E+03</rscale>
<asrwt>0</asrwt>
<pdfrwt beam="1">  1       21 0.12481525E-01 0.32630306E+03</pdfrwt>
<pdfrwt beam="2">  1       21 0.22853737E+00 0.32630306E+03</pdfrwt>
<totfact> 0.44061521E+03</totfact>
</mgrwt>
</event>
<event>
 4    1  0.3957190E+000  0.1746597E+03  0.7546771E-02  0.1173074E+00
         21   -1    0    0  503  502  0.00000000000E+00  0.00000000000E+00  0.17243781953E+03  0.17243781953E+03  0.00000000000E+00 0. -1.
         21   -1    0    0  501  503 -0.00000000000E+00 -0.00000000000E+00 -0.24616875851E+03  0.24616875851E+03  0.00000000000E+00 0. -1.
          6    1    1    2  501    0  0.19086885471E+02 -0.14584774946E+02  0.74153201385E+02  0.18974910311E+03  0.17300000000E+03 0. -1.
         -6    1    1    2    0  502 -0.19086885471E+02  0.14584774946E+02 -0.14788414037E+03  0.22885747493E+03  0.17300000000E+03 0. -1.
<mgrwt>
<rscale>  2 0.17465974E+03</rscale>
<asrwt>0</asrwt>
<pdfrwt beam="1">  1       21 0.26528895E-01 0.17465974E+03</pdfrwt>
<pdfrwt beam="2">  1       21 0.37872117E-01 0.17465974E+03</pdfrwt>
<totfact> 0.91544867E+04</totfact>
</mgrwt>
</event>
<event>
 4    1  0.3957190E+000  0.2177150E+03  0.7546771E-02  0.1135598E+00
         21   -1    0    0  503  502  0.00000000000E+00  0.00000000000E+00  0.58844699937E+02  0.58844699937E+02  0.00000000000E+00 0. -1.
         21   -1    0    0  501  503 -0.00000000000E+00 -0.00000000000E+00 -0.11714975783E+04  0.11714975783E+04  0.00000000000E+00 0.  1.
          6    1    1    2  501    0  0.13216867527E+03  0.15110785000E+01 -0.90016926054E+03  0.92612339334E+03  0.17300000000E+03 0.  1.
         -6    1    1    2    0  502 -0.13216867527E+03 -0.15110785000E+01 -0.21248361781E+03  0.30421888488E+03  0.17300000000E+03 0. -1.
<mgrwt>
<rscale>  2 0.21771505E+03</rscale>
<asrwt>0</asrwt>
<pdfrwt beam="1">  1       21 0.90530306E-02 0.21771505E+03</pdfrwt>
<pdfrwt beam="2">  1       21 0.18023040E+00 0.21771505E+03</pdfrwt>
<totfact> 0.17216021E+04</totfact>
</mgrwt>
</event>
<event>
 4    1  0.3957190E+000  0.2041033E+03  0.7546771E-02  0.1146322E+00
         21   -1    0    0  503  502  0.00000000000E+00  0.00000000000E+00  0.31762701950E+03  0.31762701950E+03  0.00000000000E+00 0. -1.
         21   -1    0    0  501  503 -0.00000000000E+00 -0.00000000000E+00 -0.32378233575E+03  0.32378233575E+03  0.00000000000E+00 0.  1.
          6    1    1    2  501    0 -0.97792711529E+02 -0.46537649904E+02 -0.25044274489E+03  0.32307852878E+03  0.17300000000E+03 0.  1.
         -6    1    1    2    0  502  0.97792711529E+02  0.46537649904E+02  0.24428742864E+03  0.31833082647E+03  0.17300000000E+03 0. -1.
<mgrwt>
<rscale>  2 0.20410333E+03</rscale>
<asrwt>0</asrwt>
<pdfrwt beam="1">  1       21 0.48865696E-01 0.20410333E+03</pdfrwt>
<pdfrwt beam="2">  1       21 0.49812667E-01 0.20410333E+03</pdfrwt>
<totfact> 0.15238266E+04</totfact>
</mgrwt>
</event>
<event>
 4    1  0.3957190E+000  0.2238742E+03  0.7546771E-02  0.1131027E+00
         21   -1    0    0  503  502  0.00000000000E+00  0.00000000000E+00  0.88508621295E+03  0.88508621295E+03  0.00000000000E+00 0.  1.
         21   -1    0    0  501  503 -0.00000000000E+00 -0.00000000000E+00 -0.56632735639E+02  0.56632735639E+02  0.00000000000E+00 0.  1.
          6    1    1    2  501    0  0.13707360726E+03  0.37436373154E+02  0.41902152578E+03  0.47507756725E+03  0.17300000000E+03 0.  1.
         -6    1    1    2    0  502 -0.13707360726E+03 -0.37436373154E+02  0.40943195154E+03  0.46664138134E+03  0.17300000000E+03 0.  1.
<mgrwt>
<rscale>  2 0.22387420E+03</rscale>
<asrwt>0</asrwt>
<pdfrwt beam="1">  1       21 0.13616710E+00 0.22387420E+03</pdfrwt>
<pdfrwt beam="2">  1       21 0.87127292E-02 0.22387420E+03</pdfrwt>
<totfact> 0.39051662E+04</totfact>
</mgrwt>
</event>
<event>
 4    1  0.3957190E+000  0.1925667E+03  0.7546771E-02  0.1156166E+00
         21   -1    0    0  501  502  0.00000000000E+00  0.00000000000E+00  0.38184098937E+03  0.38184098937E+03  0.00000000000E+00 0. -1.
         21   -1    0    0  502  503 -0.00000000000E+00 -0.00000000000E+00 -0.97517767339E+02  0.97517767339E+02  0.00000000000E+00 0. -1.
          6    1    1    2  501    0 -0.40539285895E+01 -0.84477881837E+02  0.12673117512E+03  0.23052708649E+03  0.17300000000E+03 0. -1.
         -6    1    1    2    0  503  0.40539285895E+01  0.84477881837E+02  0.15759204691E+03  0.24883167022E+03  0.17300000000E+03 0. -1.
<mgrwt>
<rscale>  2 0.19256673E+03</rscale>
<asrwt>0</asrwt>
<pdfrwt beam="1">  1       21 0.58744767E-01 0.19256673E+03</pdfrwt>
<pdfrwt beam="2">  1       21 0.15002734E-01 0.19256673E+03</pdfrwt>
<totfact> 0.10633557E+05</totfact>
</mgrwt>
</event>
<event>
 4    1  0.3957190E+000  0.2559478E+03  0.7546771E-02  0.1109603E+00
         21   -1    0    0  503  502  0.00000000000E+00  0.00000000000E+00  0.23427208463E+03  0.23427208463E+03  0.00000000000E+00 0.  1.
         21   -1    0    0  501  503 -0.00000000000E+00 -0.00000000000E+00 -0.28243997868E+03  0.28243997868E+03  0.00000000000E+00 0. -1.
          6    1    1    2  501    0  0.18646303561E+03 -0.28492596576E+02  0.16897504583E+01  0.25595340780E+03  0.17300000000E+03 0. -1.
         -6    1    1    2    0  502 -0.18646303561E+03  0.28492596576E+02 -0.49857644507E+02  0.26075865551E+03  0.17300000000E+03 0.  1.
<mgrwt>
<rscale>  2 0.25594783E+03</rscale>
<asrwt>0</asrwt>
<pdfrwt beam="1">  1       21 0.36041859E-01 0.25594783E+03</pdfrwt>
<pdfrwt beam="2">  1       21 0.43452304E-01 0.25594783E+03</pdfrwt>
<totfact> 0.36680445E+04</totfact>
</mgrwt>
</event>
<event>
 4    1  0.3957190E+000  0.1844918E+03  0.7546771E-02  0.1163525E+00
         21   -1    0    0  503  502  0.00000000000E+00  0.00000000000E+00  0.35910860230E+03  0.35910860230E+03  0.00000000000E+00 0.  1.
         21   -1    0    0  501  503 -0.00000000000E+00 -0.00000000000E+00 -0.96207491850E+02  0.96207491850E+02  0.00000000000E+00 0.  1.
          6    1    1    2  501    0 -0.15781968283E+02  0.62121953240E+02  0.10374376381E+03  0.21166004849E+03  0.17300000000E+03 0.  1.
         -6    1    1    2    0  502  0.15781968283E+02 -0.62121953240E+02  0.15915734664E+03  0.24365604566E+03  0.17300000000E+03 0.  1.
<mgrwt>
<rscale>  2 0.18449175E+03</rscale>
<asrwt>0</asrwt>
<pdfrwt beam="1">  1       21 0.55247477E-01 0.18449175E+03</pdfrwt>
<pdfrwt beam="2">  1       21 0.14801153E-01 0.18449175E+03</pdfrwt>
<totfact> 0.12453856E+05</totfact>
</mgrwt>
</event>
<event>
 4    1  0.3957190E+000  0.2019330E+03  0.7546771E-02  0.1148118E+00
         21   -1    0    0  503  502  0.00000000000E+00  0.00000000000E+00  0.40245858204E+03  0.40245858204E+03  0.00000000000E+00 0.  1.
         21   -1    0    0  501  503 -0.00000000000E+00 -0.00000000000E+00 -0.12840873839E+03  0.12840873839E+03  0.00000000000E+00 0.  1.
          6    1    1    2  501    0 -0.50071972261E+02  0.91327535413E+02  0.15110038078E+02  0.20249749228E+03  0.17300000000E+03 0.  1.
         -6    1    1    2    0  502  0.50071972261E+02 -0.91327535413E+02  0.25893980557E+03  0.32836982815E+03  0.17300000000E+03 0.  1.
<mgrwt>
<rscale>  2 0.20193296E+03</rscale>
<asrwt>0</asrwt>
<pdfrwt beam="1">  1       21 0.61916704E-01 0.20193296E+03</pdfrwt>
<pdfrwt beam="2">  1       21 0.19755191E-01 0.20193296E+03</pdfrwt>
<totfact> 0.56945292E+04</totfact>
</mgrwt>
</event>
<event>
 4    1  0.3957190E+000  0.2587145E+03  0.7546771E-02  0.1107918E+00
         21   -1    0    0  503  502  0.00000000000E+00  0.00000000000E+00  0.15321712920E+03  0.15321712920E+03  0.00000000000E+00 0.  1.
         21   -1    0    0  501  503 -0.00000000000E+00 -0.00000000000E+00 -0.62760494660E+03  0.62760494660E+03  0.00000000000E+00 0. -1.
          6    1    1    2  501    0 -0.14940957958E+03 -0.12116495413E+03 -0.45242987242E+03  0.52117747268E+03  0.17300000000E+03 0. -1.
         -6    1    1    2    0  502  0.14940957958E+03  0.12116495413E+03 -0.21957944977E+02  0.25964460311E+03  0.17300000000E+03 0.  1.
<mgrwt>
<rscale>  2 0.25871445E+03</rscale>
<asrwt>0</asrwt>
<pdfrwt beam="1">  1       21 0.23571866E-01 0.25871445E+03</pdfrwt>
<pdfrwt beam="2">  1       21 0.96554608E-01 0.25871445E+03</pdfrwt>
<totfact> 0.14534967E+04</totfact>
</mgrwt>
</event>
<event>
 4    1  0.3957190E+000  0.1799463E+03  0.7546771E-02  0.1167855E+00
         21   -1    0    0  501  502  0.00000000000E+00  0.00000000000E+00  0.12710464378E+04  0.12710464378E+04  0.00000000000E+00 0.  1.
         21   -1    0    0  502  503 -0.00000000000E+00 -0.00000000000E+00 -0.29932938500E+02  0.29932938500E+02  0.00000000000E+00 0.  1.
          6    1    1    2  501    0 -0.29726709122E+02  0.39597771329E+02  0.87157420777E+03  0.88995632499E+03  0.17300000000E+03 0.  1.
         -6    1    1    2    0  503  0.29726709122E+02 -0.39597771329E+02  0.36953929154E+03  0.41102305133E+03  0.17300000000E+03 0.  1.
<mgrwt>
<rscale>  2 0.17994627E+03</rscale>
<asrwt>0</asrwt>
<pdfrwt beam="1">  1       21 0.19554556E+00 0.17994627E+03</pdfrwt>
<pdfrwt beam="2">  1       21 0.46050684E-02 0.17994627E+03</pdfrwt>
<totfact> 0.44730236E+04</totfact>
</mgrwt>
</event>
<event>
 4    1  0.3957190E+000  0.2097360E+03  0.7546771E-02  0.1141775E+00
         21   -1    0    0  503  502  0.00000000000E+00  0.00000000000E+00  0.16481245839E+03  0.16481245839E+03  0.00000000000E+00 0.  1.
         21   -1    0    0  501  503 -0.00000000000E+00 -0.00000000000E+00 -0.26849145808E+03  0.26849145808E+03  0.00000000000E+00 0. -1.
          6    1    1    2  501    0 -0.11337263948E+03 -0.34739298644E+02 -0.35182739913E+02  0.21266640412E+03  0.17300000000E+03 0.  1.
         -6    1    1    2    0  502  0.11337263948E+03  0.34739298644E+02 -0.68496259781E+02  0.22063751235E+03  0.17300000000E+03 0. -1.
<mgrwt>
<rscale>  2 0.20973596E+03</rscale>
<asrwt>0</asrwt>
<pdfrwt beam="1">  1       21 0.25355763E-01 0.20973596E+03</pdfrwt>
<pdfrwt beam="2">  1       21 0.41306378E-01 0.20973596E+03</pdfrwt>
<totfact> 0.82612400E+04</totfact>
</mgrwt>
</event>
<event>
 4    1  0.3957190E+000  0.1942110E+03  0.7546771E-02  0.1154717E+00
         21   -1    0    0  503  502  0.00000000000E+00  0.00000000000E+00  0.33452422624E+03  0.33452422624E+03  0.00000000000E+00 0. -1.
         21   -1    0    0  501  503 -0.00000000000E+00 -0.00000000000E+00 -0.12881089374E+03  0.12881089374E+03  0.00000000000E+00 0.  1.
          6    1    1    2  501    0 -0.78827246251E+02  0.39688660211E+02  0.21055229858E+02  0.19534903943E+03  0.17300000000E+03 0.  1.
         -6    1    1    2    0  502  0.78827246251E+02 -0.39688660211E+02  0.18465810264E+03  0.26798608056E+03  0.17300000000E+03 0. -1.
<mgrwt>
<rscale>  2 0.19421103E+03</rscale>
<asrwt>0</asrwt>
<pdfrwt beam="1">  1       21 0.51465265E-01 0.19421103E+03</pdfrwt>
<pdfrwt beam="2">  1       21 0.19817061E-01 0.19421103E+03</pdfrwt>
<totfact> 0.84186651E+04</totfact>
</mgrwt>
</event>
<event>
 4    1  0.3957190E+000  0.1965933E+03  0.7546771E-02  0.1152645E+00
         21   -1    0    0  503  502  0.00000000000E+00  0.00000000000E+00  0.90732281454E+02  0.90732281454E+02  0.00000000000E+00 0. -1.
         21   -1    0    0  501  503 -0.00000000000E+00 -0.00000000000E+00 -0.77341723841E+03  0.77341723841E+03  0.00000000000E+00 0. -1.
          6    1    1    2  501    0 -0.67731178261E+02 -0.64283843620E+02 -0.63094244383E+03  0.66086102358E+03  0.17300000000E+03 0. -1.
         -6    1    1    2    0  502  0.67731178261E+02  0.64283843620E+02 -0.51742513132E+02  0.20328849629E+03  0.17300000000E+03 0. -1.
<mgrwt>
<rscale>  2 0.19659330E+03</rscale>
<asrwt>0</asrwt>
<pdfrwt beam="1">  1       21 0.13958812E-01 0.19659330E+03</pdfrwt>
<pdfrwt beam="2">  1       21 0.11898727E+00 0.19659330E+03</pdfrwt>
<totfact> 0.24049944E+04</totfact>
</mgrwt>
</event>
<event>
 4    1  0.3957190E+000  0.2153594E+03  0.7546771E-02  0.1137391E+00
         21   -1    0    0  503  502  0.00000000000E+00  0.00000000000E+00  0.50793398407E+03  0.50793398407E+03  0.00000000000E+00 0.  1.
         21   -1    0    0  501  503 -0.00000000000E+00 -0.00000000000E+00 -0.91329188901E+02  0.91329188901E+02  0.00000000000E+00 0.  1.
          6    1    1    2  501    0  0.65501839657E+02  0.11027320160E+03  0.21259675351E+03  0.30261700150E+03  0.17300000000E+03 0.  1.
         -6    1    1    2    0  502 -0.65501839657E+02 -0.11027320160E+03  0.20400804165E+03  0.29664617147E+03  0.17300000000E+03 0.  1.
<mgrwt>
<rscale>  2 0.21535940E+03</rscale>
<asrwt>0</asrwt>
<pdfrwt beam="1">  1       21 0.78143688E-01 0.21535940E+03</pdfrwt>
<pdfrwt beam="2">  1       21 0.14050645E-01 0.21535940E+03</pdfrwt>
<totfact> 0.63390479E+04</totfact>
</mgrwt>
</event>
<event>
 4    1  0.3957190E+000  0.2924163E+03  0.7546771E-02  0.1089094E+00
         21   -1    0    0  503  502  0.00000000000E+00  0.00000000000E+00  0.10479115288E+04  0.10479115288E+04  0.00000000000E+00 0.  1.
         21   -1    0    0  501  503 -0.00000000000E+00 -0.00000000000E+00 -0.42180264742E+03  0.42180264742E+03  0.00000000000E+00 0.  1.
          6    1    1    2  501    0  0.62538467157E+02  0.22730421605E+03 -0.34690689222E+03  0.45370878146E+03  0.17300000000E+03 0.  1.
         -6    1    1    2    0  502 -0.62538467157E+02 -0.22730421605E+03  0.97301577363E+03  0.10160053948E+04  0.17300000000E+03 0.  1.
<mgrwt>
<rscale>  2 0.29241626E+03</rscale>
<asrwt>0</asrwt>
<pdfrwt beam="1">  1       21 0.16121716E+00 0.29241626E+03</pdfrwt>
<pdfrwt beam="2">  1       21 0.64892715E-01 0.29241626E+03</pdfrwt>
<totfact> 0.49120651E+02</totfact>
</mgrwt>
</event>
<event>
 4    1  0.3957190E+000  0.1980781E+03  0.7546771E-02  0.1151371E+00
         21   -1    0    0  503  502  0.00000000000E+00  0.00000000000E+00  0.84363533281E+02  0.84363533281E+02  0.00000000000E+00 0.  1.
         21   -1    0    0  501  503 -0.00000000000E+00 -0.00000000000E+00 -0.85305457544E+03  0.85305457544E+03  0.00000000000E+00 0.  1.
          6    1    1    2  501    0  0.33403233644E+01 -0.96409423835E+02 -0.70044389051E+03  0.72791247999E+03  0.17300000000E+03 0.  1.
         -6    1    1    2    0  502 -0.33403233644E+01  0.96409423835E+02 -0.68247151650E+02  0.20950562874E+03  0.17300000000E+03 0.  1.
<mgrwt>
<rscale>  2 0.19807810E+03</rscale>
<asrwt>0</asrwt>
<pdfrwt beam="1">  1       21 0.12979005E-01 0.19807810E+03</pdfrwt>
<pdfrwt beam="2">  1       21 0.13123916E+00 0.19807810E+03</pdfrwt>
<totfact> 0.21439158E+04</totfact>
</mgrwt>
</event>
<event>
 4    1  0.3957190E+000  0.2386468E+03  0.7546771E-02  0.1120698E+00
         21   -1    0    0  503  502  0.00000000000E+00  0.00000000000E+00  0.34591750502E+03  0.34591750502E+03  0.00000000000E+00 0.  1.
         21   -1    0    0  501  503 -0.00000000000E+00 -0.00000000000E+00 -0.17645814521E+03  0.17645814521E+03  0.00000000000E+00 0. -1.
          6    1    1    2  501    0 -0.74221445670E+02 -0.14667813557E+03  0.15231981894E+03  0.28311415664E+03  0.17300000000E+03 0.  1.
         -6    1    1    2    0  502  0.74221445670E+02  0.14667813557E+03  0.17139540869E+02  0.23926149358E+03  0.17300000000E+03 0.  1.
<mgrwt>
<rscale>  2 0.23864681E+03</rscale>
<asrwt>0</asrwt>
<pdfrwt beam="1">  1       21 0.53218078E-01 0.23864681E+03</pdfrwt>
<pdfrwt beam="2">  1       21 0.27147407E-01 0.23864681E+03</pdfrwt>
<totfact> 0.42308946E+04</totfact>
</mgrwt>
</event>
<event>
 4    1  0.3957190E+000  0.1862613E+03  0.7546771E-02  0.1161877E+00
         21   -1    0    0  503  502  0.00000000000E+00  0.00000000000E+00  0.14629333898E+04  0.14629333898E+04  0.00000000000E+00 0. -1.
         21   -1    0    0  501  503 -0.00000000000E+00 -0.00000000000E+00 -0.23720205717E+02  0.23720205717E+02  0.00000000000E+00 0. -1.
          6    1    1    2  501    0 -0.53639085209E+02  0.43441175416E+02  0.70846666915E+03  0.73254235951E+03  0.17300000000E+03 0. -1.
         -6    1    1    2    0  502  0.53639085209E+02 -0.43441175416E+02  0.73074651495E+03  0.75411123602E+03  0.17300000000E+03 0. -1.
<mgrwt>
<rscale>  2 0.18626134E+03</rscale>
<asrwt>0</asrwt>
<pdfrwt beam="1">  1       21 0.22506660E+00 0.18626134E+03</pdfrwt>
<pdfrwt beam="2">  1       21 0.36492636E-02 0.18626134E+03</pdfrwt>
<totfact> 0.43000149E+04</totfact>
</mgrwt>
</event>
<event>
 4    1  0.3957190E+000  0.2453962E+03  0.7546771E-02  0.1116249E+00
         21   -1    0    0  503  502  0.00000000000E+00  0.00000000000E+00  0.79850896995E+03  0.79850896995E+03  0.00000000000E+00 0.  1.
         21   -1    0    0  501  503 -0.00000000000E+00 -0.00000000000E+00 -0.77060944166E+02  0.77060944166E+02  0.00000000000E+00 0. -1.
          6    1    1    2  501    0 -0.17337649881E+03  0.15194736210E+02  0.29673656756E+03  0.38506087944E+03  0.17300000000E+03 0.  1.
         -6    1    1    2    0  502  0.17337649881E+03 -0.15194736210E+02  0.42471145823E+03  0.49050903468E+03  0.17300000000E+03 0. -1.
<mgrwt>
<rscale>  2 0.24539619E+03</rscale>
<asrwt>0</asrwt>
<pdfrwt beam="1">  1       21 0.12284753E+00 0.24539619E+03</pdfrwt>
<pdfrwt beam="2">  1       21 0.11855530E-01 0.24539619E+03</pdfrwt>
<totfact> 0.29022422E+04</totfact>
</mgrwt>
</event>
<event>
 4    1  0.3957190E+000  0.2851067E+03  0.7546771E-02  0.1092932E+00
         21   -1    0    0  503  502  0.00000000000E+00  0.00000000000E+00  0.65272572178E+03  0.65272572178E+03  0.00000000000E+00 0. -1.
         21   -1    0    0  501  503 -0.00000000000E+00 -0.00000000000E+00 -0.14090649298E+03  0.14090649298E+03  0.00000000000E+00 0. -1.
          6    1    1    2  501    0  0.21641941569E+03 -0.67226849618E+02  0.12064130128E+03  0.30958058138E+03  0.17300000000E+03 0. -1.
         -6    1    1    2    0  502 -0.21641941569E+03  0.67226849618E+02  0.39117792752E+03  0.48405163338E+03  0.17300000000E+03 0. -1.
<mgrwt>
<rscale>  2 0.28510667E+03</rscale>
<asrwt>0</asrwt>
<pdfrwt beam="1">  1       21 0.10041934E+00 0.28510667E+03</pdfrwt>
<pdfrwt beam="2">  1       21 0.21677923E-01 0.28510667E+03</pdfrwt>
<totfact> 0.15330424E+04</totfact>
</mgrwt>
</event>
<event>
 4    1  0.3957190E+000  0.1912154E+03  0.7546771E-02  0.1157370E+00
         21   -1    0    0  501  502  0.00000000000E+00  0.00000000000E+00  0.90819256337E+03  0.90819256337E+03  0.00000000000E+00 0. -1.
         21   -1    0    0  502  503 -0.00000000000E+00 -0.00000000000E+00 -0.44519481657E+02  0.44519481657E+02  0.00000000000E+00 0.  1.
          6    1    1    2  501    0  0.70256833074E+02 -0.41210732656E+02  0.57919064588E+03  0.60993864557E+03  0.17300000000E+03 0. -1.
         -6    1    1    2    0  503 -0.70256833074E+02  0.41210732656E+02  0.28448243582E+03  0.34277339945E+03  0.17300000000E+03 0.  1.
<mgrwt>
<rscale>  2 0.19121545E+03</rscale>
<asrwt>0</asrwt>
<pdfrwt beam="1">  1       21 0.13972192E+00 0.19121545E+03</pdfrwt>
<pdfrwt beam="2">  1       21 0.68491517E-02 0.19121545E+03</pdfrwt>
<totfact> 0.56535400E+04</totfact>
</mgrwt>
</event>
<event>
 4    1  0.3957190E+000  0.1994042E+03  0.7546771E-02  0.1150243E+00
         21   -1    0    0  503  502  0.00000000000E+00  0.00000000000E+00  0.82783250323E+02  0.82783250323E+02  0.00000000000E+00 0.  1.
         21   -1    0    0  501  503 -0.00000000000E+00 -0.00000000000E+00 -0.13347579435E+04  0.13347579435E+04  0.00000000000E+00 0. -1.
          6    1    1    2  501    0  0.73398086690E+01  0.98889567867E+02 -0.58905136908E+02  0.20792266490E+03  0.17300000000E+03 0.  1.
         -6    1    1    2    0  502 -0.73398086690E+01 -0.98889567867E+02 -0.11930695563E+04  0.12096185290E+04  0.17300000000E+03 0. -1.
<mgrwt>
<rscale>  2 0.19940416E+03</rscale>
<asrwt>0</asrwt>
<pdfrwt beam="1">  1       21 0.12735884E-01 0.19940416E+03</pdfrwt>
<pdfrwt beam="2">  1       21 0.20534739E+00 0.19940416E+03</pdfrwt>
<totfact> 0.65074469E+03</totfact>
</mgrwt>
</event>
<event>
 4    1  0.3957190E+000  0.3370904E+03  0.7546771E-02  0.1068042E+00
         21   -1    0    0  503  502  0.00000000000E+00  0.00000000000E+00  0.37232871466E+03  0.37232871466E+03  0.00000000000E+00 0. -1.
         21   -1    0    0  501  503 -0.00000000000E+00 -0.00000000000E+00 -0.69188393734E+03  0.69188393734E+03  0.00000000000E+00 0. -1.
          6    1    1    2  501    0  0.28910320451E+03  0.10967084946E+02 -0.55757971846E+03  0.65155589342E+03  0.17300000000E+03 0. -1.
         -6    1    1    2    0  502 -0.28910320451E+03 -0.10967084946E+02  0.23802449579E+03  0.41265675858E+03  0.17300000000E+03 0. -1.
<mgrwt>
<rscale>  2 0.33709040E+03</rscale>
<asrwt>0</asrwt>
<pdfrwt beam="1">  1       21 0.57281341E-01 0.33709040E+03</pdfrwt>
<pdfrwt beam="2">  1       21 0.10644368E+00 0.33709040E+03</pdfrwt>
<totfact> 0.18291237E+03</totfact>
</mgrwt>
</event>
<event>
 4    1  0.3957190E+000  0.2624110E+03  0.7546771E-02  0.1105703E+00
         21   -1    0    0  503  502  0.00000000000E+00  0.00000000000E+00  0.50393361100E+03  0.50393361100E+03  0.00000000000E+00 0. -1.
         21   -1    0    0  501  503 -0.00000000000E+00 -0.00000000000E+00 -0.13716691254E+03  0.13716691254E+03  0.00000000000E+00 0.  1.
          6    1    1    2  501    0 -0.18418771913E+03  0.70748827674E+02  0.16359182402E+03  0.30922774355E+03  0.17300000000E+03 0.  1.
         -6    1    1    2    0  502  0.18418771913E+03 -0.70748827674E+02  0.20317487444E+03  0.33187277999E+03  0.17300000000E+03 0. -1.
<mgrwt>
<rscale>  2 0.26241096E+03</rscale>
<asrwt>0</asrwt>
<pdfrwt beam="1">  1       21 0.77528247E-01 0.26241096E+03</pdfrwt>
<pdfrwt beam="2">  1       21 0.21102602E-01 0.26241096E+03</pdfrwt>
<totfact> 0.29768250E+04</totfact>
</mgrwt>
</event>
<event>
 4    1  0.3957190E+000  0.1781558E+03  0.7546771E-02  0.1169600E+00
         21   -1    0    0  501  502  0.00000000000E+00  0.00000000000E+00  0.31079404829E+03  0.31079404829E+03  0.00000000000E+00 0. -1.
         21   -1    0    0  502  503 -0.00000000000E+00 -0.00000000000E+00 -0.14604731271E+03  0.14604731271E+03  0.00000000000E+00 0. -1.
          6    1    1    2  501    0  0.28276219015E+02 -0.31795474122E+02  0.20764038337E+03  0.27359463727E+03  0.17300000000E+03 0. -1.
         -6    1    1    2    0  503 -0.28276219015E+02  0.31795474122E+02 -0.42893647789E+02  0.18324672373E+03  0.17300000000E+03 0. -1.
<mgrwt>
<rscale>  2 0.17815582E+03</rscale>
<asrwt>0</asrwt>
<pdfrwt beam="1">  1       21 0.47814469E-01 0.17815582E+03</pdfrwt>
<pdfrwt beam="2">  1       21 0.22468817E-01 0.17815582E+03</pdfrwt>
<totfact> 0.78029907E+04</totfact>
</mgrwt>
</event>
<event>
 4    1  0.3957190E+000  0.2540784E+03  0.7546771E-02  0.1110754E+00
         21   -1    0    0  501  502  0.00000000000E+00  0.00000000000E+00  0.20022066205E+04  0.20022066205E+04  0.00000000000E+00 0. -1.
         21   -1    0    0  502  503 -0.00000000000E+00 -0.00000000000E+00 -0.44568290075E+02  0.44568290075E+02  0.00000000000E+00 0.  1.
          6    1    1    2  501    0  0.11743962510E+03 -0.14434256226E+03  0.44062723679E+03  0.50863366250E+03  0.17300000000E+03 0.  1.
         -6    1    1    2    0  503 -0.11743962510E+03  0.14434256226E+03  0.15170110936E+04  0.15381412480E+04  0.17300000000E+03 0. -1.
<mgrwt>
<rscale>  2 0.25407841E+03</rscale>
<asrwt>0</asrwt>
<pdfrwt beam="1">  1       21 0.30803172E+00 0.25407841E+03</pdfrwt>
<pdfrwt beam="2">  1       21 0.68566615E-02 0.25407841E+03</pdfrwt>
<totfact> 0.45133447E+03</totfact>
</mgrwt>
</event>
<event>
 4    1  0.3957190E+000  0.2885896E+03  0.7546771E-02  0.1091088E+00
         21   -1    0    0  501  502  0.00000000000E+00  0.00000000000E+00  0.62258618053E+02  0.62258618053E+02  0.00000000000E+00 0.  1.
         21   -1    0    0  502  503 -0.00000000000E+00 -0.00000000000E+00 -0.13412924975E+04  0.13412924975E+04  0.00000000000E+00 0. -1.
          6    1    1    2  501    0  0.16739908333E+02  0.23037949567E+03 -0.67578862990E+03  0.73482937398E+03  0.17300000000E+03 0. -1.
         -6    1    1    2    0  503 -0.16739908333E+02 -0.23037949567E+03 -0.60324524951E+03  0.66872174154E+03  0.17300000000E+03 0.  1.
<mgrwt>
<rscale>  2 0.28858956E+03</rscale>
<asrwt>0</asrwt>
<pdfrwt beam="1">  1       21 0.95782486E-02 0.28858956E+03</pdfrwt>
<pdfrwt beam="2">  1       21 0.20635270E+00 0.28858956E+03</pdfrwt>
<totfact> 0.10006338E+04</totfact>
</mgrwt>
</event>
<event>
 4    1  0.3957190E+000  0.2004998E+03  0.7546771E-02  0.1149318E+00
         21   -1    0    0  501  502  0.00000000000E+00  0.00000000000E+00  0.16202510718E+02  0.16202510718E+02  0.00000000000E+00 0. -1.
         21   -1    0    0  502  503 -0.00000000000E+00 -0.00000000000E+00 -0.30819542538E+04  0.30819542538E+04  0.00000000000E+00 0. -1.
          6    1    1    2  501    0 -0.10129285203E+03 -0.33075448350E+01 -0.84889821250E+03  0.87225475459E+03  0.17300000000E+03 0. -1.
         -6    1    1    2    0  503  0.10129285203E+03  0.33075448350E+01 -0.22168535306E+04  0.22259020099E+04  0.17300000000E+03 0. -1.
<mgrwt>
<rscale>  2 0.20049983E+03</rscale>
<asrwt>0</asrwt>
<pdfrwt beam="1">  1       21 0.24926924E-02 0.20049983E+03</pdfrwt>
<pdfrwt beam="2">  1       21 0.47414710E+00 0.20049983E+03</pdfrwt>
<totfact> 0.24293861E+03</totfact>
</mgrwt>
</event>
<event>
 4    1  0.3957190E+000  0.2071728E+03  0.7546771E-02  0.1143825E+00
         21   -1    0    0  501  502  0.00000000000E+00  0.00000000000E+00  0.45893786261E+03  0.45893786261E+03  0.00000000000E+00 0. -1.
         21   -1    0    0  502  503 -0.00000000000E+00 -0.00000000000E+00 -0.16429344650E+03  0.16429344650E+03  0.00000000000E+00 0.  1.
          6    1    1    2  501    0 -0.11009762800E+03 -0.29497311881E+02  0.35184399173E+03  0.40830720495E+03  0.17300000000E+03 0. -1.
         -6    1    1    2    0  503  0.11009762800E+03  0.29497311881E+02 -0.57199575620E+02  0.21492410416E+03  0.17300000000E+03 0.  1.
<mgrwt>
<rscale>  2 0.20717282E+03</rscale>
<asrwt>0</asrwt>
<pdfrwt beam="1">  1       21 0.70605825E-01 0.20717282E+03</pdfrwt>
<pdfrwt beam="2">  1       21 0.25275915E-01 0.20717282E+03</pdfrwt>
<totfact> 0.26744517E+04</totfact>
</mgrwt>
</event>
<event>
 4    1  0.3957190E+000  0.2305269E+03  0.7546771E-02  0.1126269E+00
         21   -1    0    0  501  502  0.00000000000E+00  0.00000000000E+00  0.74806772669E+03  0.74806772669E+03  0.00000000000E+00 0. -1.
         21   -1    0    0  502  503 -0.00000000000E+00 -0.00000000000E+00 -0.78977853636E+02  0.78977853636E+02  0.00000000000E+00 0. -1.
          6    1    1    2  501    0  0.12729608643E+03 -0.83721786403E+02  0.20344514763E+03  0.30746147601E+03  0.17300000000E+03 0. -1.
         -6    1    1    2    0  503 -0.12729608643E+03  0.83721786403E+02  0.46564472542E+03  0.51958410431E+03  0.17300000000E+03 0. -1.
<mgrwt>
<rscale>  2 0.23052686E+03</rscale>
<asrwt>0</asrwt>
<pdfrwt beam="1">  1       21 0.11508734E+00 0.23052686E+03</pdfrwt>
<pdfrwt beam="2">  1       21 0.12150440E-01 0.23052686E+03</pdfrwt>
<totfact> 0.32894070E+04</totfact>
</mgrwt>
</event>
<event>
 4    1  0.3957190E+000  0.2011998E+03  0.7546771E-02  0.1148731E+00
         21   -1    0    0  501  502  0.00000000000E+00  0.00000000000E+00  0.19149279972E+03  0.19149279972E+03  0.00000000000E+00 0.  1.
         21   -1    0    0  502  503 -0.00000000000E+00 -0.00000000000E+00 -0.23019205143E+03  0.23019205143E+03  0.00000000000E+00 0.  1.
          6    1    1    2  501    0 -0.36527742610E+01 -0.10265974116E+03  0.40894231245E+02  0.20531367067E+03  0.17300000000E+03 0.  1.
         -6    1    1    2    0  503  0.36527742610E+01  0.10265974116E+03 -0.79593482948E+02  0.21637118048E+03  0.17300000000E+03 0.  1.
<mgrwt>
<rscale>  2 0.20119981E+03</rscale>
<asrwt>0</asrwt>
<pdfrwt beam="1">  1       21 0.29460431E-01 0.20119981E+03</pdfrwt>
<pdfrwt beam="2">  1       21 0.35414162E-01 0.20119981E+03</pdfrwt>
<totfact> 0.84561204E+04</totfact>
</mgrwt>
</event>
<event>
 4    1  0.3957190E+000  0.1965364E+03  0.7546771E-02  0.1152695E+00
         21   -1    0    0  501  502  0.00000000000E+00  0.00000000000E+00  0.91097043739E+03  0.91097043739E+03  0.00000000000E+00 0.  1.
         21   -1    0    0  502  503 -0.00000000000E+00 -0.00000000000E+00 -0.42640116584E+02  0.42640116584E+02  0.00000000000E+00 0.  1.
          6    1    1    2  501    0  0.22624797097E+02 -0.90474822657E+02  0.39850196514E+03  0.44433139794E+03  0.17300000000E+03 0.  1.
         -6    1    1    2    0  503 -0.22624797097E+02  0.90474822657E+02  0.46982835566E+03  0.50927915603E+03  0.17300000000E+03 0.  1.
<mgrwt>
<rscale>  2 0.19653645E+03</rscale>
<asrwt>0</asrwt>
<pdfrwt beam="1">  1       21 0.14014928E+00 0.19653645E+03</pdfrwt>
<pdfrwt beam="2">  1       21 0.65600186E-02 0.19653645E+03</pdfrwt>
<totfact> 0.60246199E+04</totfact>
</mgrwt>
</event>
<event>
 4    1  0.3957190E+000  0.2222240E+03  0.7546771E-02  0.1132236E+00
         21   -1    0    0  501  502  0.00000000000E+00  0.00000000000E+00  0.10527471826E+03  0.10527471826E+03  0.00000000000E+00 0.  1.
         21   -1    0    0  502  503 -0.00000000000E+00 -0.00000000000E+00 -0.48953445021E+03  0.48953445021E+03  0.00000000000E+00 0. -1.
          6    1    1    2  501    0  0.13905632390E+03  0.10856414354E+02 -0.13135513764E+03  0.25814278052E+03  0.17300000000E+03 0.  1.
         -6    1    1    2    0  503 -0.13905632390E+03 -0.10856414354E+02 -0.25290459432E+03  0.33666638795E+03  0.17300000000E+03 0. -1.
<mgrwt>
<rscale>  2 0.22222404E+03</rscale>
<asrwt>0</asrwt>
<pdfrwt beam="1">  1       21 0.16196110E-01 0.22222404E+03</pdfrwt>
<pdfrwt beam="2">  1       21 0.75312992E-01 0.22222404E+03</pdfrwt>
<totfact> 0.52964478E+04</totfact>
</mgrwt>
</event>
<event>
 4    1  0.3957190E+000  0.2375742E+03  0.7546771E-02  0.1121419E+00
         21   -1    0    0  501  502  0.00000000000E+00  0.00000000000E+00  0.31000727977E+03  0.31000727977E+03  0.00000000000E+00 0.  1.
         21   -1    0    0  502  503 -0.00000000000E+00 -0.00000000000E+00 -0.30982303757E+03  0.30982303757E+03  0.00000000000E+00 0.  1.
          6    1    1    2  501    0 -0.12437154571E+03  0.10509139488E+03  0.19910447731E+03  0.30997431433E+03  0.17300000000E+03 0.  1.
         -6    1    1    2    0  503  0.12437154571E+03 -0.10509139488E+03 -0.19892023512E+03  0.30985600301E+03  0.17300000000E+03 0.  1.
<mgrwt>
<rscale>  2 0.23757416E+03</rscale>
<asrwt>0</asrwt>
<pdfrwt beam="1">  1       21 0.47693428E-01 0.23757416E+03</pdfrwt>
<pdfrwt beam="2">  1       21 0.47665083E-01 0.23757416E+03</pdfrwt>
<totfact> 0.17236814E+04</totfact>
</mgrwt>
</event>
<event>
 4    1  0.3957190E+000  0.2477109E+03  0.7546771E-02  0.1114760E+00
         21   -1    0    0  501  502  0.00000000000E+00  0.00000000000E+00  0.40373634346E+02  0.40373634346E+02  0.00000000000E+00 0.  1.
         21   -1    0    0  502  503 -0.00000000000E+00 -0.00000000000E+00 -0.15216495018E+04  0.15216495018E+04  0.00000000000E+00 0.  1.
          6    1    1    2  501    0  0.74485161759E+02  0.16088391870E+03 -0.71356005587E+03  0.75533345481E+03  0.17300000000E+03 0.  1.
         -6    1    1    2    0  503 -0.74485161759E+02 -0.16088391870E+03 -0.76771581160E+03  0.80668968135E+03  0.17300000000E+03 0.  1.
<mgrwt>
<rscale>  2 0.24771087E+03</rscale>
<asrwt>0</asrwt>
<pdfrwt beam="1">  1       21 0.62113282E-02 0.24771087E+03</pdfrwt>
<pdfrwt beam="2">  1       21 0.23409993E+00 0.24771087E+03</pdfrwt>
<totfact> 0.14704615E+04</totfact>
</mgrwt>
</event>
<event>
 4    1  0.3957190E+000  0.2635387E+03  0.7546771E-02  0.1105036E+00
         21   -1    0    0  501  502  0.00000000000E+00  0.00000000000E+00  0.58268840884E+03  0.58268840884E+03  0.00000000000E+00 0. -1.
         21   -1    0    0  502  503 -0.00000000000E+00 -0.00000000000E+00 -0.21907623623E+03  0.21907623623E+03  0.00000000000E+00 0. -1.
          6    1    1    2  501    0 -0.16721887615E+03  0.10752448613E+03  0.45249127814E+03  0.52364207666E+03  0.17300000000E+03 0. -1.
         -6    1    1    2    0  503  0.16721887615E+03 -0.10752448613E+03 -0.88879105523E+02  0.27812256841E+03  0.17300000000E+03 0. -1.
<mgrwt>
<rscale>  2 0.26353874E+03</rscale>
<asrwt>0</asrwt>
<pdfrwt beam="1">  1       21 0.89644371E-01 0.26353874E+03</pdfrwt>
<pdfrwt beam="2">  1       21 0.33704036E-01 0.26353874E+03</pdfrwt>
<totfact> 0.85982381E+03</totfact>
</mgrwt>
</event>
<event>
 4    1  0.3957190E+000  0.1923500E+03  0.7546771E-02  0.1156359E+00
         21   -1    0    0  501  502  0.00000000000E+00  0.00000000000E+00  0.87764207974E+03  0.87764207974E+03  0.00000000000E+00 0.  1.
         21   -1    0    0  502  503 -0.00000000000E+00 -0.00000000000E+00 -0.57130143761E+02  0.57130143761E+02  0.00000000000E+00 0.  1.
          6    1    1    2  501    0 -0.43967431488E+01  0.83965438707E+02  0.64953434684E+03  0.67741670630E+03  0.17300000000E+03 0.  1.
         -6    1    1    2    0  503  0.43967431488E+01 -0.83965438707E+02  0.17097758915E+03  0.25735551721E+03  0.17300000000E+03 0.  1.
<mgrwt>
<rscale>  2 0.19235001E+03</rscale>
<asrwt>0</asrwt>
<pdfrwt beam="1">  1       21 0.13502185E+00 0.19235001E+03</pdfrwt>
<pdfrwt beam="2">  1       21 0.87892535E-02 0.19235001E+03</pdfrwt>
<totfact> 0.39992486E+04</totfact>
</mgrwt>
</event>
<event>
 4    1  0.3957190E+000  0.1795944E+03  0.7546771E-02  0.1168196E+00
         21   -1    0    0  503  502  0.00000000000E+00  0.00000000000E+00  0.26088650063E+03  0.26088650063E+03  0.00000000000E+00 0.  1.
         21   -1    0    0  501  503 -0.00000000000E+00 -0.00000000000E+00 -0.16443189375E+03  0.16443189375E+03  0.00000000000E+00 0.  1.
          6    1    1    2  501    0 -0.23267351014E+02  0.42234605456E+02  0.15415666102E+03  0.23668208141E+03  0.17300000000E+03 0.  1.
         -6    1    1    2    0  502  0.23267351014E+02 -0.42234605456E+02 -0.57702054137E+02  0.18863631298E+03  0.17300000000E+03 0.  1.
<mgrwt>
<rscale>  2 0.17959435E+03</rscale>
<asrwt>0</asrwt>
<pdfrwt beam="1">  1       21 0.40136385E-01 0.17959435E+03</pdfrwt>
<pdfrwt beam="2">  1       21 0.25297214E-01 0.17959435E+03</pdfrwt>
<totfact> 0.89043127E+04</totfact>
</mgrwt>
</event>
<event>
 4    1  0.3957190E+000  0.2183178E+03  0.7546771E-02  0.1135143E+00
         21   -1    0    0  503  502  0.00000000000E+00  0.00000000000E+00  0.58942664134E+03  0.58942664134E+03  0.00000000000E+00 0. -1.
         21   -1    0    0  501  503 -0.00000000000E+00 -0.00000000000E+00 -0.87386857539E+02  0.87386857539E+02  0.00000000000E+00 0.  1.
          6    1    1    2  501    0 -0.10532115611E+03  0.81492934681E+02  0.15855489759E+03  0.26981901319E+03  0.17300000000E+03 0. -1.
         -6    1    1    2    0  502  0.10532115611E+03 -0.81492934681E+02  0.34348488621E+03  0.40699448569E+03  0.17300000000E+03 0. -1.
<mgrwt>
<rscale>  2 0.21831776E+03</rscale>
<asrwt>0</asrwt>
<pdfrwt beam="1">  1       21 0.90681019E-01 0.21831776E+03</pdfrwt>
<pdfrwt beam="2">  1       21 0.13444132E-01 0.21831776E+03</pdfrwt>
<totfact> 0.48768595E+04</totfact>
</mgrwt>
</event>
<event>
 4    1  0.3957190E+000  0.2102659E+03  0.7546771E-02  0.1141356E+00
         21   -1    0    0  501  502  0.00000000000E+00  0.00000000000E+00  0.28636000034E+03  0.28636000034E+03  0.00000000000E+00 0. -1.
         21   -1    0    0  502  503 -0.00000000000E+00 -0.00000000000E+00 -0.32794152208E+03  0.32794152208E+03  0.00000000000E+00 0. -1.
          6    1    1    2  501    0  0.11863697134E+03 -0.14422254485E+02  0.20265130169E+03  0.29202616744E+03  0.17300000000E+03 0. -1.
         -6    1    1    2    0  503 -0.11863697134E+03  0.14422254485E+02 -0.24423282343E+03  0.32227535499E+03  0.17300000000E+03 0. -1.
<mgrwt>
<rscale>  2 0.21026586E+03</rscale>
<asrwt>0</asrwt>
<pdfrwt beam="1">  1       21 0.44055385E-01 0.21026586E+03</pdfrwt>
<pdfrwt beam="2">  1       21 0.50452542E-01 0.21026586E+03</pdfrwt>
<totfact> 0.18311728E+04</totfact>
</mgrwt>
</event>
<event>
 4    1  0.3957190E+000  0.1891326E+03  0.7546771E-02  0.1159246E+00
         21   -1    0    0  503  502  0.00000000000E+00  0.00000000000E+00  0.47048936050E+03  0.47048936050E+03  0.00000000000E+00 0.  1.
         21   -1    0    0  501  503 -0.00000000000E+00 -0.00000000000E+00 -0.85562642150E+02  0.85562642150E+02  0.00000000000E+00 0.  1.
          6    1    1    2  501    0  0.76323667836E+02  0.41020302795E+01  0.28526561692E+03  0.34226831744E+03  0.17300000000E+03 0.  1.
         -6    1    1    2    0  502 -0.76323667836E+02 -0.41020302795E+01  0.99661101428E+02  0.21378368521E+03  0.17300000000E+03 0.  1.
<mgrwt>
<rscale>  2 0.18913257E+03</rscale>
<asrwt>0</asrwt>
<pdfrwt beam="1">  1       21 0.72382977E-01 0.18913257E+03</pdfrwt>
<pdfrwt beam="2">  1       21 0.13163484E-01 0.18913257E+03</pdfrwt>
<totfact> 0.85641389E+04</totfact>
</mgrwt>
</event>
<event>
 4    1  0.3957190E+000  0.2345159E+03  0.7546771E-02  0.1123501E+00
         21   -1    0    0  501  502  0.00000000000E+00  0.00000000000E+00  0.11840479680E+04  0.11840479680E+04  0.00000000000E+00 0. -1.
         21   -1    0    0  502  503 -0.00000000000E+00 -0.00000000000E+00 -0.13476525521E+03  0.13476525521E+03  0.00000000000E+00 0. -1.
          6    1    1    2  501    0 -0.91014756071E+02  0.12955694455E+03  0.10584492307E+04  0.10841182877E+04  0.17300000000E+03 0. -1.
         -6    1    1    2    0  503  0.91014756071E+02 -0.12955694455E+03 -0.91665179341E+01  0.23469493551E+03  0.17300000000E+03 0. -1.
<mgrwt>
<rscale>  2 0.23451586E+03</rscale>
<asrwt>0</asrwt>
<pdfrwt beam="1">  1       21 0.18216122E+00 0.23451586E+03</pdfrwt>
<pdfrwt beam="2">  1       21 0.20733117E-01 0.23451586E+03</pdfrwt>
<totfact> 0.36611474E+03</totfact>
</mgrwt>
</event>
<event>
 4    1  0.3957190E+000  0.2092128E+03  0.7546771E-02  0.1142191E+00
         21   -1    0    0  503  502  0.00000000000E+00  0.00000000000E+00  0.22309789455E+03  0.22309789455E+03  0.00000000000E+00 0.  1.
         21   -1    0    0  501  503 -0.00000000000E+00 -0.00000000000E+00 -0.19824190111E+03  0.19824190111E+03  0.00000000000E+00 0. -1.
          6    1    1    2  501    0 -0.26714523838E+01 -0.11761747972E+03 -0.89948819455E+01  0.20940610329E+03  0.17300000000E+03 0. -1.
         -6    1    1    2    0  502  0.26714523838E+01  0.11761747972E+03  0.33850875386E+02  0.21193369236E+03  0.17300000000E+03 0.  1.
<mgrwt>
<rscale>  2 0.20921283E+03</rscale>
<asrwt>0</asrwt>
<pdfrwt beam="1">  1       21 0.34322753E-01 0.20921283E+03</pdfrwt>
<pdfrwt beam="2">  1       21 0.30498754E-01 0.20921283E+03</pdfrwt>
<totfact> 0.83824421E+04</totfact>
</mgrwt>
</event>
<event>
 4    1  0.3957190E+000  0.1954419E+03  0.7546771E-02  0.1153643E+00
         21   -1    0    0  501  502  0.00000000000E+00  0.00000000000E+00  0.67339398556E+02  0.67339398556E+02  0.00000000000E+00 0. -1.
         21   -1    0    0  502  503 -0.00000000000E+00 -0.00000000000E+00 -0.83103153270E+03  0.83103153270E+03  0.00000000000E+00 0. -1.
          6    1    1    2  501    0  0.69417836316E+02  0.58734257576E+02 -0.12877179401E+03  0.23405068670E+03  0.17300000000E+03 0. -1.
         -6    1    1    2    0  503 -0.69417836316E+02 -0.58734257576E+02 -0.63492034013E+03  0.66432024455E+03  0.17300000000E+03 0. -1.
<mgrwt>
<rscale>  2 0.19544193E+03</rscale>
<asrwt>0</asrwt>
<pdfrwt beam="1">  1       21 0.10359909E-01 0.19544193E+03</pdfrwt>
<pdfrwt beam="2">  1       21 0.12785099E+00 0.19544193E+03</pdfrwt>
<totfact> 0.34306527E+04</totfact>
</mgrwt>
</event>
<event>
 4    1  0.3957190E+000  0.1916731E+03  0.7546771E-02  0.1156961E+00
         21   -1    0    0  503  502  0.00000000000E+00  0.00000000000E+00  0.29398283253E+03  0.29398283253E+03  0.00000000000E+00 0. -1.
         21   -1    0    0  501  503 -0.00000000000E+00 -0.00000000000E+00 -0.12773226485E+03  0.12773226485E+03  0.00000000000E+00 0. -1.
          6    1    1    2  501    0  0.24576293030E+02 -0.78775425887E+02  0.52108421378E+02  0.19862993098E+03  0.17300000000E+03 0.  1.
         -6    1    1    2    0  502 -0.24576293030E+02  0.78775425887E+02  0.11414214631E+03  0.22308516640E+03  0.17300000000E+03 0.  1.
<mgrwt>
<rscale>  2 0.19167306E+03</rscale>
<asrwt>0</asrwt>
<pdfrwt beam="1">  1       21 0.45228128E-01 0.19167306E+03</pdfrwt>
<pdfrwt beam="2">  1       21 0.19651118E-01 0.19167306E+03</pdfrwt>
<totfact> 0.11191186E+05</totfact>
</mgrwt>
</event>
<event>
 4    1  0.3957190E+000  0.1803499E+03  0.7546771E-02  0.1167465E+00
         21   -1    0    0  501  502  0.00000000000E+00  0.00000000000E+00  0.60185720292E+03  0.60185720292E+03  0.00000000000E+00 0. -1.
         21   -1    0    0  502  503 -0.00000000000E+00 -0.00000000000E+00 -0.62293150781E+02  0.62293150781E+02  0.00000000000E+00 0. -1.
          6    1    1    2  501    0  0.68481952244E+01  0.50499457800E+02  0.39063310205E+03  0.43025610214E+03  0.17300000000E+03 0. -1.
         -6    1    1    2    0  503 -0.68481952244E+01 -0.50499457800E+02  0.14893095009E+03  0.23389425156E+03  0.17300000000E+03 0. -1.
<mgrwt>
<rscale>  2 0.18034992E+03</rscale>
<asrwt>0</asrwt>
<pdfrwt beam="1">  1       21 0.92593412E-01 0.18034992E+03</pdfrwt>
<pdfrwt beam="2">  1       21 0.95835621E-02 0.18034992E+03</pdfrwt>
<totfact> 0.86476606E+04</totfact>
</mgrwt>
</event>
<event>
 4    1  0.3957190E+000  0.1993010E+03  0.7546771E-02  0.1150330E+00
         21   -1    0    0  501  502  0.00000000000E+00  0.00000000000E+00  0.75529150602E+02  0.75529150602E+02  0.00000000000E+00 0.  1.
         21   -1    0    0  502  503 -0.00000000000E+00 -0.00000000000E+00 -0.62501857583E+03  0.62501857583E+03  0.00000000000E+00 0.  1.
          6    1    1    2  501    0 -0.69846493359E+02 -0.70095246831E+02 -0.13525698059E+03  0.24086371055E+03  0.17300000000E+03 0.  1.
         -6    1    1    2    0  503  0.69846493359E+02  0.70095246831E+02 -0.41423244464E+03  0.45968401588E+03  0.17300000000E+03 0.  1.
<mgrwt>
<rscale>  2 0.19930097E+03</rscale>
<asrwt>0</asrwt>
<pdfrwt beam="1">  1       21 0.11619869E-01 0.19930097E+03</pdfrwt>
<pdfrwt beam="2">  1       21 0.96156705E-01 0.19930097E+03</pdfrwt>
<totfact> 0.55783061E+04</totfact>
</mgrwt>
</event>
<event>
 4    1  0.3957190E+000  0.5968958E+03  0.7546771E-02  0.9911867E-01
         21   -1    0    0  503  502  0.00000000000E+00  0.00000000000E+00  0.54312898271E+03  0.54312898271E+03  0.00000000000E+00 0. -1.
         21   -1    0    0  501  503 -0.00000000000E+00 -0.00000000000E+00 -0.11889250654E+04  0.11889250654E+04  0.00000000000E+00 0. -1.
          6    1    1    2  501    0  0.56028917930E+03  0.11149698585E+03 -0.90271822705E+03  0.10822128902E+04  0.17300000000E+03 0. -1.
         -6    1    1    2    0  502 -0.56028917930E+03 -0.11149698585E+03  0.25692214433E+03  0.64984115793E+03  0.17300000000E+03 0. -1.
<mgrwt>
<rscale>  2 0.59689575E+03</rscale>
<asrwt>0</asrwt>
<pdfrwt beam="1">  1       21 0.83558307E-01 0.59689575E+03</pdfrwt>
<pdfrwt beam="2">  1       21 0.18291154E+00 0.59689575E+03</pdfrwt>
<totfact> 0.16389458E+02</totfact>
</mgrwt>
</event>
<event>
 4    1  0.3957190E+000  0.2687624E+03  0.7546771E-02  0.1101990E+00
         21   -1    0    0  501  502  0.00000000000E+00  0.00000000000E+00  0.11019885523E+03  0.11019885523E+03  0.00000000000E+00 0.  1.
         21   -1    0    0  502  503 -0.00000000000E+00 -0.00000000000E+00 -0.75023771644E+03  0.75023771644E+03  0.00000000000E+00 0. -1.
          6    1    1    2  501    0  0.53728477762E+02  0.19853832646E+03 -0.47291511956E+03  0.54395029801E+03  0.17300000000E+03 0. -1.
         -6    1    1    2    0  503 -0.53728477762E+02 -0.19853832646E+03 -0.16712374165E+03  0.31648627367E+03  0.17300000000E+03 0.  1.
<mgrwt>
<rscale>  2 0.26876238E+03</rscale>
<asrwt>0</asrwt>
<pdfrwt beam="1">  1       21 0.16953670E-01 0.26876238E+03</pdfrwt>
<pdfrwt beam="2">  1       21 0.11542118E+00 0.26876238E+03</pdfrwt>
<totfact> 0.17448880E+04</totfact>
</mgrwt>
</event>
<event>
 4    1  0.3957190E+000  0.2403138E+03  0.7546771E-02  0.1119584E+00
         21   -1    0    0  501  502  0.00000000000E+00  0.00000000000E+00  0.38642558728E+03  0.38642558728E+03  0.00000000000E+00 0.  1.
         21   -1    0    0  502  503 -0.00000000000E+00 -0.00000000000E+00 -0.16342596870E+03  0.16342596870E+03  0.00000000000E+00 0.  1.
          6    1    1    2  501    0 -0.11626768684E+03 -0.11959737245E+03  0.31097242810E+02  0.24231744677E+03  0.17300000000E+03 0.  1.
         -6    1    1    2    0  503  0.11626768684E+03  0.11959737245E+03  0.19190237577E+03  0.30753410921E+03  0.17300000000E+03 0.  1.
<mgrwt>
<rscale>  2 0.24031377E+03</rscale>
<asrwt>0</asrwt>
<pdfrwt beam="1">  1       21 0.59450090E-01 0.24031377E+03</pdfrwt>
<pdfrwt beam="2">  1       21 0.25142457E-01 0.24031377E+03</pdfrwt>
<totfact> 0.38694949E+04</totfact>
</mgrwt>
</event>
<event>
 4    1  0.3957190E+000  0.2015097E+03  0.7546771E-02  0.1148472E+00
         21   -1    0    0  503  502  0.00000000000E+00  0.00000000000E+00  0.47141223614E+02  0.47141223614E+02  0.00000000000E+00 0.  1.
         21   -1    0    0  501  503 -0.00000000000E+00 -0.00000000000E+00 -0.86214639837E+03  0.86214639837E+03  0.00000000000E+00 0.  1.
          6    1    1    2  501    0 -0.31109806266E+02 -0.98535889903E+02 -0.42112625729E+03  0.46685486634E+03  0.17300000000E+03 0.  1.
         -6    1    1    2    0  502  0.31109806266E+02  0.98535889903E+02 -0.39387891747E+03  0.44243275565E+03  0.17300000000E+03 0.  1.
<mgrwt>
<rscale>  2 0.20150966E+03</rscale>
<asrwt>0</asrwt>
<pdfrwt beam="1">  1       21 0.72524959E-02 0.20150966E+03</pdfrwt>
<pdfrwt beam="2">  1       21 0.13263791E+00 0.20150966E+03</pdfrwt>
<totfact> 0.58180385E+04</totfact>
</mgrwt>
</event>
<event>
 4    1  0.3957190E+000  0.1757106E+03  0.7546771E-02  0.1172020E+00
         21   -1    0    0  501  502  0.00000000000E+00  0.00000000000E+00  0.20619448540E+04  0.20619448540E+04  0.00000000000E+00 0. -1.
         21   -1    0    0  502  503 -0.00000000000E+00 -0.00000000000E+00 -0.15328047491E+02  0.15328047491E+02  0.00000000000E+00 0. -1.
          6    1    1    2  501    0 -0.26557250859E+02 -0.15489876266E+02  0.11813053327E+04  0.11943016842E+04  0.17300000000E+03 0. -1.
         -6    1    1    2    0  503  0.26557250859E+02  0.15489876266E+02  0.86531147377E+03  0.88297121724E+03  0.17300000000E+03 0. -1.
<mgrwt>
<rscale>  2 0.17571063E+03</rscale>
<asrwt>0</asrwt>
<pdfrwt beam="1">  1       21 0.31722207E+00 0.17571063E+03</pdfrwt>
<pdfrwt beam="2">  1       21 0.23581628E-02 0.17571063E+03</pdfrwt>
<totfact> 0.26003514E+04</totfact>
</mgrwt>
</event>
<event>
 4    1  0.3957190E+000  0.1936309E+03  0.7546771E-02  0.1155227E+00
         21   -1    0    0  503  502  0.00000000000E+00  0.00000000000E+00  0.30140400161E+02  0.30140400161E+02  0.00000000000E+00 0.  1.
         21   -1    0    0  501  503 -0.00000000000E+00 -0.00000000000E+00 -0.13705766313E+04  0.13705766313E+04  0.00000000000E+00 0.  1.
          6    1    1    2  501    0  0.85321460603E+02 -0.16857237592E+02 -0.88310284854E+03  0.90408161092E+03  0.17300000000E+03 0.  1.
         -6    1    1    2    0  502 -0.85321460603E+02  0.16857237592E+02 -0.45733338258E+03  0.49663542052E+03  0.17300000000E+03 0.  1.
<mgrwt>
<rscale>  2 0.19363088E+03</rscale>
<asrwt>0</asrwt>
<pdfrwt beam="1">  1       21 0.46369855E-02 0.19363088E+03</pdfrwt>
<pdfrwt beam="2">  1       21 0.21085790E+00 0.19363088E+03</pdfrwt>
<totfact> 0.35000309E+04</totfact>
</mgrwt>
</event>
<event>
 4    1  0.3957190E+000  0.2281795E+03  0.7546771E-02  0.1127928E+00
         21   -1    0    0  501  502  0.00000000000E+00  0.00000000000E+00  0.33592411981E+03  0.33592411981E+03  0.00000000000E+00 0. -1.
         21   -1    0    0  502  503 -0.00000000000E+00 -0.00000000000E+00 -0.20523005697E+03  0.20523005697E+03  0.00000000000E+00 0. -1.
          6    1    1    2  501    0 -0.13486642181E+03 -0.62832643364E+02  0.19921681384E+03  0.30290795916E+03  0.17300000000E+03 0. -1.
         -6    1    1    2    0  503  0.13486642181E+03  0.62832643364E+02 -0.68522751010E+02  0.23824621762E+03  0.17300000000E+03 0. -1.
<mgrwt>
<rscale>  2 0.22817952E+03</rscale>
<asrwt>0</asrwt>
<pdfrwt beam="1">  1       21 0.51680634E-01 0.22817952E+03</pdfrwt>
<pdfrwt beam="2">  1       21 0.31573855E-01 0.22817952E+03</pdfrwt>
<totfact> 0.33670937E+04</totfact>
</mgrwt>
</event>
<event>
 4    1  0.3957190E+000  0.2169908E+03  0.7546771E-02  0.1136147E+00
         21   -1    0    0  503  502  0.00000000000E+00  0.00000000000E+00  0.13628943002E+03  0.13628943002E+03  0.00000000000E+00 0.  1.
         21   -1    0    0  501  503 -0.00000000000E+00 -0.00000000000E+00 -0.59517853927E+03  0.59517853927E+03  0.00000000000E+00 0.  1.
          6    1    1    2  501    0 -0.12125833449E+03 -0.49522168619E+02 -0.46633701583E+03  0.51434933770E+03  0.17300000000E+03 0.  1.
         -6    1    1    2    0  502  0.12125833449E+03  0.49522168619E+02  0.74479065773E+01  0.21711863158E+03  0.17300000000E+03 0.  1.
<mgrwt>
<rscale>  2 0.21699085E+03</rscale>
<asrwt>0</asrwt>
<pdfrwt beam="1">  1       21 0.20967605E-01 0.21699085E+03</pdfrwt>
<pdfrwt beam="2">  1       21 0.91565929E-01 0.21699085E+03</pdfrwt>
<totfact> 0.21021164E+04</totfact>
</mgrwt>
</event>
<event>
 4    1  0.3957190E+000  0.1936198E+03  0.7546771E-02  0.1155236E+00
         21   -1    0    0  501  502  0.00000000000E+00  0.00000000000E+00  0.60639454828E+03  0.60639454828E+03  0.00000000000E+00 0. -1.
         21   -1    0    0  502  503 -0.00000000000E+00 -0.00000000000E+00 -0.67819240040E+03  0.67819240040E+03  0.00000000000E+00 0. -1.
          6    1    1    2  501    0  0.21133772264E+02  0.84338527980E+02  0.57642027679E+03  0.60806986369E+03  0.17300000000E+03 0. -1.
         -6    1    1    2    0  503 -0.21133772264E+02 -0.84338527980E+02 -0.64821812892E+03  0.67651708499E+03  0.17300000000E+03 0. -1.
<mgrwt>
<rscale>  2 0.19361979E+03</rscale>
<asrwt>0</asrwt>
<pdfrwt beam="1">  1       21 0.93291469E-01 0.19361979E+03</pdfrwt>
<pdfrwt beam="2">  1       21 0.10433729E+00 0.19361979E+03</pdfrwt>
<totfact> 0.71623016E+02</totfact>
</mgrwt>
</event>
<event>
 4    1  0.3957190E+000  0.2318367E+03  0.7546771E-02  0.1125354E+00
         21   -1    0    0  503  502  0.00000000000E+00  0.00000000000E+00  0.37157676941E+03  0.37157676941E+03  0.00000000000E+00 0. -1.
         21   -1    0    0  501  503 -0.00000000000E+00 -0.00000000000E+00 -0.23719065373E+03  0.23719065373E+03  0.00000000000E+00 0. -1.
          6    1    1    2  501    0  0.12881363468E+02  0.15379633409E+03 -0.12293273455E+03  0.26241322209E+03  0.17300000000E+03 0. -1.
         -6    1    1    2    0  502 -0.12881363468E+02 -0.15379633409E+03  0.25731885023E+03  0.34635420106E+03  0.17300000000E+03 0. -1.
<mgrwt>
<rscale>  2 0.23183667E+03</rscale>
<asrwt>0</asrwt>
<pdfrwt beam="1">  1       21 0.57165657E-01 0.23183667E+03</pdfrwt>
<pdfrwt beam="2">  1       21 0.36490870E-01 0.23183667E+03</pdfrwt>
<totfact> 0.20356058E+04</totfact>
</mgrwt>
</event>
<event>
 4    1  0.3957190E+000  0.2171477E+03  0.7546771E-02  0.1136028E+00
         21   -1    0    0  501  502  0.00000000000E+00  0.00000000000E+00  0.89831902055E+02  0.89831902055E+02  0.00000000000E+00 0. -1.
         21   -1    0    0  502  503 -0.00000000000E+00 -0.00000000000E+00 -0.58969338304E+03  0.58969338304E+03  0.00000000000E+00 0.  1.
          6    1    1    2  501    0 -0.10005843390E+03 -0.84926165981E+02 -0.13731121159E+03  0.25691927271E+03  0.17300000000E+03 0. -1.
         -6    1    1    2    0  503  0.10005843390E+03  0.84926165981E+02 -0.36255026939E+03  0.42260601238E+03  0.17300000000E+03 0.  1.
<mgrwt>
<rscale>  2 0.21714775E+03</rscale>
<asrwt>0</asrwt>
<pdfrwt beam="1">  1       21 0.13820293E-01 0.21714775E+03</pdfrwt>
<pdfrwt beam="2">  1       21 0.90722058E-01 0.21714775E+03</pdfrwt>
<totfact> 0.46366540E+04</totfact>
</mgrwt>
</event>
<event>
 4    1  0.3957190E+000  0.2006259E+03  0.7546771E-02  0.1149212E+00
         21   -1    0    0  503  502  0.00000000000E+00  0.00000000000E+00  0.21915635972E+03  0.21915635972E+03  0.00000000000E+00 0. -1.
         21   -1    0    0  501  503 -0.00000000000E+00 -0.00000000000E+00 -0.42787582114E+03  0.42787582114E+03  0.00000000000E+00 0. -1.
          6    1    1    2  501    0  0.15534251026E+02 -0.10040148537E+03 -0.34877133655E+03  0.40235831844E+03  0.17300000000E+03 0. -1.
         -6    1    1    2    0  502 -0.15534251026E+02  0.10040148537E+03  0.14005187513E+03  0.24467386241E+03  0.17300000000E+03 0. -1.
<mgrwt>
<rscale>  2 0.20062595E+03</rscale>
<asrwt>0</asrwt>
<pdfrwt beam="1">  1       21 0.33716363E-01 0.20062595E+03</pdfrwt>
<pdfrwt beam="2">  1       21 0.65827050E-01 0.20062595E+03</pdfrwt>
<totfact> 0.17878254E+04</totfact>
</mgrwt>
</event>
<event>
 4    1  0.3957190E+000  0.2927017E+03  0.7546771E-02  0.1088947E+00
         21   -1    0    0  501  502  0.00000000000E+00  0.00000000000E+00  0.18829264842E+03  0.18829264842E+03  0.00000000000E+00 0.  1.
         21   -1    0    0  502  503 -0.00000000000E+00 -0.00000000000E+00 -0.47305959742E+03  0.47305959742E+03  0.00000000000E+00 0. -1.
          6    1    1    2  501    0  0.18820716976E+03 -0.14256007322E+03 -0.77784597459E+02  0.30286095296E+03  0.17300000000E+03 0. -1.
         -6    1    1    2    0  503 -0.18820716976E+03  0.14256007322E+03 -0.20698235154E+03  0.35849129289E+03  0.17300000000E+03 0. -1.
<mgrwt>
<rscale>  2 0.29270175E+03</rscale>
<asrwt>0</asrwt>
<pdfrwt beam="1">  1       21 0.28968100E-01 0.29270175E+03</pdfrwt>
<pdfrwt beam="2">  1       21 0.72778398E-01 0.29270175E+03</pdfrwt>
<totfact> 0.18423198E+04</totfact>
</mgrwt>
</event>
<event>
 4    1  0.3957190E+000  0.2333924E+03  0.7546771E-02  0.1124275E+00
         21   -1    0    0  501  502  0.00000000000E+00  0.00000000000E+00  0.52700129326E+02  0.52700129326E+02  0.00000000000E+00 0. -1.
         21   -1    0    0  502  503 -0.00000000000E+00 -0.00000000000E+00 -0.24551493380E+04  0.24551493380E+04  0.00000000000E+00 0.  1.
          6    1    1    2  501    0  0.47257306711E+02 -0.14936452504E+03 -0.24708896897E+03  0.33988964822E+03  0.17300000000E+03 0. -1.
         -6    1    1    2    0  503 -0.47257306711E+02  0.14936452504E+03 -0.21553602397E+04  0.21679598191E+04  0.17300000000E+03 0.  1.
<mgrwt>
<rscale>  2 0.23339240E+03</rscale>
<asrwt>0</asrwt>
<pdfrwt beam="1">  1       21 0.81077121E-02 0.23339240E+03</pdfrwt>
<pdfrwt beam="2">  1       21 0.37771529E+00 0.23339240E+03</pdfrwt>
<totfact> 0.13245223E+03</totfact>
</mgrwt>
</event>
<event>
 4    1  0.3957190E+000  0.2024881E+03  0.7546771E-02  0.1147657E+00
         21   -1    0    0  503  502  0.00000000000E+00  0.00000000000E+00  0.36823364887E+03  0.36823364887E+03  0.00000000000E+00 0.  1.
         21   -1    0    0  501  503 -0.00000000000E+00 -0.00000000000E+00 -0.14175192618E+03  0.14175192618E+03  0.00000000000E+00 0.  1.
          6    1    1    2  501    0  0.93758713798E+02 -0.47767325263E+02 -0.48567666049E+01  0.20254629584E+03  0.17300000000E+03 0.  1.
         -6    1    1    2    0  502 -0.93758713798E+02  0.47767325263E+02  0.23133848929E+03  0.30743927921E+03  0.17300000000E+03 0.  1.
<mgrwt>
<rscale>  2 0.20248806E+03</rscale>
<asrwt>0</asrwt>
<pdfrwt beam="1">  1       21 0.56651330E-01 0.20248806E+03</pdfrwt>
<pdfrwt beam="2">  1       21 0.21807989E-01 0.20248806E+03</pdfrwt>
<totfact> 0.57223100E+04</totfact>
</mgrwt>
</event>
<event>
 4    1  0.3957190E+000  0.3753037E+03  0.7546771E-02  0.1052683E+00
         21   -1    0    0  501  502  0.00000000000E+00  0.00000000000E+00  0.12085421123E+04  0.12085421123E+04  0.00000000000E+00 0.  1.
         21   -1    0    0  502  503 -0.00000000000E+00 -0.00000000000E+00 -0.13238593753E+03  0.13238593753E+03  0.00000000000E+00 0. -1.
          6    1    1    2  501    0 -0.25167155047E+03 -0.21814061604E+03  0.76998137742E+03  0.85657703638E+03  0.17300000000E+03 0.  1.
         -6    1    1    2    0  503  0.25167155047E+03  0.21814061604E+03  0.30617479730E+03  0.48435101340E+03  0.17300000000E+03 0. -1.
<mgrwt>
<rscale>  2 0.37530374E+03</rscale>
<asrwt>0</asrwt>
<pdfrwt beam="1">  1       21 0.18592955E+00 0.37530374E+03</pdfrwt>
<pdfrwt beam="2">  1       21 0.20367068E-01 0.37530374E+03</pdfrwt>
<totfact> 0.32757848E+03</totfact>
</mgrwt>
</event>
<event>
 4    1  0.3957190E+000  0.2095344E+03  0.7546771E-02  0.1141935E+00
         21   -1    0    0  501  502  0.00000000000E+00  0.00000000000E+00  0.11290841803E+04  0.11290841803E+04  0.00000000000E+00 0.  1.
         21   -1    0    0  502  503 -0.00000000000E+00 -0.00000000000E+00 -0.38925942380E+02  0.38925942380E+02  0.00000000000E+00 0.  1.
          6    1    1    2  501    0  0.11475074334E+03 -0.28424458650E+02  0.56396910264E+03  0.60163596275E+03  0.17300000000E+03 0.  1.
         -6    1    1    2    0  503 -0.11475074334E+03  0.28424458650E+02  0.52618913529E+03  0.56637415993E+03  0.17300000000E+03 0.  1.
<mgrwt>
<rscale>  2 0.20953444E+03</rscale>
<asrwt>0</asrwt>
<pdfrwt beam="1">  1       21 0.17370523E+00 0.20953444E+03</pdfrwt>
<pdfrwt beam="2">  1       21 0.59886074E-02 0.20953444E+03</pdfrwt>
<totfact> 0.39352188E+04</totfact>
</mgrwt>
</event>
<event>
 4    1  0.3957190E+000  0.1999106E+03  0.7546771E-02  0.1149814E+00
         21   -1    0    0  503  502  0.00000000000E+00  0.00000000000E+00  0.37936465889E+03  0.37936465889E+03  0.00000000000E+00 0.  1.
         21   -1    0    0  501  503 -0.00000000000E+00 -0.00000000000E+00 -0.40104717170E+03  0.40104717170E+03  0.00000000000E+00 0.  1.
          6    1    1    2  501    0 -0.76893668566E+02  0.64207603852E+02 -0.34590174451E+03  0.39951504291E+03  0.17300000000E+03 0.  1.
         -6    1    1    2    0  502  0.76893668566E+02 -0.64207603852E+02  0.32421923170E+03  0.38089678767E+03  0.17300000000E+03 0.  1.
<mgrwt>
<rscale>  2 0.19991061E+03</rscale>
<asrwt>0</asrwt>
<pdfrwt beam="1">  1       21 0.58363794E-01 0.19991061E+03</pdfrwt>
<pdfrwt beam="2">  1       21 0.61699564E-01 0.19991061E+03</pdfrwt>
<totfact> 0.66723506E+03</totfact>
</mgrwt>
</event>
<event>
 4    1  0.3957190E+000  0.2276404E+03  0.7546771E-02  0.1128312E+00
         21   -1    0    0  503  502  0.00000000000E+00  0.00000000000E+00  0.14503065671E+03  0.14503065671E+03  0.00000000000E+00 0.  1.
         21   -1    0    0  501  503 -0.00000000000E+00 -0.00000000000E+00 -0.37671296013E+03  0.37671296013E+03  0.00000000000E+00 0.  1.
          6    1    1    2  501    0  0.14791449430E+03 -0.35291498106E+01 -0.17505371208E+03  0.28716537855E+03  0.17300000000E+03 0.  1.
         -6    1    1    2    0  502 -0.14791449430E+03  0.35291498106E+01 -0.56628591344E+02  0.23457823829E+03  0.17300000000E+03 0.  1.
<mgrwt>
<rscale>  2 0.22764040E+03</rscale>
<asrwt>0</asrwt>
<pdfrwt beam="1">  1       21 0.22312409E-01 0.22764040E+03</pdfrwt>
<pdfrwt beam="2">  1       21 0.57955839E-01 0.22764040E+03</pdfrwt>
<totfact> 0.51610908E+04</totfact>
</mgrwt>
</event>
<event>
 4    1  0.3957190E+000  0.2208322E+03  0.7546771E-02  0.1133264E+00
         21   -1    0    0  501  502  0.00000000000E+00  0.00000000000E+00  0.72551935069E+03  0.72551935069E+03  0.00000000000E+00 0.  1.
         21   -1    0    0  502  503 -0.00000000000E+00 -0.00000000000E+00 -0.79967145812E+02  0.79967145812E+02  0.00000000000E+00 0. -1.
          6    1    1    2  501    0  0.11922727382E+03 -0.67990516325E+02  0.48359570756E+03  0.53163113293E+03  0.17300000000E+03 0. -1.
         -6    1    1    2    0  503 -0.11922727382E+03  0.67990516325E+02  0.16195649732E+03  0.27385536357E+03  0.17300000000E+03 0.  1.
<mgrwt>
<rscale>  2 0.22083218E+03</rscale>
<asrwt>0</asrwt>
<pdfrwt beam="1">  1       21 0.11161836E+00 0.22083218E+03</pdfrwt>
<pdfrwt beam="2">  1       21 0.12302638E-01 0.22083218E+03</pdfrwt>
<totfact> 0.34837326E+04</totfact>
</mgrwt>
</event>
<event>
 4    1  0.3957190E+000  0.1839458E+03  0.7546771E-02  0.1164038E+00
         21   -1    0    0  503  502  0.00000000000E+00  0.00000000000E+00  0.12059403365E+04  0.12059403365E+04  0.00000000000E+00 0. -1.
         21   -1    0    0  501  503 -0.00000000000E+00 -0.00000000000E+00 -0.55309308704E+02  0.55309308704E+02  0.00000000000E+00 0. -1.
          6    1    1    2  501    0 -0.36482446209E+02  0.50755044906E+02  0.13265870286E+03  0.22679147892E+03  0.17300000000E+03 0. -1.
         -6    1    1    2    0  502  0.36482446209E+02 -0.50755044906E+02  0.10179723249E+04  0.10344581663E+04  0.17300000000E+03 0. -1.
<mgrwt>
<rscale>  2 0.18394576E+03</rscale>
<asrwt>0</asrwt>
<pdfrwt beam="1">  1       21 0.18552926E+00 0.18394576E+03</pdfrwt>
<pdfrwt beam="2">  1       21 0.85091253E-02 0.18394576E+03</pdfrwt>
<totfact> 0.18112801E+04</totfact>
</mgrwt>
</event>
<event>
 4    1  0.3957190E+000  0.1752416E+03  0.7546771E-02  0.1172489E+00
         21   -1    0    0  501  502  0.00000000000E+00  0.00000000000E+00  0.55967015181E+03  0.55967015181E+03  0.00000000000E+00 0. -1.
         21   -1    0    0  502  503 -0.00000000000E+00 -0.00000000000E+00 -0.57613379755E+02  0.57613379755E+02  0.00000000000E+00 0. -1.
          6    1    1    2  501    0 -0.26483910694E+02  0.89001159542E+01  0.31836698476E+03  0.36341043818E+03  0.17300000000E+03 0. -1.
         -6    1    1    2    0  503  0.26483910694E+02 -0.89001159542E+01  0.18368978729E+03  0.25387309338E+03  0.17300000000E+03 0. -1.
<mgrwt>
<rscale>  2 0.17524157E+03</rscale>
<asrwt>0</asrwt>
<pdfrwt beam="1">  1       21 0.86103096E-01 0.17524157E+03</pdfrwt>
<pdfrwt beam="2">  1       21 0.88635973E-02 0.17524157E+03</pdfrwt>
<totfact> 0.11750423E+05</totfact>
</mgrwt>
</event>
<event>
 4    1  0.3957190E+000  0.2082382E+03  0.7546771E-02  0.1142969E+00
         21   -1    0    0  503  502  0.00000000000E+00  0.00000000000E+00  0.39727681548E+03  0.39727681548E+03  0.00000000000E+00 0. -1.
         21   -1    0    0  501  503 -0.00000000000E+00 -0.00000000000E+00 -0.12183227167E+03  0.12183227167E+03  0.00000000000E+00 0.  1.
          6    1    1    2  501    0  0.62724172357E+02  0.97466993380E+02  0.53982851761E+02  0.21512155838E+03  0.17300000000E+03 0.  1.
         -6    1    1    2    0  502 -0.62724172357E+02 -0.97466993380E+02  0.22146169205E+03  0.30398752876E+03  0.17300000000E+03 0. -1.
<mgrwt>
<rscale>  2 0.20823817E+03</rscale>
<asrwt>0</asrwt>
<pdfrwt beam="1">  1       21 0.61119510E-01 0.20823817E+03</pdfrwt>
<pdfrwt beam="2">  1       21 0.18743427E-01 0.20823817E+03</pdfrwt>
<totfact> 0.64403273E+04</totfact>
</mgrwt>
</event>
<event>
 4    1  0.3957190E+000  0.2195565E+03  0.7546771E-02  0.1134214E+00
         21   -1    0    0  501  502  0.00000000000E+00  0.00000000000E+00  0.68109095056E+02  0.68109095056E+02  0.00000000000E+00 0.  1.
         21   -1    0    0  502  503 -0.00000000000E+00 -0.00000000000E+00 -0.11725838514E+04  0.11725838514E+04  0.00000000000E+00 0.  1.
          6    1    1    2  501    0 -0.12013397566E+03 -0.61999148306E+02 -0.16166153744E+03  0.27265274469E+03  0.17300000000E+03 0.  1.
         -6    1    1    2    0  503  0.12013397566E+03  0.61999148306E+02 -0.94281321895E+03  0.96804020181E+03  0.17300000000E+03 0.  1.
<mgrwt>
<rscale>  2 0.21955652E+03</rscale>
<asrwt>0</asrwt>
<pdfrwt beam="1">  1       21 0.10478322E-01 0.21955652E+03</pdfrwt>
<pdfrwt beam="2">  1       21 0.18039753E+00 0.21955652E+03</pdfrwt>
<totfact> 0.13241182E+04</totfact>
</mgrwt>
</event>
<event>
 4    1  0.3957190E+000  0.1748118E+03  0.7546771E-02  0.1172921E+00
         21   -1    0    0  503  502  0.00000000000E+00  0.00000000000E+00  0.13619564723E+03  0.13619564723E+03  0.00000000000E+00 0.  1.
         21   -1    0    0  501  503 -0.00000000000E+00 -0.00000000000E+00 -0.37036778297E+03  0.37036778297E+03  0.00000000000E+00 0.  1.
          6    1    1    2  501    0  0.10764860711E+02  0.22677671559E+02 -0.27610545831E+03  0.32679256895E+03  0.17300000000E+03 0.  1.
         -6    1    1    2    0  502 -0.10764860711E+02 -0.22677671559E+02  0.41933322570E+02  0.17977086125E+03  0.17300000000E+03 0.  1.
<mgrwt>
<rscale>  2 0.17481178E+03</rscale>
<asrwt>0</asrwt>
<pdfrwt beam="1">  1       21 0.20953177E-01 0.17481178E+03</pdfrwt>
<pdfrwt beam="2">  1       21 0.56979659E-01 0.17481178E+03</pdfrwt>
<totfact> 0.61714832E+04</totfact>
</mgrwt>
</event>
<event>
 4    1  0.3957190E+000  0.2105843E+03  0.7546771E-02  0.1141104E+00
         21   -1    0    0  501  502  0.00000000000E+00  0.00000000000E+00  0.10336597919E+03  0.10336597919E+03  0.00000000000E+00 0. -1.
         21   -1    0    0  502  503 -0.00000000000E+00 -0.00000000000E+00 -0.43591757180E+03  0.43591757180E+03  0.00000000000E+00 0.  1.
          6    1    1    2  501    0 -0.99231091695E+02 -0.67601219381E+02 -0.13234953406E+03  0.24872099547E+03  0.17300000000E+03 0.  1.
         -6    1    1    2    0  503  0.99231091695E+02  0.67601219381E+02 -0.20020205855E+03  0.29056255552E+03  0.17300000000E+03 0.  1.
<mgrwt>
<rscale>  2 0.21058427E+03</rscale>
<asrwt>0</asrwt>
<pdfrwt beam="1">  1       21 0.15902459E-01 0.21058427E+03</pdfrwt>
<pdfrwt beam="2">  1       21 0.67064241E-01 0.21058427E+03</pdfrwt>
<totfact> 0.71208396E+04</totfact>
</mgrwt>
</event>
<event>
 4    1  0.3957190E+000  0.2139003E+03  0.7546771E-02  0.1138514E+00
         21   -1    0    0  503  502  0.00000000000E+00  0.00000000000E+00  0.34933495812E+03  0.34933495812E+03  0.00000000000E+00 0.  1.
         21   -1    0    0  501  503 -0.00000000000E+00 -0.00000000000E+00 -0.14673982177E+03  0.14673982177E+03  0.00000000000E+00 0. -1.
          6    1    1    2  501    0  0.12431647470E+03  0.19228563090E+02  0.19992030730E+02  0.21483250409E+03  0.17300000000E+03 0. -1.
         -6    1    1    2    0  502 -0.12431647470E+03 -0.19228563090E+02  0.18260310562E+03  0.28124227581E+03  0.17300000000E+03 0.  1.
<mgrwt>
<rscale>  2 0.21390027E+03</rscale>
<asrwt>0</asrwt>
<pdfrwt beam="1">  1       21 0.53743839E-01 0.21390027E+03</pdfrwt>
<pdfrwt beam="2">  1       21 0.22575357E-01 0.21390027E+03</pdfrwt>
<totfact> 0.59627740E+04</totfact>
</mgrwt>
</event>
<event>
 4    1  0.3957190E+000  0.3037901E+03  0.7546771E-02  0.1083361E+00
         21   -1    0    0  501  502  0.00000000000E+00  0.00000000000E+00  0.76632116984E+03  0.76632116984E+03  0.00000000000E+00 0. -1.
         21   -1    0    0  502  503 -0.00000000000E+00 -0.00000000000E+00 -0.12893069932E+03  0.12893069932E+03  0.00000000000E+00 0. -1.
          6    1    1    2  501    0  0.15201349408E+03  0.19811940230E+03  0.20376004575E+03  0.36579578483E+03  0.17300000000E+03 0. -1.
         -6    1    1    2    0  503 -0.15201349408E+03 -0.19811940230E+03  0.43363042477E+03  0.52945608433E+03  0.17300000000E+03 0. -1.
<mgrwt>
<rscale>  2 0.30379006E+03</rscale>
<asrwt>0</asrwt>
<pdfrwt beam="1">  1       21 0.11789556E+00 0.30379006E+03</pdfrwt>
<pdfrwt beam="2">  1       21 0.19835493E-01 0.30379006E+03</pdfrwt>
<totfact> 0.12145664E+04</totfact>
</mgrwt>
</event>
<event>
 4    1  0.3957190E+000  0.2475441E+03  0.7546771E-02  0.1114867E+00
         21   -1    0    0  501  502  0.00000000000E+00  0.00000000000E+00  0.11429659680E+04  0.11429659680E+04  0.00000000000E+00 0.  1.
         21   -1    0    0  502  503 -0.00000000000E+00 -0.00000000000E+00 -0.66262389553E+02  0.66262389553E+02  0.00000000000E+00 0. -1.
          6    1    1    2  501    0 -0.16661560048E+03 -0.59902626515E+02  0.27418645134E+03  0.36939990943E+03  0.17300000000E+03 0. -1.
         -6    1    1    2    0  503  0.16661560048E+03  0.59902626515E+02  0.80251712713E+03  0.83982844815E+03  0.17300000000E+03 0.  1.
<mgrwt>
<rscale>  2 0.24754410E+03</rscale>
<asrwt>0</asrwt>
<pdfrwt beam="1">  1       21 0.17584090E+00 0.24754410E+03</pdfrwt>
<pdfrwt beam="2">  1       21 0.10194215E-01 0.24754410E+03</pdfrwt>
<totfact> 0.14679562E+04</totfact>
</mgrwt>
</event>
<event>
 4    1  0.3957190E+000  0.3292987E+03  0.7546771E-02  0.1071448E+00
         21   -1    0    0  503  502  0.00000000000E+00  0.00000000000E+00  0.88601347392E+03  0.88601347392E+03  0.00000000000E+00 0.  1.
         21   -1    0    0  501  503 -0.00000000000E+00 -0.00000000000E+00 -0.13641490861E+03  0.13641490861E+03  0.00000000000E+00 0.  1.
          6    1    1    2  501    0 -0.24634756915E+03 -0.13349732797E+03  0.53872560561E+03  0.63139760812E+03  0.17300000000E+03 0.  1.
         -6    1    1    2    0  502  0.24634756915E+03  0.13349732797E+03  0.21087295971E+03  0.39103077441E+03  0.17300000000E+03 0.  1.
<mgrwt>
<rscale>  2 0.32929874E+03</rscale>
<asrwt>0</asrwt>
<pdfrwt beam="1">  1       21 0.13630976E+00 0.32929874E+03</pdfrwt>
<pdfrwt beam="2">  1       21 0.20986910E-01 0.32929874E+03</pdfrwt>
<totfact> 0.74502132E+03</totfact>
</mgrwt>
</event>
<event>
 4    1  0.3957190E+000  0.1759383E+03  0.7546771E-02  0.1171793E+00
         21   -1    0    0  501  502  0.00000000000E+00  0.00000000000E+00  0.25646997551E+03  0.25646997551E+03  0.00000000000E+00 0.  1.
         21   -1    0    0  502  503 -0.00000000000E+00 -0.00000000000E+00 -0.21688098291E+03  0.21688098291E+03  0.00000000000E+00 0.  1.
          6    1    1    2  501    0 -0.19440131861E+01 -0.31961248306E+02  0.17741091036E+03  0.24985782296E+03  0.17300000000E+03 0.  1.
         -6    1    1    2    0  503  0.19440131861E+01  0.31961248306E+02 -0.13782191776E+03  0.22349313546E+03  0.17300000000E+03 0.  1.
<mgrwt>
<rscale>  2 0.17593834E+03</rscale>
<asrwt>0</asrwt>
<pdfrwt beam="1">  1       21 0.39456919E-01 0.17593834E+03</pdfrwt>
<pdfrwt beam="2">  1       21 0.33366305E-01 0.17593834E+03</pdfrwt>
<totfact> 0.53978995E+04</totfact>
</mgrwt>
</event>
<event>
 4    1  0.3957190E+000  0.1892406E+03  0.7546771E-02  0.1159148E+00
         21   -1    0    0  503  502  0.00000000000E+00  0.00000000000E+00  0.43699256460E+02  0.43699256460E+02  0.00000000000E+00 0.  1.
         21   -1    0    0  501  503 -0.00000000000E+00 -0.00000000000E+00 -0.82319614079E+03  0.82319614079E+03  0.00000000000E+00 0.  1.
          6    1    1    2  501    0 -0.11631176056E+02  0.75813680632E+02 -0.41875144756E+03  0.45952668395E+03  0.17300000000E+03 0. -1.
         -6    1    1    2    0  502  0.11631176056E+02 -0.75813680632E+02 -0.36074543677E+03  0.40736871330E+03  0.17300000000E+03 0. -1.
<mgrwt>
<rscale>  2 0.18924058E+03</rscale>
<asrwt>0</asrwt>
<pdfrwt beam="1">  1       21 0.67229620E-02 0.18924058E+03</pdfrwt>
<pdfrwt beam="2">  1       21 0.12664557E+00 0.18924058E+03</pdfrwt>
<totfact> 0.74991262E+04</totfact>
</mgrwt>
</event>
<event>
 4    1  0.3957190E+000  0.2200838E+03  0.7546771E-02  0.1133821E+00
         21   -1    0    0  501  502  0.00000000000E+00  0.00000000000E+00  0.10222273119E+03  0.10222273119E+03  0.00000000000E+00 0.  1.
         21   -1    0    0  502  503 -0.00000000000E+00 -0.00000000000E+00 -0.84640755999E+03  0.84640755999E+03  0.00000000000E+00 0.  1.
          6    1    1    2  501    0 -0.13443632002E+03  0.20850413978E+02 -0.57403264825E+02  0.22744669423E+03  0.17300000000E+03 0.  1.
         -6    1    1    2    0  503  0.13443632002E+03 -0.20850413978E+02 -0.68678156397E+03  0.72118359695E+03  0.17300000000E+03 0.  1.
<mgrwt>
<rscale>  2 0.22008377E+03</rscale>
<asrwt>0</asrwt>
<pdfrwt beam="1">  1       21 0.15726575E-01 0.22008377E+03</pdfrwt>
<pdfrwt beam="2">  1       21 0.13021654E+00 0.22008377E+03</pdfrwt>
<totfact> 0.15211553E+04</totfact>
</mgrwt>
</event>
<event>
 4    1  0.3957190E+000  0.2326988E+03  0.7546771E-02  0.1124754E+00
         21   -1    0    0  501  502  0.00000000000E+00  0.00000000000E+00  0.67806393632E+03  0.67806393632E+03  0.00000000000E+00 0.  1.
         21   -1    0    0  502  503 -0.00000000000E+00 -0.00000000000E+00 -0.20875133985E+03  0.20875133985E+03  0.00000000000E+00 0.  1.
          6    1    1    2  501    0 -0.10278773923E+03 -0.11685215855E+03  0.58307702335E+03  0.62779579598E+03  0.17300000000E+03 0.  1.
         -6    1    1    2    0  503  0.10278773923E+03  0.11685215855E+03 -0.11376442688E+03  0.25901948019E+03  0.17300000000E+03 0.  1.
<mgrwt>
<rscale>  2 0.23269883E+03</rscale>
<asrwt>0</asrwt>
<pdfrwt beam="1">  1       21 0.10431753E+00 0.23269883E+03</pdfrwt>
<pdfrwt beam="2">  1       21 0.32115591E-01 0.23269883E+03</pdfrwt>
<totfact> 0.67263936E+03</totfact>
</mgrwt>
</event>
<event>
 4    1  0.3957190E+000  0.2485550E+03  0.7546771E-02  0.1114221E+00
         21   -1    0    0  503  502  0.00000000000E+00  0.00000000000E+00  0.20614803337E+03  0.20614803337E+03  0.00000000000E+00 0.  1.
         21   -1    0    0  501  503 -0.00000000000E+00 -0.00000000000E+00 -0.56470028599E+03  0.56470028599E+03  0.00000000000E+00 0. -1.
          6    1    1    2  501    0  0.13077895927E+03  0.12143908986E+03 -0.44331321419E+03  0.50823832461E+03  0.17300000000E+03 0. -1.
         -6    1    1    2    0  502 -0.13077895927E+03 -0.12143908986E+03  0.84760961573E+02  0.26260999475E+03  0.17300000000E+03 0.  1.
<mgrwt>
<rscale>  2 0.24855500E+03</rscale>
<asrwt>0</asrwt>
<pdfrwt beam="1">  1       21 0.31715082E-01 0.24855500E+03</pdfrwt>
<pdfrwt beam="2">  1       21 0.86876967E-01 0.24855500E+03</pdfrwt>
<totfact> 0.10518867E+04</totfact>
</mgrwt>
</event>
<event>
 4    1  0.3957190E+000  0.1904920E+03  0.7546771E-02  0.1158018E+00
         21   -1    0    0  503  502  0.00000000000E+00  0.00000000000E+00  0.58613781076E+03  0.58613781076E+03  0.00000000000E+00 0.  1.
         21   -1    0    0  501  503 -0.00000000000E+00 -0.00000000000E+00 -0.59887426275E+03  0.59887426275E+03  0.00000000000E+00 0.  1.
          6    1    1    2  501    0 -0.79675277827E+02  0.31731496670E+01 -0.56741367200E+03  0.59853612585E+03  0.17300000000E+03 0.  1.
         -6    1    1    2    0  502  0.79675277827E+02 -0.31731496670E+01  0.55467722001E+03  0.58647594765E+03  0.17300000000E+03 0.  1.
<mgrwt>
<rscale>  2 0.19049204E+03</rscale>
<asrwt>0</asrwt>
<pdfrwt beam="1">  1       21 0.90175048E-01 0.19049204E+03</pdfrwt>
<pdfrwt beam="2">  1       21 0.92134502E-01 0.19049204E+03</pdfrwt>
<totfact> 0.10429227E+03</totfact>
</mgrwt>
</event>
<event>
 4    1  0.3957190E+000  0.3086758E+03  0.7546771E-02  0.1080982E+00
         21   -1    0    0  503  502  0.00000000000E+00  0.00000000000E+00  0.74742393789E+02  0.74742393789E+02  0.00000000000E+00 0. -1.
         21   -1    0    0  501  503 -0.00000000000E+00 -0.00000000000E+00 -0.17543612432E+04  0.17543612432E+04  0.00000000000E+00 0. -1.
          6    1    1    2  501    0  0.12463454780E+03  0.22319938403E+03 -0.13179725737E+04  0.13536367461E+04  0.17300000000E+03 0. -1.
         -6    1    1    2    0  502 -0.12463454780E+03 -0.22319938403E+03 -0.36164627570E+03  0.47546689082E+03  0.17300000000E+03 0. -1.
<mgrwt>
<rscale>  2 0.30867578E+03</rscale>
<asrwt>0</asrwt>
<pdfrwt beam="1">  1       21 0.11498831E-01 0.30867578E+03</pdfrwt>
<pdfrwt beam="2">  1       21 0.26990169E+00 0.30867578E+03</pdfrwt>
<totfact> 0.29039368E+03</totfact>
</mgrwt>
</event>
<event>
 4    1  0.3957190E+000  0.1905742E+03  0.7546771E-02  0.1157944E+00
         21   -1    0    0  503  502  0.00000000000E+00  0.00000000000E+00  0.61614159649E+02  0.61614159649E+02  0.00000000000E+00 0. -1.
         21   -1    0    0  501  503 -0.00000000000E+00 -0.00000000000E+00 -0.67139014062E+03  0.67139014062E+03  0.00000000000E+00 0.  1.
          6    1    1    2  501    0 -0.78148619360E+02  0.16801921439E+02 -0.43292498463E+03  0.47301432704E+03  0.17300000000E+03 0.  1.
         -6    1    1    2    0  502  0.78148619360E+02 -0.16801921439E+02 -0.17685099635E+03  0.25998997323E+03  0.17300000000E+03 0. -1.
<mgrwt>
<rscale>  2 0.19057416E+03</rscale>
<asrwt>0</asrwt>
<pdfrwt beam="1">  1       21 0.94791018E-02 0.19057416E+03</pdfrwt>
<pdfrwt beam="2">  1       21 0.10329079E+00 0.19057416E+03</pdfrwt>
<totfact> 0.67832107E+04</totfact>
</mgrwt>
</event>
<event>
 4    1  0.3957190E+000  0.1986916E+03  0.7546771E-02  0.1150848E+00
         21   -1    0    0  501  502  0.00000000000E+00  0.00000000000E+00  0.85658828079E+03  0.85658828079E+03  0.00000000000E+00 0.  1.
         21   -1    0    0  502  503 -0.00000000000E+00 -0.00000000000E+00 -0.22407589572E+03  0.22407589572E+03  0.00000000000E+00 0.  1.
          6    1    1    2  501    0  0.93038028975E+02  0.29887889715E+02  0.79782520869E+03  0.82219427413E+03  0.17300000000E+03 0.  1.
         -6    1    1    2    0  503 -0.93038028975E+02 -0.29887889715E+02 -0.16531282362E+03  0.25846990239E+03  0.17300000000E+03 0.  1.
<mgrwt>
<rscale>  2 0.19869162E+03</rscale>
<asrwt>0</asrwt>
<pdfrwt beam="1">  1       21 0.13178281E+00 0.19869162E+03</pdfrwt>
<pdfrwt beam="2">  1       21 0.34473215E-01 0.19869162E+03</pdfrwt>
<totfact> 0.33690993E+03</totfact>
</mgrwt>
</event>
<event>
 4    1  0.3957190E+000  0.2185169E+03  0.7546771E-02  0.1134994E+00
         21   -1    0    0  501  502  0.00000000000E+00  0.00000000000E+00  0.79381101281E+03  0.79381101281E+03  0.00000000000E+00 0. -1.
         21   -1    0    0  502  503 -0.00000000000E+00 -0.00000000000E+00 -0.87450939861E+02  0.87450939861E+02  0.00000000000E+00 0. -1.
          6    1    1    2  501    0  0.64678413811E+02  0.11677907746E+03  0.59936547818E+03  0.63795660243E+03  0.17300000000E+03 0. -1.
         -6    1    1    2    0  503 -0.64678413811E+02 -0.11677907746E+03  0.10699459477E+03  0.24330535024E+03  0.17300000000E+03 0. -1.
<mgrwt>
<rscale>  2 0.21851693E+03</rscale>
<asrwt>0</asrwt>
<pdfrwt beam="1">  1       21 0.12212477E+00 0.21851693E+03</pdfrwt>
<pdfrwt beam="2">  1       21 0.13453991E-01 0.21851693E+03</pdfrwt>
<totfact> 0.23781977E+04</totfact>
</mgrwt>
</event>
<event>
 4    1  0.3957190E+000  0.2159489E+03  0.7546771E-02  0.1136940E+00
         21   -1    0    0  503  502  0.00000000000E+00  0.00000000000E+00  0.66674604843E+03  0.66674604843E+03  0.00000000000E+00 0.  1.
         21   -1    0    0  501  503 -0.00000000000E+00 -0.00000000000E+00 -0.28189862407E+03  0.28189862407E+03  0.00000000000E+00 0.  1.
          6    1    1    2  501    0 -0.99615083995E+02  0.82351438121E+02 -0.21886806162E+03  0.30746894594E+03  0.17300000000E+03 0.  1.
         -6    1    1    2    0  502  0.99615083995E+02 -0.82351438121E+02  0.60371548598E+03  0.64117572656E+03  0.17300000000E+03 0.  1.
<mgrwt>
<rscale>  2 0.21594889E+03</rscale>
<asrwt>0</asrwt>
<pdfrwt beam="1">  1       21 0.10257631E+00 0.21594889E+03</pdfrwt>
<pdfrwt beam="2">  1       21 0.43369019E-01 0.21594889E+03</pdfrwt>
<totfact> 0.38757907E+03</totfact>
</mgrwt>
</event>
<event>
 4    1  0.3957190E+000  0.1955388E+03  0.7546771E-02  0.1153558E+00
         21   -1    0    0  503  502  0.00000000000E+00  0.00000000000E+00  0.12088380072E+03  0.12088380072E+03  0.00000000000E+00 0. -1.
         21   -1    0    0  501  503 -0.00000000000E+00 -0.00000000000E+00 -0.42702490247E+03  0.42702490247E+03  0.00000000000E+00 0.  1.
          6    1    1    2  501    0 -0.82588768409E+02  0.38542330072E+02 -0.29257124521E+03  0.35189962972E+03  0.17300000000E+03 0.  1.
         -6    1    1    2    0  502  0.82588768409E+02 -0.38542330072E+02 -0.13569856531E+02  0.19600907347E+03  0.17300000000E+03 0. -1.
<mgrwt>
<rscale>  2 0.19553878E+03</rscale>
<asrwt>0</asrwt>
<pdfrwt beam="1">  1       21 0.18597508E-01 0.19553878E+03</pdfrwt>
<pdfrwt beam="2">  1       21 0.65696137E-01 0.19553878E+03</pdfrwt>
<totfact> 0.56203531E+04</totfact>
</mgrwt>
</event>
<event>
 4    1  0.3957190E+000  0.1734023E+03  0.7546771E-02  0.1174345E+00
         21   -1    0    0  503  502  0.00000000000E+00  0.00000000000E+00  0.30814691007E+03  0.30814691007E+03  0.00000000000E+00 0. -1.
         21   -1    0    0  501  503 -0.00000000000E+00 -0.00000000000E+00 -0.23593303262E+03  0.23593303262E+03  0.00000000000E+00 0. -1.
          6    1    1    2  501    0  0.91378804134E+01  0.74744483868E+01 -0.17221536996E+03  0.24439006094E+03  0.17300000000E+03 0. -1.
         -6    1    1    2    0  502 -0.91378804134E+01 -0.74744483868E+01  0.24442924741E+03  0.29968988175E+03  0.17300000000E+03 0. -1.
<mgrwt>
<rscale>  2 0.17340233E+03</rscale>
<asrwt>0</asrwt>
<pdfrwt beam="1">  1       21 0.47407217E-01 0.17340233E+03</pdfrwt>
<pdfrwt beam="2">  1       21 0.36297389E-01 0.17340233E+03</pdfrwt>
<totfact> 0.31479497E+04</totfact>
</mgrwt>
</event>
<event>
 4    1  0.3957190E+000  0.1826671E+03  0.7546771E-02  0.1165247E+00
         21   -1    0    0  503  502  0.00000000000E+00  0.00000000000E+00  0.75160371989E+03  0.75160371989E+03  0.00000000000E+00 0. -1.
         21   -1    0    0  501  503 -0.00000000000E+00 -0.00000000000E+00 -0.37989012747E+03  0.37989012747E+03  0.00000000000E+00 0. -1.
          6    1    1    2  501    0 -0.68710318821E+01  0.58232744314E+02 -0.34580623628E+03  0.39108722383E+03  0.17300000000E+03 0. -1.
         -6    1    1    2    0  502  0.68710318821E+01 -0.58232744314E+02  0.71751982870E+03  0.74040662353E+03  0.17300000000E+03 0. -1.
<mgrwt>
<rscale>  2 0.18266708E+03</rscale>
<asrwt>0</asrwt>
<pdfrwt beam="1">  1       21 0.11563134E+00 0.18266708E+03</pdfrwt>
<pdfrwt beam="2">  1       21 0.58444635E-01 0.18266708E+03</pdfrwt>
<totfact> 0.16011962E+03</totfact>
</mgrwt>
</event>
<event>
 4    1  0.3957190E+000  0.1822355E+03  0.7546771E-02  0.1165657E+00
         21   -1    0    0  503  502  0.00000000000E+00  0.00000000000E+00  0.42236798359E+03  0.42236798359E+03  0.00000000000E+00 0.  1.
         21   -1    0    0  501  503 -0.00000000000E+00 -0.00000000000E+00 -0.83633732483E+02  0.83633732483E+02  0.00000000000E+00 0.  1.
          6    1    1    2  501    0  0.57144175666E+02 -0.39149967779E+01  0.23126590716E+03  0.29443794563E+03  0.17300000000E+03 0.  1.
         -6    1    1    2    0  502 -0.57144175666E+02  0.39149967779E+01  0.10746834394E+03  0.21156377044E+03  0.17300000000E+03 0.  1.
<mgrwt>
<rscale>  2 0.18223552E+03</rscale>
<asrwt>0</asrwt>
<pdfrwt beam="1">  1       21 0.64979688E-01 0.18223552E+03</pdfrwt>
<pdfrwt beam="2">  1       21 0.12866728E-01 0.18223552E+03</pdfrwt>
<totfact> 0.11336961E+05</totfact>
</mgrwt>
</event>
<event>
 4    1  0.3957190E+000  0.1989240E+03  0.7546771E-02  0.1150650E+00
         21   -1    0    0  501  502  0.00000000000E+00  0.00000000000E+00  0.82527233541E+03  0.82527233541E+03  0.00000000000E+00 0. -1.
         21   -1    0    0  502  503 -0.00000000000E+00 -0.00000000000E+00 -0.58000000089E+02  0.58000000089E+02  0.00000000000E+00 0.  1.
          6    1    1    2  501    0 -0.29643667415E+02  0.93611000000E+02  0.56748503193E+03  0.60134019307E+03  0.17300000000E+03 0. -1.
         -6    1    1    2    0  503  0.29643667415E+02 -0.93611000000E+02  0.19978730340E+03  0.28193214244E+03  0.17300000000E+03 0.  1.
<mgrwt>
<rscale>  2 0.19892402E+03</rscale>
<asrwt>0</asrwt>
<pdfrwt beam="1">  1       21 0.12696497E+00 0.19892402E+03</pdfrwt>
<pdfrwt beam="2">  1       21 0.89230775E-02 0.19892402E+03</pdfrwt>
<totfact> 0.45333067E+04</totfact>
</mgrwt>
</event>
<event>
 4    1  0.3957190E+000  0.3080295E+03  0.7546771E-02  0.1081294E+00
         21   -1    0    0  501  502  0.00000000000E+00  0.00000000000E+00  0.50202739776E+03  0.50202739776E+03  0.00000000000E+00 0.  1.
         21   -1    0    0  502  503 -0.00000000000E+00 -0.00000000000E+00 -0.25157433460E+03  0.25157433460E+03  0.00000000000E+00 0.  1.
          6    1    1    2  501    0  0.17582000151E+03  0.18450067184E+03  0.31315120717E+03  0.43925601805E+03  0.17300000000E+03 0.  1.
         -6    1    1    2    0  503 -0.17582000151E+03 -0.18450067184E+03 -0.62698144017E+02  0.31434571431E+03  0.17300000000E+03 0.  1.
<mgrwt>
<rscale>  2 0.30802950E+03</rscale>
<asrwt>0</asrwt>
<pdfrwt beam="1">  1       21 0.77234984E-01 0.30802950E+03</pdfrwt>
<pdfrwt beam="2">  1       21 0.38703744E-01 0.30802950E+03</pdfrwt>
<totfact> 0.89757566E+03</totfact>
</mgrwt>
</event>
<event>
 4    1  0.3957190E+000  0.1960375E+03  0.7546771E-02  0.1153126E+00
         21   -1    0    0  503  502  0.00000000000E+00  0.00000000000E+00  0.10625372078E+03  0.10625372078E+03  0.00000000000E+00 0.  1.
         21   -1    0    0  501  503 -0.00000000000E+00 -0.00000000000E+00 -0.51094681902E+03  0.51094681902E+03  0.00000000000E+00 0.  1.
          6    1    1    2  501    0 -0.91409118690E+02  0.12086850194E+02 -0.36913967005E+03  0.41796508818E+03  0.17300000000E+03 0.  1.
         -6    1    1    2    0  502  0.91409118690E+02 -0.12086850194E+02 -0.35553428188E+02  0.19923545162E+03  0.17300000000E+03 0.  1.
<mgrwt>
<rscale>  2 0.19603754E+03</rscale>
<asrwt>0</asrwt>
<pdfrwt beam="1">  1       21 0.16346726E-01 0.19603754E+03</pdfrwt>
<pdfrwt beam="2">  1       21 0.78607204E-01 0.19603754E+03</pdfrwt>
<totfact> 0.47892406E+04</totfact>
</mgrwt>
</event>
<event>
 4    1  0.3957190E+000  0.1835574E+03  0.7546771E-02  0.1164404E+00
         21   -1    0    0  501  502  0.00000000000E+00  0.00000000000E+00  0.34778822241E+03  0.34778822241E+03  0.00000000000E+00 0. -1.
         21   -1    0    0  502  503 -0.00000000000E+00 -0.00000000000E+00 -0.10404703423E+03  0.10404703423E+03  0.00000000000E+00 0. -1.
          6    1    1    2  501    0 -0.22226601464E+02 -0.57186509443E+02  0.18116861872E+03  0.25790577172E+03  0.17300000000E+03 0.  1.
         -6    1    1    2    0  503  0.22226601464E+02  0.57186509443E+02  0.62572569456E+02  0.19392948492E+03  0.17300000000E+03 0.  1.
<mgrwt>
<rscale>  2 0.18355740E+03</rscale>
<asrwt>0</asrwt>
<pdfrwt beam="1">  1       21 0.53505880E-01 0.18355740E+03</pdfrwt>
<pdfrwt beam="2">  1       21 0.16007236E-01 0.18355740E+03</pdfrwt>
<totfact> 0.11555314E+05</totfact>
</mgrwt>
</event>
<event>
 4    1  0.3957190E+000  0.1837980E+03  0.7546771E-02  0.1164177E+00
         21   -1    0    0  501  502  0.00000000000E+00  0.00000000000E+00  0.12489314229E+03  0.12489314229E+03  0.00000000000E+00 0. -1.
         21   -1    0    0  502  503 -0.00000000000E+00 -0.00000000000E+00 -0.40492394313E+03  0.40492394313E+03  0.00000000000E+00 0. -1.
          6    1    1    2  501    0  0.59927657379E+02 -0.16167082955E+02  0.12625906538E+02  0.18423113799E+03  0.17300000000E+03 0. -1.
         -6    1    1    2    0  503 -0.59927657379E+02  0.16167082955E+02 -0.29265670737E+03  0.34558594743E+03  0.17300000000E+03 0. -1.
<mgrwt>
<rscale>  2 0.18379798E+03</rscale>
<asrwt>0</asrwt>
<pdfrwt beam="1">  1       21 0.19214330E-01 0.18379798E+03</pdfrwt>
<pdfrwt beam="2">  1       21 0.62295991E-01 0.18379798E+03</pdfrwt>
<totfact> 0.59682031E+04</totfact>
</mgrwt>
</event>
<event>
 4    1  0.3957190E+000  0.1809050E+03  0.7546771E-02  0.1166930E+00
         21   -1    0    0  501  502  0.00000000000E+00  0.00000000000E+00  0.11072340544E+04  0.11072340544E+04  0.00000000000E+00 0. -1.
         21   -1    0    0  502  503 -0.00000000000E+00 -0.00000000000E+00 -0.54201647787E+02  0.54201647787E+02  0.00000000000E+00 0. -1.
          6    1    1    2  501    0  0.45865151147E+02 -0.26344116148E+02  0.91809519443E+03  0.93574858299E+03  0.17300000000E+03 0. -1.
         -6    1    1    2    0  503 -0.45865151147E+02  0.26344116148E+02  0.13493721223E+03  0.22568711924E+03  0.17300000000E+03 0. -1.
<mgrwt>
<rscale>  2 0.18090502E+03</rscale>
<asrwt>0</asrwt>
<pdfrwt beam="1">  1       21 0.17034368E+00 0.18090502E+03</pdfrwt>
<pdfrwt beam="2">  1       21 0.83387159E-02 0.18090502E+03</pdfrwt>
<totfact> 0.23881131E+04</totfact>
</mgrwt>
</event>
<event>
 4    1  0.3957190E+000  0.2447409E+03  0.7546771E-02  0.1116674E+00
         21   -1    0    0  501  502  0.00000000000E+00  0.00000000000E+00  0.12631595407E+03  0.12631595407E+03  0.00000000000E+00 0. -1.
         21   -1    0    0  502  503 -0.00000000000E+00 -0.00000000000E+00 -0.48024458334E+03  0.48024458334E+03  0.00000000000E+00 0.  1.
          6    1    1    2  501    0  0.77017677010E+02 -0.15503993609E+03 -0.14291895728E+03  0.28341477150E+03  0.17300000000E+03 0. -1.
         -6    1    1    2    0  503 -0.77017677010E+02  0.15503993609E+03 -0.21100967198E+03  0.32314576591E+03  0.17300000000E+03 0.  1.
<mgrwt>
<rscale>  2 0.24474089E+03</rscale>
<asrwt>0</asrwt>
<pdfrwt beam="1">  1       21 0.19433224E-01 0.24474089E+03</pdfrwt>
<pdfrwt beam="2">  1       21 0.73883782E-01 0.24474089E+03</pdfrwt>
<totfact> 0.39041754E+04</totfact>
</mgrwt>
</event>
<event>
 4    1  0.3957190E+000  0.1774470E+03  0.7546771E-02  0.1170297E+00
         21   -1    0    0  501  502  0.00000000000E+00  0.00000000000E+00  0.11975117185E+04  0.11975117185E+04  0.00000000000E+00 0. -1.
         21   -1    0    0  502  503 -0.00000000000E+00 -0.00000000000E+00 -0.26640832256E+02  0.26640832256E+02  0.00000000000E+00 0. -1.
          6    1    1    2  501    0 -0.16512830341E+02 -0.35857459982E+02  0.65526851245E+03  0.67886983613E+03  0.17300000000E+03 0. -1.
         -6    1    1    2    0  503  0.16512830341E+02  0.35857459982E+02  0.51560237375E+03  0.54528271458E+03  0.17300000000E+03 0. -1.
<mgrwt>
<rscale>  2 0.17744698E+03</rscale>
<asrwt>0</asrwt>
<pdfrwt beam="1">  1       21 0.18423253E+00 0.17744698E+03</pdfrwt>
<pdfrwt beam="2">  1       21 0.40985905E-02 0.17744698E+03</pdfrwt>
<totfact> 0.64670819E+04</totfact>
</mgrwt>
</event>
<event>
 4    1  0.3957190E+000  0.2961184E+03  0.7546771E-02  0.1087197E+00
         21   -1    0    0  503  502  0.00000000000E+00  0.00000000000E+00  0.13020107448E+04  0.13020107448E+04  0.00000000000E+00 0. -1.
         21   -1    0    0  501  503 -0.00000000000E+00 -0.00000000000E+00 -0.71254446818E+02  0.71254446818E+02  0.00000000000E+00 0. -1.
          6    1    1    2  501    0 -0.22803648593E+02  0.23924278596E+03  0.45457962196E+03  0.54252073667E+03  0.17300000000E+03 0. -1.
         -6    1    1    2    0  502  0.22803648593E+02 -0.23924278596E+03  0.77617667605E+03  0.83074445497E+03  0.17300000000E+03 0. -1.
<mgrwt>
<rscale>  2 0.29611842E+03</rscale>
<asrwt>0</asrwt>
<pdfrwt beam="1">  1       21 0.20030933E+00 0.29611842E+03</pdfrwt>
<pdfrwt beam="2">  1       21 0.10962224E-01 0.29611842E+03</pdfrwt>
<totfact> 0.85696465E+03</totfact>
</mgrwt>
</event>
<event>
 4    1  0.3957190E+000  0.2330646E+03  0.7546771E-02  0.1124501E+00
         21   -1    0    0  503  502  0.00000000000E+00  0.00000000000E+00  0.20418849383E+03  0.20418849383E+03  0.00000000000E+00 0. -1.
         21   -1    0    0  501  503 -0.00000000000E+00 -0.00000000000E+00 -0.35561676230E+03  0.35561676230E+03  0.00000000000E+00 0.  1.
          6    1    1    2  501    0  0.14776269804E+03  0.50559702055E+02 -0.21620614656E+03  0.31790595498E+03  0.17300000000E+03 0. -1.
         -6    1    1    2    0  502 -0.14776269804E+03 -0.50559702055E+02  0.64777878089E+02  0.24189930114E+03  0.17300000000E+03 0.  1.
<mgrwt>
<rscale>  2 0.23306458E+03</rscale>
<asrwt>0</asrwt>
<pdfrwt beam="1">  1       21 0.31413614E-01 0.23306458E+03</pdfrwt>
<pdfrwt beam="2">  1       21 0.54710271E-01 0.23306458E+03</pdfrwt>
<totfact> 0.30080639E+04</totfact>
</mgrwt>
</event>
<event>
 4    1  0.3957190E+000  0.2653836E+03  0.7546771E-02  0.1103951E+00
         21   -1    0    0  501  502  0.00000000000E+00  0.00000000000E+00  0.77669173858E+03  0.77669173858E+03  0.00000000000E+00 0. -1.
         21   -1    0    0  502  503 -0.00000000000E+00 -0.00000000000E+00 -0.91024355813E+02  0.91024355813E+02  0.00000000000E+00 0. -1.
          6    1    1    2  501    0  0.75999657001E+02  0.18634250615E+03  0.31605228405E+03  0.41269543699E+03  0.17300000000E+03 0. -1.
         -6    1    1    2    0  503 -0.75999657001E+02 -0.18634250615E+03  0.36961509872E+03  0.45502065740E+03  0.17300000000E+03 0. -1.
<mgrwt>
<rscale>  2 0.26538364E+03</rscale>
<asrwt>0</asrwt>
<pdfrwt beam="1">  1       21 0.11949103E+00 0.26538364E+03</pdfrwt>
<pdfrwt beam="2">  1       21 0.14003748E-01 0.26538364E+03</pdfrwt>
<totfact> 0.22793468E+04</totfact>
</mgrwt>
</event>
<event>
 4    1  0.3957190E+000  0.2681148E+03  0.7546771E-02  0.1102363E+00
         21   -1    0    0  501  502  0.00000000000E+00  0.00000000000E+00  0.46163237746E+03  0.46163237746E+03  0.00000000000E+00 0.  1.
         21   -1    0    0  502  503 -0.00000000000E+00 -0.00000000000E+00 -0.18169044510E+03  0.18169044510E+03  0.00000000000E+00 0. -1.
          6    1    1    2  501    0  0.13271822158E+03 -0.15602062497E+03  0.18360886404E+02  0.26874278391E+03  0.17300000000E+03 0. -1.
         -6    1    1    2    0  503 -0.13271822158E+03  0.15602062497E+03  0.26158104595E+03  0.37458003865E+03  0.17300000000E+03 0.  1.
<mgrwt>
<rscale>  2 0.26811483E+03</rscale>
<asrwt>0</asrwt>
<pdfrwt beam="1">  1       21 0.71020366E-01 0.26811483E+03</pdfrwt>
<pdfrwt beam="2">  1       21 0.27952376E-01 0.26811483E+03</pdfrwt>
<totfact> 0.21087820E+04</totfact>
</mgrwt>
</event>
<event>
 4    1  0.3957190E+000  0.1913418E+03  0.7546771E-02  0.1157257E+00
         21   -1    0    0  503  502  0.00000000000E+00  0.00000000000E+00  0.12649673762E+04  0.12649673762E+04  0.00000000000E+00 0.  1.
         21   -1    0    0  501  503 -0.00000000000E+00 -0.00000000000E+00 -0.75234572412E+02  0.75234572412E+02  0.00000000000E+00 0.  1.
          6    1    1    2  501    0  0.81346745081E+02  0.80869602967E+01  0.69232404109E+02  0.20348173786E+03  0.17300000000E+03 0.  1.
         -6    1    1    2    0  502 -0.81346745081E+02 -0.80869602967E+01  0.11205003997E+04  0.11367202108E+04  0.17300000000E+03 0.  1.
<mgrwt>
<rscale>  2 0.19134182E+03</rscale>
<asrwt>0</asrwt>
<pdfrwt beam="1">  1       21 0.19461035E+00 0.19134182E+03</pdfrwt>
<pdfrwt beam="2">  1       21 0.11574551E-01 0.19134182E+03</pdfrwt>
<totfact> 0.91166668E+03</totfact>
</mgrwt>
</event>
<event>
 4    1  0.3957190E+000  0.1915677E+03  0.7546771E-02  0.1157055E+00
         21   -1    0    0  503  502  0.00000000000E+00  0.00000000000E+00  0.23231951650E+03  0.23231951650E+03  0.00000000000E+00 0. -1.
         21   -1    0    0  501  503 -0.00000000000E+00 -0.00000000000E+00 -0.33370246140E+03  0.33370246140E+03  0.00000000000E+00 0. -1.
          6    1    1    2  501    0  0.81376631673E+02 -0.12125333257E+02 -0.25607078027E+03  0.31979747403E+03  0.17300000000E+03 0. -1.
         -6    1    1    2    0  502 -0.81376631673E+02  0.12125333257E+02  0.15468783537E+03  0.24622450386E+03  0.17300000000E+03 0. -1.
<mgrwt>
<rscale>  2 0.19156769E+03</rscale>
<asrwt>0</asrwt>
<pdfrwt beam="1">  1       21 0.35741464E-01 0.19156769E+03</pdfrwt>
<pdfrwt beam="2">  1       21 0.51338840E-01 0.19156769E+03</pdfrwt>
<totfact> 0.27234721E+04</totfact>
</mgrwt>
</event>
<event>
 4    1  0.3957190E+000  0.2083869E+03  0.7546771E-02  0.1142850E+00
         21   -1    0    0  503  502  0.00000000000E+00  0.00000000000E+00  0.34298998324E+03  0.34298998324E+03  0.00000000000E+00 0.  1.
         21   -1    0    0  501  503 -0.00000000000E+00 -0.00000000000E+00 -0.23066931751E+03  0.23066931751E+03  0.00000000000E+00 0.  1.
          6    1    1    2  501    0  0.57019861227E+02  0.10121674333E+03 -0.13649227671E+03  0.24910888243E+03  0.17300000000E+03 0.  1.
         -6    1    1    2    0  502 -0.57019861227E+02 -0.10121674333E+03  0.24881294243E+03  0.32455041832E+03  0.17300000000E+03 0.  1.
<mgrwt>
<rscale>  2 0.20838688E+03</rscale>
<asrwt>0</asrwt>
<pdfrwt beam="1">  1       21 0.52767690E-01 0.20838688E+03</pdfrwt>
<pdfrwt beam="2">  1       21 0.35487587E-01 0.20838688E+03</pdfrwt>
<totfact> 0.25830332E+04</totfact>
</mgrwt>
</event>
<event>
 4    1  0.3957190E+000  0.1885514E+03  0.7546771E-02  0.1159774E+00
         21   -1    0    0  501  502  0.00000000000E+00  0.00000000000E+00  0.30782735959E+03  0.30782735959E+03  0.00000000000E+00 0. -1.
         21   -1    0    0  502  503 -0.00000000000E+00 -0.00000000000E+00 -0.13915711278E+03  0.13915711278E+03  0.00000000000E+00 0. -1.
          6    1    1    2  501    0  0.60109423202E+02 -0.44827324652E+02 -0.78292342691E+01  0.18871388052E+03  0.17300000000E+03 0. -1.
         -6    1    1    2    0  503 -0.60109423202E+02  0.44827324652E+02  0.17649948107E+03  0.25827059184E+03  0.17300000000E+03 0. -1.
<mgrwt>
<rscale>  2 0.18855140E+03</rscale>
<asrwt>0</asrwt>
<pdfrwt beam="1">  1       21 0.47358055E-01 0.18855140E+03</pdfrwt>
<pdfrwt beam="2">  1       21 0.21408787E-01 0.18855140E+03</pdfrwt>
<totfact> 0.86804950E+04</totfact>
</mgrwt>
</event>
<event>
 4    1  0.3957190E+000  0.1832739E+03  0.7546771E-02  0.1164672E+00
         21   -1    0    0  503  502  0.00000000000E+00  0.00000000000E+00  0.34867703842E+03  0.34867703842E+03  0.00000000000E+00 0.  1.
         21   -1    0    0  501  503 -0.00000000000E+00 -0.00000000000E+00 -0.23309552082E+03  0.23309552082E+03  0.00000000000E+00 0.  1.
          6    1    1    2  501    0 -0.60372401951E+02 -0.39366861705E+01 -0.16502136750E+03  0.24661990217E+03  0.17300000000E+03 0.  1.
         -6    1    1    2    0  502  0.60372401951E+02  0.39366861705E+01  0.28060288509E+03  0.33515265707E+03  0.17300000000E+03 0.  1.
<mgrwt>
<rscale>  2 0.18327391E+03</rscale>
<asrwt>0</asrwt>
<pdfrwt beam="1">  1       21 0.53642621E-01 0.18327391E+03</pdfrwt>
<pdfrwt beam="2">  1       21 0.35860849E-01 0.18327391E+03</pdfrwt>
<totfact> 0.24786623E+04</totfact>
</mgrwt>
</event>
<event>
 4    1  0.3957190E+000  0.1932144E+03  0.7546771E-02  0.1155594E+00
         21   -1    0    0  501  502  0.00000000000E+00  0.00000000000E+00  0.19349556471E+03  0.19349556471E+03  0.00000000000E+00 0. -1.
         21   -1    0    0  502  503 -0.00000000000E+00 -0.00000000000E+00 -0.59889890164E+03  0.59889890164E+03  0.00000000000E+00 0.  1.
          6    1    1    2  501    0  0.80935302741E+02 -0.29193784986E+02  0.12349470284E+03  0.22930927138E+03  0.17300000000E+03 0. -1.
         -6    1    1    2    0  503 -0.80935302741E+02  0.29193784986E+02 -0.52889803977E+03  0.56308519496E+03  0.17300000000E+03 0.  1.
<mgrwt>
<rscale>  2 0.19321439E+03</rscale>
<asrwt>0</asrwt>
<pdfrwt beam="1">  1       21 0.29768549E-01 0.19321439E+03</pdfrwt>
<pdfrwt beam="2">  1       21 0.92138292E-01 0.19321439E+03</pdfrwt>
<totfact> 0.10759362E+04</totfact>
</mgrwt>
</event>
<event>
 4    1  0.3957190E+000  0.1973421E+03  0.7546771E-02  0.1152001E+00
         21   -1    0    0  503  502  0.00000000000E+00  0.00000000000E+00  0.39377882936E+02  0.39377882936E+02  0.00000000000E+00 0.  1.
         21   -1    0    0  501  503 -0.00000000000E+00 -0.00000000000E+00 -0.10461640383E+04  0.10461640383E+04  0.00000000000E+00 0.  1.
          6    1    1    2  501    0 -0.76078906569E+02  0.56805684823E+02 -0.63029237414E+03  0.66046374825E+03  0.17300000000E+03 0.  1.
         -6    1    1    2    0  502  0.76078906569E+02 -0.56805684823E+02 -0.37649378126E+03  0.42507817302E+03  0.17300000000E+03 0.  1.
<mgrwt>
<rscale>  2 0.19734205E+03</rscale>
<asrwt>0</asrwt>
<pdfrwt beam="1">  1       21 0.60581348E-02 0.19734205E+03</pdfrwt>
<pdfrwt beam="2">  1       21 0.16094834E+00 0.19734205E+03</pdfrwt>
<totfact> 0.47910836E+04</totfact>
</mgrwt>
</event>
<event>
 4    1  0.3957190E+000  0.2165553E+03  0.7546771E-02  0.1136478E+00
         21   -1    0    0  503  502  0.00000000000E+00  0.00000000000E+00  0.81483777278E+03  0.81483777278E+03  0.00000000000E+00 0. -1.
         21   -1    0    0  501  503 -0.00000000000E+00 -0.00000000000E+00 -0.81675536615E+02  0.81675536615E+02  0.00000000000E+00 0.  1.
          6    1    1    2  501    0  0.10797658545E+03 -0.72857883660E+02  0.12297183891E+03  0.24903471120E+03  0.17300000000E+03 0. -1.
         -6    1    1    2    0  502 -0.10797658545E+03  0.72857883660E+02  0.61019039725E+03  0.64747859819E+03  0.17300000000E+03 0.  1.
<mgrwt>
<rscale>  2 0.21655534E+03</rscale>
<asrwt>0</asrwt>
<pdfrwt beam="1">  1       21 0.12535965E+00 0.21655534E+03</pdfrwt>
<pdfrwt beam="2">  1       21 0.12565468E-01 0.21655534E+03</pdfrwt>
<totfact> 0.25225362E+04</totfact>
</mgrwt>
</event>
<event>
 4    1  0.3957190E+000  0.1939922E+03  0.7546771E-02  0.1154909E+00
         21   -1    0    0  501  502  0.00000000000E+00  0.00000000000E+00  0.23609219046E+04  0.23609219046E+04  0.00000000000E+00 0.  1.
         21   -1    0    0  502  503 -0.00000000000E+00 -0.00000000000E+00 -0.29202237050E+03  0.29202237050E+03  0.00000000000E+00 0. -1.
          6    1    1    2  501    0 -0.15825479507E+02  0.86333745579E+02  0.23242113988E+04  0.23322932036E+04  0.17300000000E+03 0.  1.
         -6    1    1    2    0  503  0.15825479507E+02 -0.86333745579E+02 -0.25531186465E+03  0.32065107151E+03  0.17300000000E+03 0. -1.
<mgrwt>
<rscale>  2 0.19399217E+03</rscale>
<asrwt>0</asrwt>
<pdfrwt beam="1">  1       21 0.36321874E+00 0.19399217E+03</pdfrwt>
<pdfrwt beam="2">  1       21 0.44926520E-01 0.19399217E+03</pdfrwt>
<totfact> 0.69224256E+01</totfact>
</mgrwt>
</event>
<event>
 4    1  0.3957190E+000  0.1881562E+03  0.7546771E-02  0.1160135E+00
         21   -1    0    0  501  502  0.00000000000E+00  0.00000000000E+00  0.26529008487E+03  0.26529008487E+03  0.00000000000E+00 0. -1.
         21   -1    0    0  502  503 -0.00000000000E+00 -0.00000000000E+00 -0.14022236431E+03  0.14022236431E+03  0.00000000000E+00 0. -1.
          6    1    1    2  501    0 -0.59611712705E+02 -0.43819904365E+02  0.17972085366E+02  0.18901252912E+03  0.17300000000E+03 0.  1.
         -6    1    1    2    0  503  0.59611712705E+02  0.43819904365E+02  0.10709563520E+03  0.21649992007E+03  0.17300000000E+03 0.  1.
<mgrwt>
<rscale>  2 0.18815616E+03</rscale>
<asrwt>0</asrwt>
<pdfrwt beam="1">  1       21 0.40813859E-01 0.18815616E+03</pdfrwt>
<pdfrwt beam="2">  1       21 0.21572671E-01 0.18815616E+03</pdfrwt>
<totfact> 0.11601629E+05</totfact>
</mgrwt>
</event>
<event>
 4    1  0.3957190E+000  0.2366436E+03  0.7546771E-02  0.1122049E+00
         21   -1    0    0  501  502  0.00000000000E+00  0.00000000000E+00  0.55207308252E+03  0.55207308252E+03  0.00000000000E+00 0.  1.
         21   -1    0    0  502  503 -0.00000000000E+00 -0.00000000000E+00 -0.13845394873E+03  0.13845394873E+03  0.00000000000E+00 0. -1.
          6    1    1    2  501    0  0.10370686028E+02  0.16113233591E+03  0.38533626560E+03  0.45219931268E+03  0.17300000000E+03 0.  1.
         -6    1    1    2    0  503 -0.10370686028E+02 -0.16113233591E+03  0.28282868191E+02  0.23832771856E+03  0.17300000000E+03 0. -1.
<mgrwt>
<rscale>  2 0.23664357E+03</rscale>
<asrwt>0</asrwt>
<pdfrwt beam="1">  1       21 0.84934320E-01 0.23664357E+03</pdfrwt>
<pdfrwt beam="2">  1       21 0.21300608E-01 0.23664357E+03</pdfrwt>
<totfact> 0.24033127E+04</totfact>
</mgrwt>
</event>
<event>
 4    1  0.3957190E+000  0.1803839E+03  0.7546771E-02  0.1167432E+00
         21   -1    0    0  503  502  0.00000000000E+00  0.00000000000E+00  0.10942825616E+03  0.10942825616E+03  0.00000000000E+00 0. -1.
         21   -1    0    0  501  503 -0.00000000000E+00 -0.00000000000E+00 -0.46170622126E+03  0.46170622126E+03  0.00000000000E+00 0. -1.
          6    1    1    2  501    0 -0.49038056274E+02 -0.14304153720E+02 -0.34651969515E+03  0.39065872434E+03  0.17300000000E+03 0. -1.
         -6    1    1    2    0  502  0.49038056274E+02  0.14304153720E+02 -0.57582699504E+01  0.18047575308E+03  0.17300000000E+03 0. -1.
<mgrwt>
<rscale>  2 0.18038387E+03</rscale>
<asrwt>0</asrwt>
<pdfrwt beam="1">  1       21 0.16835116E-01 0.18038387E+03</pdfrwt>
<pdfrwt beam="2">  1       21 0.71031727E-01 0.18038387E+03</pdfrwt>
<totfact> 0.57303108E+04</totfact>
</mgrwt>
</event>
<event>
 4    1  0.3957190E+000  0.1767399E+03  0.7546771E-02  0.1170996E+00
         21   -1    0    0  503  502  0.00000000000E+00  0.00000000000E+00  0.10675063451E+04  0.10675063451E+04  0.00000000000E+00 0.  1.
         21   -1    0    0  501  503 -0.00000000000E+00 -0.00000000000E+00 -0.31852994541E+02  0.31852994541E+02  0.00000000000E+00 0.  1.
          6    1    1    2  501    0 -0.33179052365E+02  0.14393049498E+02  0.36104469278E+03  0.40198293443E+03  0.17300000000E+03 0. -1.
         -6    1    1    2    0  502  0.33179052365E+02 -0.14393049498E+02  0.67460865774E+03  0.69737640517E+03  0.17300000000E+03 0. -1.
<mgrwt>
<rscale>  2 0.17673995E+03</rscale>
<asrwt>0</asrwt>
<pdfrwt beam="1">  1       21 0.16423172E+00 0.17673995E+03</pdfrwt>
<pdfrwt beam="2">  1       21 0.49004615E-02 0.17673995E+03</pdfrwt>
<totfact> 0.65848618E+04</totfact>
</mgrwt>
</event>
<event>
 4    1  0.3957190E+000  0.3288337E+03  0.7546771E-02  0.1071654E+00
         21   -1    0    0  501  502  0.00000000000E+00  0.00000000000E+00  0.25353018416E+03  0.25353018416E+03  0.00000000000E+00 0. -1.
         21   -1    0    0  502  503 -0.00000000000E+00 -0.00000000000E+00 -0.82022820765E+03  0.82022820765E+03  0.00000000000E+00 0.  1.
          6    1    1    2  501    0  0.91951060803E+02 -0.26409771595E+03  0.88618803014E+02  0.34056554934E+03  0.17300000000E+03 0. -1.
         -6    1    1    2    0  503 -0.91951060803E+02  0.26409771595E+03 -0.65531682650E+03  0.73319284247E+03  0.17300000000E+03 0.  1.
<mgrwt>
<rscale>  2 0.32883370E+03</rscale>
<asrwt>0</asrwt>
<pdfrwt beam="1">  1       21 0.39004643E-01 0.32883370E+03</pdfrwt>
<pdfrwt beam="2">  1       21 0.12618896E+00 0.32883370E+03</pdfrwt>
<totfact> 0.26900429E+03</totfact>
</mgrwt>
</event>
<event>
 4    1  0.3957190E+000  0.1838247E+03  0.7546771E-02  0.1164152E+00
         21   -1    0    0  501  502  0.00000000000E+00  0.00000000000E+00  0.50523305291E+02  0.50523305291E+02  0.00000000000E+00 0.  1.
         21   -1    0    0  502  503 -0.00000000000E+00 -0.00000000000E+00 -0.67977335309E+03  0.67977335309E+03  0.00000000000E+00 0.  1.
          6    1    1    2  501    0  0.95727927006E+01 -0.61407423961E+02 -0.26829533411E+03  0.32522899069E+03  0.17300000000E+03 0.  1.
         -6    1    1    2    0  503 -0.95727927006E+01  0.61407423961E+02 -0.36095471368E+03  0.40506766769E+03  0.17300000000E+03 0.  1.
<mgrwt>
<rscale>  2 0.18382467E+03</rscale>
<asrwt>0</asrwt>
<pdfrwt beam="1">  1       21 0.77728164E-02 0.18382467E+03</pdfrwt>
<pdfrwt beam="2">  1       21 0.10458051E+00 0.18382467E+03</pdfrwt>
<totfact> 0.93417785E+04</totfact>
</mgrwt>
</event>
<event>
 4    1  0.3957190E+000  0.1888737E+03  0.7546771E-02  0.1159481E+00
         21   -1    0    0  503  502  0.00000000000E+00  0.00000000000E+00  0.64288505671E+02  0.64288505671E+02  0.00000000000E+00 0. -1.
         21   -1    0    0  501  503 -0.00000000000E+00 -0.00000000000E+00 -0.61175669806E+03  0.61175669806E+03  0.00000000000E+00 0. -1.
          6    1    1    2  501    0  0.64593161222E+02 -0.39648505537E+02 -0.17067848921E+03  0.25456713682E+03  0.17300000000E+03 0. -1.
         -6    1    1    2    0  502 -0.64593161222E+02  0.39648505537E+02 -0.37678970318E+03  0.42147806692E+03  0.17300000000E+03 0. -1.
<mgrwt>
<rscale>  2 0.18887372E+03</rscale>
<asrwt>0</asrwt>
<pdfrwt beam="1">  1       21 0.98905397E-02 0.18887372E+03</pdfrwt>
<pdfrwt beam="2">  1       21 0.94116412E-01 0.18887372E+03</pdfrwt>
<totfact> 0.78466878E+04</totfact>
</mgrwt>
</event>
<event>
 4    1  0.3957190E+000  0.1804468E+03  0.7546771E-02  0.1167371E+00
         21   -1    0    0  503  502  0.00000000000E+00  0.00000000000E+00  0.13636733491E+04  0.13636733491E+04  0.00000000000E+00 0. -1.
         21   -1    0    0  501  503 -0.00000000000E+00 -0.00000000000E+00 -0.24696054475E+02  0.24696054475E+02  0.00000000000E+00 0. -1.
          6    1    1    2  501    0 -0.51240658249E+02  0.25350646488E+01  0.79587505512E+03  0.81607483418E+03  0.17300000000E+03 0. -1.
         -6    1    1    2    0  502  0.51240658249E+02 -0.25350646488E+01  0.54310223950E+03  0.57229456939E+03  0.17300000000E+03 0. -1.
<mgrwt>
<rscale>  2 0.18044676E+03</rscale>
<asrwt>0</asrwt>
<pdfrwt beam="1">  1       21 0.20979584E+00 0.18044676E+03</pdfrwt>
<pdfrwt beam="2">  1       21 0.37993941E-02 0.18044676E+03</pdfrwt>
<totfact> 0.50123644E+04</totfact>
</mgrwt>
</event>
<event>
 4    1  0.3957190E+000  0.1898568E+03  0.7546771E-02  0.1158591E+00
         21   -1    0    0  501  502  0.00000000000E+00  0.00000000000E+00  0.59472409404E+02  0.59472409404E+02  0.00000000000E+00 0. -1.
         21   -1    0    0  502  503 -0.00000000000E+00 -0.00000000000E+00 -0.60620951331E+03  0.60620951331E+03  0.00000000000E+00 0. -1.
          6    1    1    2  501    0 -0.62127426474E+02 -0.47505582614E+02 -0.27805348839E+03  0.33668878792E+03  0.17300000000E+03 0. -1.
         -6    1    1    2    0  503  0.62127426474E+02  0.47505582614E+02 -0.26868361551E+03  0.32899313480E+03  0.17300000000E+03 0. -1.
<mgrwt>
<rscale>  2 0.18985678E+03</rscale>
<asrwt>0</asrwt>
<pdfrwt beam="1">  1       21 0.91496011E-02 0.18985678E+03</pdfrwt>
<pdfrwt beam="2">  1       21 0.93263006E-01 0.18985678E+03</pdfrwt>
<totfact> 0.91888191E+04</totfact>
</mgrwt>
</event>
<event>
 4    1  0.3957190E+000  0.5019373E+03  0.7546771E-02  0.1013274E+00
         21   -1    0    0  501  502  0.00000000000E+00  0.00000000000E+00  0.69713897020E+03  0.69713897020E+03  0.00000000000E+00 0. -1.
         21   -1    0    0  502  503 -0.00000000000E+00 -0.00000000000E+00 -0.49324185105E+03  0.49324185105E+03  0.00000000000E+00 0.  1.
          6    1    1    2  501    0 -0.25766193774E+03 -0.39448999537E+03 -0.20577759400E+03  0.54248082805E+03  0.17300000000E+03 0.  1.
         -6    1    1    2    0  503  0.25766193774E+03  0.39448999537E+03  0.40967471315E+03  0.64789999321E+03  0.17300000000E+03 0. -1.
<mgrwt>
<rscale>  2 0.50193728E+03</rscale>
<asrwt>0</asrwt>
<pdfrwt beam="1">  1       21 0.10725215E+00 0.50193728E+03</pdfrwt>
<pdfrwt beam="2">  1       21 0.75883362E-01 0.50193728E+03</pdfrwt>
<totfact> 0.89328429E+02</totfact>
</mgrwt>
</event>
<event>
 4    1  0.3957190E+000  0.2358975E+03  0.7546771E-02  0.1122556E+00
         21   -1    0    0  501  502  0.00000000000E+00  0.00000000000E+00  0.96374010111E+03  0.96374010111E+03  0.00000000000E+00 0.  1.
         21   -1    0    0  502  503 -0.00000000000E+00 -0.00000000000E+00 -0.69355800460E+02  0.69355800460E+02  0.00000000000E+00 0.  1.
          6    1    1    2  501    0  0.14924605695E+03  0.58687621488E+02  0.65857473485E+03  0.69954864292E+03  0.17300000000E+03 0.  1.
         -6    1    1    2    0  503 -0.14924605695E+03 -0.58687621488E+02  0.23580956580E+03  0.33354725865E+03  0.17300000000E+03 0.  1.
<mgrwt>
<rscale>  2 0.23589748E+03</rscale>
<asrwt>0</asrwt>
<pdfrwt beam="1">  1       21 0.14826770E+00 0.23589748E+03</pdfrwt>
<pdfrwt beam="2">  1       21 0.10670124E-01 0.23589748E+03</pdfrwt>
<totfact> 0.21702749E+04</totfact>
</mgrwt>
</event>
<event>
 4    1  0.3957190E+000  0.1999092E+03  0.7546771E-02  0.1149816E+00
         21   -1    0    0  501  502  0.00000000000E+00  0.00000000000E+00  0.11715287761E+03  0.11715287761E+03  0.00000000000E+00 0.  1.
         21   -1    0    0  502  503 -0.00000000000E+00 -0.00000000000E+00 -0.34507888734E+03  0.34507888734E+03  0.00000000000E+00 0.  1.
          6    1    1    2  501    0 -0.72060152523E+02  0.69584708969E+02 -0.89221885908E+02  0.21891606206E+03  0.17300000000E+03 0.  1.
         -6    1    1    2    0  503  0.72060152523E+02 -0.69584708969E+02 -0.13870412383E+03  0.24331570289E+03  0.17300000000E+03 0.  1.
<mgrwt>
<rscale>  2 0.19990922E+03</rscale>
<asrwt>0</asrwt>
<pdfrwt beam="1">  1       21 0.18023520E-01 0.19990922E+03</pdfrwt>
<pdfrwt beam="2">  1       21 0.53089058E-01 0.19990922E+03</pdfrwt>
<totfact> 0.93847100E+04</totfact>
</mgrwt>
</event>
<event>
 4    1  0.3957190E+000  0.1751006E+03  0.7546771E-02  0.1172631E+00
         21   -1    0    0  501  502  0.00000000000E+00  0.00000000000E+00  0.19715081894E+02  0.19715081894E+02  0.00000000000E+00 0.  1.
         21   -1    0    0  502  503 -0.00000000000E+00 -0.00000000000E+00 -0.17278872402E+04  0.17278872402E+04  0.00000000000E+00 0.  1.
          6    1    1    2  501    0 -0.26992033417E+02 -0.16245950665E+01 -0.57781921086E+03  0.60376754601E+03  0.17300000000E+03 0.  1.
         -6    1    1    2    0  503  0.26992033417E+02  0.16245950665E+01 -0.11303529475E+04  0.11438347761E+04  0.17300000000E+03 0.  1.
<mgrwt>
<rscale>  2 0.17510057E+03</rscale>
<asrwt>0</asrwt>
<pdfrwt beam="1">  1       21 0.30330890E-02 0.17510057E+03</pdfrwt>
<pdfrwt beam="2">  1       21 0.26582885E+00 0.17510057E+03</pdfrwt>
<totfact> 0.33917310E+04</totfact>
</mgrwt>
</event>
<event>
 4    1  0.3957190E+000  0.1876795E+03  0.7546771E-02  0.1160571E+00
         21   -1    0    0  503  502  0.00000000000E+00  0.00000000000E+00  0.41840624582E+02  0.41840624582E+02  0.00000000000E+00 0.  1.
         21   -1    0    0  501  503 -0.00000000000E+00 -0.00000000000E+00 -0.25180052334E+04  0.25180052334E+04  0.00000000000E+00 0.  1.
          6    1    1    2  501    0  0.72610655592E+02 -0.47208503863E+01 -0.22823514005E+04  0.22900549140E+04  0.17300000000E+03 0.  1.
         -6    1    1    2    0  502 -0.72610655592E+02  0.47208503863E+01 -0.19381320828E+03  0.26979094395E+03  0.17300000000E+03 0.  1.
<mgrwt>
<rscale>  2 0.18767950E+03</rscale>
<asrwt>0</asrwt>
<pdfrwt beam="1">  1       21 0.64370193E-02 0.18767950E+03</pdfrwt>
<pdfrwt beam="2">  1       21 0.38738542E+00 0.18767950E+03</pdfrwt>
<totfact> 0.18353818E+03</totfact>
</mgrwt>
</event>
<event>
 4    1  0.3957190E+000  0.1834046E+03  0.7546771E-02  0.1164548E+00
         21   -1    0    0  501  502  0.00000000000E+00  0.00000000000E+00  0.16917412068E+03  0.16917412068E+03  0.00000000000E+00 0. -1.
         21   -1    0    0  502  503 -0.00000000000E+00 -0.00000000000E+00 -0.21227561178E+03  0.21227561178E+03  0.00000000000E+00 0. -1.
          6    1    1    2  501    0 -0.60292638733E+02 -0.85461040189E+01  0.26446282902E+02  0.18530149503E+03  0.17300000000E+03 0. -1.
         -6    1    1    2    0  503  0.60292638733E+02  0.85461040189E+01 -0.69547774004E+02  0.19614823743E+03  0.17300000000E+03 0. -1.
<mgrwt>
<rscale>  2 0.18340458E+03</rscale>
<asrwt>0</asrwt>
<pdfrwt beam="1">  1       21 0.26026788E-01 0.18340458E+03</pdfrwt>
<pdfrwt beam="2">  1       21 0.32657786E-01 0.18340458E+03</pdfrwt>
<totfact> 0.12695451E+05</totfact>
</mgrwt>
</event>
<event>
 4    1  0.3957190E+000  0.1811374E+03  0.7546771E-02  0.1166707E+00
         21   -1    0    0  503  502  0.00000000000E+00  0.00000000000E+00  0.22176770043E+03  0.22176770043E+03  0.00000000000E+00 0.  1.
         21   -1    0    0  501  503 -0.00000000000E+00 -0.00000000000E+00 -0.18633161775E+03  0.18633161775E+03  0.00000000000E+00 0.  1.
          6    1    1    2  501    0 -0.17951207113E+00 -0.53681555687E+02 -0.74890035912E+02  0.19600831392E+03  0.17300000000E+03 0.  1.
         -6    1    1    2    0  502  0.17951207113E+00  0.53681555687E+02  0.11032611859E+03  0.21209100426E+03  0.17300000000E+03 0.  1.
<mgrwt>
<rscale>  2 0.18113736E+03</rscale>
<asrwt>0</asrwt>
<pdfrwt beam="1">  1       21 0.34118108E-01 0.18113736E+03</pdfrwt>
<pdfrwt beam="2">  1       21 0.28666403E-01 0.18113736E+03</pdfrwt>
<totfact> 0.96781635E+04</totfact>
</mgrwt>
</event>
<event>
 4    1  0.3957190E+000  0.2527947E+03  0.7546771E-02  0.1111551E+00
         21   -1    0    0  503  502  0.00000000000E+00  0.00000000000E+00  0.25046905332E+03  0.25046905332E+03  0.00000000000E+00 0. -1.
         21   -1    0    0  501  503 -0.00000000000E+00 -0.00000000000E+00 -0.26266982300E+03  0.26266982300E+03  0.00000000000E+00 0. -1.
          6    1    1    2  501    0  0.15596387567E+03 -0.98241668780E+02 -0.49535076558E+02  0.25760217353E+03  0.17300000000E+03 0. -1.
         -6    1    1    2    0  502 -0.15596387567E+03  0.98241668780E+02  0.37334306873E+02  0.25553670278E+03  0.17300000000E+03 0. -1.
<mgrwt>
<rscale>  2 0.25279469E+03</rscale>
<asrwt>0</asrwt>
<pdfrwt beam="1">  1       21 0.38533701E-01 0.25279469E+03</pdfrwt>
<pdfrwt beam="2">  1       21 0.40410742E-01 0.25279469E+03</pdfrwt>
<totfact> 0.37243645E+04</totfact>
</mgrwt>
</event>
<event>
 4    1  0.3957190E+000  0.1764526E+03  0.7546771E-02  0.1171281E+00
         21   -1    0    0  501  502  0.00000000000E+00  0.00000000000E+00  0.26009647618E+03  0.26009647618E+03  0.00000000000E+00 0. -1.
         21   -1    0    0  502  503 -0.00000000000E+00 -0.00000000000E+00 -0.57857790879E+03  0.57857790879E+03  0.00000000000E+00 0. -1.
          6    1    1    2  501    0  0.17156841847E+02  0.30201905897E+02  0.21420498200E+03  0.27752348847E+03  0.17300000000E+03 0. -1.
         -6    1    1    2    0  503 -0.17156841847E+02 -0.30201905897E+02 -0.53268641460E+03  0.56115089650E+03  0.17300000000E+03 0. -1.
<mgrwt>
<rscale>  2 0.17645258E+03</rscale>
<asrwt>0</asrwt>
<pdfrwt beam="1">  1       21 0.40014842E-01 0.17645258E+03</pdfrwt>
<pdfrwt beam="2">  1       21 0.89011986E-01 0.17645258E+03</pdfrwt>
<totfact> 0.65681215E+03</totfact>
</mgrwt>
</event>
<event>
 4    1  0.3957190E+000  0.2733526E+03  0.7546771E-02  0.1099376E+00
         21   -1    0    0  503  502  0.00000000000E+00  0.00000000000E+00  0.13595431322E+03  0.13595431322E+03  0.00000000000E+00 0. -1.
         21   -1    0    0  501  503 -0.00000000000E+00 -0.00000000000E+00 -0.55042168788E+03  0.55042168788E+03  0.00000000000E+00 0.  1.
          6    1    1    2  501    0  0.18535686426E+03  0.10215427088E+03 -0.22042379330E+03  0.35115283117E+03  0.17300000000E+03 0.  1.
         -6    1    1    2    0  502 -0.18535686426E+03 -0.10215427088E+03 -0.19404358136E+03  0.33522316992E+03  0.17300000000E+03 0.  1.
<mgrwt>
<rscale>  2 0.27335263E+03</rscale>
<asrwt>0</asrwt>
<pdfrwt beam="1">  1       21 0.20916048E-01 0.27335263E+03</pdfrwt>
<pdfrwt beam="2">  1       21 0.84680260E-01 0.27335263E+03</pdfrwt>
<totfact> 0.24625671E+04</totfact>
</mgrwt>
</event>
<event>
 4    1  0.3957190E+000  0.2438688E+03  0.7546771E-02  0.1117242E+00
         21   -1    0    0  501  502  0.00000000000E+00  0.00000000000E+00  0.15984762313E+03  0.15984762313E+03  0.00000000000E+00 0. -1.
         21   -1    0    0  502  503 -0.00000000000E+00 -0.00000000000E+00 -0.51442392261E+03  0.51442392261E+03  0.00000000000E+00 0. -1.
          6    1    1    2  501    0  0.62624616678E+02  0.16006610381E+03  0.70707220353E-01  0.24386882786E+03  0.17300000000E+03 0. -1.
         -6    1    1    2    0  503 -0.62624616678E+02 -0.16006610381E+03 -0.35464700670E+03  0.43040271789E+03  0.17300000000E+03 0. -1.
<mgrwt>
<rscale>  2 0.24386882E+03</rscale>
<asrwt>0</asrwt>
<pdfrwt beam="1">  1       21 0.24591942E-01 0.24386882E+03</pdfrwt>
<pdfrwt beam="2">  1       21 0.79142141E-01 0.24386882E+03</pdfrwt>
<totfact> 0.21411814E+04</totfact>
</mgrwt>
</event>
<event>
 4    1  0.3957190E+000  0.2568921E+03  0.7546771E-02  0.1109025E+00
         21   -1    0    0  503  502  0.00000000000E+00  0.00000000000E+00  0.32072522012E+03  0.32072522012E+03  0.00000000000E+00 0.  1.
         21   -1    0    0  501  503 -0.00000000000E+00 -0.00000000000E+00 -0.28155472512E+03  0.28155472512E+03  0.00000000000E+00 0.  1.
          6    1    1    2  501    0 -0.14660620714E+02 -0.18933995216E+03  0.17582674526E+03  0.31130145459E+03  0.17300000000E+03 0.  1.
         -6    1    1    2    0  502  0.14660620714E+02  0.18933995216E+03 -0.13665625026E+03  0.29097849065E+03  0.17300000000E+03 0.  1.
<mgrwt>
<rscale>  2 0.25689210E+03</rscale>
<asrwt>0</asrwt>
<pdfrwt beam="1">  1       21 0.49342341E-01 0.25689210E+03</pdfrwt>
<pdfrwt beam="2">  1       21 0.43316112E-01 0.25689210E+03</pdfrwt>
<totfact> 0.19384656E+04</totfact>
</mgrwt>
</event>
<event>
 4    1  0.3957190E+000  0.2252686E+03  0.7546771E-02  0.1130015E+00
         21   -1    0    0  503  502  0.00000000000E+00  0.00000000000E+00  0.66598913368E+02  0.66598913368E+02  0.00000000000E+00 0.  1.
         21   -1    0    0  501  503 -0.00000000000E+00 -0.00000000000E+00 -0.24489019620E+04  0.24489019620E+04  0.00000000000E+00 0. -1.
          6    1    1    2  501    0 -0.13388716747E+03  0.53769667939E+02 -0.22350502777E+04  0.22463738991E+04  0.17300000000E+03 0. -1.
         -6    1    1    2    0  502  0.13388716747E+03 -0.53769667939E+02 -0.14725277096E+03  0.26912697627E+03  0.17300000000E+03 0.  1.
<mgrwt>
<rscale>  2 0.22526862E+03</rscale>
<asrwt>0</asrwt>
<pdfrwt beam="1">  1       21 0.10245988E-01 0.22526862E+03</pdfrwt>
<pdfrwt beam="2">  1       21 0.37675409E+00 0.22526862E+03</pdfrwt>
<totfact> 0.89813532E+02</totfact>
</mgrwt>
</event>
<event>
 4    1  0.3957190E+000  0.2069622E+03  0.7546771E-02  0.1143994E+00
         21   -1    0    0  503  502  0.00000000000E+00  0.00000000000E+00  0.30084604722E+03  0.30084604722E+03  0.00000000000E+00 0.  1.
         21   -1    0    0  501  503 -0.00000000000E+00 -0.00000000000E+00 -0.16045937385E+03  0.16045937385E+03  0.00000000000E+00 0.  1.
          6    1    1    2  501    0  0.11255780495E+03 -0.15333078783E+02  0.14762373937E+03  0.25421670123E+03  0.17300000000E+03 0.  1.
         -6    1    1    2    0  502 -0.11255780495E+03  0.15333078783E+02 -0.72370660119E+01  0.20708871984E+03  0.17300000000E+03 0.  1.
<mgrwt>
<rscale>  2 0.20696223E+03</rscale>
<asrwt>0</asrwt>
<pdfrwt beam="1">  1       21 0.46284007E-01 0.20696223E+03</pdfrwt>
<pdfrwt beam="2">  1       21 0.24686058E-01 0.20696223E+03</pdfrwt>
<totfact> 0.68948318E+04</totfact>
</mgrwt>
</event>
<event>
 4    1  0.3957190E+000  0.2007695E+03  0.7546771E-02  0.1149091E+00
         21   -1    0    0  503  502  0.00000000000E+00  0.00000000000E+00  0.49458210651E+03  0.49458210651E+03  0.00000000000E+00 0.  1.
         21   -1    0    0  501  503 -0.00000000000E+00 -0.00000000000E+00 -0.96904957872E+02  0.96904957872E+02  0.00000000000E+00 0.  1.
          6    1    1    2  501    0 -0.24646875521E+01  0.10184942085E+03  0.80922151725E+02  0.21646425537E+03  0.17300000000E+03 0.  1.
         -6    1    1    2    0  502  0.24646875521E+01 -0.10184942085E+03  0.31675499691E+03  0.37502280901E+03  0.17300000000E+03 0.  1.
<mgrwt>
<rscale>  2 0.20076947E+03</rscale>
<asrwt>0</asrwt>
<pdfrwt beam="1">  1       21 0.76089553E-01 0.20076947E+03</pdfrwt>
<pdfrwt beam="2">  1       21 0.14908455E-01 0.20076947E+03</pdfrwt>
<totfact> 0.60832679E+04</totfact>
</mgrwt>
</event>
<event>
 4    1  0.3957190E+000  0.1873080E+03  0.7546771E-02  0.1160912E+00
         21   -1    0    0  503  502  0.00000000000E+00  0.00000000000E+00  0.16606385461E+04  0.16606385461E+04  0.00000000000E+00 0. -1.
         21   -1    0    0  501  503 -0.00000000000E+00 -0.00000000000E+00 -0.56151610701E+02  0.56151610701E+02  0.00000000000E+00 0. -1.
          6    1    1    2  501    0  0.71678962793E+02 -0.41745901938E+01  0.14801858796E+04  0.14919901270E+04  0.17300000000E+03 0. -1.
         -6    1    1    2    0  502 -0.71678962793E+02  0.41745901938E+01  0.12430105573E+03  0.22480002973E+03  0.17300000000E+03 0. -1.
<mgrwt>
<rscale>  2 0.18730804E+03</rscale>
<asrwt>0</asrwt>
<pdfrwt beam="1">  1       21 0.25548282E+00 0.18730804E+03</pdfrwt>
<pdfrwt beam="2">  1       21 0.86387106E-02 0.18730804E+03</pdfrwt>
<totfact> 0.65161874E+03</totfact>
</mgrwt>
</event>
<event>
 4    1  0.3957190E+000  0.1961265E+03  0.7546771E-02  0.1153049E+00
         21   -1    0    0  503  502  0.00000000000E+00  0.00000000000E+00  0.14669683547E+04  0.14669683547E+04  0.00000000000E+00 0.  1.
         21   -1    0    0  501  503 -0.00000000000E+00 -0.00000000000E+00 -0.15405594972E+03  0.15405594972E+03  0.00000000000E+00 0.  1.
          6    1    1    2  501    0 -0.63952325015E+02  0.66683552067E+02 -0.81864152956E+02  0.21252608200E+03  0.17300000000E+03 0.  1.
         -6    1    1    2    0  502  0.63952325015E+02 -0.66683552067E+02  0.13947765579E+04  0.14084982224E+04  0.17300000000E+03 0.  1.
<mgrwt>
<rscale>  2 0.19612648E+03</rscale>
<asrwt>0</asrwt>
<pdfrwt beam="1">  1       21 0.22568743E+00 0.19612648E+03</pdfrwt>
<pdfrwt beam="2">  1       21 0.23700916E-01 0.19612648E+03</pdfrwt>
<totfact> 0.15510704E+03</totfact>
</mgrwt>
</event>
<event>
 4    1  0.3957190E+000  0.1828251E+03  0.7546771E-02  0.1165097E+00
         21   -1    0    0  501  502  0.00000000000E+00  0.00000000000E+00  0.11739441319E+04  0.11739441319E+04  0.00000000000E+00 0. -1.
         21   -1    0    0  502  503 -0.00000000000E+00 -0.00000000000E+00 -0.36337414511E+02  0.36337414511E+02  0.00000000000E+00 0. -1.
          6    1    1    2  501    0  0.52203287424E+02 -0.27763784295E+02  0.28727051081E+03  0.34051337318E+03  0.17300000000E+03 0. -1.
         -6    1    1    2    0  503 -0.52203287424E+02  0.27763784295E+02  0.85033620655E+03  0.86976817319E+03  0.17300000000E+03 0. -1.
<mgrwt>
<rscale>  2 0.18282508E+03</rscale>
<asrwt>0</asrwt>
<pdfrwt beam="1">  1       21 0.18060676E+00 0.18282508E+03</pdfrwt>
<pdfrwt beam="2">  1       21 0.55903724E-02 0.18282508E+03</pdfrwt>
<totfact> 0.40356421E+04</totfact>
</mgrwt>
</event>
<event>
 4    1  0.3957190E+000  0.2169198E+03  0.7546771E-02  0.1136201E+00
         21   -1    0    0  501  502  0.00000000000E+00  0.00000000000E+00  0.19130042927E+03  0.19130042927E+03  0.00000000000E+00 0. -1.
         21   -1    0    0  502  503 -0.00000000000E+00 -0.00000000000E+00 -0.24625536550E+03  0.24625536550E+03  0.00000000000E+00 0. -1.
          6    1    1    2  501    0 -0.13034024237E+03  0.11687862300E+02 -0.34923732346E+02  0.21971311292E+03  0.17300000000E+03 0. -1.
         -6    1    1    2    0  503  0.13034024237E+03 -0.11687862300E+02 -0.20031203888E+02  0.21784268185E+03  0.17300000000E+03 0. -1.
<mgrwt>
<rscale>  2 0.21691977E+03</rscale>
<asrwt>0</asrwt>
<pdfrwt beam="1">  1       21 0.29430835E-01 0.21691977E+03</pdfrwt>
<pdfrwt beam="2">  1       21 0.37885441E-01 0.21691977E+03</pdfrwt>
<totfact> 0.73549022E+04</totfact>
</mgrwt>
</event>
<event>
 4    1  0.3957190E+000  0.1736041E+03  0.7546771E-02  0.1174141E+00
         21   -1    0    0  503  502  0.00000000000E+00  0.00000000000E+00  0.29049839141E+02  0.29049839141E+02  0.00000000000E+00 0. -1.
         21   -1    0    0  501  503 -0.00000000000E+00 -0.00000000000E+00 -0.12272821723E+04  0.12272821723E+04  0.00000000000E+00 0. -1.
          6    1    1    2  501    0 -0.13946589140E+02 -0.38552840857E+01 -0.35207865157E+03  0.39255285944E+03  0.17300000000E+03 0.  1.
         -6    1    1    2    0  502  0.13946589140E+02  0.38552840857E+01 -0.84615368157E+03  0.86377915198E+03  0.17300000000E+03 0.  1.
<mgrwt>
<rscale>  2 0.17360406E+03</rscale>
<asrwt>0</asrwt>
<pdfrwt beam="1">  1       21 0.44692067E-02 0.17360406E+03</pdfrwt>
<pdfrwt beam="2">  1       21 0.18881261E+00 0.17360406E+03</pdfrwt>
<totfact> 0.52274954E+04</totfact>
</mgrwt>
</event>
<event>
 4    1  0.3957190E+000  0.2388976E+03  0.7546771E-02  0.1120529E+00
         21   -1    0    0  503  502  0.00000000000E+00  0.00000000000E+00  0.23332796736E+03  0.23332796736E+03  0.00000000000E+00 0.  1.
         21   -1    0    0  501  503 -0.00000000000E+00 -0.00000000000E+00 -0.24729098354E+03  0.24729098354E+03  0.00000000000E+00 0.  1.
          6    1    1    2  501    0  0.12749942662E+03  0.10434051948E+03 -0.32049119021E+02  0.24103774357E+03  0.17300000000E+03 0.  1.
         -6    1    1    2    0  502 -0.12749942662E+03 -0.10434051948E+03  0.18086102838E+02  0.23958120734E+03  0.17300000000E+03 0.  1.
<mgrwt>
<rscale>  2 0.23889757E+03</rscale>
<asrwt>0</asrwt>
<pdfrwt beam="1">  1       21 0.35896610E-01 0.23889757E+03</pdfrwt>
<pdfrwt beam="2">  1       21 0.38044767E-01 0.23889757E+03</pdfrwt>
<totfact> 0.48818626E+04</totfact>
</mgrwt>
</event>
<event>
 4    1  0.3957190E+000  0.2347968E+03  0.7546771E-02  0.1123308E+00
         21   -1    0    0  501  502  0.00000000000E+00  0.00000000000E+00  0.20145525311E+03  0.20145525311E+03  0.00000000000E+00 0.  1.
         21   -1    0    0  502  503 -0.00000000000E+00 -0.00000000000E+00 -0.10062510898E+04  0.10062510898E+04  0.00000000000E+00 0.  1.
          6    1    1    2  501    0  0.11365076830E+03  0.11083331691E+03  0.11284264931E+03  0.26050524904E+03  0.17300000000E+03 0.  1.
         -6    1    1    2    0  503 -0.11365076830E+03 -0.11083331691E+03 -0.91763848599E+03  0.94720109387E+03  0.17300000000E+03 0.  1.
<mgrwt>
<rscale>  2 0.23479677E+03</rscale>
<asrwt>0</asrwt>
<pdfrwt beam="1">  1       21 0.30993116E-01 0.23479677E+03</pdfrwt>
<pdfrwt beam="2">  1       21 0.15480786E+00 0.23479677E+03</pdfrwt>
<totfact> 0.26515213E+03</totfact>
</mgrwt>
</event>
<event>
 4    1  0.3957190E+000  0.3212412E+03  0.7546771E-02  0.1075080E+00
         21   -1    0    0  501  502  0.00000000000E+00  0.00000000000E+00  0.44444377963E+03  0.44444377963E+03  0.00000000000E+00 0.  1.
         21   -1    0    0  502  503 -0.00000000000E+00 -0.00000000000E+00 -0.29095704929E+03  0.29095704929E+03  0.00000000000E+00 0. -1.
          6    1    1    2  501    0  0.25862233993E+03  0.79883441978E+02  0.24199381394E+03  0.40219011052E+03  0.17300000000E+03 0.  1.
         -6    1    1    2    0  503 -0.25862233993E+03 -0.79883441978E+02 -0.88507083603E+02  0.33321071840E+03  0.17300000000E+03 0. -1.
<mgrwt>
<rscale>  2 0.32124115E+03</rscale>
<asrwt>0</asrwt>
<pdfrwt beam="1">  1       21 0.68375967E-01 0.32124115E+03</pdfrwt>
<pdfrwt beam="2">  1       21 0.44762623E-01 0.32124115E+03</pdfrwt>
<totfact> 0.87029753E+03</totfact>
</mgrwt>
</event>
<event>
 4    1  0.3957190E+000  0.2459662E+03  0.7546771E-02  0.1115881E+00
         21   -1    0    0  501  502  0.00000000000E+00  0.00000000000E+00  0.35445110104E+03  0.35445110104E+03  0.00000000000E+00 0. -1.
         21   -1    0    0  502  503 -0.00000000000E+00 -0.00000000000E+00 -0.17803635263E+03  0.17803635263E+03  0.00000000000E+00 0.  1.
          6    1    1    2  501    0  0.67133220280E+02  0.16144197264E+03  0.14230989899E+03  0.28416806145E+03  0.17300000000E+03 0. -1.
         -6    1    1    2    0  503 -0.67133220280E+02 -0.16144197264E+03  0.34104849420E+02  0.24831939222E+03  0.17300000000E+03 0.  1.
<mgrwt>
<rscale>  2 0.24596622E+03</rscale>
<asrwt>0</asrwt>
<pdfrwt beam="1">  1       21 0.54530939E-01 0.24596622E+03</pdfrwt>
<pdfrwt beam="2">  1       21 0.27390208E-01 0.24596622E+03</pdfrwt>
<totfact> 0.39367175E+04</totfact>
</mgrwt>
</event>
<event>
 4    1  0.3957190E+000  0.1824321E+03  0.7546771E-02  0.1165470E+00
         21   -1    0    0  501  502  0.00000000000E+00  0.00000000000E+00  0.12945028749E+03  0.12945028749E+03  0.00000000000E+00 0.  1.
         21   -1    0    0  502  503 -0.00000000000E+00 -0.00000000000E+00 -0.26020706646E+03  0.26020706646E+03  0.00000000000E+00 0.  1.
          6    1    1    2  501    0 -0.91466843585E+01 -0.57173557779E+02 -0.86673107954E+02  0.20197451618E+03  0.17300000000E+03 0. -1.
         -6    1    1    2    0  503  0.91466843585E+01  0.57173557779E+02 -0.44083671011E+02  0.18768283777E+03  0.17300000000E+03 0. -1.
<mgrwt>
<rscale>  2 0.18243212E+03</rscale>
<asrwt>0</asrwt>
<pdfrwt beam="1">  1       21 0.19915429E-01 0.18243212E+03</pdfrwt>
<pdfrwt beam="2">  1       21 0.40031856E-01 0.18243212E+03</pdfrwt>
<totfact> 0.14039353E+05</totfact>
</mgrwt>
</event>
<event>
 4    1  0.3957190E+000  0.1775583E+03  0.7546771E-02  0.1170187E+00
         21   -1    0    0  503  502  0.00000000000E+00  0.00000000000E+00  0.43447648779E+03  0.43447648779E+03  0.00000000000E+00 0. -1.
         21   -1    0    0  501  503 -0.00000000000E+00 -0.00000000000E+00 -0.72570836398E+02  0.72570836398E+02  0.00000000000E+00 0. -1.
          6    1    1    2  501    0  0.24777373133E+02  0.31369432463E+02  0.17833469077E+03  0.25165496507E+03  0.17300000000E+03 0. -1.
         -6    1    1    2    0  502 -0.24777373133E+02 -0.31369432463E+02  0.18357096062E+03  0.25539235912E+03  0.17300000000E+03 0. -1.
<mgrwt>
<rscale>  2 0.17755833E+03</rscale>
<asrwt>0</asrwt>
<pdfrwt beam="1">  1       21 0.66842535E-01 0.17755833E+03</pdfrwt>
<pdfrwt beam="2">  1       21 0.11164744E-01 0.17755833E+03</pdfrwt>
<totfact> 0.13758091E+05</totfact>
</mgrwt>
</event>
<event>
 4    1  0.3957190E+000  0.2538312E+03  0.7546771E-02  0.1110907E+00
         21   -1    0    0  501  502  0.00000000000E+00  0.00000000000E+00  0.13451153890E+04  0.13451153890E+04  0.00000000000E+00 0. -1.
         21   -1    0    0  502  503 -0.00000000000E+00 -0.00000000000E+00 -0.11360211813E+03  0.11360211813E+03  0.00000000000E+00 0.  1.
          6    1    1    2  501    0 -0.70360620447E+02 -0.17190305396E+03  0.11704328129E+04  0.11976407000E+04  0.17300000000E+03 0. -1.
         -6    1    1    2    0  503  0.70360620447E+02  0.17190305396E+03  0.61080457991E+02  0.26107680712E+03  0.17300000000E+03 0.  1.
<mgrwt>
<rscale>  2 0.25383120E+03</rscale>
<asrwt>0</asrwt>
<pdfrwt beam="1">  1       21 0.20694082E+00 0.25383120E+03</pdfrwt>
<pdfrwt beam="2">  1       21 0.17477250E-01 0.25383120E+03</pdfrwt>
<totfact> 0.34087838E+03</totfact>
</mgrwt>
</event>
<event>
 4    1  0.3957190E+000  0.2006965E+03  0.7546771E-02  0.1149153E+00
         21   -1    0    0  501  502  0.00000000000E+00  0.00000000000E+00  0.81096597228E+02  0.81096597228E+02  0.00000000000E+00 0. -1.
         21   -1    0    0  502  503 -0.00000000000E+00 -0.00000000000E+00 -0.49914799922E+03  0.49914799922E+03  0.00000000000E+00 0. -1.
          6    1    1    2  501    0 -0.98404647571E+02  0.25819021553E+02 -0.18862725703E+03  0.27542574069E+03  0.17300000000E+03 0. -1.
         -6    1    1    2    0  503  0.98404647571E+02 -0.25819021553E+02 -0.22942414496E+03  0.30481885576E+03  0.17300000000E+03 0. -1.
<mgrwt>
<rscale>  2 0.20069653E+03</rscale>
<asrwt>0</asrwt>
<pdfrwt beam="1">  1       21 0.12476399E-01 0.20069653E+03</pdfrwt>
<pdfrwt beam="2">  1       21 0.76792002E-01 0.20069653E+03</pdfrwt>
<totfact> 0.82244410E+04</totfact>
</mgrwt>
</event>
<event>
 4    1  0.3957190E+000  0.2154960E+03  0.7546771E-02  0.1137286E+00
         21   -1    0    0  501  502  0.00000000000E+00  0.00000000000E+00  0.94900890714E+03  0.94900890714E+03  0.00000000000E+00 0. -1.
         21   -1    0    0  502  503 -0.00000000000E+00 -0.00000000000E+00 -0.77010335348E+02  0.77010335348E+02  0.00000000000E+00 0.  1.
          6    1    1    2  501    0  0.75419844505E+02 -0.10402589735E+03  0.74575786634E+03  0.77626885515E+03  0.17300000000E+03 0. -1.
         -6    1    1    2    0  503 -0.75419844505E+02  0.10402589735E+03  0.12624070546E+03  0.24975038735E+03  0.17300000000E+03 0.  1.
<mgrwt>
<rscale>  2 0.21549603E+03</rscale>
<asrwt>0</asrwt>
<pdfrwt beam="1">  1       21 0.14600136E+00 0.21549603E+03</pdfrwt>
<pdfrwt beam="2">  1       21 0.11847745E-01 0.21549603E+03</pdfrwt>
<totfact> 0.18974971E+04</totfact>
</mgrwt>
</event>
<event>
 4    1  0.3957190E+000  0.2059722E+03  0.7546771E-02  0.1144796E+00
         21   -1    0    0  501  502  0.00000000000E+00  0.00000000000E+00  0.96546634289E+02  0.96546634289E+02  0.00000000000E+00 0. -1.
         21   -1    0    0  502  503 -0.00000000000E+00 -0.00000000000E+00 -0.55003603044E+03  0.55003603044E+03  0.00000000000E+00 0. -1.
          6    1    1    2  501    0 -0.11178320521E+03 -0.22112853426E+00 -0.81764968378E+02  0.22160786069E+03  0.17300000000E+03 0. -1.
         -6    1    1    2    0  503  0.11178320521E+03  0.22112853426E+00 -0.37172442777E+03  0.42497480404E+03  0.17300000000E+03 0. -1.
<mgrwt>
<rscale>  2 0.20597217E+03</rscale>
<asrwt>0</asrwt>
<pdfrwt beam="1">  1       21 0.14853328E-01 0.20597217E+03</pdfrwt>
<pdfrwt beam="2">  1       21 0.84620927E-01 0.20597217E+03</pdfrwt>
<totfact> 0.48020981E+04</totfact>
</mgrwt>
</event>
<event>
 4    1  0.3957190E+000  0.1860502E+03  0.7546771E-02  0.1162073E+00
         21   -1    0    0  501  502  0.00000000000E+00  0.00000000000E+00  0.46795316857E+02  0.46795316857E+02  0.00000000000E+00 0.  1.
         21   -1    0    0  502  503 -0.00000000000E+00 -0.00000000000E+00 -0.15320094446E+04  0.15320094446E+04  0.00000000000E+00 0.  1.
          6    1    1    2  501    0 -0.64595536758E+02 -0.22651541940E+02 -0.13103007626E+04  0.13234435251E+04  0.17300000000E+03 0.  1.
         -6    1    1    2    0  503  0.64595536758E+02  0.22651541940E+02 -0.17491336518E+03  0.25536123637E+03  0.17300000000E+03 0.  1.
<mgrwt>
<rscale>  2 0.18605020E+03</rscale>
<asrwt>0</asrwt>
<pdfrwt beam="1">  1       21 0.71992809E-02 0.18605020E+03</pdfrwt>
<pdfrwt beam="2">  1       21 0.23569372E+00 0.18605020E+03</pdfrwt>
<totfact> 0.11717995E+04</totfact>
</mgrwt>
</event>
<event>
 4    1  0.3957190E+000  0.2296937E+03  0.7546771E-02  0.1126856E+00
         21   -1    0    0  503  502  0.00000000000E+00  0.00000000000E+00  0.11758287181E+03  0.11758287181E+03  0.00000000000E+00 0.  1.
         21   -1    0    0  501  503 -0.00000000000E+00 -0.00000000000E+00 -0.59944769370E+03  0.59944769370E+03  0.00000000000E+00 0. -1.
          6    1    1    2  501    0 -0.10748271389E+03  0.10619636910E+03 -0.42072020628E+03  0.47933776668E+03  0.17300000000E+03 0. -1.
         -6    1    1    2    0  502  0.10748271389E+03 -0.10619636910E+03 -0.61144615606E+02  0.23769279882E+03  0.17300000000E+03 0.  1.
<mgrwt>
<rscale>  2 0.22969371E+03</rscale>
<asrwt>0</asrwt>
<pdfrwt beam="1">  1       21 0.18089672E-01 0.22969371E+03</pdfrwt>
<pdfrwt beam="2">  1       21 0.92222723E-01 0.22969371E+03</pdfrwt>
<totfact> 0.27059207E+04</totfact>
</mgrwt>
</event>
<event>
 4    1  0.3957190E+000  0.2758075E+03  0.7546771E-02  0.1098001E+00
         21   -1    0    0  503  502  0.00000000000E+00  0.00000000000E+00  0.11943452814E+04  0.11943452814E+04  0.00000000000E+00 0.  1.
         21   -1    0    0  501  503 -0.00000000000E+00 -0.00000000000E+00 -0.68439652283E+02  0.68439652283E+02  0.00000000000E+00 0. -1.
          6    1    1    2  501    0 -0.10772679506E+03  0.18583782921E+03  0.39664859245E+03  0.48311475555E+03  0.17300000000E+03 0. -1.
         -6    1    1    2    0  502  0.10772679506E+03 -0.18583782921E+03  0.72925703669E+03  0.77967017815E+03  0.17300000000E+03 0.  1.
<mgrwt>
<rscale>  2 0.27580747E+03</rscale>
<asrwt>0</asrwt>
<pdfrwt beam="1">  1       21 0.18374541E+00 0.27580747E+03</pdfrwt>
<pdfrwt beam="2">  1       21 0.10529178E-01 0.27580747E+03</pdfrwt>
<totfact> 0.12020481E+04</totfact>
</mgrwt>
</event>
<event>
 4    1  0.3957190E+000  0.3362511E+03  0.7546771E-02  0.1068404E+00
         21   -1    0    0  503  502  0.00000000000E+00  0.00000000000E+00  0.44752852898E+03  0.44752852898E+03  0.00000000000E+00 0. -1.
         21   -1    0    0  501  503 -0.00000000000E+00 -0.00000000000E+00 -0.44477375466E+03  0.44477375466E+03  0.00000000000E+00 0. -1.
          6    1    1    2  501    0  0.15178140107E+03 -0.24514931789E+03 -0.29185457208E+03  0.44524585682E+03  0.17300000000E+03 0. -1.
         -6    1    1    2    0  502 -0.15178140107E+03  0.24514931789E+03  0.29460934640E+03  0.44705642682E+03  0.17300000000E+03 0. -1.
<mgrwt>
<rscale>  2 0.33625107E+03</rscale>
<asrwt>0</asrwt>
<pdfrwt beam="1">  1       21 0.68850543E-01 0.33625107E+03</pdfrwt>
<pdfrwt beam="2">  1       21 0.68426732E-01 0.33625107E+03</pdfrwt>
<totfact> 0.34200491E+03</totfact>
</mgrwt>
</event>
<event>
 4    1  0.3957190E+000  0.2612050E+03  0.7546771E-02  0.1106421E+00
         21   -1    0    0  503  502  0.00000000000E+00  0.00000000000E+00  0.82869412288E+02  0.82869412288E+02  0.00000000000E+00 0.  1.
         21   -1    0    0  501  503 -0.00000000000E+00 -0.00000000000E+00 -0.90870394354E+03  0.90870394354E+03  0.00000000000E+00 0.  1.
          6    1    1    2  501    0  0.19283860989E+03 -0.33351622294E+02 -0.56489195724E+03  0.62235920780E+03  0.17300000000E+03 0.  1.
         -6    1    1    2    0  502 -0.19283860989E+03  0.33351622294E+02 -0.26094257402E+03  0.36921414804E+03  0.17300000000E+03 0.  1.
<mgrwt>
<rscale>  2 0.26120502E+03</rscale>
<asrwt>0</asrwt>
<pdfrwt beam="1">  1       21 0.12749140E-01 0.26120502E+03</pdfrwt>
<pdfrwt beam="2">  1       21 0.13980061E+00 0.26120502E+03</pdfrwt>
<totfact> 0.18151756E+04</totfact>
</mgrwt>
</event>
<event>
 4    1  0.3957190E+000  0.1974722E+03  0.7546771E-02  0.1151889E+00
         21   -1    0    0  501  502  0.00000000000E+00  0.00000000000E+00  0.14530048883E+04  0.14530048883E+04  0.00000000000E+00 0. -1.
         21   -1    0    0  502  503 -0.00000000000E+00 -0.00000000000E+00 -0.33343790982E+02  0.33343790982E+02  0.00000000000E+00 0. -1.
          6    1    1    2  501    0 -0.83405738952E+02 -0.45931881244E+02  0.10381106294E+04  0.10567255717E+04  0.17300000000E+03 0. -1.
         -6    1    1    2    0  503  0.83405738952E+02  0.45931881244E+02  0.38155046793E+03  0.42962310760E+03  0.17300000000E+03 0. -1.
<mgrwt>
<rscale>  2 0.19747216E+03</rscale>
<asrwt>0</asrwt>
<pdfrwt beam="1">  1       21 0.22353917E+00 0.19747216E+03</pdfrwt>
<pdfrwt beam="2">  1       21 0.51298151E-02 0.19747216E+03</pdfrwt>
<totfact> 0.24555294E+04</totfact>
</mgrwt>
</event>
<event>
 4    1  0.3957190E+000  0.2434995E+03  0.7546771E-02  0.1117483E+00
         21   -1    0    0  503  502  0.00000000000E+00  0.00000000000E+00  0.75487017246E+02  0.75487017246E+02  0.00000000000E+00 0.  1.
         21   -1    0    0  501  503 -0.00000000000E+00 -0.00000000000E+00 -0.13511265293E+04  0.13511265293E+04  0.00000000000E+00 0. -1.
          6    1    1    2  501    0 -0.15184537562E+03 -0.79410187668E+02 -0.10993591381E+04  0.11260028910E+04  0.17300000000E+03 0. -1.
         -6    1    1    2    0  502  0.15184537562E+03  0.79410187668E+02 -0.17628037401E+03  0.30061065560E+03  0.17300000000E+03 0.  1.
<mgrwt>
<rscale>  2 0.24349948E+03</rscale>
<asrwt>0</asrwt>
<pdfrwt beam="1">  1       21 0.11613388E-01 0.24349948E+03</pdfrwt>
<pdfrwt beam="2">  1       21 0.20786560E+00 0.24349948E+03</pdfrwt>
<totfact> 0.71429095E+03</totfact>
</mgrwt>
</event>
<event>
 4    1  0.3957190E+000  0.2480188E+03  0.7546771E-02  0.1114563E+00
         21   -1    0    0  501  502  0.00000000000E+00  0.00000000000E+00  0.18611732774E+03  0.18611732774E+03  0.00000000000E+00 0. -1.
         21   -1    0    0  502  503 -0.00000000000E+00 -0.00000000000E+00 -0.33050922402E+03  0.33050922402E+03  0.00000000000E+00 0.  1.
          6    1    1    2  501    0  0.13578136552E+03  0.11466371624E+03 -0.72594620039E+02  0.25842470065E+03  0.17300000000E+03 0.  1.
         -6    1    1    2    0  503 -0.13578136552E+03 -0.11466371624E+03 -0.71797276244E+02  0.25820185112E+03  0.17300000000E+03 0. -1.
<mgrwt>
<rscale>  2 0.24801884E+03</rscale>
<asrwt>0</asrwt>
<pdfrwt beam="1">  1       21 0.28633435E-01 0.24801884E+03</pdfrwt>
<pdfrwt beam="2">  1       21 0.50847573E-01 0.24801884E+03</pdfrwt>
<totfact> 0.41829225E+04</totfact>
</mgrwt>
</event>
<event>
 4    1  0.3957190E+000  0.1900040E+03  0.7546771E-02  0.1158458E+00
         21   -1    0    0  503  502  0.00000000000E+00  0.00000000000E+00  0.33615411388E+03  0.33615411388E+03  0.00000000000E+00 0. -1.
         21   -1    0    0  501  503 -0.00000000000E+00 -0.00000000000E+00 -0.12503483214E+03  0.12503483214E+03  0.00000000000E+00 0. -1.
          6    1    1    2  501    0  0.17115184275E+02 -0.76678511002E+02  0.19217030373E+03  0.27024238975E+03  0.17300000000E+03 0.  1.
         -6    1    1    2    0  502 -0.17115184275E+02  0.76678511002E+02  0.18948978012E+02  0.19094655627E+03  0.17300000000E+03 0.  1.
<mgrwt>
<rscale>  2 0.19000401E+03</rscale>
<asrwt>0</asrwt>
<pdfrwt beam="1">  1       21 0.51716017E-01 0.19000401E+03</pdfrwt>
<pdfrwt beam="2">  1       21 0.19236128E-01 0.19000401E+03</pdfrwt>
<totfact> 0.88233005E+04</totfact>
</mgrwt>
</event>
<event>
 4    1  0.3957190E+000  0.1858526E+03  0.7546771E-02  0.1162256E+00
         21   -1    0    0  503  502  0.00000000000E+00  0.00000000000E+00  0.17487556879E+04  0.17487556879E+04  0.00000000000E+00 0. -1.
         21   -1    0    0  501  503 -0.00000000000E+00 -0.00000000000E+00 -0.57641893380E+02  0.57641893380E+02  0.00000000000E+00 0. -1.
          6    1    1    2  501    0 -0.25936204044E+02 -0.62765502641E+02  0.11327775330E+03  0.21765349617E+03  0.17300000000E+03 0. -1.
         -6    1    1    2    0  502  0.25936204044E+02  0.62765502641E+02  0.15778360412E+04  0.15887440851E+04  0.17300000000E+03 0. -1.
<mgrwt>
<rscale>  2 0.18585262E+03</rscale>
<asrwt>0</asrwt>
<pdfrwt beam="1">  1       21 0.26903930E+00 0.18585262E+03</pdfrwt>
<pdfrwt beam="2">  1       21 0.88679849E-02 0.18585262E+03</pdfrwt>
<totfact> 0.52003878E+03</totfact>
</mgrwt>
</event>
<event>
 4    1  0.3957190E+000  0.1757492E+03  0.7546771E-02  0.1171982E+00
         21   -1    0    0  501  502  0.00000000000E+00  0.00000000000E+00  0.39193947604E+03  0.39193947604E+03  0.00000000000E+00 0. -1.
         21   -1    0    0  502  503 -0.00000000000E+00 -0.00000000000E+00 -0.94793436406E+02  0.94793436406E+02  0.00000000000E+00 0. -1.
          6    1    1    2  501    0  0.20462284303E+02  0.23239575640E+02  0.24851321308E+03  0.30437904006E+03  0.17300000000E+03 0. -1.
         -6    1    1    2    0  503 -0.20462284303E+02 -0.23239575640E+02  0.48632826556E+02  0.18235387238E+03  0.17300000000E+03 0. -1.
<mgrwt>
<rscale>  2 0.17574920E+03</rscale>
<asrwt>0</asrwt>
<pdfrwt beam="1">  1       21 0.60298380E-01 0.17574920E+03</pdfrwt>
<pdfrwt beam="2">  1       21 0.14583606E-01 0.17574920E+03</pdfrwt>
<totfact> 0.10653283E+05</totfact>
</mgrwt>
</event>
<event>
 4    1  0.3957190E+000  0.2027652E+03  0.7546771E-02  0.1147427E+00
         21   -1    0    0  501  502  0.00000000000E+00  0.00000000000E+00  0.47709220536E+03  0.47709220536E+03  0.00000000000E+00 0. -1.
         21   -1    0    0  502  503 -0.00000000000E+00 -0.00000000000E+00 -0.23288259646E+03  0.23288259646E+03  0.00000000000E+00 0. -1.
          6    1    1    2  501    0  0.74572524532E+02 -0.74991159238E+02  0.40385858189E+03  0.45190207960E+03  0.17300000000E+03 0. -1.
         -6    1    1    2    0  503 -0.74572524532E+02  0.74991159238E+02 -0.15964897299E+03  0.25807272222E+03  0.17300000000E+03 0. -1.
<mgrwt>
<rscale>  2 0.20276522E+03</rscale>
<asrwt>0</asrwt>
<pdfrwt beam="1">  1       21 0.73398801E-01 0.20276522E+03</pdfrwt>
<pdfrwt beam="2">  1       21 0.35828092E-01 0.20276522E+03</pdfrwt>
<totfact> 0.12447868E+04</totfact>
</mgrwt>
</event>
<event>
 4    1  0.3957190E+000  0.1747359E+03  0.7546771E-02  0.1172997E+00
         21   -1    0    0  503  502  0.00000000000E+00  0.00000000000E+00  0.26519067508E+03  0.26519067508E+03  0.00000000000E+00 0. -1.
         21   -1    0    0  501  503 -0.00000000000E+00 -0.00000000000E+00 -0.12537865321E+03  0.12537865321E+03  0.00000000000E+00 0. -1.
          6    1    1    2  501    0  0.23518022672E+02  0.71096546325E+01  0.14085928844E+02  0.17530276088E+03  0.17300000000E+03 0.  1.
         -6    1    1    2    0  502 -0.23518022672E+02 -0.71096546325E+01  0.12572609302E+03  0.21526656741E+03  0.17300000000E+03 0.  1.
<mgrwt>
<rscale>  2 0.17473593E+03</rscale>
<asrwt>0</asrwt>
<pdfrwt beam="1">  1       21 0.40798565E-01 0.17473593E+03</pdfrwt>
<pdfrwt beam="2">  1       21 0.19289024E-01 0.17473593E+03</pdfrwt>
<totfact> 0.14376909E+05</totfact>
</mgrwt>
</event>
<event>
 4    1  0.3957190E+000  0.2341481E+03  0.7546771E-02  0.1123754E+00
         21   -1    0    0  501  502  0.00000000000E+00  0.00000000000E+00  0.22472357339E+03  0.22472357339E+03  0.00000000000E+00 0.  1.
         21   -1    0    0  502  503 -0.00000000000E+00 -0.00000000000E+00 -0.25641774317E+03  0.25641774317E+03  0.00000000000E+00 0.  1.
          6    1    1    2  501    0  0.14327460556E+03 -0.66096269283E+02  0.37162114935E+02  0.23707878901E+03  0.17300000000E+03 0.  1.
         -6    1    1    2    0  503 -0.14327460556E+03  0.66096269283E+02 -0.68856284710E+02  0.24406252755E+03  0.17300000000E+03 0.  1.
<mgrwt>
<rscale>  2 0.23414809E+03</rscale>
<asrwt>0</asrwt>
<pdfrwt beam="1">  1       21 0.34572857E-01 0.23414809E+03</pdfrwt>
<pdfrwt beam="2">  1       21 0.39448884E-01 0.23414809E+03</pdfrwt>
<totfact> 0.49002503E+04</totfact>
</mgrwt>
</event>
<event>
 4    1  0.3957190E+000  0.2099612E+03  0.7546771E-02  0.1141597E+00
         21   -1    0    0  501  502  0.00000000000E+00  0.00000000000E+00  0.13050655729E+03  0.13050655729E+03  0.00000000000E+00 0. -1.
         21   -1    0    0  502  503 -0.00000000000E+00 -0.00000000000E+00 -0.46052925616E+03  0.46052925616E+03  0.00000000000E+00 0.  1.
          6    1    1    2  501    0  0.10919106457E+03  0.47244439028E+02 -0.12448751057E+02  0.21032997172E+03  0.17300000000E+03 0. -1.
         -6    1    1    2    0  503 -0.10919106457E+03 -0.47244439028E+02 -0.31757394781E+03  0.38070584174E+03  0.17300000000E+03 0.  1.
<mgrwt>
<rscale>  2 0.20996125E+03</rscale>
<asrwt>0</asrwt>
<pdfrwt beam="1">  1       21 0.20077932E-01 0.20996125E+03</pdfrwt>
<pdfrwt beam="2">  1       21 0.70850655E-01 0.20996125E+03</pdfrwt>
<totfact> 0.40978053E+04</totfact>
</mgrwt>
</event>
<event>
 4    1  0.3957190E+000  0.1766089E+03  0.7546771E-02  0.1171126E+00
         21   -1    0    0  501  502  0.00000000000E+00  0.00000000000E+00  0.28674904556E+04  0.28674904556E+04  0.00000000000E+00 0.  1.
         21   -1    0    0  502  503 -0.00000000000E+00 -0.00000000000E+00 -0.15661339149E+02  0.15661339149E+02  0.00000000000E+00 0.  1.
          6    1    1    2  501    0 -0.28525428808E+02  0.21166508166E+02  0.22226566852E+04  0.22296621855E+04  0.17300000000E+03 0.  1.
         -6    1    1    2    0  503  0.28525428808E+02 -0.21166508166E+02  0.62917243121E+03  0.65348960922E+03  0.17300000000E+03 0.  1.
<mgrwt>
<rscale>  2 0.17660895E+03</rscale>
<asrwt>0</asrwt>
<pdfrwt beam="1">  1       21 0.44115196E+00 0.17660895E+03</pdfrwt>
<pdfrwt beam="2">  1       21 0.24094391E-02 0.17660895E+03</pdfrwt>
<totfact> 0.44258324E+03</totfact>
</mgrwt>
</event>
<event>
 4    1  0.3957190E+000  0.1974303E+03  0.7546771E-02  0.1151925E+00
         21   -1    0    0  503  502  0.00000000000E+00  0.00000000000E+00  0.21988624989E+03  0.21988624989E+03  0.00000000000E+00 0. -1.
         21   -1    0    0  501  503 -0.00000000000E+00 -0.00000000000E+00 -0.21707687177E+03  0.21707687177E+03  0.00000000000E+00 0. -1.
          6    1    1    2  501    0 -0.54091862065E+02 -0.78254582098E+02 -0.92157439826E+02  0.21788001945E+03  0.17300000000E+03 0. -1.
         -6    1    1    2    0  502  0.54091862065E+02  0.78254582098E+02  0.94966817949E+02  0.21908310221E+03  0.17300000000E+03 0. -1.
<mgrwt>
<rscale>  2 0.19743026E+03</rscale>
<asrwt>0</asrwt>
<pdfrwt beam="1">  1       21 0.33828654E-01 0.19743026E+03</pdfrwt>
<pdfrwt beam="2">  1       21 0.33396442E-01 0.19743026E+03</pdfrwt>
<totfact> 0.72538395E+04</totfact>
</mgrwt>
</event>
<event>
 4    1  0.3957190E+000  0.2304505E+03  0.7546771E-02  0.1126323E+00
         21   -1    0    0  503  502  0.00000000000E+00  0.00000000000E+00  0.19350751710E+03  0.19350751710E+03  0.00000000000E+00 0.  1.
         21   -1    0    0  501  503 -0.00000000000E+00 -0.00000000000E+00 -0.33579673524E+03  0.33579673524E+03  0.00000000000E+00 0.  1.
          6    1    1    2  501    0 -0.14014809814E+03  0.59472398854E+02 -0.18426616320E+03  0.29506181478E+03  0.17300000000E+03 0.  1.
         -6    1    1    2    0  502  0.14014809814E+03 -0.59472398854E+02  0.41976945058E+02  0.23424243756E+03  0.17300000000E+03 0.  1.
<mgrwt>
<rscale>  2 0.23045055E+03</rscale>
<asrwt>0</asrwt>
<pdfrwt beam="1">  1       21 0.29770387E-01 0.23045055E+03</pdfrwt>
<pdfrwt beam="2">  1       21 0.51661036E-01 0.23045055E+03</pdfrwt>
<totfact> 0.37779824E+04</totfact>
</mgrwt>
</event>
<event>
 4    1  0.3957190E+000  0.2923721E+03  0.7546771E-02  0.1089117E+00
         21   -1    0    0  501  502  0.00000000000E+00  0.00000000000E+00  0.60621816092E+03  0.60621816092E+03  0.00000000000E+00 0.  1.
         21   -1    0    0  502  503 -0.00000000000E+00 -0.00000000000E+00 -0.34820345827E+03  0.34820345827E+03  0.00000000000E+00 0. -1.
          6    1    1    2  501    0 -0.10069256611E+03 -0.21310431204E+03  0.49712288297E+03  0.57672575931E+03  0.17300000000E+03 0.  1.
         -6    1    1    2    0  503  0.10069256611E+03  0.21310431204E+03 -0.23910818032E+03  0.37769585989E+03  0.17300000000E+03 0. -1.
<mgrwt>
<rscale>  2 0.29237209E+03</rscale>
<asrwt>0</asrwt>
<pdfrwt beam="1">  1       21 0.93264333E-01 0.29237209E+03</pdfrwt>
<pdfrwt beam="2">  1       21 0.53569763E-01 0.29237209E+03</pdfrwt>
<totfact> 0.29734532E+03</totfact>
</mgrwt>
</event>
<event>
 4    1  0.3957190E+000  0.3285780E+03  0.7546771E-02  0.1071768E+00
         21   -1    0    0  503  502  0.00000000000E+00  0.00000000000E+00  0.12030379154E+04  0.12030379154E+04  0.00000000000E+00 0. -1.
         21   -1    0    0  501  503 -0.00000000000E+00 -0.00000000000E+00 -0.19135156034E+03  0.19135156034E+03  0.00000000000E+00 0.  1.
          6    1    1    2  501    0 -0.25520811145E+03 -0.11359265722E+03 -0.22046460004E+01  0.32858535024E+03  0.17300000000E+03 0.  1.
         -6    1    1    2    0  502  0.25520811145E+03  0.11359265722E+03  0.10138910011E+04  0.10658041255E+04  0.17300000000E+03 0. -1.
<mgrwt>
<rscale>  2 0.32857795E+03</rscale>
<asrwt>0</asrwt>
<pdfrwt beam="1">  1       21 0.18508275E+00 0.32857795E+03</pdfrwt>
<pdfrwt beam="2">  1       21 0.29438702E-01 0.32857795E+03</pdfrwt>
<totfact> 0.16703262E+03</totfact>
</mgrwt>
</event>
<event>
 4    1  0.3957190E+000  0.1982135E+03  0.7546771E-02  0.1151255E+00
         21   -1    0    0  503  502  0.00000000000E+00  0.00000000000E+00  0.14974658194E+04  0.14974658194E+04  0.00000000000E+00 0. -1.
         21   -1    0    0  501  503 -0.00000000000E+00 -0.00000000000E+00 -0.27334950403E+02  0.27334950403E+02  0.00000000000E+00 0. -1.
          6    1    1    2  501    0  0.10092121871E+02 -0.96217123978E+02  0.88788234834E+03  0.90973823178E+03  0.17300000000E+03 0.  1.
         -6    1    1    2    0  502 -0.10092121871E+02  0.96217123978E+02  0.58224852067E+03  0.61506253803E+03  0.17300000000E+03 0.  1.
<mgrwt>
<rscale>  2 0.19821349E+03</rscale>
<asrwt>0</asrwt>
<pdfrwt beam="1">  1       21 0.23037929E+00 0.19821349E+03</pdfrwt>
<pdfrwt beam="2">  1       21 0.42053781E-02 0.19821349E+03</pdfrwt>
<totfact> 0.31206564E+04</totfact>
</mgrwt>
</event>
<event>
 4    1  0.3957190E+000  0.2063187E+03  0.7546771E-02  0.1144515E+00
         21   -1    0    0  503  502  0.00000000000E+00  0.00000000000E+00  0.63400183967E+03  0.63400183967E+03  0.00000000000E+00 0. -1.
         21   -1    0    0  501  503 -0.00000000000E+00 -0.00000000000E+00 -0.12148056066E+03  0.12148056066E+03  0.00000000000E+00 0. -1.
          6    1    1    2  501    0 -0.17035514564E+02  0.11112240765E+03  0.36219992448E+01  0.20635047157E+03  0.17300000000E+03 0. -1.
         -6    1    1    2    0  502  0.17035514564E+02 -0.11112240765E+03  0.50889927976E+03  0.54913192876E+03  0.17300000000E+03 0. -1.
<mgrwt>
<rscale>  2 0.20631868E+03</rscale>
<asrwt>0</asrwt>
<pdfrwt beam="1">  1       21 0.97538743E-01 0.20631868E+03</pdfrwt>
<pdfrwt beam="2">  1       21 0.18689317E-01 0.20631868E+03</pdfrwt>
<totfact> 0.22615874E+04</totfact>
</mgrwt>
</event>
<event>
 4    1  0.3957190E+000  0.1867925E+03  0.7546771E-02  0.1161387E+00
         21   -1    0    0  501  502  0.00000000000E+00  0.00000000000E+00  0.60064137530E+02  0.60064137530E+02  0.00000000000E+00 0.  1.
         21   -1    0    0  502  503 -0.00000000000E+00 -0.00000000000E+00 -0.58269396997E+03  0.58269396997E+03  0.00000000000E+00 0.  1.
          6    1    1    2  501    0 -0.63315869769E+01  0.70159407142E+02 -0.24349711403E+03  0.30689130966E+03  0.17300000000E+03 0.  1.
         -6    1    1    2    0  503  0.63315869769E+01 -0.70159407142E+02 -0.27913271841E+03  0.33586679784E+03  0.17300000000E+03 0.  1.
<mgrwt>
<rscale>  2 0.18679248E+03</rscale>
<asrwt>0</asrwt>
<pdfrwt beam="1">  1       21 0.92406365E-02 0.18679248E+03</pdfrwt>
<pdfrwt beam="2">  1       21 0.89645227E-01 0.18679248E+03</pdfrwt>
<totfact> 0.99109625E+04</totfact>
</mgrwt>
</event>
<event>
 4    1  0.3957190E+000  0.2599767E+03  0.7546771E-02  0.1107157E+00
         21   -1    0    0  501  502  0.00000000000E+00  0.00000000000E+00  0.26886089154E+03  0.26886089154E+03  0.00000000000E+00 0. -1.
         21   -1    0    0  502  503 -0.00000000000E+00 -0.00000000000E+00 -0.26389028625E+03  0.26389028625E+03  0.00000000000E+00 0.  1.
          6    1    1    2  501    0 -0.71469627240E+02 -0.18041890957E+03  0.60469608775E+02  0.26691658647E+03  0.17300000000E+03 0. -1.
         -6    1    1    2    0  503  0.71469627240E+02  0.18041890957E+03 -0.55499003484E+02  0.26583459131E+03  0.17300000000E+03 0.  1.
<mgrwt>
<rscale>  2 0.25997671E+03</rscale>
<asrwt>0</asrwt>
<pdfrwt beam="1">  1       21 0.41363214E-01 0.25997671E+03</pdfrwt>
<pdfrwt beam="2">  1       21 0.40598505E-01 0.25997671E+03</pdfrwt>
<totfact> 0.31846532E+04</totfact>
</mgrwt>
</event>
<event>
 4    1  0.3957190E+000  0.2200497E+03  0.7546771E-02  0.1133846E+00
         21   -1    0    0  503  502  0.00000000000E+00  0.00000000000E+00  0.45482620660E+03  0.45482620660E+03  0.00000000000E+00 0.  1.
         21   -1    0    0  501  503 -0.00000000000E+00 -0.00000000000E+00 -0.12187363144E+03  0.12187363144E+03  0.00000000000E+00 0.  1.
          6    1    1    2  501    0  0.12535959642E+03 -0.52705284324E+02  0.63938470675E+02  0.22915061301E+03  0.17300000000E+03 0.  1.
         -6    1    1    2    0  502 -0.12535959642E+03  0.52705284324E+02  0.26901410449E+03  0.34754922503E+03  0.17300000000E+03 0.  1.
<mgrwt>
<rscale>  2 0.22004971E+03</rscale>
<asrwt>0</asrwt>
<pdfrwt beam="1">  1       21 0.69973262E-01 0.22004971E+03</pdfrwt>
<pdfrwt beam="2">  1       21 0.18749790E-01 0.22004971E+03</pdfrwt>
<totfact> 0.47636340E+04</totfact>
</mgrwt>
</event>
<event>
 4    1  0.3957190E+000  0.1798175E+03  0.7546771E-02  0.1167980E+00
         21   -1    0    0  503  502  0.00000000000E+00  0.00000000000E+00  0.38796648749E+03  0.38796648749E+03  0.00000000000E+00 0. -1.
         21   -1    0    0  501  503 -0.00000000000E+00 -0.00000000000E+00 -0.11915721606E+03  0.11915721606E+03  0.00000000000E+00 0. -1.
          6    1    1    2  501    0  0.48238659185E+01 -0.48806274540E+02 -0.46069439913E+01  0.17987647442E+03  0.17300000000E+03 0. -1.
         -6    1    1    2    0  502 -0.48238659185E+01  0.48806274540E+02  0.27341621543E+03  0.32724722913E+03  0.17300000000E+03 0. -1.
<mgrwt>
<rscale>  2 0.17981747E+03</rscale>
<asrwt>0</asrwt>
<pdfrwt beam="1">  1       21 0.59687151E-01 0.17981747E+03</pdfrwt>
<pdfrwt beam="2">  1       21 0.18331880E-01 0.17981747E+03</pdfrwt>
<totfact> 0.71515796E+04</totfact>
</mgrwt>
</event>
<event>
 4    1  0.3957190E+000  0.1786219E+03  0.7546771E-02  0.1169144E+00
         21   -1    0    0  501  502  0.00000000000E+00  0.00000000000E+00  0.12396895810E+03  0.12396895810E+03  0.00000000000E+00 0.  1.
         21   -1    0    0  502  503 -0.00000000000E+00 -0.00000000000E+00 -0.33107139427E+03  0.33107139427E+03  0.00000000000E+00 0.  1.
          6    1    1    2  501    0 -0.28489000237E+02  0.34134200234E+02  0.37982470886E+01  0.17866223283E+03  0.17300000000E+03 0.  1.
         -6    1    1    2    0  503  0.28489000237E+02 -0.34134200234E+02 -0.21090068325E+03  0.27637811953E+03  0.17300000000E+03 0.  1.
<mgrwt>
<rscale>  2 0.17862185E+03</rscale>
<asrwt>0</asrwt>
<pdfrwt beam="1">  1       21 0.19072147E-01 0.17862185E+03</pdfrwt>
<pdfrwt beam="2">  1       21 0.50934061E-01 0.17862185E+03</pdfrwt>
<totfact> 0.92962717E+04</totfact>
</mgrwt>
</event>
<event>
 4    1  0.3957190E+000  0.2011497E+03  0.7546771E-02  0.1148773E+00
         21   -1    0    0  501  502  0.00000000000E+00  0.00000000000E+00  0.76343316110E+02  0.76343316110E+02  0.00000000000E+00 0.  1.
         21   -1    0    0  502  503 -0.00000000000E+00 -0.00000000000E+00 -0.54693175381E+03  0.54693175381E+03  0.00000000000E+00 0. -1.
          6    1    1    2  501    0  0.85862320364E+01 -0.10226661348E+03 -0.29014264068E+03  0.35304948032E+03  0.17300000000E+03 0. -1.
         -6    1    1    2    0  503 -0.85862320364E+01  0.10226661348E+03 -0.18044579703E+03  0.27022558961E+03  0.17300000000E+03 0.  1.
<mgrwt>
<rscale>  2 0.20114965E+03</rscale>
<asrwt>0</asrwt>
<pdfrwt beam="1">  1       21 0.11745125E-01 0.20114965E+03</pdfrwt>
<pdfrwt beam="2">  1       21 0.84143349E-01 0.20114965E+03</pdfrwt>
<totfact> 0.74489166E+04</totfact>
</mgrwt>
</event>
<event>
 4    1  0.3957190E+000  0.1840237E+03  0.7546771E-02  0.1163965E+00
         21   -1    0    0  503  502  0.00000000000E+00  0.00000000000E+00  0.53355037149E+03  0.53355037149E+03  0.00000000000E+00 0. -1.
         21   -1    0    0  501  503 -0.00000000000E+00 -0.00000000000E+00 -0.11182820639E+03  0.11182820639E+03  0.00000000000E+00 0. -1.
          6    1    1    2  501    0  0.13657765554E+02  0.61230492109E+02 -0.13371327594E+01  0.18402851857E+03  0.17300000000E+03 0. -1.
         -6    1    1    2    0  502 -0.13657765554E+02 -0.61230492109E+02  0.42305929785E+03  0.46135005931E+03  0.17300000000E+03 0. -1.
<mgrwt>
<rscale>  2 0.18402366E+03</rscale>
<asrwt>0</asrwt>
<pdfrwt beam="1">  1       21 0.82084671E-01 0.18402366E+03</pdfrwt>
<pdfrwt beam="2">  1       21 0.17204340E-01 0.18402366E+03</pdfrwt>
<totfact> 0.39772394E+04</totfact>
</mgrwt>
</event>
<event>
 4    1  0.3957190E+000  0.1880987E+03  0.7546771E-02  0.1160187E+00
         21   -1    0    0  501  502  0.00000000000E+00  0.00000000000E+00  0.12116947522E+03  0.12116947522E+03  0.00000000000E+00 0. -1.
         21   -1    0    0  502  503 -0.00000000000E+00 -0.00000000000E+00 -0.52457846535E+03  0.52457846535E+03  0.00000000000E+00 0. -1.
          6    1    1    2  501    0 -0.62573675251E+02 -0.39200120769E+02  0.13284101770E+02  0.18856718077E+03  0.17300000000E+03 0. -1.
         -6    1    1    2    0  503  0.62573675251E+02  0.39200120769E+02 -0.41669309190E+03  0.45718075981E+03  0.17300000000E+03 0. -1.
<mgrwt>
<rscale>  2 0.18809868E+03</rscale>
<asrwt>0</asrwt>
<pdfrwt beam="1">  1       21 0.18641458E-01 0.18809868E+03</pdfrwt>
<pdfrwt beam="2">  1       21 0.80704379E-01 0.18809868E+03</pdfrwt>
<totfact> 0.35564373E+04</totfact>
</mgrwt>
</event>
<event>
 4    1  0.3957190E+000  0.1825002E+03  0.7546771E-02  0.1165405E+00
         21   -1    0    0  503  502  0.00000000000E+00  0.00000000000E+00  0.63949088808E+03  0.63949088808E+03  0.00000000000E+00 0.  1.
         21   -1    0    0  501  503 -0.00000000000E+00 -0.00000000000E+00 -0.58059933575E+02  0.58059933575E+02  0.00000000000E+00 0.  1.
          6    1    1    2  501    0 -0.16028351238E+02  0.55860787586E+02  0.17880724179E+03  0.25549631181E+03  0.17300000000E+03 0.  1.
         -6    1    1    2    0  502  0.16028351238E+02 -0.55860787586E+02  0.40262371271E+03  0.44205450984E+03  0.17300000000E+03 0.  1.
<mgrwt>
<rscale>  2 0.18250023E+03</rscale>
<asrwt>0</asrwt>
<pdfrwt beam="1">  1       21 0.98383209E-01 0.18250023E+03</pdfrwt>
<pdfrwt beam="2">  1       21 0.89322979E-02 0.18250023E+03</pdfrwt>
<totfact> 0.84823998E+04</totfact>
</mgrwt>
</event>
<event>
 4    1  0.3957190E+000  0.2056095E+03  0.7546771E-02  0.1145091E+00
         21   -1    0    0  503  502  0.00000000000E+00  0.00000000000E+00  0.14218941369E+03  0.14218941369E+03  0.00000000000E+00 0.  1.
         21   -1    0    0  501  503 -0.00000000000E+00 -0.00000000000E+00 -0.32603270593E+03  0.32603270593E+03  0.00000000000E+00 0.  1.
          6    1    1    2  501    0 -0.65463965012E+02 -0.89781680730E+02 -0.22442623384E+02  0.20683073334E+03  0.17300000000E+03 0.  1.
         -6    1    1    2    0  502  0.65463965012E+02  0.89781680730E+02 -0.16140066886E+03  0.26139138627E+03  0.17300000000E+03 0.  1.
<mgrwt>
<rscale>  2 0.20560954E+03</rscale>
<asrwt>0</asrwt>
<pdfrwt beam="1">  1       21 0.21875295E-01 0.20560954E+03</pdfrwt>
<pdfrwt beam="2">  1       21 0.50158877E-01 0.20560954E+03</pdfrwt>
<totfact> 0.73433683E+04</totfact>
</mgrwt>
</event>
<event>
 4    1  0.3957190E+000  0.2326232E+03  0.7546771E-02  0.1124807E+00
         21   -1    0    0  501  502  0.00000000000E+00  0.00000000000E+00  0.46875401902E+02  0.46875401902E+02  0.00000000000E+00 0. -1.
         21   -1    0    0  502  503 -0.00000000000E+00 -0.00000000000E+00 -0.12672305547E+04  0.12672305547E+04  0.00000000000E+00 0.  1.
          6    1    1    2  501    0  0.49233256784E+01  0.15543583928E+03 -0.80622552855E+03  0.83911449884E+03  0.17300000000E+03 0.  1.
         -6    1    1    2    0  503 -0.49233256784E+01 -0.15543583928E+03 -0.41412962424E+03  0.47499145775E+03  0.17300000000E+03 0. -1.
<mgrwt>
<rscale>  2 0.23262317E+03</rscale>
<asrwt>0</asrwt>
<pdfrwt beam="1">  1       21 0.72115998E-02 0.23262317E+03</pdfrwt>
<pdfrwt beam="2">  1       21 0.19495856E+00 0.23262317E+03</pdfrwt>
<totfact> 0.20215912E+04</totfact>
</mgrwt>
</event>
<event>
 4    1  0.3957190E+000  0.2372354E+03  0.7546771E-02  0.1121648E+00
         21   -1    0    0  503  502  0.00000000000E+00  0.00000000000E+00  0.41020533195E+02  0.41020533195E+02  0.00000000000E+00 0. -1.
         21   -1    0    0  501  503 -0.00000000000E+00 -0.00000000000E+00 -0.20741262609E+04  0.20741262609E+04  0.00000000000E+00 0.  1.
          6    1    1    2  501    0  0.15992364977E+03 -0.27858226234E+02 -0.16318669957E+04  0.16490210873E+04  0.17300000000E+03 0.  1.
         -6    1    1    2    0  502 -0.15992364977E+03  0.27858226234E+02 -0.40123873199E+03  0.46612570683E+03  0.17300000000E+03 0. -1.
<mgrwt>
<rscale>  2 0.23723544E+03</rscale>
<asrwt>0</asrwt>
<pdfrwt beam="1">  1       21 0.63108498E-02 0.23723544E+03</pdfrwt>
<pdfrwt beam="2">  1       21 0.31909642E+00 0.23723544E+03</pdfrwt>
<totfact> 0.45595318E+03</totfact>
</mgrwt>
</event>
<event>
 4    1  0.3957190E+000  0.1731211E+03  0.7546771E-02  0.1174632E+00
         21   -1    0    0  501  502  0.00000000000E+00  0.00000000000E+00  0.35023990601E+03  0.35023990601E+03  0.00000000000E+00 0.  1.
         21   -1    0    0  502  503 -0.00000000000E+00 -0.00000000000E+00 -0.11478435589E+03  0.11478435589E+03  0.00000000000E+00 0.  1.
          6    1    1    2  501    0 -0.10821580903E+01  0.63824925396E+01  0.23502393070E+03  0.29190264692E+03  0.17300000000E+03 0.  1.
         -6    1    1    2    0  503  0.10821580903E+01 -0.63824925396E+01  0.43161942793E+00  0.17312161498E+03  0.17300000000E+03 0.  1.
<mgrwt>
<rscale>  2 0.17312108E+03</rscale>
<asrwt>0</asrwt>
<pdfrwt beam="1">  1       21 0.53883062E-01 0.17312108E+03</pdfrwt>
<pdfrwt beam="2">  1       21 0.17659132E-01 0.17312108E+03</pdfrwt>
<totfact> 0.95467429E+04</totfact>
</mgrwt>
</event>
<event>
 4    1  0.3957190E+000  0.2702557E+03  0.7546771E-02  0.1101133E+00
         21   -1    0    0  501  502  0.00000000000E+00  0.00000000000E+00  0.25854974138E+03  0.25854974138E+03  0.00000000000E+00 0. -1.
         21   -1    0    0  502  503 -0.00000000000E+00 -0.00000000000E+00 -0.29390586059E+03  0.29390586059E+03  0.00000000000E+00 0.  1.
          6    1    1    2  501    0  0.16356350708E+03 -0.12789109256E+03 -0.72113973107E+02  0.27971159704E+03  0.17300000000E+03 0.  1.
         -6    1    1    2    0  503 -0.16356350708E+03  0.12789109256E+03  0.36757853895E+02  0.27274400493E+03  0.17300000000E+03 0.  1.
<mgrwt>
<rscale>  2 0.27025572E+03</rscale>
<asrwt>0</asrwt>
<pdfrwt beam="1">  1       21 0.39776883E-01 0.27025572E+03</pdfrwt>
<pdfrwt beam="2">  1       21 0.45216286E-01 0.27025572E+03</pdfrwt>
<totfact> 0.27521650E+04</totfact>
</mgrwt>
</event>
<event>
 4    1  0.3957190E+000  0.1822637E+03  0.7546771E-02  0.1165630E+00
         21   -1    0    0  503  502  0.00000000000E+00  0.00000000000E+00  0.53633017477E+03  0.53633017477E+03  0.00000000000E+00 0. -1.
         21   -1    0    0  501  503 -0.00000000000E+00 -0.00000000000E+00 -0.79179393783E+02  0.79179393783E+02  0.00000000000E+00 0. -1.
          6    1    1    2  501    0  0.52650134559E+02 -0.22782036703E+02  0.37217894761E+03  0.41441190488E+03  0.17300000000E+03 0. -1.
         -6    1    1    2    0  502 -0.52650134559E+02  0.22782036703E+02  0.84971833375E+02  0.20109766367E+03  0.17300000000E+03 0. -1.
<mgrwt>
<rscale>  2 0.18226370E+03</rscale>
<asrwt>0</asrwt>
<pdfrwt beam="1">  1       21 0.82512332E-01 0.18226370E+03</pdfrwt>
<pdfrwt beam="2">  1       21 0.12181446E-01 0.18226370E+03</pdfrwt>
<totfact> 0.73581368E+04</totfact>
</mgrwt>
</event>
<event>
 4    1  0.3957190E+000  0.3425800E+03  0.7546771E-02  0.1065702E+00
         21   -1    0    0  501  502  0.00000000000E+00  0.00000000000E+00  0.78140386337E+02  0.78140386337E+02  0.00000000000E+00 0.  1.
         21   -1    0    0  502  503 -0.00000000000E+00 -0.00000000000E+00 -0.15073381343E+04  0.15073381343E+04  0.00000000000E+00 0. -1.
          6    1    1    2  501    0  0.12028583256E+03 -0.27011728008E+03 -0.66709427184E+03  0.74991719145E+03  0.17300000000E+03 0.  1.
         -6    1    1    2    0  503 -0.12028583256E+03  0.27011728008E+03 -0.76210347615E+03  0.83556132922E+03  0.17300000000E+03 0. -1.
<mgrwt>
<rscale>  2 0.34257996E+03</rscale>
<asrwt>0</asrwt>
<pdfrwt beam="1">  1       21 0.12021599E-01 0.34257996E+03</pdfrwt>
<pdfrwt beam="2">  1       21 0.23189816E+00 0.34257996E+03</pdfrwt>
<totfact> 0.44532528E+03</totfact>
</mgrwt>
</event>
<event>
 4    1  0.3957190E+000  0.1767730E+03  0.7546771E-02  0.1170963E+00
         21   -1    0    0  503  502  0.00000000000E+00  0.00000000000E+00  0.40665192033E+03  0.40665192033E+03  0.00000000000E+00 0. -1.
         21   -1    0    0  501  503 -0.00000000000E+00 -0.00000000000E+00 -0.26325726679E+03  0.26325726679E+03  0.00000000000E+00 0. -1.
          6    1    1    2  501    0  0.10062018454E+02  0.34906071168E+02 -0.21016329006E+03  0.27462207943E+03  0.17300000000E+03 0. -1.
         -6    1    1    2    0  502 -0.10062018454E+02 -0.34906071168E+02  0.35355794360E+03  0.39528710769E+03  0.17300000000E+03 0. -1.
<mgrwt>
<rscale>  2 0.17677296E+03</rscale>
<asrwt>0</asrwt>
<pdfrwt beam="1">  1       21 0.62561834E-01 0.17677296E+03</pdfrwt>
<pdfrwt beam="2">  1       21 0.40501118E-01 0.17677296E+03</pdfrwt>
<totfact> 0.14053451E+04</totfact>
</mgrwt>
</event>
<event>
 4    1  0.3957190E+000  0.2799762E+03  0.7546771E-02  0.1095702E+00
         21   -1    0    0  501  502  0.00000000000E+00  0.00000000000E+00  0.19205664822E+04  0.19205664822E+04  0.00000000000E+00 0. -1.
         21   -1    0    0  502  503 -0.00000000000E+00 -0.00000000000E+00 -0.82883124961E+02  0.82883124961E+02  0.00000000000E+00 0. -1.
          6    1    1    2  501    0 -0.20447740973E+03  0.81527011947E+02  0.16325081977E+04  0.16563422594E+04  0.17300000000E+03 0. -1.
         -6    1    1    2    0  503  0.20447740973E+03 -0.81527011947E+02  0.20517515954E+03  0.34710734775E+03  0.17300000000E+03 0. -1.
<mgrwt>
<rscale>  2 0.27997619E+03</rscale>
<asrwt>0</asrwt>
<pdfrwt beam="1">  1       21 0.29547173E+00 0.27997619E+03</pdfrwt>
<pdfrwt beam="2">  1       21 0.12751251E-01 0.27997619E+03</pdfrwt>
<totfact> 0.17399782E+03</totfact>
</mgrwt>
</event>
<event>
 4    1  0.3957190E+000  0.2296523E+03  0.7546771E-02  0.1126885E+00
         21   -1    0    0  503  502  0.00000000000E+00  0.00000000000E+00  0.26985439345E+03  0.26985439345E+03  0.00000000000E+00 0. -1.
         21   -1    0    0  501  503 -0.00000000000E+00 -0.00000000000E+00 -0.19700975968E+03  0.19700975968E+03  0.00000000000E+00 0. -1.
          6    1    1    2  501    0  0.15101244171E+03 -0.25343295399E+01  0.57263214422E+02  0.23668387377E+03  0.17300000000E+03 0. -1.
         -6    1    1    2    0  502 -0.15101244171E+03  0.25343295399E+01  0.15581419355E+02  0.23018027936E+03  0.17300000000E+03 0. -1.
<mgrwt>
<rscale>  2 0.22965230E+03</rscale>
<asrwt>0</asrwt>
<pdfrwt beam="1">  1       21 0.41516061E-01 0.22965230E+03</pdfrwt>
<pdfrwt beam="2">  1       21 0.30309194E-01 0.22965230E+03</pdfrwt>
<totfact> 0.57391066E+04</totfact>
</mgrwt>
</event>
<event>
 4    1  0.3957190E+000  0.1888411E+03  0.7546771E-02  0.1159511E+00
         21   -1    0    0  503  502  0.00000000000E+00  0.00000000000E+00  0.59322587853E+03  0.59322587853E+03  0.00000000000E+00 0.  1.
         21   -1    0    0  501  503 -0.00000000000E+00 -0.00000000000E+00 -0.60244000513E+02  0.60244000513E+02  0.00000000000E+00 0.  1.
          6    1    1    2  501    0  0.67326005282E+02  0.34629075982E+02  0.25129175898E+03  0.31433821279E+03  0.17300000000E+03 0.  1.
         -6    1    1    2    0  502 -0.67326005282E+02 -0.34629075982E+02  0.28169011904E+03  0.33913166625E+03  0.17300000000E+03 0.  1.
<mgrwt>
<rscale>  2 0.18884111E+03</rscale>
<asrwt>0</asrwt>
<pdfrwt beam="1">  1       21 0.91265516E-01 0.18884111E+03</pdfrwt>
<pdfrwt beam="2">  1       21 0.92683082E-02 0.18884111E+03</pdfrwt>
<totfact> 0.94508135E+04</totfact>
</mgrwt>
</event>
<event>
 4    1  0.3957190E+000  0.2883182E+03  0.7546771E-02  0.1091231E+00
         21   -1    0    0  503  502  0.00000000000E+00  0.00000000000E+00  0.11993354518E+04  0.11993354518E+04  0.00000000000E+00 0.  1.
         21   -1    0    0  501  503 -0.00000000000E+00 -0.00000000000E+00 -0.82743055551E+02  0.82743055551E+02  0.00000000000E+00 0.  1.
          6    1    1    2  501    0  0.39613397313E+02  0.22722050636E+03  0.30001853525E+03  0.41609914835E+03  0.17300000000E+03 0.  1.
         -6    1    1    2    0  502 -0.39613397313E+02 -0.22722050636E+03  0.81657386097E+03  0.86597935898E+03  0.17300000000E+03 0.  1.
<mgrwt>
<rscale>  2 0.28831819E+03</rscale>
<asrwt>0</asrwt>
<pdfrwt beam="1">  1       21 0.18451313E+00 0.28831819E+03</pdfrwt>
<pdfrwt beam="2">  1       21 0.12729702E-01 0.28831819E+03</pdfrwt>
<totfact> 0.83801601E+03</totfact>
</mgrwt>
</event>
<event>
 4    1  0.3957190E+000  0.1833391E+03  0.7546771E-02  0.1164610E+00
         21   -1    0    0  503  502  0.00000000000E+00  0.00000000000E+00  0.19420883059E+04  0.19420883059E+04  0.00000000000E+00 0.  1.
         21   -1    0    0  501  503 -0.00000000000E+00 -0.00000000000E+00 -0.18043748869E+02  0.18043748869E+02  0.00000000000E+00 0.  1.
          6    1    1    2  501    0 -0.31942880315E+02  0.51612911147E+02  0.76408791209E+03  0.78577578074E+03  0.17300000000E+03 0.  1.
         -6    1    1    2    0  502  0.31942880315E+02 -0.51612911147E+02  0.11599566449E+04  0.11743562740E+04  0.17300000000E+03 0.  1.
<mgrwt>
<rscale>  2 0.18333914E+03</rscale>
<asrwt>0</asrwt>
<pdfrwt beam="1">  1       21 0.29878265E+00 0.18333914E+03</pdfrwt>
<pdfrwt beam="2">  1       21 0.27759629E-02 0.18333914E+03</pdfrwt>
<totfact> 0.25185218E+04</totfact>
</mgrwt>
</event>
<event>
 4    1  0.3957190E+000  0.1773289E+03  0.7546771E-02  0.1170413E+00
         21   -1    0    0  501  502  0.00000000000E+00  0.00000000000E+00  0.21421132276E+03  0.21421132276E+03  0.00000000000E+00 0.  1.
         21   -1    0    0  502  503 -0.00000000000E+00 -0.00000000000E+00 -0.14680983066E+03  0.14680983066E+03  0.00000000000E+00 0.  1.
          6    1    1    2  501    0 -0.28014984827E+01 -0.38841935919E+02  0.32002461888E+02  0.18019351250E+03  0.17300000000E+03 0.  1.
         -6    1    1    2    0  503  0.28014984827E+01  0.38841935919E+02  0.35399030210E+02  0.18082764092E+03  0.17300000000E+03 0.  1.
<mgrwt>
<rscale>  2 0.17732892E+03</rscale>
<asrwt>0</asrwt>
<pdfrwt beam="1">  1       21 0.32955588E-01 0.17732892E+03</pdfrwt>
<pdfrwt beam="2">  1       21 0.22586128E-01 0.17732892E+03</pdfrwt>
<totfact> 0.16359805E+05</totfact>
</mgrwt>
</event>
<event>
 4    1  0.3957190E+000  0.1804696E+03  0.7546771E-02  0.1167349E+00
         21   -1    0    0  501  502  0.00000000000E+00  0.00000000000E+00  0.16844426087E+03  0.16844426087E+03  0.00000000000E+00 0. -1.
         21   -1    0    0  502  503 -0.00000000000E+00 -0.00000000000E+00 -0.19747754913E+03  0.19747754913E+03  0.00000000000E+00 0. -1.
          6    1    1    2  501    0 -0.51019797522E+02  0.61043840828E+01  0.11923428775E+02  0.18086307362E+03  0.17300000000E+03 0. -1.
         -6    1    1    2    0  503  0.51019797522E+02 -0.61043840828E+01 -0.40956717036E+02  0.18505873639E+03  0.17300000000E+03 0. -1.
<mgrwt>
<rscale>  2 0.18046962E+03</rscale>
<asrwt>0</asrwt>
<pdfrwt beam="1">  1       21 0.25914502E-01 0.18046962E+03</pdfrwt>
<pdfrwt beam="2">  1       21 0.30381161E-01 0.18046962E+03</pdfrwt>
<totfact> 0.14760140E+05</totfact>
</mgrwt>
</event>
<event>
 4    1  0.3957190E+000  0.2246801E+03  0.7546771E-02  0.1130441E+00
         21   -1    0    0  501  502  0.00000000000E+00  0.00000000000E+00  0.48901821030E+03  0.48901821030E+03  0.00000000000E+00 0.  1.
         21   -1    0    0  502  503 -0.00000000000E+00 -0.00000000000E+00 -0.13887557021E+03  0.13887557021E+03  0.00000000000E+00 0.  1.
          6    1    1    2  501    0 -0.27283753783E+01  0.14333427844E+03  0.33412671836E+03  0.40264354376E+03  0.17300000000E+03 0.  1.
         -6    1    1    2    0  503  0.27283753783E+01 -0.14333427844E+03  0.16015921733E+02  0.22525023675E+03  0.17300000000E+03 0.  1.
<mgrwt>
<rscale>  2 0.22468013E+03</rscale>
<asrwt>0</asrwt>
<pdfrwt beam="1">  1       21 0.75233570E-01 0.22468013E+03</pdfrwt>
<pdfrwt beam="2">  1       21 0.21365473E-01 0.22468013E+03</pdfrwt>
<totfact> 0.31661961E+04</totfact>
</mgrwt>
</event>
<event>
 4    1  0.3957190E+000  0.1982400E+03  0.7546771E-02  0.1151232E+00
         21   -1    0    0  503  502  0.00000000000E+00  0.00000000000E+00  0.21145787927E+03  0.21145787927E+03  0.00000000000E+00 0. -1.
         21   -1    0    0  501  503 -0.00000000000E+00 -0.00000000000E+00 -0.26480765051E+03  0.26480765051E+03  0.00000000000E+00 0.  1.
          6    1    1    2  501    0  0.65892324876E+02 -0.70910484097E+02 -0.15670848137E+03  0.25269872055E+03  0.17300000000E+03 0.  1.
         -6    1    1    2    0  502 -0.65892324876E+02  0.70910484097E+02  0.10335871013E+03  0.22356680923E+03  0.17300000000E+03 0. -1.
<mgrwt>
<rscale>  2 0.19823999E+03</rscale>
<asrwt>0</asrwt>
<pdfrwt beam="1">  1       21 0.32531981E-01 0.19823999E+03</pdfrwt>
<pdfrwt beam="2">  1       21 0.40739639E-01 0.19823999E+03</pdfrwt>
<totfact> 0.52636257E+04</totfact>
</mgrwt>
</event>
<event>
 4    1  0.3957190E+000  0.2472143E+03  0.7546771E-02  0.1115078E+00
         21   -1    0    0  503  502  0.00000000000E+00  0.00000000000E+00  0.45912474952E+02  0.45912474952E+02  0.00000000000E+00 0. -1.
         21   -1    0    0  501  503 -0.00000000000E+00 -0.00000000000E+00 -0.17510305599E+04  0.17510305599E+04  0.00000000000E+00 0.  1.
          6    1    1    2  501    0 -0.16670977271E+03  0.58255876016E+02 -0.12925433440E+04  0.13159723369E+04  0.17300000000E+03 0.  1.
         -6    1    1    2    0  502  0.16670977271E+03 -0.58255876016E+02 -0.41257474094E+03  0.48097069793E+03  0.17300000000E+03 0. -1.
<mgrwt>
<rscale>  2 0.24721427E+03</rscale>
<asrwt>0</asrwt>
<pdfrwt beam="1">  1       21 0.70634579E-02 0.24721427E+03</pdfrwt>
<pdfrwt beam="2">  1       21 0.26938931E+00 0.24721427E+03</pdfrwt>
<totfact> 0.72553128E+03</totfact>
</mgrwt>
</event>
<event>
 4    1  0.3957190E+000  0.2527576E+03  0.7546771E-02  0.1111574E+00
         21   -1    0    0  501  502  0.00000000000E+00  0.00000000000E+00  0.75556741636E+03  0.75556741636E+03  0.00000000000E+00 0.  1.
         21   -1    0    0  502  503 -0.00000000000E+00 -0.00000000000E+00 -0.10359934294E+03  0.10359934294E+03  0.00000000000E+00 0.  1.
          6    1    1    2  501    0  0.18176039738E+03  0.30340871789E+02  0.51017185566E+03  0.56935202895E+03  0.17300000000E+03 0.  1.
         -6    1    1    2    0  503 -0.18176039738E+03 -0.30340871789E+02  0.14179621776E+03  0.28981473035E+03  0.17300000000E+03 0.  1.
<mgrwt>
<rscale>  2 0.25275761E+03</rscale>
<asrwt>0</asrwt>
<pdfrwt beam="1">  1       21 0.11624114E+00 0.25275761E+03</pdfrwt>
<pdfrwt beam="2">  1       21 0.15938361E-01 0.25275761E+03</pdfrwt>
<totfact> 0.19372193E+04</totfact>
</mgrwt>
</event>
<event>
 4    1  0.3957190E+000  0.2544152E+03  0.7546771E-02  0.1110546E+00
         21   -1    0    0  501  502  0.00000000000E+00  0.00000000000E+00  0.17547418876E+03  0.17547418876E+03  0.00000000000E+00 0.  1.
         21   -1    0    0  502  503 -0.00000000000E+00 -0.00000000000E+00 -0.36935050204E+03  0.36935050204E+03  0.00000000000E+00 0.  1.
          6    1    1    2  501    0  0.41629421108E+02  0.18183810314E+03 -0.87109178497E+02  0.26891469546E+03  0.17300000000E+03 0.  1.
         -6    1    1    2    0  503 -0.41629421108E+02 -0.18183810314E+03 -0.10676713478E+03  0.27590999533E+03  0.17300000000E+03 0.  1.
<mgrwt>
<rscale>  2 0.25441522E+03</rscale>
<asrwt>0</asrwt>
<pdfrwt beam="1">  1       21 0.26996029E-01 0.25441522E+03</pdfrwt>
<pdfrwt beam="2">  1       21 0.56823154E-01 0.25441522E+03</pdfrwt>
<totfact> 0.36952962E+04</totfact>
</mgrwt>
</event>
<event>
 4    1  0.3957190E+000  0.1858134E+03  0.7546771E-02  0.1162293E+00
         21   -1    0    0  503  502  0.00000000000E+00  0.00000000000E+00  0.17540603576E+03  0.17540603576E+03  0.00000000000E+00 0. -1.
         21   -1    0    0  501  503 -0.00000000000E+00 -0.00000000000E+00 -0.42876556804E+03  0.42876556804E+03  0.00000000000E+00 0. -1.
          6    1    1    2  501    0 -0.58442444172E+01  0.67553347258E+02 -0.34885536228E+03  0.39525520074E+03  0.17300000000E+03 0. -1.
         -6    1    1    2    0  502  0.58442444172E+01 -0.67553347258E+02  0.95495830008E+02  0.20891640306E+03  0.17300000000E+03 0. -1.
<mgrwt>
<rscale>  2 0.18581337E+03</rscale>
<asrwt>0</asrwt>
<pdfrwt beam="1">  1       21 0.26985544E-01 0.18581337E+03</pdfrwt>
<pdfrwt beam="2">  1       21 0.65963934E-01 0.18581337E+03</pdfrwt>
<totfact> 0.27717879E+04</totfact>
</mgrwt>
</event>
<event>
 4    1  0.3957190E+000  0.1889212E+03  0.7546771E-02  0.1159438E+00
         21   -1    0    0  501  502  0.00000000000E+00  0.00000000000E+00  0.29802298810E+02  0.29802298810E+02  0.00000000000E+00 0.  1.
         21   -1    0    0  502  503 -0.00000000000E+00 -0.00000000000E+00 -0.13191335901E+04  0.13191335901E+04  0.00000000000E+00 0.  1.
          6    1    1    2  501    0  0.57116417044E+01  0.75694059401E+02 -0.43994282278E+03  0.47879108262E+03  0.17300000000E+03 0.  1.
         -6    1    1    2    0  503 -0.57116417044E+01 -0.75694059401E+02 -0.84938846850E+03  0.87014480629E+03  0.17300000000E+03 0.  1.
<mgrwt>
<rscale>  2 0.18892118E+03</rscale>
<asrwt>0</asrwt>
<pdfrwt beam="1">  1       21 0.45849695E-02 0.18892118E+03</pdfrwt>
<pdfrwt beam="2">  1       21 0.20294361E+00 0.18892118E+03</pdfrwt>
<totfact> 0.40148261E+04</totfact>
</mgrwt>
</event>
<event>
 4    1  0.3957190E+000  0.1960047E+03  0.7546771E-02  0.1153154E+00
         21   -1    0    0  501  502  0.00000000000E+00  0.00000000000E+00  0.24751566758E+04  0.24751566758E+04  0.00000000000E+00 0.  1.
         21   -1    0    0  502  503 -0.00000000000E+00 -0.00000000000E+00 -0.24592277241E+02  0.24592277241E+02  0.00000000000E+00 0.  1.
          6    1    1    2  501    0 -0.35648664447E+01  0.92065909484E+02  0.19843703656E+04  0.19940269777E+04  0.17300000000E+03 0.  1.
         -6    1    1    2    0  503  0.35648664447E+01 -0.92065909484E+02  0.46619403290E+03  0.50572197527E+03  0.17300000000E+03 0.  1.
<mgrwt>
<rscale>  2 0.19600469E+03</rscale>
<asrwt>0</asrwt>
<pdfrwt beam="1">  1       21 0.38079314E+00 0.19600469E+03</pdfrwt>
<pdfrwt beam="2">  1       21 0.37834292E-02 0.19600469E+03</pdfrwt>
<totfact> 0.48971169E+03</totfact>
</mgrwt>
</event>
<event>
 4    1  0.3957190E+000  0.1976919E+03  0.7546771E-02  0.1151701E+00
         21   -1    0    0  501  502  0.00000000000E+00  0.00000000000E+00  0.11280581668E+03  0.11280581668E+03  0.00000000000E+00 0.  1.
         21   -1    0    0  502  503 -0.00000000000E+00 -0.00000000000E+00 -0.91329635070E+03  0.91329635070E+03  0.00000000000E+00 0.  1.
          6    1    1    2  501    0  0.76650720482E+02  0.57251768985E+02  0.39448127505E+01  0.19773128116E+03  0.17300000000E+03 0.  1.
         -6    1    1    2    0  503 -0.76650720482E+02 -0.57251768985E+02 -0.80443534677E+03  0.82837088622E+03  0.17300000000E+03 0.  1.
<mgrwt>
<rscale>  2 0.19769193E+03</rscale>
<asrwt>0</asrwt>
<pdfrwt beam="1">  1       21 0.17354741E-01 0.19769193E+03</pdfrwt>
<pdfrwt beam="2">  1       21 0.14050713E+00 0.19769193E+03</pdfrwt>
<totfact> 0.10607114E+04</totfact>
</mgrwt>
</event>
<event>
 4    1  0.3957190E+000  0.1756277E+03  0.7546771E-02  0.1172103E+00
         21   -1    0    0  501  502  0.00000000000E+00  0.00000000000E+00  0.41995875012E+03  0.41995875012E+03  0.00000000000E+00 0.  1.
         21   -1    0    0  502  503 -0.00000000000E+00 -0.00000000000E+00 -0.73498675870E+02  0.73498675870E+02  0.00000000000E+00 0.  1.
          6    1    1    2  501    0  0.29395900909E+02 -0.72079236282E+01  0.17971731703E+03  0.25128347975E+03  0.17300000000E+03 0.  1.
         -6    1    1    2    0  503 -0.29395900909E+02  0.72079236282E+01  0.16674275721E+03  0.24217394624E+03  0.17300000000E+03 0.  1.
<mgrwt>
<rscale>  2 0.17562765E+03</rscale>
<asrwt>0</asrwt>
<pdfrwt beam="1">  1       21 0.64609037E-01 0.17562765E+03</pdfrwt>
<pdfrwt beam="2">  1       21 0.11307489E-01 0.17562765E+03</pdfrwt>
<totfact> 0.14492996E+05</totfact>
</mgrwt>
</event>
<event>
 4    1  0.3957190E+000  0.1759441E+03  0.7546771E-02  0.1171787E+00
         21   -1    0    0  501  502  0.00000000000E+00  0.00000000000E+00  0.13574247871E+03  0.13574247871E+03  0.00000000000E+00 0.  1.
         21   -1    0    0  502  503 -0.00000000000E+00 -0.00000000000E+00 -0.32283066154E+03  0.32283066154E+03  0.00000000000E+00 0.  1.
          6    1    1    2  501    0 -0.31919671643E+02 -0.29117336170E+01  0.30691638965E+02  0.17860100877E+03  0.17300000000E+03 0.  1.
         -6    1    1    2    0  503  0.31919671643E+02  0.29117336170E+01 -0.21777982179E+03  0.27997213149E+03  0.17300000000E+03 0.  1.
<mgrwt>
<rscale>  2 0.17594415E+03</rscale>
<asrwt>0</asrwt>
<pdfrwt beam="1">  1       21 0.20883458E-01 0.17594415E+03</pdfrwt>
<pdfrwt beam="2">  1       21 0.49666256E-01 0.17594415E+03</pdfrwt>
<totfact> 0.82822138E+04</totfact>
</mgrwt>
</event>
<event>
 4    1  0.3957190E+000  0.2160251E+03  0.7546771E-02  0.1136882E+00
         21   -1    0    0  501  502  0.00000000000E+00  0.00000000000E+00  0.22918626882E+03  0.22918626882E+03  0.00000000000E+00 0. -1.
         21   -1    0    0  502  503 -0.00000000000E+00 -0.00000000000E+00 -0.60136470910E+03  0.60136470910E+03  0.00000000000E+00 0. -1.
          6    1    1    2  501    0  0.21692196936E+02 -0.12754337819E+03  0.15164077834E+03  0.26393520111E+03  0.17300000000E+03 0. -1.
         -6    1    1    2    0  503 -0.21692196936E+02  0.12754337819E+03 -0.52381921862E+03  0.56661577680E+03  0.17300000000E+03 0. -1.
<mgrwt>
<rscale>  2 0.21602515E+03</rscale>
<asrwt>0</asrwt>
<pdfrwt beam="1">  1       21 0.35259426E-01 0.21602515E+03</pdfrwt>
<pdfrwt beam="2">  1       21 0.92517647E-01 0.21602515E+03</pdfrwt>
<totfact> 0.75146657E+03</totfact>
</mgrwt>
</event>
<event>
 4    1  0.3957190E+000  0.2004700E+03  0.7546771E-02  0.1149343E+00
         21   -1    0    0  501  502  0.00000000000E+00  0.00000000000E+00  0.28778890093E+03  0.28778890093E+03  0.00000000000E+00 0.  1.
         21   -1    0    0  502  503 -0.00000000000E+00 -0.00000000000E+00 -0.14673567584E+03  0.14673567584E+03  0.00000000000E+00 0.  1.
          6    1    1    2  501    0  0.84752546680E+02  0.55463825400E+02  0.11828676795E+03  0.23276595449E+03  0.17300000000E+03 0.  1.
         -6    1    1    2    0  503 -0.84752546680E+02 -0.55463825400E+02  0.22766457138E+02  0.20175862229E+03  0.17300000000E+03 0.  1.
<mgrwt>
<rscale>  2 0.20047002E+03</rscale>
<asrwt>0</asrwt>
<pdfrwt beam="1">  1       21 0.44275215E-01 0.20047002E+03</pdfrwt>
<pdfrwt beam="2">  1       21 0.22574719E-01 0.20047002E+03</pdfrwt>
<totfact> 0.89783312E+04</totfact>
</mgrwt>
</event>
<event>
 4    1  0.3957190E+000  0.2391876E+03  0.7546771E-02  0.1120335E+00
         21   -1    0    0  503  502  0.00000000000E+00  0.00000000000E+00  0.10513541515E+03  0.10513541515E+03  0.00000000000E+00 0. -1.
         21   -1    0    0  501  503 -0.00000000000E+00 -0.00000000000E+00 -0.15619538631E+04  0.15619538631E+04  0.00000000000E+00 0.  1.
          6    1    1    2  501    0  0.37844621515E+02  0.16077780730E+03 -0.14012684424E+04  0.14215357774E+04  0.17300000000E+03 0.  1.
         -6    1    1    2    0  502 -0.37844621515E+02 -0.16077780730E+03 -0.55550005616E+02  0.24555350093E+03  0.17300000000E+03 0. -1.
<mgrwt>
<rscale>  2 0.23918762E+03</rscale>
<asrwt>0</asrwt>
<pdfrwt beam="1">  1       21 0.16174679E-01 0.23918762E+03</pdfrwt>
<pdfrwt beam="2">  1       21 0.24030060E+00 0.23918762E+03</pdfrwt>
<totfact> 0.24753401E+03</totfact>
</mgrwt>
</event>
<event>
 4    1  0.3957190E+000  0.2742361E+03  0.7546771E-02  0.1098879E+00
         21   -1    0    0  501  502  0.00000000000E+00  0.00000000000E+00  0.15077992774E+03  0.15077992774E+03  0.00000000000E+00 0. -1.
         21   -1    0    0  502  503 -0.00000000000E+00 -0.00000000000E+00 -0.67115077983E+03  0.67115077983E+03  0.00000000000E+00 0. -1.
          6    1    1    2  501    0  0.86833300620E+02  0.19425856934E+03 -0.51912899945E+02  0.27910636510E+03  0.17300000000E+03 0. -1.
         -6    1    1    2    0  503 -0.86833300620E+02 -0.19425856934E+03 -0.46845795214E+03  0.54282434247E+03  0.17300000000E+03 0. -1.
<mgrwt>
<rscale>  2 0.27423605E+03</rscale>
<asrwt>0</asrwt>
<pdfrwt beam="1">  1       21 0.23196912E-01 0.27423605E+03</pdfrwt>
<pdfrwt beam="2">  1       21 0.10325397E+00 0.27423605E+03</pdfrwt>
<totfact> 0.12664284E+04</totfact>
</mgrwt>
</event>
<event>
 4    1  0.3957190E+000  0.1789475E+03  0.7546771E-02  0.1168826E+00
         21   -1    0    0  501  502  0.00000000000E+00  0.00000000000E+00  0.14822723782E+03  0.14822723782E+03  0.00000000000E+00 0. -1.
         21   -1    0    0  502  503 -0.00000000000E+00 -0.00000000000E+00 -0.39513152995E+03  0.39513152995E+03  0.00000000000E+00 0. -1.
          6    1    1    2  501    0 -0.36516543023E+02 -0.27563724679E+02  0.59454662485E+02  0.18856583392E+03  0.17300000000E+03 0. -1.
         -6    1    1    2    0  503  0.36516543023E+02  0.27563724679E+02 -0.30635895461E+03  0.35479293384E+03  0.17300000000E+03 0. -1.
<mgrwt>
<rscale>  2 0.17894753E+03</rscale>
<asrwt>0</asrwt>
<pdfrwt beam="1">  1       21 0.22804190E-01 0.17894753E+03</pdfrwt>
<pdfrwt beam="2">  1       21 0.60789466E-01 0.17894753E+03</pdfrwt>
<totfact> 0.45749483E+04</totfact>
</mgrwt>
</event>
<event>
 4    1  0.3957190E+000  0.1773382E+03  0.7546771E-02  0.1170404E+00
         21   -1    0    0  503  502  0.00000000000E+00  0.00000000000E+00  0.30486594461E+03  0.30486594461E+03  0.00000000000E+00 0. -1.
         21   -1    0    0  501  503 -0.00000000000E+00 -0.00000000000E+00 -0.20772666134E+03  0.20772666134E+03  0.00000000000E+00 0. -1.
          6    1    1    2  501    0 -0.21768418884E+02  0.32341329511E+02 -0.13327505619E+03  0.22183567400E+03  0.17300000000E+03 0. -1.
         -6    1    1    2    0  502  0.21768418884E+02 -0.32341329511E+02  0.23041433946E+03  0.29075693196E+03  0.17300000000E+03 0. -1.
<mgrwt>
<rscale>  2 0.17733817E+03</rscale>
<asrwt>0</asrwt>
<pdfrwt beam="1">  1       21 0.46902453E-01 0.17733817E+03</pdfrwt>
<pdfrwt beam="2">  1       21 0.31957948E-01 0.17733817E+03</pdfrwt>
<totfact> 0.41288509E+04</totfact>
</mgrwt>
</event>
<event>
 4    1  0.3957190E+000  0.1759562E+03  0.7546771E-02  0.1171775E+00
         21   -1    0    0  503  502  0.00000000000E+00  0.00000000000E+00  0.10111813750E+04  0.10111813750E+04  0.00000000000E+00 0. -1.
         21   -1    0    0  501  503 -0.00000000000E+00 -0.00000000000E+00 -0.51716623880E+02  0.51716623880E+02  0.00000000000E+00 0. -1.
          6    1    1    2  501    0 -0.18332243032E+02 -0.26372895029E+02  0.14028610811E+03  0.22503509250E+03  0.17300000000E+03 0. -1.
         -6    1    1    2    0  502  0.18332243032E+02  0.26372895029E+02  0.81917864304E+03  0.83786290641E+03  0.17300000000E+03 0. -1.
<mgrwt>
<rscale>  2 0.17595625E+03</rscale>
<asrwt>0</asrwt>
<pdfrwt beam="1">  1       21 0.15556635E+00 0.17595625E+03</pdfrwt>
<pdfrwt beam="2">  1       21 0.79564044E-02 0.17595625E+03</pdfrwt>
<totfact> 0.33228817E+04</totfact>
</mgrwt>
</event>
<event>
 4    1  0.3957190E+000  0.2220531E+03  0.7546771E-02  0.1132362E+00
         21   -1    0    0  501  502  0.00000000000E+00  0.00000000000E+00  0.27232712112E+03  0.27232712112E+03  0.00000000000E+00 0. -1.
         21   -1    0    0  502  503 -0.00000000000E+00 -0.00000000000E+00 -0.18267231184E+03  0.18267231184E+03  0.00000000000E+00 0. -1.
          6    1    1    2  501    0 -0.94174077168E+02 -0.10251753171E+03  0.23455510253E+02  0.22328851757E+03  0.17300000000E+03 0. -1.
         -6    1    1    2    0  503  0.94174077168E+02  0.10251753171E+03  0.66199299034E+02  0.23171091539E+03  0.17300000000E+03 0. -1.
<mgrwt>
<rscale>  2 0.22205315E+03</rscale>
<asrwt>0</asrwt>
<pdfrwt beam="1">  1       21 0.41896480E-01 0.22205315E+03</pdfrwt>
<pdfrwt beam="2">  1       21 0.28103433E-01 0.22205315E+03</pdfrwt>
<totfact> 0.65483677E+04</totfact>
</mgrwt>
</event>
<event>
 4    1  0.3957190E+000  0.2317700E+03  0.7546771E-02  0.1125400E+00
         21   -1    0    0  501  502  0.00000000000E+00  0.00000000000E+00  0.15037524332E+03  0.15037524332E+03  0.00000000000E+00 0.  1.
         21   -1    0    0  502  503 -0.00000000000E+00 -0.00000000000E+00 -0.53736929579E+03  0.53736929579E+03  0.00000000000E+00 0. -1.
          6    1    1    2  501    0  0.78001830372E+02 -0.13305663841E+03  0.56044725285E+01  0.23183779821E+03  0.17300000000E+03 0.  1.
         -6    1    1    2    0  503 -0.78001830372E+02  0.13305663841E+03 -0.39259852500E+03  0.45590674090E+03  0.17300000000E+03 0. -1.
<mgrwt>
<rscale>  2 0.23177005E+03</rscale>
<asrwt>0</asrwt>
<pdfrwt beam="1">  1       21 0.23134653E-01 0.23177005E+03</pdfrwt>
<pdfrwt beam="2">  1       21 0.82672199E-01 0.23177005E+03</pdfrwt>
<totfact> 0.21917272E+04</totfact>
</mgrwt>
</event>
<event>
 4    1  0.3957190E+000  0.3071168E+03  0.7546771E-02  0.1081736E+00
         21   -1    0    0  501  502  0.00000000000E+00  0.00000000000E+00  0.12655125101E+03  0.12655125101E+03  0.00000000000E+00 0.  1.
         21   -1    0    0  502  503 -0.00000000000E+00 -0.00000000000E+00 -0.14550593462E+04  0.14550593462E+04  0.00000000000E+00 0. -1.
          6    1    1    2  501    0  0.17829820005E+03 -0.18055887690E+03 -0.11194815219E+03  0.32688399310E+03  0.17300000000E+03 0.  1.
         -6    1    1    2    0  503 -0.17829820005E+03  0.18055887690E+03 -0.12165599430E+04  0.12547266041E+04  0.17300000000E+03 0. -1.
<mgrwt>
<rscale>  2 0.30711684E+03</rscale>
<asrwt>0</asrwt>
<pdfrwt beam="1">  1       21 0.19469423E-01 0.30711684E+03</pdfrwt>
<pdfrwt beam="2">  1       21 0.22385529E+00 0.30711684E+03</pdfrwt>
<totfact> 0.20972009E+03</totfact>
</mgrwt>
</event>
<event>
 4    1  0.3957190E+000  0.2136377E+03  0.7546771E-02  0.1138717E+00
         21   -1    0    0  503  502  0.00000000000E+00  0.00000000000E+00  0.12778965690E+03  0.12778965690E+03  0.00000000000E+00 0. -1.
         21   -1    0    0  501  503 -0.00000000000E+00 -0.00000000000E+00 -0.42344562523E+03  0.42344562523E+03  0.00000000000E+00 0. -1.
          6    1    1    2  501    0 -0.74927008982E+02 -0.10048886527E+03 -0.25687785972E+03  0.33410672476E+03  0.17300000000E+03 0. -1.
         -6    1    1    2    0  502  0.74927008982E+02  0.10048886527E+03 -0.38778108610E+02  0.21712855737E+03  0.17300000000E+03 0. -1.
<mgrwt>
<rscale>  2 0.21363770E+03</rscale>
<asrwt>0</asrwt>
<pdfrwt beam="1">  1       21 0.19659947E-01 0.21363770E+03</pdfrwt>
<pdfrwt beam="2">  1       21 0.65145480E-01 0.21363770E+03</pdfrwt>
<totfact> 0.51173088E+04</totfact>
</mgrwt>
</event>
<event>
 4    1  0.3957190E+000  0.1887926E+03  0.7546771E-02  0.1159555E+00
         21   -1    0    0  501  502  0.00000000000E+00  0.00000000000E+00  0.14614402526E+04  0.14614402526E+04  0.00000000000E+00 0. -1.
         21   -1    0    0  502  503 -0.00000000000E+00 -0.00000000000E+00 -0.48965056312E+02  0.48965056312E+02  0.00000000000E+00 0. -1.
          6    1    1    2  501    0  0.73903091946E+02  0.15873618228E+02  0.12412687391E+04  0.12555439942E+04  0.17300000000E+03 0. -1.
         -6    1    1    2    0  503 -0.73903091946E+02 -0.15873618228E+02  0.17120645726E+03  0.25486131476E+03  0.17300000000E+03 0. -1.
<mgrwt>
<rscale>  2 0.18879258E+03</rscale>
<asrwt>0</asrwt>
<pdfrwt beam="1">  1       21 0.22483693E+00 0.18879258E+03</pdfrwt>
<pdfrwt beam="2">  1       21 0.75330867E-02 0.18879258E+03</pdfrwt>
<totfact> 0.12562638E+04</totfact>
</mgrwt>
</event>
<event>
 4    1  0.3957190E+000  0.2019443E+03  0.7546771E-02  0.1148109E+00
         21   -1    0    0  503  502  0.00000000000E+00  0.00000000000E+00  0.30975420168E+03  0.30975420168E+03  0.00000000000E+00 0. -1.
         21   -1    0    0  501  503 -0.00000000000E+00 -0.00000000000E+00 -0.13954035265E+03  0.13954035265E+03  0.00000000000E+00 0.  1.
          6    1    1    2  501    0  0.99577096257E+02 -0.30609166602E+02  0.13850038033E+03  0.24487522237E+03  0.17300000000E+03 0.  1.
         -6    1    1    2    0  502 -0.99577096257E+02  0.30609166602E+02  0.31713468701E+02  0.20441933195E+03  0.17300000000E+03 0. -1.
<mgrwt>
<rscale>  2 0.20194435E+03</rscale>
<asrwt>0</asrwt>
<pdfrwt beam="1">  1       21 0.47654492E-01 0.20194435E+03</pdfrwt>
<pdfrwt beam="2">  1       21 0.21467747E-01 0.20194435E+03</pdfrwt>
<totfact> 0.84774641E+04</totfact>
</mgrwt>
</event>
<event>
 4    1  0.3957190E+000  0.1979505E+03  0.7546771E-02  0.1151480E+00
         21   -1    0    0  503  502  0.00000000000E+00  0.00000000000E+00  0.51793480521E+02  0.51793480521E+02  0.00000000000E+00 0.  1.
         21   -1    0    0  501  503 -0.00000000000E+00 -0.00000000000E+00 -0.12227227524E+04  0.12227227524E+04  0.00000000000E+00 0.  1.
          6    1    1    2  501    0 -0.40972005396E+02 -0.87044136276E+02 -0.97894635399E+03  0.99875940590E+03  0.17300000000E+03 0.  1.
         -6    1    1    2    0  502  0.40972005396E+02  0.87044136276E+02 -0.19198291788E+03  0.27575682701E+03  0.17300000000E+03 0.  1.
<mgrwt>
<rscale>  2 0.19795047E+03</rscale>
<asrwt>0</asrwt>
<pdfrwt beam="1">  1       21 0.79682277E-02 0.19795047E+03</pdfrwt>
<pdfrwt beam="2">  1       21 0.18811120E+00 0.19795047E+03</pdfrwt>
<totfact> 0.19320053E+04</totfact>
</mgrwt>
</event>
<event>
 4    1  0.3957190E+000  0.1848063E+03  0.7546771E-02  0.1163231E+00
         21   -1    0    0  503  502  0.00000000000E+00  0.00000000000E+00  0.55706152091E+02  0.55706152091E+02  0.00000000000E+00 0. -1.
         21   -1    0    0  501  503 -0.00000000000E+00 -0.00000000000E+00 -0.82843195662E+03  0.82843195662E+03  0.00000000000E+00 0. -1.
          6    1    1    2  501    0 -0.50371331664E+02 -0.41074507638E+02 -0.61174371622E+03  0.63904910654E+03  0.17300000000E+03 0. -1.
         -6    1    1    2    0  502  0.50371331664E+02  0.41074507638E+02 -0.16098208831E+03  0.24508900218E+03  0.17300000000E+03 0. -1.
<mgrwt>
<rscale>  2 0.18480635E+03</rscale>
<asrwt>0</asrwt>
<pdfrwt beam="1">  1       21 0.85701762E-02 0.18480635E+03</pdfrwt>
<pdfrwt beam="2">  1       21 0.12745109E+00 0.18480635E+03</pdfrwt>
<totfact> 0.48554145E+04</totfact>
</mgrwt>
</event>
<event>
 4    1  0.3957190E+000  0.2030654E+03  0.7546771E-02  0.1147178E+00
         21   -1    0    0  501  502  0.00000000000E+00  0.00000000000E+00  0.58963872869E+02  0.58963872869E+02  0.00000000000E+00 0.  1.
         21   -1    0    0  502  503 -0.00000000000E+00 -0.00000000000E+00 -0.82524439104E+03  0.82524439104E+03  0.00000000000E+00 0.  1.
          6    1    1    2  501    0  0.99457310307E+01 -0.10586609390E+03 -0.21045273635E+03  0.29244811786E+03  0.17300000000E+03 0.  1.
         -6    1    1    2    0  503 -0.99457310307E+01  0.10586609390E+03 -0.55582778182E+03  0.59176014605E+03  0.17300000000E+03 0.  1.
<mgrwt>
<rscale>  2 0.20306538E+03</rscale>
<asrwt>0</asrwt>
<pdfrwt beam="1">  1       21 0.90713658E-02 0.20306538E+03</pdfrwt>
<pdfrwt beam="2">  1       21 0.12696067E+00 0.20306538E+03</pdfrwt>
<totfact> 0.43943066E+04</totfact>
</mgrwt>
</event>
<event>
 4    1  0.3957190E+000  0.1886621E+03  0.7546771E-02  0.1159674E+00
         21   -1    0    0  501  502  0.00000000000E+00  0.00000000000E+00  0.66705910622E+03  0.66705910622E+03  0.00000000000E+00 0.  1.
         21   -1    0    0  502  503 -0.00000000000E+00 -0.00000000000E+00 -0.97826495758E+02  0.97826495758E+02  0.00000000000E+00 0.  1.
          6    1    1    2  501    0 -0.46475889777E+02 -0.59197681445E+02  0.54246283088E+03  0.57433378510E+03  0.17300000000E+03 0.  1.
         -6    1    1    2    0  503  0.46475889777E+02  0.59197681445E+02  0.26769779588E+02  0.19055181688E+03  0.17300000000E+03 0.  1.
<mgrwt>
<rscale>  2 0.18866206E+03</rscale>
<asrwt>0</asrwt>
<pdfrwt beam="1">  1       21 0.10262447E+00 0.18866206E+03</pdfrwt>
<pdfrwt beam="2">  1       21 0.15050231E-01 0.18866206E+03</pdfrwt>
<totfact> 0.30160193E+04</totfact>
</mgrwt>
</event>
<event>
 4    1  0.3957190E+000  0.3093494E+03  0.7546771E-02  0.1080658E+00
         21   -1    0    0  501  502  0.00000000000E+00  0.00000000000E+00  0.10376298778E+04  0.10376298778E+04  0.00000000000E+00 0.  1.
         21   -1    0    0  502  503 -0.00000000000E+00 -0.00000000000E+00 -0.20243713884E+03  0.20243713884E+03  0.00000000000E+00 0. -1.
          6    1    1    2  501    0  0.25562165109E+03  0.20629903936E+02  0.87508650187E+03  0.92815591750E+03  0.17300000000E+03 0.  1.
         -6    1    1    2    0  503 -0.25562165109E+03 -0.20629903936E+02 -0.39893762924E+02  0.31191109913E+03  0.17300000000E+03 0. -1.
<mgrwt>
<rscale>  2 0.30934935E+03</rscale>
<asrwt>0</asrwt>
<pdfrwt beam="1">  1       21 0.15963536E+00 0.30934935E+03</pdfrwt>
<pdfrwt beam="2">  1       21 0.31144176E-01 0.30934935E+03</pdfrwt>
<totfact> 0.22970859E+03</totfact>
</mgrwt>
</event>
<event>
 4    1  0.3957190E+000  0.2219098E+03  0.7546771E-02  0.1132467E+00
         21   -1    0    0  501  502  0.00000000000E+00  0.00000000000E+00  0.36680261882E+02  0.36680261882E+02  0.00000000000E+00 0.  1.
         21   -1    0    0  502  503 -0.00000000000E+00 -0.00000000000E+00 -0.13751561827E+04  0.13751561827E+04  0.00000000000E+00 0. -1.
          6    1    1    2  501    0 -0.62165427898E+02  0.12429978709E+03 -0.56048791375E+03  0.60281894376E+03  0.17300000000E+03 0.  1.
         -6    1    1    2    0  503  0.62165427898E+02 -0.12429978709E+03 -0.77798800710E+03  0.80901750085E+03  0.17300000000E+03 0.  1.
<mgrwt>
<rscale>  2 0.22190984E+03</rscale>
<asrwt>0</asrwt>
<pdfrwt beam="1">  1       21 0.56431161E-02 0.22190984E+03</pdfrwt>
<pdfrwt beam="2">  1       21 0.21156253E+00 0.22190984E+03</pdfrwt>
<totfact> 0.24316672E+04</totfact>
</mgrwt>
</event>
<event>
 4    1  0.3957190E+000  0.2004783E+03  0.7546771E-02  0.1149336E+00
         21   -1    0    0  503  502  0.00000000000E+00  0.00000000000E+00  0.87263005763E+03  0.87263005763E+03  0.00000000000E+00 0.  1.
         21   -1    0    0  501  503 -0.00000000000E+00 -0.00000000000E+00 -0.47362085773E+02  0.47362085773E+02  0.00000000000E+00 0.  1.
          6    1    1    2  501    0 -0.55269518755E+02 -0.84899026343E+02  0.48896440939E+03  0.52846736704E+03  0.17300000000E+03 0.  1.
         -6    1    1    2    0  502  0.55269518755E+02  0.84899026343E+02  0.33630356247E+03  0.39152477637E+03  0.17300000000E+03 0.  1.
<mgrwt>
<rscale>  2 0.20047834E+03</rscale>
<asrwt>0</asrwt>
<pdfrwt beam="1">  1       21 0.13425077E+00 0.20047834E+03</pdfrwt>
<pdfrwt beam="2">  1       21 0.72864754E-02 0.20047834E+03</pdfrwt>
<totfact> 0.55996090E+04</totfact>
</mgrwt>
</event>
<event>
 4    1  0.3957190E+000  0.1784945E+03  0.7546771E-02  0.1169268E+00
         21   -1    0    0  501  502  0.00000000000E+00  0.00000000000E+00  0.36319043129E+03  0.36319043129E+03  0.00000000000E+00 0. -1.
         21   -1    0    0  502  503 -0.00000000000E+00 -0.00000000000E+00 -0.88112437531E+02  0.88112437531E+02  0.00000000000E+00 0. -1.
          6    1    1    2  501    0  0.38573031795E+02 -0.21057228762E+02  0.15253365165E+03  0.23479097204E+03  0.17300000000E+03 0. -1.
         -6    1    1    2    0  503 -0.38573031795E+02  0.21057228762E+02  0.12254434210E+03  0.21651189678E+03  0.17300000000E+03 0. -1.
<mgrwt>
<rscale>  2 0.17849450E+03</rscale>
<asrwt>0</asrwt>
<pdfrwt beam="1">  1       21 0.55875450E-01 0.17849450E+03</pdfrwt>
<pdfrwt beam="2">  1       21 0.13555760E-01 0.17849450E+03</pdfrwt>
<totfact> 0.14286084E+05</totfact>
</mgrwt>
</event>
<event>
 4    1  0.3957190E+000  0.1991888E+03  0.7546771E-02  0.1150425E+00
         21   -1    0    0  501  502  0.00000000000E+00  0.00000000000E+00  0.11586211420E+03  0.11586211420E+03  0.00000000000E+00 0.  1.
         21   -1    0    0  502  503 -0.00000000000E+00 -0.00000000000E+00 -0.11449772128E+04  0.11449772128E+04  0.00000000000E+00 0.  1.
          6    1    1    2  501    0  0.75640679884E+02  0.63448101750E+02  0.13234808385E+02  0.19962798958E+03  0.17300000000E+03 0.  1.
         -6    1    1    2    0  503 -0.75640679884E+02 -0.63448101750E+02 -0.10423499070E+04  0.10612113374E+04  0.17300000000E+03 0.  1.
<mgrwt>
<rscale>  2 0.19918879E+03</rscale>
<asrwt>0</asrwt>
<pdfrwt beam="1">  1       21 0.17824941E-01 0.19918879E+03</pdfrwt>
<pdfrwt beam="2">  1       21 0.17615034E+00 0.19918879E+03</pdfrwt>
<totfact> 0.54961190E+03</totfact>
</mgrwt>
</event>
<event>
 4    1  0.3957190E+000  0.2156459E+03  0.7546771E-02  0.1137171E+00
         21   -1    0    0  503  502  0.00000000000E+00  0.00000000000E+00  0.22599154824E+03  0.22599154824E+03  0.00000000000E+00 0.  1.
         21   -1    0    0  501  503 -0.00000000000E+00 -0.00000000000E+00 -0.25210619804E+03  0.25210619804E+03  0.00000000000E+00 0.  1.
          6    1    1    2  501    0 -0.12539289935E+03  0.29168110511E+02 -0.11553681377E+03  0.24464650664E+03  0.17300000000E+03 0.  1.
         -6    1    1    2    0  502  0.12539289935E+03 -0.29168110511E+02  0.89422163963E+02  0.23345123963E+03  0.17300000000E+03 0.  1.
<mgrwt>
<rscale>  2 0.21564591E+03</rscale>
<asrwt>0</asrwt>
<pdfrwt beam="1">  1       21 0.34767930E-01 0.21564591E+03</pdfrwt>
<pdfrwt beam="2">  1       21 0.38785569E-01 0.21564591E+03</pdfrwt>
<totfact> 0.50554609E+04</totfact>
</mgrwt>
</event>
<event>
 4    1  0.3957190E+000  0.2408270E+03  0.7546771E-02  0.1119243E+00
         21   -1    0    0  503  502  0.00000000000E+00  0.00000000000E+00  0.26308218831E+03  0.26308218831E+03  0.00000000000E+00 0.  1.
         21   -1    0    0  501  503 -0.00000000000E+00 -0.00000000000E+00 -0.33614471435E+03  0.33614471435E+03  0.00000000000E+00 0. -1.
          6    1    1    2  501    0  0.15745442367E+03  0.57242787348E+02 -0.21230201873E+03  0.32104482459E+03  0.17300000000E+03 0. -1.
         -6    1    1    2    0  502 -0.15745442367E+03 -0.57242787348E+02  0.13923949268E+03  0.27818207807E+03  0.17300000000E+03 0.  1.
<mgrwt>
<rscale>  2 0.24082698E+03</rscale>
<asrwt>0</asrwt>
<pdfrwt beam="1">  1       21 0.40474183E-01 0.24082698E+03</pdfrwt>
<pdfrwt beam="2">  1       21 0.51714571E-01 0.24082698E+03</pdfrwt>
<totfact> 0.20336012E+04</totfact>
</mgrwt>
</event>
<event>
 4    1  0.3957190E+000  0.1818455E+03  0.7546771E-02  0.1166029E+00
         21   -1    0    0  501  502  0.00000000000E+00  0.00000000000E+00  0.50433430683E+03  0.50433430683E+03  0.00000000000E+00 0.  1.
         21   -1    0    0  502  503 -0.00000000000E+00 -0.00000000000E+00 -0.12826704526E+03  0.12826704526E+03  0.00000000000E+00 0.  1.
          6    1    1    2  501    0  0.35130746817E+01  0.55914706131E+02  0.40917793419E+03  0.44776598562E+03  0.17300000000E+03 0.  1.
         -6    1    1    2    0  503 -0.35130746817E+01 -0.55914706131E+02 -0.33110672615E+02  0.18483536647E+03  0.17300000000E+03 0.  1.
<mgrwt>
<rscale>  2 0.18184553E+03</rscale>
<asrwt>0</asrwt>
<pdfrwt beam="1">  1       21 0.77589892E-01 0.18184553E+03</pdfrwt>
<pdfrwt beam="2">  1       21 0.19733392E-01 0.18184553E+03</pdfrwt>
<totfact> 0.35075374E+04</totfact>
</mgrwt>
</event>
<event>
 4    1  0.3957190E+000  0.1778160E+03  0.7546771E-02  0.1169934E+00
         21   -1    0    0  501  502  0.00000000000E+00  0.00000000000E+00  0.19893021202E+03  0.19893021202E+03  0.00000000000E+00 0. -1.
         21   -1    0    0  502  503 -0.00000000000E+00 -0.00000000000E+00 -0.25419275872E+03  0.25419275872E+03  0.00000000000E+00 0. -1.
          6    1    1    2  501    0 -0.39699186831E+01  0.40911920024E+02  0.11105601558E+03  0.20964728487E+03  0.17300000000E+03 0. -1.
         -6    1    1    2    0  503  0.39699186831E+01 -0.40911920024E+02 -0.16631856228E+03  0.24347568588E+03  0.17300000000E+03 0. -1.
<mgrwt>
<rscale>  2 0.17781604E+03</rscale>
<asrwt>0</asrwt>
<pdfrwt beam="1">  1       21 0.30604648E-01 0.17781604E+03</pdfrwt>
<pdfrwt beam="2">  1       21 0.39106579E-01 0.17781604E+03</pdfrwt>
<totfact> 0.65033691E+04</totfact>
</mgrwt>
</event>
<event>
 4    1  0.3957190E+000  0.1994243E+03  0.7546771E-02  0.1150226E+00
         21   -1    0    0  501  502  0.00000000000E+00  0.00000000000E+00  0.15202319404E+03  0.15202319404E+03  0.00000000000E+00 0.  1.
         21   -1    0    0  502  503 -0.00000000000E+00 -0.00000000000E+00 -0.30382713849E+03  0.30382713849E+03  0.00000000000E+00 0. -1.
          6    1    1    2  501    0 -0.85040181233E+02 -0.51080404574E+02  0.90647156904E+01  0.19963018115E+03  0.17300000000E+03 0.  1.
         -6    1    1    2    0  503  0.85040181233E+02  0.51080404574E+02 -0.16086866015E+03  0.25622015138E+03  0.17300000000E+03 0. -1.
<mgrwt>
<rscale>  2 0.19942427E+03</rscale>
<asrwt>0</asrwt>
<pdfrwt beam="1">  1       21 0.23388184E-01 0.19942427E+03</pdfrwt>
<pdfrwt beam="2">  1       21 0.46742636E-01 0.19942427E+03</pdfrwt>
<totfact> 0.75123627E+04</totfact>
</mgrwt>
</event>
<event>
 4    1  0.3957190E+000  0.2121473E+03  0.7546771E-02  0.1139877E+00
         21   -1    0    0  501  502  0.00000000000E+00  0.00000000000E+00  0.63895757769E+03  0.63895757769E+03  0.00000000000E+00 0. -1.
         21   -1    0    0  502  503 -0.00000000000E+00 -0.00000000000E+00 -0.13101406862E+03  0.13101406862E+03  0.00000000000E+00 0. -1.
          6    1    1    2  501    0 -0.87029042160E+02 -0.86622281509E+02  0.51575308394E+03  0.55768065900E+03  0.17300000000E+03 0. -1.
         -6    1    1    2    0  503  0.87029042160E+02  0.86622281509E+02 -0.78095748704E+01  0.21229098731E+03  0.17300000000E+03 0. -1.
<mgrwt>
<rscale>  2 0.21214729E+03</rscale>
<asrwt>0</asrwt>
<pdfrwt beam="1">  1       21 0.98301164E-01 0.21214729E+03</pdfrwt>
<pdfrwt beam="2">  1       21 0.20156011E-01 0.21214729E+03</pdfrwt>
<totfact> 0.19217257E+04</totfact>
</mgrwt>
</event>
<event>
 4    1  0.3957190E+000  0.1871161E+03  0.7546771E-02  0.1161088E+00
         21   -1    0    0  503  502  0.00000000000E+00  0.00000000000E+00  0.29110947015E+03  0.29110947015E+03  0.00000000000E+00 0. -1.
         21   -1    0    0  501  503 -0.00000000000E+00 -0.00000000000E+00 -0.14314210681E+03  0.14314210681E+03  0.00000000000E+00 0.  1.
          6    1    1    2  501    0 -0.27026052671E+02 -0.65977564215E+02 -0.12803906110E+02  0.18755368968E+03  0.17300000000E+03 0.  1.
         -6    1    1    2    0  502  0.27026052671E+02  0.65977564215E+02  0.16077126945E+03  0.24669788727E+03  0.17300000000E+03 0. -1.
<mgrwt>
<rscale>  2 0.18711613E+03</rscale>
<asrwt>0</asrwt>
<pdfrwt beam="1">  1       21 0.44786072E-01 0.18711613E+03</pdfrwt>
<pdfrwt beam="2">  1       21 0.22021863E-01 0.18711613E+03</pdfrwt>
<totfact> 0.92395030E+04</totfact>
</mgrwt>
</event>
<event>
 4    1  0.3957190E+000  0.1952743E+03  0.7546771E-02  0.1153788E+00
         21   -1    0    0  503  502  0.00000000000E+00  0.00000000000E+00  0.14757613972E+03  0.14757613972E+03  0.00000000000E+00 0.  1.
         21   -1    0    0  501  503 -0.00000000000E+00 -0.00000000000E+00 -0.27714679373E+03  0.27714679373E+03  0.00000000000E+00 0.  1.
          6    1    1    2  501    0 -0.50229397455E+02 -0.75366109966E+02 -0.95378673747E+01  0.19550706845E+03  0.17300000000E+03 0.  1.
         -6    1    1    2    0  502  0.50229397455E+02  0.75366109966E+02 -0.12003278663E+03  0.22921586500E+03  0.17300000000E+03 0.  1.
<mgrwt>
<rscale>  2 0.19527428E+03</rscale>
<asrwt>0</asrwt>
<pdfrwt beam="1">  1       21 0.22704022E-01 0.19527428E+03</pdfrwt>
<pdfrwt beam="2">  1       21 0.42637968E-01 0.19527428E+03</pdfrwt>
<totfact> 0.96143398E+04</totfact>
</mgrwt>
</event>
<event>
 4    1  0.3957190E+000  0.2307758E+03  0.7546771E-02  0.1126095E+00
         21   -1    0    0  503  502  0.00000000000E+00  0.00000000000E+00  0.29570741888E+03  0.29570741888E+03  0.00000000000E+00 0. -1.
         21   -1    0    0  501  503 -0.00000000000E+00 -0.00000000000E+00 -0.29717415671E+03  0.29717415671E+03  0.00000000000E+00 0. -1.
          6    1    1    2  501    0 -0.14462751526E+03  0.49105689199E+02 -0.18679606758E+03  0.29690109085E+03  0.17300000000E+03 0. -1.
         -6    1    1    2    0  502  0.14462751526E+03 -0.49105689199E+02  0.18532932975E+03  0.29598048474E+03  0.17300000000E+03 0. -1.
<mgrwt>
<rscale>  2 0.23077584E+03</rscale>
<asrwt>0</asrwt>
<pdfrwt beam="1">  1       21 0.45493449E-01 0.23077584E+03</pdfrwt>
<pdfrwt beam="2">  1       21 0.45719101E-01 0.23077584E+03</pdfrwt>
<totfact> 0.20800506E+04</totfact>
</mgrwt>
</event>
<event>
 4    1  0.3957190E+000  0.2282529E+03  0.7546771E-02  0.1127876E+00
         21   -1    0    0  501  502  0.00000000000E+00  0.00000000000E+00  0.37865094976E+03  0.37865094976E+03  0.00000000000E+00 0. -1.
         21   -1    0    0  502  503 -0.00000000000E+00 -0.00000000000E+00 -0.13782512617E+03  0.13782512617E+03  0.00000000000E+00 0. -1.
          6    1    1    2  501    0 -0.11261468397E+03  0.97407979266E+02  0.13103116626E+03  0.26318918671E+03  0.17300000000E+03 0. -1.
         -6    1    1    2    0  503  0.11261468397E+03 -0.97407979266E+02  0.10979465733E+03  0.25328688922E+03  0.17300000000E+03 0. -1.
<mgrwt>
<rscale>  2 0.22825289E+03</rscale>
<asrwt>0</asrwt>
<pdfrwt beam="1">  1       21 0.58253992E-01 0.22825289E+03</pdfrwt>
<pdfrwt beam="2">  1       21 0.21203866E-01 0.22825289E+03</pdfrwt>
<totfact> 0.56193226E+04</totfact>
</mgrwt>
</event>
<event>
 4    1  0.3957190E+000  0.1785583E+03  0.7546771E-02  0.1169206E+00
         21   -1    0    0  501  502  0.00000000000E+00  0.00000000000E+00  0.17991587466E+04  0.17991587466E+04  0.00000000000E+00 0.  1.
         21   -1    0    0  502  503 -0.00000000000E+00 -0.00000000000E+00 -0.19448323511E+02  0.19448323511E+02  0.00000000000E+00 0.  1.
          6    1    1    2  501    0 -0.43035327543E+02 -0.10100469305E+02  0.61887162589E+03  0.64411578791E+03  0.17300000000E+03 0.  1.
         -6    1    1    2    0  503  0.43035327543E+02  0.10100469305E+02  0.11608387972E+04  0.11744912822E+04  0.17300000000E+03 0.  1.
<mgrwt>
<rscale>  2 0.17855828E+03</rscale>
<asrwt>0</asrwt>
<pdfrwt beam="1">  1       21 0.27679352E+00 0.17855828E+03</pdfrwt>
<pdfrwt beam="2">  1       21 0.29920512E-02 0.17855828E+03</pdfrwt>
<totfact> 0.29898452E+04</totfact>
</mgrwt>
</event>
<event>
 4    1  0.3957190E+000  0.1730712E+03  0.7546771E-02  0.1174682E+00
         21   -1    0    0  501  502  0.00000000000E+00  0.00000000000E+00  0.54165171562E+03  0.54165171562E+03  0.00000000000E+00 0.  1.
         21   -1    0    0  502  503 -0.00000000000E+00 -0.00000000000E+00 -0.24294374361E+03  0.24294374361E+03  0.00000000000E+00 0.  1.
          6    1    1    2  501    0  0.44651704816E+01  0.21645611018E+01  0.49412391098E+03  0.52355712436E+03  0.17300000000E+03 0.  1.
         -6    1    1    2    0  503 -0.44651704816E+01 -0.21645611018E+01 -0.19541593897E+03  0.26103833487E+03  0.17300000000E+03 0.  1.
<mgrwt>
<rscale>  2 0.17307115E+03</rscale>
<asrwt>0</asrwt>
<pdfrwt beam="1">  1       21 0.83331033E-01 0.17307115E+03</pdfrwt>
<pdfrwt beam="2">  1       21 0.37375961E-01 0.17307115E+03</pdfrwt>
<totfact> 0.87804526E+03</totfact>
</mgrwt>
</event>
<event>
 4    1  0.3957190E+000  0.1896427E+03  0.7546771E-02  0.1158784E+00
         21   -1    0    0  501  502  0.00000000000E+00  0.00000000000E+00  0.18355403007E+03  0.18355403007E+03  0.00000000000E+00 0.  1.
         21   -1    0    0  502  503 -0.00000000000E+00 -0.00000000000E+00 -0.20386291592E+03  0.20386291592E+03  0.00000000000E+00 0. -1.
          6    1    1    2  501    0  0.44178400662E+02 -0.63903170276E+02  0.28049278076E+02  0.19170578566E+03  0.17300000000E+03 0.  1.
         -6    1    1    2    0  503 -0.44178400662E+02  0.63903170276E+02 -0.48358163927E+02  0.19571116032E+03  0.17300000000E+03 0. -1.
<mgrwt>
<rscale>  2 0.18964268E+03</rscale>
<asrwt>0</asrwt>
<pdfrwt beam="1">  1       21 0.28239082E-01 0.18964268E+03</pdfrwt>
<pdfrwt beam="2">  1       21 0.31363525E-01 0.18964268E+03</pdfrwt>
<totfact> 0.11721523E+05</totfact>
</mgrwt>
</event>
<event>
 4    1  0.3957190E+000  0.2317370E+03  0.7546771E-02  0.1125423E+00
         21   -1    0    0  503  502  0.00000000000E+00  0.00000000000E+00  0.59985063288E+02  0.59985063288E+02  0.00000000000E+00 0. -1.
         21   -1    0    0  501  503 -0.00000000000E+00 -0.00000000000E+00 -0.95051228072E+03  0.95051228072E+03  0.00000000000E+00 0. -1.
          6    1    1    2  501    0  0.12089551069E+03 -0.95693834671E+02 -0.56708234249E+03  0.61260461773E+03  0.17300000000E+03 0. -1.
         -6    1    1    2    0  502 -0.12089551069E+03  0.95693834671E+02 -0.32344487494E+03  0.39789272628E+03  0.17300000000E+03 0. -1.
<mgrwt>
<rscale>  2 0.23173699E+03</rscale>
<asrwt>0</asrwt>
<pdfrwt beam="1">  1       21 0.92284718E-02 0.23173699E+03</pdfrwt>
<pdfrwt beam="2">  1       21 0.14623265E+00 0.23173699E+03</pdfrwt>
<totfact> 0.29184428E+04</totfact>
</mgrwt>
</event>
<event>
 4    1  0.3957190E+000  0.1737423E+03  0.7546771E-02  0.1174000E+00
         21   -1    0    0  503  502  0.00000000000E+00  0.00000000000E+00  0.40208767841E+03  0.40208767841E+03  0.00000000000E+00 0.  1.
         21   -1    0    0  501  503 -0.00000000000E+00 -0.00000000000E+00 -0.77129978273E+02  0.77129978273E+02  0.00000000000E+00 0.  1.
          6    1    1    2  501    0 -0.14855226498E+02 -0.60584161656E+01  0.20159777102E+03  0.26613538555E+03  0.17300000000E+03 0.  1.
         -6    1    1    2    0  502  0.14855226498E+02  0.60584161656E+01  0.12335992912E+03  0.21308227114E+03  0.17300000000E+03 0.  1.
<mgrwt>
<rscale>  2 0.17374229E+03</rscale>
<asrwt>0</asrwt>
<pdfrwt beam="1">  1       21 0.61859642E-01 0.17374229E+03</pdfrwt>
<pdfrwt beam="2">  1       21 0.11866151E-01 0.17374229E+03</pdfrwt>
<totfact> 0.14620434E+05</totfact>
</mgrwt>
</event>
<event>
 4    1  0.3957190E+000  0.1896573E+03  0.7546771E-02  0.1158771E+00
         21   -1    0    0  501  502  0.00000000000E+00  0.00000000000E+00  0.12854089878E+03  0.12854089878E+03  0.00000000000E+00 0. -1.
         21   -1    0    0  502  503 -0.00000000000E+00 -0.00000000000E+00 -0.28116826691E+03  0.28116826691E+03  0.00000000000E+00 0.  1.
          6    1    1    2  501    0  0.55737373168E+02  0.54168703597E+02 -0.90434195740E+02  0.21011484235E+03  0.17300000000E+03 0. -1.
         -6    1    1    2    0  503 -0.55737373168E+02 -0.54168703597E+02 -0.62193172394E+02  0.19959432334E+03  0.17300000000E+03 0.  1.
<mgrwt>
<rscale>  2 0.18965733E+03</rscale>
<asrwt>0</asrwt>
<pdfrwt beam="1">  1       21 0.19775523E-01 0.18965733E+03</pdfrwt>
<pdfrwt beam="2">  1       21 0.43256656E-01 0.18965733E+03</pdfrwt>
<totfact> 0.12125749E+05</totfact>
</mgrwt>
</event>
<event>
 4    1  0.3957190E+000  0.1812849E+03  0.7546771E-02  0.1166565E+00
         21   -1    0    0  503  502  0.00000000000E+00  0.00000000000E+00  0.29877723589E+03  0.29877723589E+03  0.00000000000E+00 0.  1.
         21   -1    0    0  501  503 -0.00000000000E+00 -0.00000000000E+00 -0.13881349954E+03  0.13881349954E+03  0.00000000000E+00 0.  1.
          6    1    1    2  501    0  0.31035243539E+02  0.44407447931E+02  0.17967213674E+03  0.25523770195E+03  0.17300000000E+03 0.  1.
         -6    1    1    2    0  502 -0.31035243539E+02 -0.44407447931E+02 -0.19708400388E+02  0.18235303348E+03  0.17300000000E+03 0.  1.
<mgrwt>
<rscale>  2 0.18128488E+03</rscale>
<asrwt>0</asrwt>
<pdfrwt beam="1">  1       21 0.45965728E-01 0.18128488E+03</pdfrwt>
<pdfrwt beam="2">  1       21 0.21355923E-01 0.18128488E+03</pdfrwt>
<totfact> 0.93006389E+04</totfact>
</mgrwt>
</event>
<event>
 4    1  0.3957190E+000  0.2628732E+03  0.7546771E-02  0.1105429E+00
         21   -1    0    0  503  502  0.00000000000E+00  0.00000000000E+00  0.18603069947E+03  0.18603069947E+03  0.00000000000E+00 0. -1.
         21   -1    0    0  501  503 -0.00000000000E+00 -0.00000000000E+00 -0.37239282408E+03  0.37239282408E+03  0.00000000000E+00 0.  1.
          6    1    1    2  501    0  0.19742263614E+03  0.14058082731E+02 -0.79181058314E+02  0.27453955443E+03  0.17300000000E+03 0. -1.
         -6    1    1    2    0  502 -0.19742263614E+03 -0.14058082731E+02 -0.10718106630E+03  0.28388396912E+03  0.17300000000E+03 0.  1.
<mgrwt>
<rscale>  2 0.26287321E+03</rscale>
<asrwt>0</asrwt>
<pdfrwt beam="1">  1       21 0.28620108E-01 0.26287321E+03</pdfrwt>
<pdfrwt beam="2">  1       21 0.57291203E-01 0.26287321E+03</pdfrwt>
<totfact> 0.32293776E+04</totfact>
</mgrwt>
</event>
<event>
 4    1  0.3957190E+000  0.2422140E+03  0.7546771E-02  0.1118327E+00
         21   -1    0    0  503  502  0.00000000000E+00  0.00000000000E+00  0.26974677724E+03  0.26974677724E+03  0.00000000000E+00 0.  1.
         21   -1    0    0  501  503 -0.00000000000E+00 -0.00000000000E+00 -0.52401534021E+03  0.52401534021E+03  0.00000000000E+00 0. -1.
          6    1    1    2  501    0  0.11897790322E+03  0.12075962156E+03 -0.43067748300E+03  0.49411610176E+03  0.17300000000E+03 0. -1.
         -6    1    1    2    0  502 -0.11897790322E+03 -0.12075962156E+03  0.17640892003E+03  0.29964601569E+03  0.17300000000E+03 0.  1.
<mgrwt>
<rscale>  2 0.24221401E+03</rscale>
<asrwt>0</asrwt>
<pdfrwt beam="1">  1       21 0.41499504E-01 0.24221401E+03</pdfrwt>
<pdfrwt beam="2">  1       21 0.80617744E-01 0.24221401E+03</pdfrwt>
<totfact> 0.73083574E+03</totfact>
</mgrwt>
</event>
<event>
 4    1  0.3957190E+000  0.2207945E+03  0.7546771E-02  0.1133292E+00
         21   -1    0    0  503  502  0.00000000000E+00  0.00000000000E+00  0.14408177593E+03  0.14408177593E+03  0.00000000000E+00 0.  1.
         21   -1    0    0  501  503 -0.00000000000E+00 -0.00000000000E+00 -0.54076613843E+03  0.54076613843E+03  0.00000000000E+00 0. -1.
          6    1    1    2  501    0 -0.12113977245E+03  0.64392252979E+02 -0.40784069133E+03  0.46377175013E+03  0.17300000000E+03 0. -1.
         -6    1    1    2    0  502  0.12113977245E+03 -0.64392252979E+02  0.11156328833E+02  0.22107616422E+03  0.17300000000E+03 0.  1.
<mgrwt>
<rscale>  2 0.22079449E+03</rscale>
<asrwt>0</asrwt>
<pdfrwt beam="1">  1       21 0.22166427E-01 0.22079449E+03</pdfrwt>
<pdfrwt beam="2">  1       21 0.83194792E-01 0.22079449E+03</pdfrwt>
<totfact> 0.23566523E+04</totfact>
</mgrwt>
</event>
<event>
 4    1  0.3957190E+000  0.1822116E+03  0.7546771E-02  0.1165680E+00
         21   -1    0    0  503  502  0.00000000000E+00  0.00000000000E+00  0.55572928070E+03  0.55572928070E+03  0.00000000000E+00 0.  1.
         21   -1    0    0  501  503 -0.00000000000E+00 -0.00000000000E+00 -0.11048688169E+03  0.11048688169E+03  0.00000000000E+00 0. -1.
          6    1    1    2  501    0 -0.55825949421E+02  0.12471567157E+02 -0.31250576393E+01  0.18223842241E+03  0.17300000000E+03 0. -1.
         -6    1    1    2    0  502  0.55825949421E+02 -0.12471567157E+02  0.44836745664E+03  0.48397773998E+03  0.17300000000E+03 0.  1.
<mgrwt>
<rscale>  2 0.18221163E+03</rscale>
<asrwt>0</asrwt>
<pdfrwt beam="1">  1       21 0.85496811E-01 0.18221163E+03</pdfrwt>
<pdfrwt beam="2">  1       21 0.16997982E-01 0.18221163E+03</pdfrwt>
<totfact> 0.37097353E+04</totfact>
</mgrwt>
</event>
<event>
 4    1  0.3957190E+000  0.1970508E+03  0.7546771E-02  0.1152251E+00
         21   -1    0    0  503  502  0.00000000000E+00  0.00000000000E+00  0.36968585325E+02  0.36968585325E+02  0.00000000000E+00 0.  1.
         21   -1    0    0  501  503 -0.00000000000E+00 -0.00000000000E+00 -0.10744928947E+04  0.10744928947E+04  0.00000000000E+00 0.  1.
          6    1    1    2  501    0 -0.49960124054E+02 -0.80025032751E+02 -0.43541622987E+03  0.47792919255E+03  0.17300000000E+03 0.  1.
         -6    1    1    2    0  502  0.49960124054E+02  0.80025032751E+02 -0.60210807954E+03  0.63353228751E+03  0.17300000000E+03 0.  1.
<mgrwt>
<rscale>  2 0.19705081E+03</rscale>
<asrwt>0</asrwt>
<pdfrwt beam="1">  1       21 0.56874762E-02 0.19705081E+03</pdfrwt>
<pdfrwt beam="2">  1       21 0.16530656E+00 0.19705081E+03</pdfrwt>
<totfact> 0.49646079E+04</totfact>
</mgrwt>
</event>
<event>
 4    1  0.3957190E+000  0.2330715E+03  0.7546771E-02  0.1124496E+00
         21   -1    0    0  503  502  0.00000000000E+00  0.00000000000E+00  0.19335284293E+04  0.19335284293E+04  0.00000000000E+00 0.  1.
         21   -1    0    0  501  503 -0.00000000000E+00 -0.00000000000E+00 -0.28816027137E+02  0.28816027137E+02  0.00000000000E+00 0.  1.
          6    1    1    2  501    0  0.90418686463E+02 -0.12734912638E+03  0.11075685153E+04  0.11318261151E+04  0.17300000000E+03 0.  1.
         -6    1    1    2    0  502 -0.90418686463E+02  0.12734912638E+03  0.79714388687E+03  0.83051834130E+03  0.17300000000E+03 0.  1.
<mgrwt>
<rscale>  2 0.23307153E+03</rscale>
<asrwt>0</asrwt>
<pdfrwt beam="1">  1       21 0.29746581E+00 0.23307153E+03</pdfrwt>
<pdfrwt beam="2">  1       21 0.44332365E-02 0.23307153E+03</pdfrwt>
<totfact> 0.11184602E+04</totfact>
</mgrwt>
</event>
<event>
 4    1  0.3957190E+000  0.3105642E+03  0.7546771E-02  0.1080076E+00
         21   -1    0    0  501  502  0.00000000000E+00  0.00000000000E+00  0.38296819732E+03  0.38296819732E+03  0.00000000000E+00 0.  1.
         21   -1    0    0  502  503 -0.00000000000E+00 -0.00000000000E+00 -0.27686389746E+03  0.27686389746E+03  0.00000000000E+00 0.  1.
          6    1    1    2  501    0 -0.15330547097E+03  0.20740915525E+03 -0.46115580647E+02  0.31396938050E+03  0.17300000000E+03 0.  1.
         -6    1    1    2    0  503  0.15330547097E+03 -0.20740915525E+03  0.15221988050E+03  0.34586271428E+03  0.17300000000E+03 0.  1.
<mgrwt>
<rscale>  2 0.31056420E+03</rscale>
<asrwt>0</asrwt>
<pdfrwt beam="1">  1       21 0.58918184E-01 0.31056420E+03</pdfrwt>
<pdfrwt beam="2">  1       21 0.42594446E-01 0.31056420E+03</pdfrwt>
<totfact> 0.13432838E+04</totfact>
</mgrwt>
</event>
<event>
 4    1  0.3957190E+000  0.1815591E+03  0.7546771E-02  0.1166303E+00
         21   -1    0    0  501  502  0.00000000000E+00  0.00000000000E+00  0.42438250768E+03  0.42438250768E+03  0.00000000000E+00 0. -1.
         21   -1    0    0  502  503 -0.00000000000E+00 -0.00000000000E+00 -0.13652882847E+03  0.13652882847E+03  0.00000000000E+00 0. -1.
          6    1    1    2  501    0  0.44907079158E+02  0.31907004483E+02  0.32806390305E+03  0.37495283327E+03  0.17300000000E+03 0. -1.
         -6    1    1    2    0  503 -0.44907079158E+02 -0.31907004483E+02 -0.40210223838E+02  0.18595850288E+03  0.17300000000E+03 0. -1.
<mgrwt>
<rscale>  2 0.18155909E+03</rscale>
<asrwt>0</asrwt>
<pdfrwt beam="1">  1       21 0.65289616E-01 0.18155909E+03</pdfrwt>
<pdfrwt beam="2">  1       21 0.21004435E-01 0.18155909E+03</pdfrwt>
<totfact> 0.45703525E+04</totfact>
</mgrwt>
</event>
<event>
 4    1  0.3957190E+000  0.2992747E+03  0.7546771E-02  0.1085604E+00
         21   -1    0    0  503  502  0.00000000000E+00  0.00000000000E+00  0.35689550468E+03  0.35689550468E+03  0.00000000000E+00 0. -1.
         21   -1    0    0  501  503 -0.00000000000E+00 -0.00000000000E+00 -0.25254222762E+03  0.25254222762E+03  0.00000000000E+00 0. -1.
          6    1    1    2  501    0  0.23421131585E+03 -0.69147822005E+02  0.28033012704E+02  0.30058478265E+03  0.17300000000E+03 0. -1.
         -6    1    1    2    0  502 -0.23421131585E+03  0.69147822005E+02  0.76320264357E+02  0.30885294965E+03  0.17300000000E+03 0. -1.
<mgrwt>
<rscale>  2 0.29927473E+03</rscale>
<asrwt>0</asrwt>
<pdfrwt beam="1">  1       21 0.54907001E-01 0.29927473E+03</pdfrwt>
<pdfrwt beam="2">  1       21 0.38852650E-01 0.29927473E+03</pdfrwt>
<totfact> 0.18959320E+04</totfact>
</mgrwt>
</event>
<event>
 4    1  0.3957190E+000  0.1993180E+03  0.7546771E-02  0.1150316E+00
         21   -1    0    0  501  502  0.00000000000E+00  0.00000000000E+00  0.50155092098E+03  0.50155092098E+03  0.00000000000E+00 0. -1.
         21   -1    0    0  502  503 -0.00000000000E+00 -0.00000000000E+00 -0.16056063114E+03  0.16056063114E+03  0.00000000000E+00 0.  1.
          6    1    1    2  501    0  0.36963655562E+02  0.91827813249E+02  0.40614279173E+03  0.45241532511E+03  0.17300000000E+03 0. -1.
         -6    1    1    2    0  503 -0.36963655562E+02 -0.91827813249E+02 -0.65152501888E+02  0.20969622701E+03  0.17300000000E+03 0.  1.
<mgrwt>
<rscale>  2 0.19931798E+03</rscale>
<asrwt>0</asrwt>
<pdfrwt beam="1">  1       21 0.77161679E-01 0.19931798E+03</pdfrwt>
<pdfrwt beam="2">  1       21 0.24701636E-01 0.19931798E+03</pdfrwt>
<totfact> 0.23030587E+04</totfact>
</mgrwt>
</event>
<event>
 4    1  0.3957190E+000  0.1791082E+03  0.7546771E-02  0.1168669E+00
         21   -1    0    0  501  502  0.00000000000E+00  0.00000000000E+00  0.86263313597E+02  0.86263313597E+02  0.00000000000E+00 0. -1.
         21   -1    0    0  502  503 -0.00000000000E+00 -0.00000000000E+00 -0.64835266719E+03  0.64835266719E+03  0.00000000000E+00 0. -1.
          6    1    1    2  501    0  0.21610147090E+02 -0.41033702928E+02 -0.41189360023E+02  0.18378336870E+03  0.17300000000E+03 0. -1.
         -6    1    1    2    0  503 -0.21610147090E+02  0.41033702928E+02 -0.52089999357E+03  0.55083261209E+03  0.17300000000E+03 0. -1.
<mgrwt>
<rscale>  2 0.17910824E+03</rscale>
<asrwt>0</asrwt>
<pdfrwt beam="1">  1       21 0.13271279E-01 0.17910824E+03</pdfrwt>
<pdfrwt beam="2">  1       21 0.99746561E-01 0.17910824E+03</pdfrwt>
<totfact> 0.40738016E+04</totfact>
</mgrwt>
</event>
<event>
 4    1  0.3957190E+000  0.3582497E+03  0.7546771E-02  0.1059279E+00
         21   -1    0    0  501  502  0.00000000000E+00  0.00000000000E+00  0.15093192536E+04  0.15093192536E+04  0.00000000000E+00 0. -1.
         21   -1    0    0  502  503 -0.00000000000E+00 -0.00000000000E+00 -0.56732104534E+03  0.56732104534E+03  0.00000000000E+00 0.  1.
          6    1    1    2  501    0 -0.91125442276E+02 -0.30018324140E+03  0.14283470737E+04  0.14725889405E+04  0.17300000000E+03 0. -1.
         -6    1    1    2    0  503  0.91125442276E+02  0.30018324140E+03 -0.48634886549E+03  0.60405135842E+03  0.17300000000E+03 0.  1.
<mgrwt>
<rscale>  2 0.35824967E+03</rscale>
<asrwt>0</asrwt>
<pdfrwt beam="1">  1       21 0.23220296E+00 0.35824967E+03</pdfrwt>
<pdfrwt beam="2">  1       21 0.87280162E-01 0.35824967E+03</pdfrwt>
<totfact> 0.79944583E+01</totfact>
</mgrwt>
</event>
<event>
 4    1  0.3957190E+000  0.1902699E+03  0.7546771E-02  0.1158218E+00
         21   -1    0    0  503  502  0.00000000000E+00  0.00000000000E+00  0.19066710154E+04  0.19066710154E+04  0.00000000000E+00 0. -1.
         21   -1    0    0  501  503 -0.00000000000E+00 -0.00000000000E+00 -0.19427852688E+02  0.19427852688E+02  0.00000000000E+00 0.  1.
          6    1    1    2  501    0  0.71368546445E+01 -0.78884144576E+02  0.79860853185E+03  0.82096177140E+03  0.17300000000E+03 0.  1.
         -6    1    1    2    0  502 -0.71368546445E+01  0.78884144576E+02  0.10886346308E+04  0.11051370966E+04  0.17300000000E+03 0. -1.
<mgrwt>
<rscale>  2 0.19026992E+03</rscale>
<asrwt>0</asrwt>
<pdfrwt beam="1">  1       21 0.29333385E+00 0.19026992E+03</pdfrwt>
<pdfrwt beam="2">  1       21 0.29889019E-02 0.19026992E+03</pdfrwt>
<totfact> 0.23793504E+04</totfact>
</mgrwt>
</event>
<event>
 4    1  0.3957190E+000  0.1760331E+03  0.7546771E-02  0.1171698E+00
         21   -1    0    0  503  502  0.00000000000E+00  0.00000000000E+00  0.15106522343E+03  0.15106522343E+03  0.00000000000E+00 0.  1.
         21   -1    0    0  501  503 -0.00000000000E+00 -0.00000000000E+00 -0.22120135665E+03  0.22120135665E+03  0.00000000000E+00 0.  1.
          6    1    1    2  501    0 -0.31346815066E+02 -0.87204763328E+01 -0.85243001372E+02  0.19558639729E+03  0.17300000000E+03 0.  1.
         -6    1    1    2    0  502  0.31346815066E+02  0.87204763328E+01  0.15106868151E+02  0.17668018278E+03  0.17300000000E+03 0.  1.
<mgrwt>
<rscale>  2 0.17603315E+03</rscale>
<asrwt>0</asrwt>
<pdfrwt beam="1">  1       21 0.23240804E-01 0.17603315E+03</pdfrwt>
<pdfrwt beam="2">  1       21 0.34030978E-01 0.17603315E+03</pdfrwt>
<totfact> 0.14556552E+05</totfact>
</mgrwt>
</event>
<event>
 4    1  0.3957190E+000  0.1886256E+03  0.7546771E-02  0.1159707E+00
         21   -1    0    0  501  502  0.00000000000E+00  0.00000000000E+00  0.25737261725E+03  0.25737261725E+03  0.00000000000E+00 0. -1.
         21   -1    0    0  502  503 -0.00000000000E+00 -0.00000000000E+00 -0.20534054919E+03  0.20534054919E+03  0.00000000000E+00 0. -1.
          6    1    1    2  501    0 -0.28023011464E+02  0.69751865785E+02  0.15826803195E+03  0.24622831253E+03  0.17300000000E+03 0. -1.
         -6    1    1    2    0  503  0.28023011464E+02 -0.69751865785E+02 -0.10623596389E+03  0.21648485392E+03  0.17300000000E+03 0. -1.
<mgrwt>
<rscale>  2 0.18862559E+03</rscale>
<asrwt>0</asrwt>
<pdfrwt beam="1">  1       21 0.39595787E-01 0.18862559E+03</pdfrwt>
<pdfrwt beam="2">  1       21 0.31590854E-01 0.18862559E+03</pdfrwt>
<totfact> 0.59330303E+04</totfact>
</mgrwt>
</event>
<event>
 4    1  0.3957190E+000  0.2397214E+03  0.7546771E-02  0.1119979E+00
         21   -1    0    0  501  502  0.00000000000E+00  0.00000000000E+00  0.75487742614E+03  0.75487742614E+03  0.00000000000E+00 0. -1.
         21   -1    0    0  502  503 -0.00000000000E+00 -0.00000000000E+00 -0.37383983187E+03  0.37383983187E+03  0.00000000000E+00 0. -1.
          6    1    1    2  501    0  0.94131430838E+02 -0.13666240259E+03  0.69414853766E+03  0.73437628699E+03  0.17300000000E+03 0. -1.
         -6    1    1    2    0  503 -0.94131430838E+02  0.13666240259E+03 -0.31311094339E+03  0.39434097102E+03  0.17300000000E+03 0. -1.
<mgrwt>
<rscale>  2 0.23972138E+03</rscale>
<asrwt>0</asrwt>
<pdfrwt beam="1">  1       21 0.11613499E+00 0.23972138E+03</pdfrwt>
<pdfrwt beam="2">  1       21 0.57513820E-01 0.23972138E+03</pdfrwt>
<totfact> 0.15582159E+03</totfact>
</mgrwt>
</event>
<event>
 4    1  0.3957190E+000  0.2164260E+03  0.7546771E-02  0.1136576E+00
         21   -1    0    0  501  502  0.00000000000E+00  0.00000000000E+00  0.78537763344E+02  0.78537763344E+02  0.00000000000E+00 0. -1.
         21   -1    0    0  502  503 -0.00000000000E+00 -0.00000000000E+00 -0.95557739925E+03  0.95557739925E+03  0.00000000000E+00 0. -1.
          6    1    1    2  501    0  0.92015362933E+02 -0.91893352121E+02 -0.12152057878E+03  0.24820851365E+03  0.17300000000E+03 0. -1.
         -6    1    1    2    0  503 -0.92015362933E+02  0.91893352121E+02 -0.75551905713E+03  0.78590664895E+03  0.17300000000E+03 0. -1.
<mgrwt>
<rscale>  2 0.21642600E+03</rscale>
<asrwt>0</asrwt>
<pdfrwt beam="1">  1       21 0.12082733E-01 0.21642600E+03</pdfrwt>
<pdfrwt beam="2">  1       21 0.14701191E+00 0.21642600E+03</pdfrwt>
<totfact> 0.17978744E+04</totfact>
</mgrwt>
</event>
<event>
 4    1  0.3957190E+000  0.2420140E+03  0.7546771E-02  0.1118458E+00
         21   -1    0    0  503  502  0.00000000000E+00  0.00000000000E+00  0.13513308352E+03  0.13513308352E+03  0.00000000000E+00 0.  1.
         21   -1    0    0  501  503 -0.00000000000E+00 -0.00000000000E+00 -0.55802129235E+03  0.55802129235E+03  0.00000000000E+00 0. -1.
          6    1    1    2  501    0  0.48889298934E+02 -0.16202346240E+03 -0.37520793987E+03  0.44648825747E+03  0.17300000000E+03 0. -1.
         -6    1    1    2    0  502 -0.48889298934E+02  0.16202346240E+03 -0.47680268968E+02  0.24666611840E+03  0.17300000000E+03 0.  1.
<mgrwt>
<rscale>  2 0.24201398E+03</rscale>
<asrwt>0</asrwt>
<pdfrwt beam="1">  1       21 0.20789705E-01 0.24201398E+03</pdfrwt>
<pdfrwt beam="2">  1       21 0.85849431E-01 0.24201398E+03</pdfrwt>
<totfact> 0.24481302E+04</totfact>
</mgrwt>
</event>
<event>
 4    1  0.3957190E+000  0.1740543E+03  0.7546771E-02  0.1173685E+00
         21   -1    0    0  501  502  0.00000000000E+00  0.00000000000E+00  0.83642288860E+03  0.83642288860E+03  0.00000000000E+00 0.  1.
         21   -1    0    0  502  503 -0.00000000000E+00 -0.00000000000E+00 -0.10276645721E+03  0.10276645721E+03  0.00000000000E+00 0.  1.
          6    1    1    2  501    0  0.19121262464E+02  0.51759046008E+00  0.74471464044E+03  0.76478414358E+03  0.17300000000E+03 0.  1.
         -6    1    1    2    0  503 -0.19121262464E+02 -0.51759046008E+00 -0.11058209052E+02  0.17440520223E+03  0.17300000000E+03 0.  1.
<mgrwt>
<rscale>  2 0.17405427E+03</rscale>
<asrwt>0</asrwt>
<pdfrwt beam="1">  1       21 0.12868044E+00 0.17405427E+03</pdfrwt>
<pdfrwt beam="2">  1       21 0.15810225E-01 0.17405427E+03</pdfrwt>
<totfact> 0.16008834E+04</totfact>
</mgrwt>
</event>
<event>
 4    1  0.3957190E+000  0.2045170E+03  0.7546771E-02  0.1145983E+00
         21   -1    0    0  501  502  0.00000000000E+00  0.00000000000E+00  0.44385286305E+03  0.44385286305E+03  0.00000000000E+00 0.  1.
         21   -1    0    0  502  503 -0.00000000000E+00 -0.00000000000E+00 -0.16846687256E+03  0.16846687256E+03  0.00000000000E+00 0.  1.
          6    1    1    2  501    0  0.10905015575E+03 -0.25066923701E+01  0.34091994558E+03  0.39755959210E+03  0.17300000000E+03 0.  1.
         -6    1    1    2    0  503 -0.10905015575E+03  0.25066923701E+01 -0.65533955086E+02  0.21476014352E+03  0.17300000000E+03 0.  1.
<mgrwt>
<rscale>  2 0.20451704E+03</rscale>
<asrwt>0</asrwt>
<pdfrwt beam="1">  1       21 0.68285055E-01 0.20451704E+03</pdfrwt>
<pdfrwt beam="2">  1       21 0.25917981E-01 0.20451704E+03</pdfrwt>
<totfact> 0.27479299E+04</totfact>
</mgrwt>
</event>
<event>
 4    1  0.3957190E+000  0.1922447E+03  0.7546771E-02  0.1156452E+00
         21   -1    0    0  501  502  0.00000000000E+00  0.00000000000E+00  0.31920912462E+02  0.31920912462E+02  0.00000000000E+00 0.  1.
         21   -1    0    0  502  503 -0.00000000000E+00 -0.00000000000E+00 -0.12215426970E+04  0.12215426970E+04  0.00000000000E+00 0.  1.
          6    1    1    2  501    0 -0.81937562083E+02 -0.17756050354E+02 -0.45164430580E+03  0.49085702640E+03  0.17300000000E+03 0.  1.
         -6    1    1    2    0  503  0.81937562083E+02  0.17756050354E+02 -0.73797747872E+03  0.76260658305E+03  0.17300000000E+03 0.  1.
<mgrwt>
<rscale>  2 0.19224474E+03</rscale>
<asrwt>0</asrwt>
<pdfrwt beam="1">  1       21 0.49109113E-02 0.19224474E+03</pdfrwt>
<pdfrwt beam="2">  1       21 0.18792958E+00 0.19224474E+03</pdfrwt>
<totfact> 0.44649277E+04</totfact>
</mgrwt>
</event>
<event>
 4    1  0.3957190E+000  0.2167037E+03  0.7546771E-02  0.1136365E+00
         21   -1    0    0  503  502  0.00000000000E+00  0.00000000000E+00  0.70007684194E+03  0.70007684194E+03  0.00000000000E+00 0.  1.
         21   -1    0    0  501  503 -0.00000000000E+00 -0.00000000000E+00 -0.68096877011E+02  0.68096877011E+02  0.00000000000E+00 0.  1.
          6    1    1    2  501    0 -0.10494500566E+03  0.77575999032E+02  0.26903272441E+03  0.34545491260E+03  0.17300000000E+03 0.  1.
         -6    1    1    2    0  502  0.10494500566E+03 -0.77575999032E+02  0.36294724052E+03  0.42271880634E+03  0.17300000000E+03 0.  1.
<mgrwt>
<rscale>  2 0.21670369E+03</rscale>
<asrwt>0</asrwt>
<pdfrwt beam="1">  1       21 0.10770412E+00 0.21670369E+03</pdfrwt>
<pdfrwt beam="2">  1       21 0.10476443E-01 0.21670369E+03</pdfrwt>
<totfact> 0.50736093E+04</totfact>
</mgrwt>
</event>
<event>
 4    1  0.3957190E+000  0.1762850E+03  0.7546771E-02  0.1171448E+00
         21   -1    0    0  501  502  0.00000000000E+00  0.00000000000E+00  0.37944414556E+03  0.37944414556E+03  0.00000000000E+00 0.  1.
         21   -1    0    0  502  503 -0.00000000000E+00 -0.00000000000E+00 -0.15197424301E+03  0.15197424301E+03  0.00000000000E+00 0.  1.
          6    1    1    2  501    0 -0.33407312940E+02  0.55979447277E+01  0.29416195222E+03  0.34293970268E+03  0.17300000000E+03 0.  1.
         -6    1    1    2    0  503  0.33407312940E+02 -0.55979447277E+01 -0.66692049670E+02  0.18847868588E+03  0.17300000000E+03 0.  1.
<mgrwt>
<rscale>  2 0.17628496E+03</rscale>
<asrwt>0</asrwt>
<pdfrwt beam="1">  1       21 0.58376022E-01 0.17628496E+03</pdfrwt>
<pdfrwt beam="2">  1       21 0.23380653E-01 0.17628496E+03</pdfrwt>
<totfact> 0.47656812E+04</totfact>
</mgrwt>
</event>
<event>
 4    1  0.3957190E+000  0.1817121E+03  0.7546771E-02  0.1166156E+00
         21   -1    0    0  501  502  0.00000000000E+00  0.00000000000E+00  0.17557002995E+03  0.17557002995E+03  0.00000000000E+00 0.  1.
         21   -1    0    0  502  503 -0.00000000000E+00 -0.00000000000E+00 -0.23947638839E+03  0.23947638839E+03  0.00000000000E+00 0.  1.
          6    1    1    2  501    0 -0.24739618713E+02  0.49781840565E+02 -0.12810291285E+03  0.22232776854E+03  0.17300000000E+03 0.  1.
         -6    1    1    2    0  503  0.24739618713E+02 -0.49781840565E+02  0.64196554408E+02  0.19271864980E+03  0.17300000000E+03 0.  1.
<mgrwt>
<rscale>  2 0.18171208E+03</rscale>
<asrwt>0</asrwt>
<pdfrwt beam="1">  1       21 0.27010774E-01 0.18171208E+03</pdfrwt>
<pdfrwt beam="2">  1       21 0.36842521E-01 0.18171208E+03</pdfrwt>
<totfact> 0.93178859E+04</totfact>
</mgrwt>
</event>
<event>
 4    1  0.3957190E+000  0.1942082E+03  0.7546771E-02  0.1154720E+00
         21   -1    0    0  501  502  0.00000000000E+00  0.00000000000E+00  0.37125459524E+03  0.37125459524E+03  0.00000000000E+00 0.  1.
         21   -1    0    0  502  503 -0.00000000000E+00 -0.00000000000E+00 -0.12080815255E+03  0.12080815255E+03  0.00000000000E+00 0.  1.
          6    1    1    2  501    0  0.48698284809E+02  0.73595551203E+02  0.22334502124E+03  0.29597267883E+03  0.17300000000E+03 0.  1.
         -6    1    1    2    0  503 -0.48698284809E+02 -0.73595551203E+02  0.27101421459E+02  0.19609006896E+03  0.17300000000E+03 0.  1.
<mgrwt>
<rscale>  2 0.19420821E+03</rscale>
<asrwt>0</asrwt>
<pdfrwt beam="1">  1       21 0.57116091E-01 0.19420821E+03</pdfrwt>
<pdfrwt beam="2">  1       21 0.18585870E-01 0.19420821E+03</pdfrwt>
<totfact> 0.76129706E+04</totfact>
</mgrwt>
</event>
<event>
 4    1  0.3957190E+000  0.1849548E+03  0.7546771E-02  0.1163092E+00
         21   -1    0    0  501  502  0.00000000000E+00  0.00000000000E+00  0.60257503404E+03  0.60257503404E+03  0.00000000000E+00 0. -1.
         21   -1    0    0  502  503 -0.00000000000E+00 -0.00000000000E+00 -0.68863114360E+02  0.68863114360E+02  0.00000000000E+00 0. -1.
          6    1    1    2  501    0  0.65182573252E+02  0.55246957358E+01  0.40754122867E+03  0.44754680558E+03  0.17300000000E+03 0. -1.
         -6    1    1    2    0  503 -0.65182573252E+02 -0.55246957358E+01  0.12617069101E+03  0.22389134281E+03  0.17300000000E+03 0. -1.
<mgrwt>
<rscale>  2 0.18495483E+03</rscale>
<asrwt>0</asrwt>
<pdfrwt beam="1">  1       21 0.92703848E-01 0.18495483E+03</pdfrwt>
<pdfrwt beam="2">  1       21 0.10594326E-01 0.18495483E+03</pdfrwt>
<totfact> 0.72102280E+04</totfact>
</mgrwt>
</event>
<event>
 4    1  0.3957190E+000  0.1751429E+03  0.7546771E-02  0.1172588E+00
         21   -1    0    0  501  502  0.00000000000E+00  0.00000000000E+00  0.11548693512E+03  0.11548693512E+03  0.00000000000E+00 0. -1.
         21   -1    0    0  502  503 -0.00000000000E+00 -0.00000000000E+00 -0.43198074696E+03  0.43198074696E+03  0.00000000000E+00 0. -1.
          6    1    1    2  501    0  0.27249342468E+02  0.18751718911E+01  0.11627703663E+02  0.17552847754E+03  0.17300000000E+03 0. -1.
         -6    1    1    2    0  503 -0.27249342468E+02 -0.18751718911E+01 -0.32812151550E+03  0.37193920454E+03  0.17300000000E+03 0. -1.
<mgrwt>
<rscale>  2 0.17514292E+03</rscale>
<asrwt>0</asrwt>
<pdfrwt beam="1">  1       21 0.17767221E-01 0.17514292E+03</pdfrwt>
<pdfrwt beam="2">  1       21 0.66458577E-01 0.17514292E+03</pdfrwt>
<totfact> 0.60199256E+04</totfact>
</mgrwt>
</event>
<event>
 4    1  0.3957190E+000  0.2023235E+03  0.7546771E-02  0.1147793E+00
         21   -1    0    0  501  502  0.00000000000E+00  0.00000000000E+00  0.51718891521E+03  0.51718891521E+03  0.00000000000E+00 0. -1.
         21   -1    0    0  502  503 -0.00000000000E+00 -0.00000000000E+00 -0.12792522559E+03  0.12792522559E+03  0.00000000000E+00 0. -1.
          6    1    1    2  501    0  0.10456626901E+03  0.84680830702E+01  0.39380648882E+03  0.44273961160E+03  0.17300000000E+03 0. -1.
         -6    1    1    2    0  503 -0.10456626901E+03 -0.84680830702E+01 -0.45427991980E+01  0.20237452920E+03  0.17300000000E+03 0. -1.
<mgrwt>
<rscale>  2 0.20232354E+03</rscale>
<asrwt>0</asrwt>
<pdfrwt beam="1">  1       21 0.79567524E-01 0.20232354E+03</pdfrwt>
<pdfrwt beam="2">  1       21 0.19680804E-01 0.20232354E+03</pdfrwt>
<totfact> 0.32942751E+04</totfact>
</mgrwt>
</event>
<event>
 4    1  0.3957190E+000  0.1886457E+03  0.7546771E-02  0.1159689E+00
         21   -1    0    0  501  502  0.00000000000E+00  0.00000000000E+00  0.19115548259E+03  0.19115548259E+03  0.00000000000E+00 0.  1.
         21   -1    0    0  502  503 -0.00000000000E+00 -0.00000000000E+00 -0.26501807503E+03  0.26501807503E+03  0.00000000000E+00 0.  1.
          6    1    1    2  501    0  0.64369863580E+02  0.38919249433E+02  0.87480399433E+02  0.20794231796E+03  0.17300000000E+03 0.  1.
         -6    1    1    2    0  503 -0.64369863580E+02 -0.38919249433E+02 -0.16134299187E+03  0.24823123965E+03  0.17300000000E+03 0.  1.
<mgrwt>
<rscale>  2 0.18864567E+03</rscale>
<asrwt>0</asrwt>
<pdfrwt beam="1">  1       21 0.29408536E-01 0.18864567E+03</pdfrwt>
<pdfrwt beam="2">  1       21 0.40772012E-01 0.18864567E+03</pdfrwt>
<totfact> 0.64305930E+04</totfact>
</mgrwt>
</event>
<event>
 4    1  0.3957190E+000  0.2032730E+03  0.7546771E-02  0.1147007E+00
         21   -1    0    0  503  502  0.00000000000E+00  0.00000000000E+00  0.91374019785E+03  0.91374019785E+03  0.00000000000E+00 0.  1.
         21   -1    0    0  501  503 -0.00000000000E+00 -0.00000000000E+00 -0.47209433306E+02  0.47209433306E+02  0.00000000000E+00 0.  1.
          6    1    1    2  501    0  0.21705143044E+01  0.10670614901E+03  0.33464846126E+03  0.39154757819E+03  0.17300000000E+03 0.  1.
         -6    1    1    2    0  502 -0.21705143044E+01 -0.10670614901E+03  0.53188230329E+03  0.56940205296E+03  0.17300000000E+03 0.  1.
<mgrwt>
<rscale>  2 0.20327300E+03</rscale>
<asrwt>0</asrwt>
<pdfrwt beam="1">  1       21 0.14057540E+00 0.20327300E+03</pdfrwt>
<pdfrwt beam="2">  1       21 0.72629904E-02 0.20327300E+03</pdfrwt>
<totfact> 0.49952276E+04</totfact>
</mgrwt>
</event>
<event>
 4    1  0.3957190E+000  0.1910802E+03  0.7546771E-02  0.1157491E+00
         21   -1    0    0  501  502  0.00000000000E+00  0.00000000000E+00  0.62969313539E+03  0.62969313539E+03  0.00000000000E+00 0. -1.
         21   -1    0    0  502  503 -0.00000000000E+00 -0.00000000000E+00 -0.74361534286E+02  0.74361534286E+02  0.00000000000E+00 0. -1.
          6    1    1    2  501    0 -0.35991332594E+02  0.72713620882E+02  0.44287589659E+03  0.48233878806E+03  0.17300000000E+03 0. -1.
         -6    1    1    2    0  503  0.35991332594E+02 -0.72713620882E+02  0.11245570451E+03  0.22171588162E+03  0.17300000000E+03 0. -1.
<mgrwt>
<rscale>  2 0.19108021E+03</rscale>
<asrwt>0</asrwt>
<pdfrwt beam="1">  1       21 0.96875863E-01 0.19108021E+03</pdfrwt>
<pdfrwt beam="2">  1       21 0.11440236E-01 0.19108021E+03</pdfrwt>
<totfact> 0.56591250E+04</totfact>
</mgrwt>
</event>
<event>
 4    1  0.3957190E+000  0.1897424E+03  0.7546771E-02  0.1158694E+00
         21   -1    0    0  501  502  0.00000000000E+00  0.00000000000E+00  0.11364160710E+03  0.11364160710E+03  0.00000000000E+00 0. -1.
         21   -1    0    0  502  503 -0.00000000000E+00 -0.00000000000E+00 -0.35429148358E+03  0.35429148358E+03  0.00000000000E+00 0. -1.
          6    1    1    2  501    0 -0.60786197220E+02 -0.48767126672E+02 -0.44220052607E+02  0.19482712201E+03  0.17300000000E+03 0. -1.
         -6    1    1    2    0  503  0.60786197220E+02  0.48767126672E+02 -0.19642982388E+03  0.27310596867E+03  0.17300000000E+03 0. -1.
<mgrwt>
<rscale>  2 0.18974244E+03</rscale>
<asrwt>0</asrwt>
<pdfrwt beam="1">  1       21 0.17483324E-01 0.18974244E+03</pdfrwt>
<pdfrwt beam="2">  1       21 0.54506382E-01 0.18974244E+03</pdfrwt>
<totfact> 0.94298272E+04</totfact>
</mgrwt>
</event>
<event>
 4    1  0.3957190E+000  0.1807819E+03  0.7546771E-02  0.1167048E+00
         21   -1    0    0  503  502  0.00000000000E+00  0.00000000000E+00  0.60613851788E+02  0.60613851788E+02  0.00000000000E+00 0. -1.
         21   -1    0    0  501  503 -0.00000000000E+00 -0.00000000000E+00 -0.16895854242E+04  0.16895854242E+04  0.00000000000E+00 0. -1.
          6    1    1    2  501    0 -0.20227914188E+02  0.48414216432E+02 -0.15365766751E+04  0.15471748393E+04  0.17300000000E+03 0. -1.
         -6    1    1    2    0  502  0.20227914188E+02 -0.48414216432E+02 -0.92394897389E+02  0.20302443678E+03  0.17300000000E+03 0. -1.
<mgrwt>
<rscale>  2 0.18078193E+03</rscale>
<asrwt>0</asrwt>
<pdfrwt beam="1">  1       21 0.93252088E-02 0.18078193E+03</pdfrwt>
<pdfrwt beam="2">  1       21 0.25993620E+00 0.18078193E+03</pdfrwt>
<totfact> 0.54066752E+03</totfact>
</mgrwt>
</event>
<event>
 4    1  0.3957190E+000  0.2074521E+03  0.7546771E-02  0.1143600E+00
         21   -1    0    0  501  502  0.00000000000E+00  0.00000000000E+00  0.21868885761E+02  0.21868885761E+02  0.00000000000E+00 0.  1.
         21   -1    0    0  502  503 -0.00000000000E+00 -0.00000000000E+00 -0.20926315296E+04  0.20926315296E+04  0.00000000000E+00 0. -1.
          6    1    1    2  501    0  0.11397768322E+03 -0.10792494978E+02 -0.12934711930E+04  0.13100015715E+04  0.17300000000E+03 0. -1.
         -6    1    1    2    0  503 -0.11397768322E+03  0.10792494978E+02 -0.77729145079E+03  0.80449884381E+03  0.17300000000E+03 0.  1.
<mgrwt>
<rscale>  2 0.20745214E+03</rscale>
<asrwt>0</asrwt>
<pdfrwt beam="1">  1       21 0.33644426E-02 0.20745214E+03</pdfrwt>
<pdfrwt beam="2">  1       21 0.32194344E+00 0.20745214E+03</pdfrwt>
<totfact> 0.13133200E+04</totfact>
</mgrwt>
</event>
<event>
 4    1  0.3957190E+000  0.2335578E+03  0.7546771E-02  0.1124160E+00
         21   -1    0    0  501  502  0.00000000000E+00  0.00000000000E+00  0.53964176126E+03  0.53964176126E+03  0.00000000000E+00 0. -1.
         21   -1    0    0  502  503 -0.00000000000E+00 -0.00000000000E+00 -0.30321828914E+03  0.30321828914E+03  0.00000000000E+00 0.  1.
          6    1    1    2  501    0  0.14163199733E+02 -0.15626786258E+03  0.46229819956E+03  0.51794677952E+03  0.17300000000E+03 0. -1.
         -6    1    1    2    0  503 -0.14163199733E+02  0.15626786258E+03 -0.22587472744E+03  0.32491327088E+03  0.17300000000E+03 0.  1.
<mgrwt>
<rscale>  2 0.23355779E+03</rscale>
<asrwt>0</asrwt>
<pdfrwt beam="1">  1       21 0.83021809E-01 0.23355779E+03</pdfrwt>
<pdfrwt beam="2">  1       21 0.46648968E-01 0.23355779E+03</pdfrwt>
<totfact> 0.54011651E+03</totfact>
</mgrwt>
</event>
<event>
 4    1  0.3957190E+000  0.1927754E+03  0.7546771E-02  0.1155982E+00
         21   -1    0    0  501  502  0.00000000000E+00  0.00000000000E+00  0.58727881186E+03  0.58727881186E+03  0.00000000000E+00 0. -1.
         21   -1    0    0  502  503 -0.00000000000E+00 -0.00000000000E+00 -0.11552839279E+03  0.11552839279E+03  0.00000000000E+00 0. -1.
          6    1    1    2  501    0 -0.64040377893E+02  0.55965820764E+02  0.47219657253E+03  0.51003131885E+03  0.17300000000E+03 0. -1.
         -6    1    1    2    0  503  0.64040377893E+02 -0.55965820764E+02 -0.44615345853E+00  0.19277588580E+03  0.17300000000E+03 0. -1.
<mgrwt>
<rscale>  2 0.19277537E+03</rscale>
<asrwt>0</asrwt>
<pdfrwt beam="1">  1       21 0.90350585E-01 0.19277537E+03</pdfrwt>
<pdfrwt beam="2">  1       21 0.17773599E-01 0.19277537E+03</pdfrwt>
<totfact> 0.29923159E+04</totfact>
</mgrwt>
</event>
<event>
 4    1  0.3957190E+000  0.1852016E+03  0.7546771E-02  0.1162862E+00
         21   -1    0    0  501  502  0.00000000000E+00  0.00000000000E+00  0.43082480773E+03  0.43082480773E+03  0.00000000000E+00 0.  1.
         21   -1    0    0  502  503 -0.00000000000E+00 -0.00000000000E+00 -0.84814659066E+02  0.84814659066E+02  0.00000000000E+00 0. -1.
          6    1    1    2  501    0 -0.64434006545E+02 -0.14794927867E+02  0.23684836031E+03  0.30066056754E+03  0.17300000000E+03 0.  1.
         -6    1    1    2    0  503  0.64434006545E+02  0.14794927867E+02  0.10916178836E+03  0.21497889926E+03  0.17300000000E+03 0.  1.
<mgrwt>
<rscale>  2 0.18520160E+03</rscale>
<asrwt>0</asrwt>
<pdfrwt beam="1">  1       21 0.66280738E-01 0.18520160E+03</pdfrwt>
<pdfrwt beam="2">  1       21 0.13048409E-01 0.18520160E+03</pdfrwt>
<totfact> 0.10576022E+05</totfact>
</mgrwt>
</event>
<event>
 4    1  0.3957190E+000  0.2075948E+03  0.7546771E-02  0.1143485E+00
         21   -1    0    0  501  502  0.00000000000E+00  0.00000000000E+00  0.25921797619E+03  0.25921797619E+03  0.00000000000E+00 0. -1.
         21   -1    0    0  502  503 -0.00000000000E+00 -0.00000000000E+00 -0.51565289858E+03  0.51565289858E+03  0.00000000000E+00 0. -1.
          6    1    1    2  501    0 -0.88924673920E+02  0.72518865682E+02  0.19070303802E+03  0.28189223512E+03  0.17300000000E+03 0. -1.
         -6    1    1    2    0  503  0.88924673920E+02 -0.72518865682E+02 -0.44713796041E+03  0.49297863965E+03  0.17300000000E+03 0. -1.
<mgrwt>
<rscale>  2 0.20759476E+03</rscale>
<asrwt>0</asrwt>
<pdfrwt beam="1">  1       21 0.39879689E-01 0.20759476E+03</pdfrwt>
<pdfrwt beam="2">  1       21 0.79331215E-01 0.20759476E+03</pdfrwt>
<totfact> 0.84050006E+03</totfact>
</mgrwt>
</event>
<event>
 4    1  0.3957190E+000  0.1763564E+03  0.7546771E-02  0.1171377E+00
         21   -1    0    0  501  502  0.00000000000E+00  0.00000000000E+00  0.32599385664E+02  0.32599385664E+02  0.00000000000E+00 0.  1.
         21   -1    0    0  502  503 -0.00000000000E+00 -0.00000000000E+00 -0.13599073496E+04  0.13599073496E+04  0.00000000000E+00 0.  1.
          6    1    1    2  501    0  0.29051694200E+02  0.18126463081E+02 -0.28329183281E+03  0.33370021297E+03  0.17300000000E+03 0.  1.
         -6    1    1    2    0  503 -0.29051694200E+02 -0.18126463081E+02 -0.10440161311E+04  0.10588065223E+04  0.17300000000E+03 0.  1.
<mgrwt>
<rscale>  2 0.17635637E+03</rscale>
<asrwt>0</asrwt>
<pdfrwt beam="1">  1       21 0.50152913E-02 0.17635637E+03</pdfrwt>
<pdfrwt beam="2">  1       21 0.20921647E+00 0.17635637E+03</pdfrwt>
<totfact> 0.31787378E+04</totfact>
</mgrwt>
</event>
<event>
 4    1  0.3957190E+000  0.2247278E+03  0.7546771E-02  0.1130407E+00
         21   -1    0    0  503  502  0.00000000000E+00  0.00000000000E+00  0.42244174475E+03  0.42244174475E+03  0.00000000000E+00 0. -1.
         21   -1    0    0  501  503 -0.00000000000E+00 -0.00000000000E+00 -0.12657206778E+03  0.12657206778E+03  0.00000000000E+00 0.  1.
          6    1    1    2  501    0 -0.54636131426E+02 -0.13262153540E+03  0.83274026617E+02  0.23966047238E+03  0.17300000000E+03 0.  1.
         -6    1    1    2    0  502  0.54636131426E+02  0.13262153540E+03  0.21259565035E+03  0.30935334015E+03  0.17300000000E+03 0. -1.
<mgrwt>
<rscale>  2 0.22472779E+03</rscale>
<asrwt>0</asrwt>
<pdfrwt beam="1">  1       21 0.64991037E-01 0.22472779E+03</pdfrwt>
<pdfrwt beam="2">  1       21 0.19472626E-01 0.22472779E+03</pdfrwt>
<totfact> 0.52106600E+04</totfact>
</mgrwt>
</event>
<event>
 4    1  0.3957190E+000  0.3271772E+03  0.7546771E-02  0.1072393E+00
         21   -1    0    0  503  502  0.00000000000E+00  0.00000000000E+00  0.10350198872E+04  0.10350198872E+04  0.00000000000E+00 0.  1.
         21   -1    0    0  501  503 -0.00000000000E+00 -0.00000000000E+00 -0.55878336836E+03  0.55878336836E+03  0.00000000000E+00 0. -1.
          6    1    1    2  501    0 -0.19777997368E+03 -0.19493331539E+03 -0.48126539952E+03  0.58194613171E+03  0.17300000000E+03 0. -1.
         -6    1    1    2    0  502  0.19777997368E+03  0.19493331539E+03  0.95750191840E+03  0.10118571239E+04  0.17300000000E+03 0.  1.
<mgrwt>
<rscale>  2 0.32717719E+03</rscale>
<asrwt>0</asrwt>
<pdfrwt beam="1">  1       21 0.15923383E+00 0.32717719E+03</pdfrwt>
<pdfrwt beam="2">  1       21 0.85966672E-01 0.32717719E+03</pdfrwt>
<totfact> 0.26237955E+02</totfact>
</mgrwt>
</event>
<event>
 4    1  0.3957190E+000  0.2330560E+03  0.7546771E-02  0.1124507E+00
         21   -1    0    0  501  502  0.00000000000E+00  0.00000000000E+00  0.13854149960E+03  0.13854149960E+03  0.00000000000E+00 0. -1.
         21   -1    0    0  502  503 -0.00000000000E+00 -0.00000000000E+00 -0.42331660548E+03  0.42331660548E+03  0.00000000000E+00 0. -1.
          6    1    1    2  501    0 -0.15600803436E+03 -0.68998505112E+01 -0.66037667634E+02  0.24223147663E+03  0.17300000000E+03 0. -1.
         -6    1    1    2    0  503  0.15600803436E+03  0.68998505112E+01 -0.21873743825E+03  0.31962662845E+03  0.17300000000E+03 0. -1.
<mgrwt>
<rscale>  2 0.23305603E+03</rscale>
<asrwt>0</asrwt>
<pdfrwt beam="1">  1       21 0.21314077E-01 0.23305603E+03</pdfrwt>
<pdfrwt beam="2">  1       21 0.65125632E-01 0.23305603E+03</pdfrwt>
<totfact> 0.43611675E+04</totfact>
</mgrwt>
</event>
<event>
 4    1  0.3957190E+000  0.2190898E+03  0.7546771E-02  0.1134563E+00
         21   -1    0    0  501  502  0.00000000000E+00  0.00000000000E+00  0.30970406554E+03  0.30970406554E+03  0.00000000000E+00 0. -1.
         21   -1    0    0  502  503 -0.00000000000E+00 -0.00000000000E+00 -0.15773249969E+03  0.15773249969E+03  0.00000000000E+00 0.  1.
          6    1    1    2  501    0  0.62209283884E+02 -0.11916940213E+03  0.10681639577E+03  0.24374183845E+03  0.17300000000E+03 0. -1.
         -6    1    1    2    0  503 -0.62209283884E+02  0.11916940213E+03  0.45155170080E+02  0.22369472678E+03  0.17300000000E+03 0.  1.
<mgrwt>
<rscale>  2 0.21908980E+03</rscale>
<asrwt>0</asrwt>
<pdfrwt beam="1">  1       21 0.47646779E-01 0.21908980E+03</pdfrwt>
<pdfrwt beam="2">  1       21 0.24266538E-01 0.21908980E+03</pdfrwt>
<totfact> 0.66738727E+04</totfact>
</mgrwt>
</event>
<event>
 4    1  0.3957190E+000  0.1745837E+03  0.7546771E-02  0.1173150E+00
         21   -1    0    0  503  502  0.00000000000E+00  0.00000000000E+00  0.28303442767E+02  0.28303442767E+02  0.00000000000E+00 0. -1.
         21   -1    0    0  501  503 -0.00000000000E+00 -0.00000000000E+00 -0.17931051435E+04  0.17931051435E+04  0.00000000000E+00 0. -1.
          6    1    1    2  501    0  0.83257407723E+00  0.23447046905E+02 -0.14579717090E+04  0.14683871974E+04  0.17300000000E+03 0. -1.
         -6    1    1    2    0  502 -0.83257407723E+00 -0.23447046905E+02 -0.30682999178E+03  0.35302138893E+03  0.17300000000E+03 0. -1.
<mgrwt>
<rscale>  2 0.17458367E+03</rscale>
<asrwt>0</asrwt>
<pdfrwt beam="1">  1       21 0.43543762E-02 0.17458367E+03</pdfrwt>
<pdfrwt beam="2">  1       21 0.27586230E+00 0.17458367E+03</pdfrwt>
<totfact> 0.16266241E+04</totfact>
</mgrwt>
</event>
<event>
 4    1  0.3957190E+000  0.2317134E+03  0.7546771E-02  0.1125440E+00
         21   -1    0    0  503  502  0.00000000000E+00  0.00000000000E+00  0.56599817032E+02  0.56599817032E+02  0.00000000000E+00 0. -1.
         21   -1    0    0  501  503 -0.00000000000E+00 -0.00000000000E+00 -0.95869359397E+03  0.95869359397E+03  0.00000000000E+00 0. -1.
          6    1    1    2  501    0  0.68160080389E+02 -0.13826178300E+03 -0.39898226390E+03  0.46138700037E+03  0.17300000000E+03 0. -1.
         -6    1    1    2    0  502 -0.68160080389E+02  0.13826178300E+03 -0.50311151303E+03  0.55390641063E+03  0.17300000000E+03 0. -1.
<mgrwt>
<rscale>  2 0.23171344E+03</rscale>
<asrwt>0</asrwt>
<pdfrwt beam="1">  1       21 0.87076642E-02 0.23171344E+03</pdfrwt>
<pdfrwt beam="2">  1       21 0.14749132E+00 0.23171344E+03</pdfrwt>
<totfact> 0.31606326E+04</totfact>
</mgrwt>
</event>
<event>
 4    1  0.3957190E+000  0.2031486E+03  0.7546771E-02  0.1147109E+00
         21   -1    0    0  501  502  0.00000000000E+00  0.00000000000E+00  0.84774556648E+03  0.84774556648E+03  0.00000000000E+00 0.  1.
         21   -1    0    0  502  503 -0.00000000000E+00 -0.00000000000E+00 -0.11608667015E+03  0.11608667015E+03  0.00000000000E+00 0.  1.
          6    1    1    2  501    0 -0.10181817337E+03  0.31199350310E+02  0.73305051353E+03  0.76067890418E+03  0.17300000000E+03 0.  1.
         -6    1    1    2    0  503  0.10181817337E+03 -0.31199350310E+02 -0.13916171994E+01  0.20315333245E+03  0.17300000000E+03 0.  1.
<mgrwt>
<rscale>  2 0.20314857E+03</rscale>
<asrwt>0</asrwt>
<pdfrwt beam="1">  1       21 0.13042239E+00 0.20314857E+03</pdfrwt>
<pdfrwt beam="2">  1       21 0.17859488E-01 0.20314857E+03</pdfrwt>
<totfact> 0.12121987E+04</totfact>
</mgrwt>
</event>
<event>
 4    1  0.3957190E+000  0.1766174E+03  0.7546771E-02  0.1171118E+00
         21   -1    0    0  501  502  0.00000000000E+00  0.00000000000E+00  0.18154063338E+02  0.18154063338E+02  0.00000000000E+00 0. -1.
         21   -1    0    0  502  503 -0.00000000000E+00 -0.00000000000E+00 -0.26633079890E+04  0.26633079890E+04  0.00000000000E+00 0. -1.
          6    1    1    2  501    0 -0.35553441435E+02  0.80335344960E+00 -0.52393117998E+03  0.55289924393E+03  0.17300000000E+03 0. -1.
         -6    1    1    2    0  503  0.35553441435E+02 -0.80335344960E+00 -0.21212227457E+04  0.21285628084E+04  0.17300000000E+03 0. -1.
<mgrwt>
<rscale>  2 0.17661736E+03</rscale>
<asrwt>0</asrwt>
<pdfrwt beam="1">  1       21 0.27929329E-02 0.17661736E+03</pdfrwt>
<pdfrwt beam="2">  1       21 0.40973969E+00 0.17661736E+03</pdfrwt>
<totfact> 0.55175839E+03</totfact>
</mgrwt>
</event>
<event>
 4    1  0.3957190E+000  0.3100081E+03  0.7546771E-02  0.1080342E+00
         21   -1    0    0  503  502  0.00000000000E+00  0.00000000000E+00  0.11920783415E+04  0.11920783415E+04  0.00000000000E+00 0. -1.
         21   -1    0    0  501  503 -0.00000000000E+00 -0.00000000000E+00 -0.11425983410E+03  0.11425983410E+03  0.00000000000E+00 0.  1.
          6    1    1    2  501    0  0.20796342663E+03  0.15141735627E+03  0.18449786908E+03  0.36075541062E+03  0.17300000000E+03 0.  1.
         -6    1    1    2    0  502 -0.20796342663E+03 -0.15141735627E+03  0.89332063827E+03  0.94558276494E+03  0.17300000000E+03 0. -1.
<mgrwt>
<rscale>  2 0.31000807E+03</rscale>
<asrwt>0</asrwt>
<pdfrwt beam="1">  1       21 0.18339666E+00 0.31000807E+03</pdfrwt>
<pdfrwt beam="2">  1       21 0.17578437E-01 0.31000807E+03</pdfrwt>
<totfact> 0.46541092E+03</totfact>
</mgrwt>
</event>
<event>
 4    1  0.3957190E+000  0.1755576E+03  0.7546771E-02  0.1172173E+00
         21   -1    0    0  503  502  0.00000000000E+00  0.00000000000E+00  0.10873451632E+03  0.10873451632E+03  0.00000000000E+00 0.  1.
         21   -1    0    0  501  503 -0.00000000000E+00 -0.00000000000E+00 -0.28378067144E+03  0.28378067144E+03  0.00000000000E+00 0.  1.
          6    1    1    2  501    0 -0.16548004720E+02  0.24852154989E+02 -0.94253351760E+02  0.19925902837E+03  0.17300000000E+03 0.  1.
         -6    1    1    2    0  502  0.16548004720E+02 -0.24852154989E+02 -0.80792803365E+02  0.19325615939E+03  0.17300000000E+03 0.  1.
<mgrwt>
<rscale>  2 0.17555759E+03</rscale>
<asrwt>0</asrwt>
<pdfrwt beam="1">  1       21 0.16728387E-01 0.17555759E+03</pdfrwt>
<pdfrwt beam="2">  1       21 0.43658564E-01 0.17555759E+03</pdfrwt>
<totfact> 0.16289218E+05</totfact>
</mgrwt>
</event>
<event>
 4    1  0.3957190E+000  0.2017626E+03  0.7546771E-02  0.1148260E+00
         21   -1    0    0  503  502  0.00000000000E+00  0.00000000000E+00  0.15885133484E+04  0.15885133484E+04  0.00000000000E+00 0.  1.
         21   -1    0    0  501  503 -0.00000000000E+00 -0.00000000000E+00 -0.25879221844E+02  0.25879221844E+02  0.00000000000E+00 0. -1.
          6    1    1    2  501    0 -0.10159348645E+03  0.21398432175E+02  0.86107522482E+03  0.88439734971E+03  0.17300000000E+03 0. -1.
         -6    1    1    2    0  502  0.10159348645E+03 -0.21398432175E+02  0.70155890176E+03  0.72999522055E+03  0.17300000000E+03 0. -1.
<mgrwt>
<rscale>  2 0.20176256E+03</rscale>
<asrwt>0</asrwt>
<pdfrwt beam="1">  1       21 0.24438659E+00 0.20176256E+03</pdfrwt>
<pdfrwt beam="2">  1       21 0.39814200E-02 0.20176256E+03</pdfrwt>
<totfact> 0.28130071E+04</totfact>
</mgrwt>
</event>
<event>
 4    1  0.3957190E+000  0.2271672E+03  0.7546771E-02  0.1128650E+00
         21   -1    0    0  501  502  0.00000000000E+00  0.00000000000E+00  0.15331142500E+03  0.15331142500E+03  0.00000000000E+00 0.  1.
         21   -1    0    0  502  503 -0.00000000000E+00 -0.00000000000E+00 -0.39329058224E+03  0.39329058224E+03  0.00000000000E+00 0. -1.
          6    1    1    2  501    0  0.43819698595E+02  0.14055518494E+03 -0.22375016271E+03  0.31885586291E+03  0.17300000000E+03 0. -1.
         -6    1    1    2    0  503 -0.43819698595E+02 -0.14055518494E+03 -0.16228994529E+02  0.22774614434E+03  0.17300000000E+03 0.  1.
<mgrwt>
<rscale>  2 0.22716718E+03</rscale>
<asrwt>0</asrwt>
<pdfrwt beam="1">  1       21 0.23586373E-01 0.22716718E+03</pdfrwt>
<pdfrwt beam="2">  1       21 0.60506243E-01 0.22716718E+03</pdfrwt>
<totfact> 0.42341635E+04</totfact>
</mgrwt>
</event>
<event>
 4    1  0.3957190E+000  0.1974658E+03  0.7546771E-02  0.1151895E+00
         21   -1    0    0  501  502  0.00000000000E+00  0.00000000000E+00  0.14858432553E+04  0.14858432553E+04  0.00000000000E+00 0.  1.
         21   -1    0    0  502  503 -0.00000000000E+00 -0.00000000000E+00 -0.50704083835E+02  0.50704083835E+02  0.00000000000E+00 0. -1.
          6    1    1    2  501    0  0.53463266368E+02  0.78774410473E+02  0.12511917457E+04  0.12666781411E+04  0.17300000000E+03 0.  1.
         -6    1    1    2    0  503 -0.53463266368E+02 -0.78774410473E+02  0.18394742568E+03  0.26986919796E+03  0.17300000000E+03 0. -1.
<mgrwt>
<rscale>  2 0.19746577E+03</rscale>
<asrwt>0</asrwt>
<pdfrwt beam="1">  1       21 0.22859124E+00 0.19746577E+03</pdfrwt>
<pdfrwt beam="2">  1       21 0.78006294E-02 0.19746577E+03</pdfrwt>
<totfact> 0.11135015E+04</totfact>
</mgrwt>
</event>
<event>
 4    1  0.3957190E+000  0.1946401E+03  0.7546771E-02  0.1154342E+00
         21   -1    0    0  501  502  0.00000000000E+00  0.00000000000E+00  0.29217705837E+02  0.29217705837E+02  0.00000000000E+00 0.  1.
         21   -1    0    0  502  503 -0.00000000000E+00 -0.00000000000E+00 -0.12972613278E+04  0.12972613278E+04  0.00000000000E+00 0. -1.
          6    1    1    2  501    0 -0.85588255385E+02 -0.25108352766E+02 -0.64856367521E+03  0.67714076797E+03  0.17300000000E+03 0.  1.
         -6    1    1    2    0  503  0.85588255385E+02  0.25108352766E+02 -0.61947994678E+03  0.64933826569E+03  0.17300000000E+03 0. -1.
<mgrwt>
<rscale>  2 0.19464013E+03</rscale>
<asrwt>0</asrwt>
<pdfrwt beam="1">  1       21 0.44950316E-02 0.19464013E+03</pdfrwt>
<pdfrwt beam="2">  1       21 0.19957867E+00 0.19464013E+03</pdfrwt>
<totfact> 0.43453770E+04</totfact>
</mgrwt>
</event>
<event>
 4    1  0.3957190E+000  0.2012329E+03  0.7546771E-02  0.1148703E+00
         21   -1    0    0  503  502  0.00000000000E+00  0.00000000000E+00  0.14271925749E+03  0.14271925749E+03  0.00000000000E+00 0.  1.
         21   -1    0    0  501  503 -0.00000000000E+00 -0.00000000000E+00 -0.43551254606E+03  0.43551254606E+03  0.00000000000E+00 0.  1.
          6    1    1    2  501    0 -0.10261183521E+03  0.60409658591E+01  0.24279595765E+02  0.20269233030E+03  0.17300000000E+03 0.  1.
         -6    1    1    2    0  502  0.10261183521E+03 -0.60409658591E+01 -0.31707288433E+03  0.37553947325E+03  0.17300000000E+03 0.  1.
<mgrwt>
<rscale>  2 0.20123290E+03</rscale>
<asrwt>0</asrwt>
<pdfrwt beam="1">  1       21 0.21956809E-01 0.20123290E+03</pdfrwt>
<pdfrwt beam="2">  1       21 0.67001929E-01 0.20123290E+03</pdfrwt>
<totfact> 0.39345483E+04</totfact>
</mgrwt>
</event>
<event>
 4    1  0.3957190E+000  0.1941365E+03  0.7546771E-02  0.1154783E+00
         21   -1    0    0  503  502  0.00000000000E+00  0.00000000000E+00  0.35547525897E+03  0.35547525897E+03  0.00000000000E+00 0.  1.
         21   -1    0    0  501  503 -0.00000000000E+00 -0.00000000000E+00 -0.12389763874E+03  0.12389763874E+03  0.00000000000E+00 0.  1.
          6    1    1    2  501    0  0.40016806379E+02  0.78476905293E+02  0.20682548420E+03  0.28366485573E+03  0.17300000000E+03 0. -1.
         -6    1    1    2    0  502 -0.40016806379E+02 -0.78476905293E+02  0.24752136026E+02  0.19570804198E+03  0.17300000000E+03 0. -1.
<mgrwt>
<rscale>  2 0.19413647E+03</rscale>
<asrwt>0</asrwt>
<pdfrwt beam="1">  1       21 0.54688501E-01 0.19413647E+03</pdfrwt>
<pdfrwt beam="2">  1       21 0.19061175E-01 0.19413647E+03</pdfrwt>
<totfact> 0.79654990E+04</totfact>
</mgrwt>
</event>
<event>
 4    1  0.3957190E+000  0.1777419E+03  0.7546771E-02  0.1170007E+00
         21   -1    0    0  501  502  0.00000000000E+00  0.00000000000E+00  0.12405978122E+03  0.12405978122E+03  0.00000000000E+00 0.  1.
         21   -1    0    0  502  503 -0.00000000000E+00 -0.00000000000E+00 -0.76115381923E+03  0.76115381923E+03  0.00000000000E+00 0.  1.
          6    1    1    2  501    0 -0.33434655209E+02 -0.23351744747E+02  0.42506843781E+02  0.18275396554E+03  0.17300000000E+03 0.  1.
         -6    1    1    2    0  503  0.33434655209E+02  0.23351744747E+02 -0.67960088179E+03  0.70245963492E+03  0.17300000000E+03 0.  1.
<mgrwt>
<rscale>  2 0.17774189E+03</rscale>
<asrwt>0</asrwt>
<pdfrwt beam="1">  1       21 0.19086120E-01 0.17774189E+03</pdfrwt>
<pdfrwt beam="2">  1       21 0.11710059E+00 0.17774189E+03</pdfrwt>
<totfact> 0.14271397E+04</totfact>
</mgrwt>
</event>
<event>
 4    1  0.3957190E+000  0.1812041E+03  0.7546771E-02  0.1166643E+00
         21   -1    0    0  501  502  0.00000000000E+00  0.00000000000E+00  0.20795246517E+03  0.20795246517E+03  0.00000000000E+00 0.  1.
         21   -1    0    0  502  503 -0.00000000000E+00 -0.00000000000E+00 -0.47990187062E+03  0.47990187062E+03  0.00000000000E+00 0.  1.
          6    1    1    2  501    0 -0.52663491008E+02  0.11509749571E+02  0.14574808547E+03  0.23254552681E+03  0.17300000000E+03 0.  1.
         -6    1    1    2    0  503  0.52663491008E+02 -0.11509749571E+02 -0.41769749092E+03  0.45530880899E+03  0.17300000000E+03 0.  1.
<mgrwt>
<rscale>  2 0.18120408E+03</rscale>
<asrwt>0</asrwt>
<pdfrwt beam="1">  1       21 0.31992687E-01 0.18120408E+03</pdfrwt>
<pdfrwt beam="2">  1       21 0.73831056E-01 0.18120408E+03</pdfrwt>
<totfact> 0.15585057E+04</totfact>
</mgrwt>
</event>
<event>
 4    1  0.3957190E+000  0.2229524E+03  0.7546771E-02  0.1131701E+00
         21   -1    0    0  503  502  0.00000000000E+00  0.00000000000E+00  0.73863700196E+03  0.73863700196E+03  0.00000000000E+00 0. -1.
         21   -1    0    0  501  503 -0.00000000000E+00 -0.00000000000E+00 -0.11868693466E+03  0.11868693466E+03  0.00000000000E+00 0. -1.
          6    1    1    2  501    0  0.19068254869E+01 -0.14062411882E+03  0.27906847295E+02  0.22469216921E+03  0.17300000000E+03 0. -1.
         -6    1    1    2    0  502 -0.19068254869E+01  0.14062411882E+03  0.59204322000E+03  0.63263176740E+03  0.17300000000E+03 0. -1.
<mgrwt>
<rscale>  2 0.22295241E+03</rscale>
<asrwt>0</asrwt>
<pdfrwt beam="1">  1       21 0.11363646E+00 0.22295241E+03</pdfrwt>
<pdfrwt beam="2">  1       21 0.18259529E-01 0.22295241E+03</pdfrwt>
<totfact> 0.16188332E+04</totfact>
</mgrwt>
</event>
<event>
 4    1  0.3957190E+000  0.2252824E+03  0.7546771E-02  0.1130005E+00
         21   -1    0    0  501  502  0.00000000000E+00  0.00000000000E+00  0.13038379195E+04  0.13038379195E+04  0.00000000000E+00 0. -1.
         21   -1    0    0  502  503 -0.00000000000E+00 -0.00000000000E+00 -0.52043067802E+02  0.52043067802E+02  0.00000000000E+00 0. -1.
          6    1    1    2  501    0  0.10964531989E+03  0.93813877741E+02  0.96626008449E+03  0.99217472791E+03  0.17300000000E+03 0. -1.
         -6    1    1    2    0  503 -0.10964531989E+03 -0.93813877741E+02  0.28553476718E+03  0.36370625936E+03  0.17300000000E+03 0. -1.
<mgrwt>
<rscale>  2 0.22528236E+03</rscale>
<asrwt>0</asrwt>
<pdfrwt beam="1">  1       21 0.20059042E+00 0.22528236E+03</pdfrwt>
<pdfrwt beam="2">  1       21 0.80066268E-02 0.22528236E+03</pdfrwt>
<totfact> 0.15561995E+04</totfact>
</mgrwt>
</event>
<event>
 4    1  0.3957190E+000  0.2241372E+03  0.7546771E-02  0.1130836E+00
         21   -1    0    0  501  502  0.00000000000E+00  0.00000000000E+00  0.33711798967E+03  0.33711798967E+03  0.00000000000E+00 0. -1.
         21   -1    0    0  502  503 -0.00000000000E+00 -0.00000000000E+00 -0.15075593653E+03  0.15075593653E+03  0.00000000000E+00 0. -1.
          6    1    1    2  501    0 -0.31077458036E+02 -0.13907790355E+03  0.11935394126E+03  0.25393470607E+03  0.17300000000E+03 0. -1.
         -6    1    1    2    0  503  0.31077458036E+02  0.13907790355E+03  0.67008111886E+02  0.23393922012E+03  0.17300000000E+03 0. -1.
<mgrwt>
<rscale>  2 0.22413717E+03</rscale>
<asrwt>0</asrwt>
<pdfrwt beam="1">  1       21 0.51864306E-01 0.22413717E+03</pdfrwt>
<pdfrwt beam="2">  1       21 0.23193221E-01 0.22413717E+03</pdfrwt>
<totfact> 0.60796795E+04</totfact>
</mgrwt>
</event>
<event>
 4    1  0.3957190E+000  0.2013649E+03  0.7546771E-02  0.1148592E+00
         21   -1    0    0  501  502  0.00000000000E+00  0.00000000000E+00  0.60447662444E+02  0.60447662444E+02  0.00000000000E+00 0. -1.
         21   -1    0    0  502  503 -0.00000000000E+00 -0.00000000000E+00 -0.78072197395E+03  0.78072197395E+03  0.00000000000E+00 0.  1.
          6    1    1    2  501    0  0.10029100612E+03 -0.23676014479E+02 -0.51795729925E+03  0.55572259574E+03  0.17300000000E+03 0. -1.
         -6    1    1    2    0  503 -0.10029100612E+03  0.23676014479E+02 -0.20231701225E+03  0.28544704065E+03  0.17300000000E+03 0.  1.
<mgrwt>
<rscale>  2 0.20136494E+03</rscale>
<asrwt>0</asrwt>
<pdfrwt beam="1">  1       21 0.92996410E-02 0.20136494E+03</pdfrwt>
<pdfrwt beam="2">  1       21 0.12011106E+00 0.20136494E+03</pdfrwt>
<totfact> 0.48364514E+04</totfact>
</mgrwt>
</event>
<event>
 4    1  0.3957190E+000  0.3041238E+03  0.7546771E-02  0.1083197E+00
         21   -1    0    0  501  502  0.00000000000E+00  0.00000000000E+00  0.11151117396E+04  0.11151117396E+04  0.00000000000E+00 0.  1.
         21   -1    0    0  502  503 -0.00000000000E+00 -0.00000000000E+00 -0.83279836200E+02  0.83279836200E+02  0.00000000000E+00 0. -1.
          6    1    1    2  501    0  0.12693930043E+03 -0.21551957686E+03  0.55399478562E+03  0.63198219634E+03  0.17300000000E+03 0. -1.
         -6    1    1    2    0  503 -0.12693930043E+03  0.21551957686E+03  0.47783711775E+03  0.56640937942E+03  0.17300000000E+03 0. -1.
<mgrwt>
<rscale>  2 0.30412378E+03</rscale>
<asrwt>0</asrwt>
<pdfrwt beam="1">  1       21 0.17155564E+00 0.30412378E+03</pdfrwt>
<pdfrwt beam="2">  1       21 0.12812283E-01 0.30412378E+03</pdfrwt>
<totfact> 0.10113951E+04</totfact>
</mgrwt>
</event>
<event>
 4    1  0.3957190E+000  0.1904522E+03  0.7546771E-02  0.1158054E+00
         21   -1    0    0  501  502  0.00000000000E+00  0.00000000000E+00  0.18938491819E+03  0.18938491819E+03  0.00000000000E+00 0. -1.
         21   -1    0    0  502  503 -0.00000000000E+00 -0.00000000000E+00 -0.28650046708E+03  0.28650046708E+03  0.00000000000E+00 0. -1.
          6    1    1    2  501    0 -0.79151450394E+02  0.88364488436E+01  0.88440266135E+02  0.20998503661E+03  0.17300000000E+03 0. -1.
         -6    1    1    2    0  503  0.79151450394E+02 -0.88364488436E+01 -0.18555581503E+03  0.26590034866E+03  0.17300000000E+03 0. -1.
<mgrwt>
<rscale>  2 0.19045219E+03</rscale>
<asrwt>0</asrwt>
<pdfrwt beam="1">  1       21 0.29136141E-01 0.19045219E+03</pdfrwt>
<pdfrwt beam="2">  1       21 0.44076995E-01 0.19045219E+03</pdfrwt>
<totfact> 0.55827799E+04</totfact>
</mgrwt>
</event>
<event>
 4    1  0.3957190E+000  0.1783290E+03  0.7546771E-02  0.1169430E+00
         21   -1    0    0  501  502  0.00000000000E+00  0.00000000000E+00  0.14407856310E+04  0.14407856310E+04  0.00000000000E+00 0.  1.
         21   -1    0    0  502  503 -0.00000000000E+00 -0.00000000000E+00 -0.47712043216E+02  0.47712043216E+02  0.00000000000E+00 0.  1.
          6    1    1    2  501    0 -0.39770268259E+02 -0.17045455021E+02  0.12421217042E+04  0.12548575815E+04  0.17300000000E+03 0.  1.
         -6    1    1    2    0  503  0.39770268259E+02  0.17045455021E+02  0.15095188359E+03  0.23364009274E+03  0.17300000000E+03 0.  1.
<mgrwt>
<rscale>  2 0.17832897E+03</rscale>
<asrwt>0</asrwt>
<pdfrwt beam="1">  1       21 0.22165930E+00 0.17832897E+03</pdfrwt>
<pdfrwt beam="2">  1       21 0.73403154E-02 0.17832897E+03</pdfrwt>
<totfact> 0.13865169E+04</totfact>
</mgrwt>
</event>
<event>
 4    1  0.3957190E+000  0.2195866E+03  0.7546771E-02  0.1134192E+00
         21   -1    0    0  501  502  0.00000000000E+00  0.00000000000E+00  0.46931211478E+02  0.46931211478E+02  0.00000000000E+00 0. -1.
         21   -1    0    0  502  503 -0.00000000000E+00 -0.00000000000E+00 -0.10882658326E+04  0.10882658326E+04  0.00000000000E+00 0. -1.
          6    1    1    2  501    0 -0.88277231525E+02 -0.10245188392E+03 -0.38646051277E+03  0.44448845435E+03  0.17300000000E+03 0. -1.
         -6    1    1    2    0  503  0.88277231525E+02  0.10245188392E+03 -0.65487410833E+03  0.69070858970E+03  0.17300000000E+03 0. -1.
<mgrwt>
<rscale>  2 0.21958656E+03</rscale>
<asrwt>0</asrwt>
<pdfrwt beam="1">  1       21 0.72201870E-02 0.21958656E+03</pdfrwt>
<pdfrwt beam="2">  1       21 0.16742550E+00 0.21958656E+03</pdfrwt>
<totfact> 0.31367005E+04</totfact>
</mgrwt>
</event>
<event>
 4    1  0.3957190E+000  0.2812937E+03  0.7546771E-02  0.1094984E+00
         21   -1    0    0  501  502  0.00000000000E+00  0.00000000000E+00  0.18529860362E+03  0.18529860362E+03  0.00000000000E+00 0.  1.
         21   -1    0    0  502  503 -0.00000000000E+00 -0.00000000000E+00 -0.54101814191E+03  0.54101814191E+03  0.00000000000E+00 0. -1.
          6    1    1    2  501    0  0.15004483344E+03  0.16335142411E+03 -0.11158175249E+02  0.28151491022E+03  0.17300000000E+03 0.  1.
         -6    1    1    2    0  503 -0.15004483344E+03 -0.16335142411E+03 -0.34456136304E+03  0.44480183532E+03  0.17300000000E+03 0.  1.
<mgrwt>
<rscale>  2 0.28129369E+03</rscale>
<asrwt>0</asrwt>
<pdfrwt beam="1">  1       21 0.28507478E-01 0.28129369E+03</pdfrwt>
<pdfrwt beam="2">  1       21 0.83233559E-01 0.28129369E+03</pdfrwt>
<totfact> 0.14082340E+04</totfact>
</mgrwt>
</event>
<event>
 4    1  0.3957190E+000  0.1763426E+03  0.7546771E-02  0.1171390E+00
         21   -1    0    0  503  502  0.00000000000E+00  0.00000000000E+00  0.20318777203E+03  0.20318777203E+03  0.00000000000E+00 0. -1.
         21   -1    0    0  501  503 -0.00000000000E+00 -0.00000000000E+00 -0.28623910650E+03  0.28623910650E+03  0.00000000000E+00 0. -1.
          6    1    1    2  501    0 -0.10677485554E+02 -0.32460632066E+02 -0.20845675191E+03  0.27304014128E+03  0.17300000000E+03 0. -1.
         -6    1    1    2    0  502  0.10677485554E+02  0.32460632066E+02  0.12540541745E+03  0.21638673725E+03  0.17300000000E+03 0. -1.
<mgrwt>
<rscale>  2 0.17634257E+03</rscale>
<asrwt>0</asrwt>
<pdfrwt beam="1">  1       21 0.31259657E-01 0.17634257E+03</pdfrwt>
<pdfrwt beam="2">  1       21 0.44036786E-01 0.17634257E+03</pdfrwt>
<totfact> 0.49091047E+04</totfact>
</mgrwt>
</event>
<event>
 4    1  0.3957190E+000  0.2428697E+03  0.7546771E-02  0.1117896E+00
         21   -1    0    0  503  502  0.00000000000E+00  0.00000000000E+00  0.44507688978E+03  0.44507688978E+03  0.00000000000E+00 0. -1.
         21   -1    0    0  501  503 -0.00000000000E+00 -0.00000000000E+00 -0.13918172962E+03  0.13918172962E+03  0.00000000000E+00 0.  1.
          6    1    1    2  501    0 -0.15875225164E+03  0.62083824950E+02  0.89080387876E+02  0.25869092413E+03  0.17300000000E+03 0.  1.
         -6    1    1    2    0  502  0.15875225164E+03 -0.62083824950E+02  0.21681477228E+03  0.32556769527E+03  0.17300000000E+03 0. -1.
<mgrwt>
<rscale>  2 0.24286967E+03</rscale>
<asrwt>0</asrwt>
<pdfrwt beam="1">  1       21 0.68473367E-01 0.24286967E+03</pdfrwt>
<pdfrwt beam="2">  1       21 0.21412574E-01 0.24286967E+03</pdfrwt>
<totfact> 0.38556391E+04</totfact>
</mgrwt>
</event>
<event>
 4    1  0.3957190E+000  0.2215504E+03  0.7546771E-02  0.1132732E+00
         21   -1    0    0  503  502  0.00000000000E+00  0.00000000000E+00  0.23517834119E+03  0.23517834119E+03  0.00000000000E+00 0. -1.
         21   -1    0    0  501  503 -0.00000000000E+00 -0.00000000000E+00 -0.40475065430E+03  0.40475065430E+03  0.00000000000E+00 0.  1.
          6    1    1    2  501    0  0.12331441960E+03  0.62842305669E+02 -0.30746481147E+03  0.37897125452E+03  0.17300000000E+03 0.  1.
         -6    1    1    2    0  502 -0.12331441960E+03 -0.62842305669E+02  0.13789249836E+03  0.26095774096E+03  0.17300000000E+03 0. -1.
<mgrwt>
<rscale>  2 0.22155045E+03</rscale>
<asrwt>0</asrwt>
<pdfrwt beam="1">  1       21 0.36181284E-01 0.22155045E+03</pdfrwt>
<pdfrwt beam="2">  1       21 0.62269330E-01 0.22155045E+03</pdfrwt>
<totfact> 0.17318942E+04</totfact>
</mgrwt>
</event>
<event>
 4    1  0.3957190E+000  0.1837016E+03  0.7546771E-02  0.1164268E+00
         21   -1    0    0  501  502  0.00000000000E+00  0.00000000000E+00  0.29250265110E+02  0.29250265110E+02  0.00000000000E+00 0. -1.
         21   -1    0    0  502  503 -0.00000000000E+00 -0.00000000000E+00 -0.15739085809E+04  0.15739085809E+04  0.00000000000E+00 0. -1.
          6    1    1    2  501    0 -0.21511871468E+02 -0.57918060551E+02 -0.35815292182E+03  0.40251680432E+03  0.17300000000E+03 0. -1.
         -6    1    1    2    0  503  0.21511871468E+02  0.57918060551E+02 -0.11865053940E+04  0.12006420417E+04  0.17300000000E+03 0. -1.
<mgrwt>
<rscale>  2 0.18370156E+03</rscale>
<asrwt>0</asrwt>
<pdfrwt beam="1">  1       21 0.45000409E-02 0.18370156E+03</pdfrwt>
<pdfrwt beam="2">  1       21 0.24213977E+00 0.18370156E+03</pdfrwt>
<totfact> 0.23964873E+04</totfact>
</mgrwt>
</event>
<event>
 4    1  0.3957190E+000  0.1801280E+03  0.7546771E-02  0.1167679E+00
         21   -1    0    0  503  502  0.00000000000E+00  0.00000000000E+00  0.50015425554E+02  0.50015425554E+02  0.00000000000E+00 0.  1.
         21   -1    0    0  501  503 -0.00000000000E+00 -0.00000000000E+00 -0.67080585451E+03  0.67080585451E+03  0.00000000000E+00 0.  1.
          6    1    1    2  501    0 -0.93777237093E+01 -0.49286535238E+02 -0.37578909943E+03  0.41672959039E+03  0.17300000000E+03 0. -1.
         -6    1    1    2    0  502  0.93777237093E+01  0.49286535238E+02 -0.24500132952E+03  0.30409168967E+03  0.17300000000E+03 0. -1.
<mgrwt>
<rscale>  2 0.18012802E+03</rscale>
<asrwt>0</asrwt>
<pdfrwt beam="1">  1       21 0.76946810E-02 0.18012802E+03</pdfrwt>
<pdfrwt beam="2">  1       21 0.10320090E+00 0.18012802E+03</pdfrwt>
<totfact> 0.98292222E+04</totfact>
</mgrwt>
</event>
<event>
 4    1  0.3957190E+000  0.2168259E+03  0.7546771E-02  0.1136272E+00
         21   -1    0    0  503  502  0.00000000000E+00  0.00000000000E+00  0.16894456313E+03  0.16894456313E+03  0.00000000000E+00 0.  1.
         21   -1    0    0  501  503 -0.00000000000E+00 -0.00000000000E+00 -0.34651170074E+03  0.34651170074E+03  0.00000000000E+00 0. -1.
          6    1    1    2  501    0  0.12644577735E+03 -0.33104947403E+02 -0.20315140389E+03  0.29712617699E+03  0.17300000000E+03 0. -1.
         -6    1    1    2    0  502 -0.12644577735E+03  0.33104947403E+02  0.25584266279E+02  0.21833008687E+03  0.17300000000E+03 0.  1.
<mgrwt>
<rscale>  2 0.21682590E+03</rscale>
<asrwt>0</asrwt>
<pdfrwt beam="1">  1       21 0.25991472E-01 0.21682590E+03</pdfrwt>
<pdfrwt beam="2">  1       21 0.53309492E-01 0.21682590E+03</pdfrwt>
<totfact> 0.46296365E+04</totfact>
</mgrwt>
</event>
<event>
 4    1  0.3957190E+000  0.1773732E+03  0.7546771E-02  0.1170370E+00
         21   -1    0    0  503  502  0.00000000000E+00  0.00000000000E+00  0.46832679673E+02  0.46832679673E+02  0.00000000000E+00 0.  1.
         21   -1    0    0  501  503 -0.00000000000E+00 -0.00000000000E+00 -0.71905141984E+03  0.71905141984E+03  0.00000000000E+00 0.  1.
          6    1    1    2  501    0  0.31184133827E+02 -0.23660313193E+02 -0.43429594386E+03  0.46912069607E+03  0.17300000000E+03 0.  1.
         -6    1    1    2    0  502 -0.31184133827E+02  0.23660313193E+02 -0.23792279630E+03  0.29676340344E+03  0.17300000000E+03 0.  1.
<mgrwt>
<rscale>  2 0.17737322E+03</rscale>
<asrwt>0</asrwt>
<pdfrwt beam="1">  1       21 0.72050274E-02 0.17737322E+03</pdfrwt>
<pdfrwt beam="2">  1       21 0.11062330E+00 0.17737322E+03</pdfrwt>
<totfact> 0.93322045E+04</totfact>
</mgrwt>
</event>
<event>
 4    1  0.3957190E+000  0.2206260E+03  0.7546771E-02  0.1133417E+00
         21   -1    0    0  503  502  0.00000000000E+00  0.00000000000E+00  0.11781713846E+03  0.11781713846E+03  0.00000000000E+00 0. -1.
         21   -1    0    0  501  503 -0.00000000000E+00 -0.00000000000E+00 -0.61898066859E+03  0.61898066859E+03  0.00000000000E+00 0.  1.
          6    1    1    2  501    0  0.87421183445E+02  0.10537731916E+03 -0.46302239805E+03  0.51289919458E+03  0.17300000000E+03 0.  1.
         -6    1    1    2    0  502 -0.87421183445E+02 -0.10537731916E+03 -0.38141132075E+02  0.22389861246E+03  0.17300000000E+03 0. -1.
<mgrwt>
<rscale>  2 0.22062602E+03</rscale>
<asrwt>0</asrwt>
<pdfrwt beam="1">  1       21 0.18125713E-01 0.22062602E+03</pdfrwt>
<pdfrwt beam="2">  1       21 0.95227798E-01 0.22062602E+03</pdfrwt>
<totfact> 0.25126243E+04</totfact>
</mgrwt>
</event>
<event>
 4    1  0.3957190E+000  0.2323618E+03  0.7546771E-02  0.1124988E+00
         21   -1    0    0  501  502  0.00000000000E+00  0.00000000000E+00  0.41632176803E+02  0.41632176803E+02  0.00000000000E+00 0.  1.
         21   -1    0    0  502  503 -0.00000000000E+00 -0.00000000000E+00 -0.13105848128E+04  0.13105848128E+04  0.00000000000E+00 0.  1.
          6    1    1    2  501    0 -0.40825672454E+02 -0.14965381887E+03 -0.70361103368E+03  0.74098615895E+03  0.17300000000E+03 0.  1.
         -6    1    1    2    0  503  0.40825672454E+02  0.14965381887E+03 -0.56534160233E+03  0.61123083067E+03  0.17300000000E+03 0.  1.
<mgrwt>
<rscale>  2 0.23236179E+03</rscale>
<asrwt>0</asrwt>
<pdfrwt beam="1">  1       21 0.64049504E-02 0.23236179E+03</pdfrwt>
<pdfrwt beam="2">  1       21 0.20162843E+00 0.23236179E+03</pdfrwt>
<totfact> 0.22467770E+04</totfact>
</mgrwt>
</event>
<event>
 4    1  0.3957190E+000  0.1842905E+03  0.7546771E-02  0.1163714E+00
         21   -1    0    0  503  502  0.00000000000E+00  0.00000000000E+00  0.22700963098E+03  0.22700963098E+03  0.00000000000E+00 0. -1.
         21   -1    0    0  501  503 -0.00000000000E+00 -0.00000000000E+00 -0.57522487079E+03  0.57522487079E+03  0.00000000000E+00 0. -1.
          6    1    1    2  501    0  0.59674348971E+02  0.21747599376E+02 -0.51914070429E+03  0.55088116400E+03  0.17300000000E+03 0. -1.
         -6    1    1    2    0  502 -0.59674348971E+02 -0.21747599376E+02  0.17092546447E+03  0.25135333777E+03  0.17300000000E+03 0. -1.
<mgrwt>
<rscale>  2 0.18429049E+03</rscale>
<asrwt>0</asrwt>
<pdfrwt beam="1">  1       21 0.34924559E-01 0.18429049E+03</pdfrwt>
<pdfrwt beam="2">  1       21 0.88496132E-01 0.18429049E+03</pdfrwt>
<totfact> 0.86845287E+03</totfact>
</mgrwt>
</event>
<event>
 4    1  0.3957190E+000  0.2144560E+03  0.7546771E-02  0.1138085E+00
         21   -1    0    0  501  502  0.00000000000E+00  0.00000000000E+00  0.17091695140E+03  0.17091695140E+03  0.00000000000E+00 0. -1.
         21   -1    0    0  502  503 -0.00000000000E+00 -0.00000000000E+00 -0.38477332856E+03  0.38477332856E+03  0.00000000000E+00 0.  1.
          6    1    1    2  501    0  0.12558576633E+03  0.17046986072E+02 -0.25927835710E+03  0.33647682074E+03  0.17300000000E+03 0.  1.
         -6    1    1    2    0  503 -0.12558576633E+03 -0.17046986072E+02  0.45421979938E+02  0.21921345921E+03  0.17300000000E+03 0. -1.
<mgrwt>
<rscale>  2 0.21445602E+03</rscale>
<asrwt>0</asrwt>
<pdfrwt beam="1">  1       21 0.26294916E-01 0.21445602E+03</pdfrwt>
<pdfrwt beam="2">  1       21 0.59195896E-01 0.21445602E+03</pdfrwt>
<totfact> 0.36264909E+04</totfact>
</mgrwt>
</event>
<event>
 4    1  0.3957190E+000  0.2218123E+03  0.7546771E-02  0.1132539E+00
         21   -1    0    0  503  502  0.00000000000E+00  0.00000000000E+00  0.30890322398E+03  0.30890322398E+03  0.00000000000E+00 0. -1.
         21   -1    0    0  501  503 -0.00000000000E+00 -0.00000000000E+00 -0.17406143126E+03  0.17406143126E+03  0.00000000000E+00 0. -1.
          6    1    1    2  501    0 -0.12588008818E+03 -0.58531321008E+02  0.13780240587E+03  0.26113256251E+03  0.17300000000E+03 0. -1.
         -6    1    1    2    0  502  0.12588008818E+03  0.58531321008E+02 -0.29606131552E+01  0.22183209274E+03  0.17300000000E+03 0. -1.
<mgrwt>
<rscale>  2 0.22181234E+03</rscale>
<asrwt>0</asrwt>
<pdfrwt beam="1">  1       21 0.47523573E-01 0.22181234E+03</pdfrwt>
<pdfrwt beam="2">  1       21 0.26778682E-01 0.22181234E+03</pdfrwt>
<totfact> 0.55475719E+04</totfact>
</mgrwt>
</event>
<event>
 4    1  0.3957190E+000  0.1969417E+03  0.7546771E-02  0.1152345E+00
         21   -1    0    0  503  502  0.00000000000E+00  0.00000000000E+00  0.12960289967E+03  0.12960289967E+03  0.00000000000E+00 0. -1.
         21   -1    0    0  501  503 -0.00000000000E+00 -0.00000000000E+00 -0.33392896197E+03  0.33392896197E+03  0.00000000000E+00 0.  1.
          6    1    1    2  501    0  0.93418206220E+02 -0.11405647722E+02 -0.17683205372E+03  0.26468023212E+03  0.17300000000E+03 0.  1.
         -6    1    1    2    0  502 -0.93418206220E+02  0.11405647722E+02 -0.27494008572E+02  0.19885162951E+03  0.17300000000E+03 0. -1.
<mgrwt>
<rscale>  2 0.19694174E+03</rscale>
<asrwt>0</asrwt>
<pdfrwt beam="1">  1       21 0.19938908E-01 0.19694174E+03</pdfrwt>
<pdfrwt beam="2">  1       21 0.51373687E-01 0.19694174E+03</pdfrwt>
<totfact> 0.83439026E+04</totfact>
</mgrwt>
</event>
<event>
 4    1  0.3957190E+000  0.1851346E+03  0.7546771E-02  0.1162924E+00
         21   -1    0    0  501  502  0.00000000000E+00  0.00000000000E+00  0.62289598994E+02  0.62289598994E+02  0.00000000000E+00 0.  1.
         21   -1    0    0  502  503 -0.00000000000E+00 -0.00000000000E+00 -0.55102084435E+03  0.55102084435E+03  0.00000000000E+00 0.  1.
          6    1    1    2  501    0  0.79933503297E+01 -0.65436493768E+02 -0.23289318102E+03  0.29751312934E+03  0.17300000000E+03 0.  1.
         -6    1    1    2    0  503 -0.79933503297E+01  0.65436493768E+02 -0.25583806433E+03  0.31579731400E+03  0.17300000000E+03 0.  1.
<mgrwt>
<rscale>  2 0.18513462E+03</rscale>
<asrwt>0</asrwt>
<pdfrwt beam="1">  1       21 0.95830158E-02 0.18513462E+03</pdfrwt>
<pdfrwt beam="2">  1       21 0.84772433E-01 0.18513462E+03</pdfrwt>
<totfact> 0.10577304E+05</totfact>
</mgrwt>
</event>
<event>
 4    1  0.3957190E+000  0.1799202E+03  0.7546771E-02  0.1167880E+00
         21   -1    0    0  501  502  0.00000000000E+00  0.00000000000E+00  0.45500979688E+02  0.45500979688E+02  0.00000000000E+00 0.  1.
         21   -1    0    0  502  503 -0.00000000000E+00 -0.00000000000E+00 -0.71542086253E+03  0.71542086253E+03  0.00000000000E+00 0.  1.
          6    1    1    2  501    0 -0.42809045195E+02  0.24691098493E+02 -0.30658332264E+03  0.35547798584E+03  0.17300000000E+03 0.  1.
         -6    1    1    2    0  503  0.42809045195E+02 -0.24691098493E+02 -0.36333656021E+03  0.40544385638E+03  0.17300000000E+03 0.  1.
<mgrwt>
<rscale>  2 0.17992016E+03</rscale>
<asrwt>0</asrwt>
<pdfrwt beam="1">  1       21 0.70001512E-02 0.17992016E+03</pdfrwt>
<pdfrwt beam="2">  1       21 0.11006474E+00 0.17992016E+03</pdfrwt>
<totfact> 0.99180914E+04</totfact>
</mgrwt>
</event>
<event>
 4    1  0.3957190E+000  0.1942201E+03  0.7546771E-02  0.1154709E+00
         21   -1    0    0  501  502  0.00000000000E+00  0.00000000000E+00  0.17952122347E+03  0.17952122347E+03  0.00000000000E+00 0.  1.
         21   -1    0    0  502  503 -0.00000000000E+00 -0.00000000000E+00 -0.27632528376E+03  0.27632528376E+03  0.00000000000E+00 0.  1.
          6    1    1    2  501    0 -0.17735715081E+02  0.86474829040E+02  0.63159994592E+02  0.20423182064E+03  0.17300000000E+03 0.  1.
         -6    1    1    2    0  503  0.17735715081E+02 -0.86474829040E+02 -0.15996405488E+03  0.25161468658E+03  0.17300000000E+03 0.  1.
<mgrwt>
<rscale>  2 0.19422011E+03</rscale>
<asrwt>0</asrwt>
<pdfrwt beam="1">  1       21 0.27618650E-01 0.19422011E+03</pdfrwt>
<pdfrwt beam="2">  1       21 0.42511582E-01 0.19422011E+03</pdfrwt>
<totfact> 0.66556218E+04</totfact>
</mgrwt>
</event>
<event>
 4    1  0.3957190E+000  0.2596694E+03  0.7546771E-02  0.1107342E+00
         21   -1    0    0  503  502  0.00000000000E+00  0.00000000000E+00  0.58361570873E+03  0.58361570873E+03  0.00000000000E+00 0. -1.
         21   -1    0    0  501  503 -0.00000000000E+00 -0.00000000000E+00 -0.24279696182E+03  0.24279696182E+03  0.00000000000E+00 0.  1.
          6    1    1    2  501    0  0.17237304831E+03 -0.88242499109E+02 -0.12874418316E+03  0.28983317810E+03  0.17300000000E+03 0.  1.
         -6    1    1    2    0  502 -0.17237304831E+03  0.88242499109E+02  0.46956293006E+03  0.53657949245E+03  0.17300000000E+03 0. -1.
<mgrwt>
<rscale>  2 0.25966942E+03</rscale>
<asrwt>0</asrwt>
<pdfrwt beam="1">  1       21 0.89787032E-01 0.25966942E+03</pdfrwt>
<pdfrwt beam="2">  1       21 0.37353379E-01 0.25966942E+03</pdfrwt>
<totfact> 0.69871951E+03</totfact>
</mgrwt>
</event>
<event>
 4    1  0.3957190E+000  0.1888501E+03  0.7546771E-02  0.1159503E+00
         21   -1    0    0  503  502  0.00000000000E+00  0.00000000000E+00  0.44800251946E+03  0.44800251946E+03  0.00000000000E+00 0. -1.
         21   -1    0    0  501  503 -0.00000000000E+00 -0.00000000000E+00 -0.80503156157E+02  0.80503156157E+02  0.00000000000E+00 0. -1.
          6    1    1    2  501    0  0.51823521173E+02 -0.55223769076E+02  0.21162333549E+03  0.28363493816E+03  0.17300000000E+03 0. -1.
         -6    1    1    2    0  502 -0.51823521173E+02  0.55223769076E+02  0.15587602781E+03  0.24487073746E+03  0.17300000000E+03 0. -1.
<mgrwt>
<rscale>  2 0.18885005E+03</rscale>
<asrwt>0</asrwt>
<pdfrwt beam="1">  1       21 0.68923463E-01 0.18885005E+03</pdfrwt>
<pdfrwt beam="2">  1       21 0.12385101E-01 0.18885005E+03</pdfrwt>
<totfact> 0.10647292E+05</totfact>
</mgrwt>
</event>
<event>
 4    1  0.3957190E+000  0.2116476E+03  0.7546771E-02  0.1140268E+00
         21   -1    0    0  501  502  0.00000000000E+00  0.00000000000E+00  0.47627364300E+03  0.47627364300E+03  0.00000000000E+00 0.  1.
         21   -1    0    0  502  503 -0.00000000000E+00 -0.00000000000E+00 -0.30325656621E+03  0.30325656621E+03  0.00000000000E+00 0.  1.
          6    1    1    2  501    0 -0.44808214451E+02  0.11339276466E+03  0.41023856100E+03  0.46161712717E+03  0.17300000000E+03 0.  1.
         -6    1    1    2    0  503  0.44808214451E+02 -0.11339276466E+03 -0.23722148421E+03  0.31791308204E+03  0.17300000000E+03 0.  1.
<mgrwt>
<rscale>  2 0.21164757E+03</rscale>
<asrwt>0</asrwt>
<pdfrwt beam="1">  1       21 0.73272868E-01 0.21164757E+03</pdfrwt>
<pdfrwt beam="2">  1       21 0.46654857E-01 0.21164757E+03</pdfrwt>
<totfact> 0.72667838E+03</totfact>
</mgrwt>
</event>
<event>
 4    1  0.3957190E+000  0.2546084E+03  0.7546771E-02  0.1110427E+00
         21   -1    0    0  503  502  0.00000000000E+00  0.00000000000E+00  0.11831151193E+03  0.11831151193E+03  0.00000000000E+00 0.  1.
         21   -1    0    0  501  503 -0.00000000000E+00 -0.00000000000E+00 -0.12491708199E+04  0.12491708199E+04  0.00000000000E+00 0. -1.
          6    1    1    2  501    0 -0.11600533773E+03 -0.14642134190E+03 -0.10777209411E+04  0.11073878610E+04  0.17300000000E+03 0. -1.
         -6    1    1    2    0  502  0.11600533773E+03  0.14642134190E+03 -0.53138366888E+02  0.26009447088E+03  0.17300000000E+03 0.  1.
<mgrwt>
<rscale>  2 0.25460842E+03</rscale>
<asrwt>0</asrwt>
<pdfrwt beam="1">  1       21 0.18201773E-01 0.25460842E+03</pdfrwt>
<pdfrwt beam="2">  1       21 0.19218010E+00 0.25460842E+03</pdfrwt>
<totfact> 0.39419203E+03</totfact>
</mgrwt>
</event>
<event>
 4    1  0.3957190E+000  0.1818900E+03  0.7546771E-02  0.1165986E+00
         21   -1    0    0  503  502  0.00000000000E+00  0.00000000000E+00  0.77520533605E+02  0.77520533605E+02  0.00000000000E+00 0. -1.
         21   -1    0    0  501  503 -0.00000000000E+00 -0.00000000000E+00 -0.44484661808E+03  0.44484661808E+03  0.00000000000E+00 0. -1.
          6    1    1    2  501    0  0.41114029969E+02 -0.38270124464E+02 -0.23630323984E+03  0.29819991121E+03  0.17300000000E+03 0. -1.
         -6    1    1    2    0  502 -0.41114029969E+02  0.38270124464E+02 -0.13102284464E+03  0.22416724048E+03  0.17300000000E+03 0. -1.
<mgrwt>
<rscale>  2 0.18188998E+03</rscale>
<asrwt>0</asrwt>
<pdfrwt beam="1">  1       21 0.11926236E-01 0.18188998E+03</pdfrwt>
<pdfrwt beam="2">  1       21 0.68437942E-01 0.18188998E+03</pdfrwt>
<totfact> 0.11599272E+05</totfact>
</mgrwt>
</event>
<event>
 4    1  0.3957190E+000  0.1925757E+03  0.7546771E-02  0.1156158E+00
         21   -1    0    0  503  502  0.00000000000E+00  0.00000000000E+00  0.96102259434E+03  0.96102259434E+03  0.00000000000E+00 0.  1.
         21   -1    0    0  501  503 -0.00000000000E+00 -0.00000000000E+00 -0.41219792710E+02  0.41219792710E+02  0.00000000000E+00 0.  1.
          6    1    1    2  501    0  0.32260888758E+02 -0.78202640161E+02  0.33331449729E+03  0.38494671316E+03  0.17300000000E+03 0.  1.
         -6    1    1    2    0  502 -0.32260888758E+02  0.78202640161E+02  0.58648830434E+03  0.61729567389E+03  0.17300000000E+03 0.  1.
<mgrwt>
<rscale>  2 0.19257575E+03</rscale>
<asrwt>0</asrwt>
<pdfrwt beam="1">  1       21 0.14784961E+00 0.19257575E+03</pdfrwt>
<pdfrwt beam="2">  1       21 0.63415073E-02 0.19257575E+03</pdfrwt>
<totfact> 0.55677175E+04</totfact>
</mgrwt>
</event>
<event>
 4    1  0.3957190E+000  0.2018925E+03  0.7546771E-02  0.1148152E+00
         21   -1    0    0  501  502  0.00000000000E+00  0.00000000000E+00  0.12318382594E+03  0.12318382594E+03  0.00000000000E+00 0. -1.
         21   -1    0    0  502  503 -0.00000000000E+00 -0.00000000000E+00 -0.36853303712E+03  0.36853303712E+03  0.00000000000E+00 0. -1.
          6    1    1    2  501    0 -0.99692570980E+02  0.29882856584E+02 -0.20124795779E+03  0.28506373733E+03  0.17300000000E+03 0.  1.
         -6    1    1    2    0  503  0.99692570980E+02 -0.29882856584E+02 -0.44101253395E+02  0.20665312574E+03  0.17300000000E+03 0.  1.
<mgrwt>
<rscale>  2 0.20189253E+03</rscale>
<asrwt>0</asrwt>
<pdfrwt beam="1">  1       21 0.18951358E-01 0.20189253E+03</pdfrwt>
<pdfrwt beam="2">  1       21 0.56697390E-01 0.20189253E+03</pdfrwt>
<totfact> 0.74326438E+04</totfact>
</mgrwt>
</event>
<event>
 4    1  0.3957190E+000  0.2013319E+03  0.7546771E-02  0.1148620E+00
         21   -1    0    0  501  502  0.00000000000E+00  0.00000000000E+00  0.18321007833E+03  0.18321007833E+03  0.00000000000E+00 0. -1.
         21   -1    0    0  502  503 -0.00000000000E+00 -0.00000000000E+00 -0.61724038945E+03  0.61724038945E+03  0.00000000000E+00 0.  1.
          6    1    1    2  501    0 -0.80053635057E+02 -0.64783838363E+02  0.10355398715E+03  0.22640220506E+03  0.17300000000E+03 0. -1.
         -6    1    1    2    0  503  0.80053635057E+02  0.64783838363E+02 -0.53758429827E+03  0.57404826273E+03  0.17300000000E+03 0.  1.
<mgrwt>
<rscale>  2 0.20133189E+03</rscale>
<asrwt>0</asrwt>
<pdfrwt beam="1">  1       21 0.28186166E-01 0.20133189E+03</pdfrwt>
<pdfrwt beam="2">  1       21 0.94960060E-01 0.20133189E+03</pdfrwt>
<totfact> 0.11086741E+04</totfact>
</mgrwt>
</event>
<event>
 4    1  0.3957190E+000  0.1757361E+03  0.7546771E-02  0.1171995E+00
         21   -1    0    0  503  502  0.00000000000E+00  0.00000000000E+00  0.50684189932E+03  0.50684189932E+03  0.00000000000E+00 0.  1.
         21   -1    0    0  501  503 -0.00000000000E+00 -0.00000000000E+00 -0.11468344218E+03  0.11468344218E+03  0.00000000000E+00 0.  1.
          6    1    1    2  501    0  0.30726480524E+01  0.30736538775E+02 -0.16671605470E+02  0.17652512119E+03  0.17300000000E+03 0.  1.
         -6    1    1    2    0  502 -0.30726480524E+01 -0.30736538775E+02  0.40883006261E+03  0.44500022031E+03  0.17300000000E+03 0.  1.
<mgrwt>
<rscale>  2 0.17573610E+03</rscale>
<asrwt>0</asrwt>
<pdfrwt beam="1">  1       21 0.77975676E-01 0.17573610E+03</pdfrwt>
<pdfrwt beam="2">  1       21 0.17643607E-01 0.17573610E+03</pdfrwt>
<totfact> 0.42816871E+04</totfact>
</mgrwt>
</event>
<event>
 4    1  0.3957190E+000  0.2129704E+03  0.7546771E-02  0.1139235E+00
         21   -1    0    0  501  502  0.00000000000E+00  0.00000000000E+00  0.18011307210E+04  0.18011307210E+04  0.00000000000E+00 0.  1.
         21   -1    0    0  502  503 -0.00000000000E+00 -0.00000000000E+00 -0.52884701177E+02  0.52884701177E+02  0.00000000000E+00 0.  1.
          6    1    1    2  501    0  0.80044412695E+02  0.94975118535E+02  0.15450542909E+04  0.15596631505E+04  0.17300000000E+03 0.  1.
         -6    1    1    2    0  503 -0.80044412695E+02 -0.94975118535E+02  0.20319172890E+03  0.29435227167E+03  0.17300000000E+03 0.  1.
<mgrwt>
<rscale>  2 0.21297038E+03</rscale>
<asrwt>0</asrwt>
<pdfrwt beam="1">  1       21 0.27709699E+00 0.21297038E+03</pdfrwt>
<pdfrwt beam="2">  1       21 0.81361093E-02 0.21297038E+03</pdfrwt>
<totfact> 0.52752906E+03</totfact>
</mgrwt>
</event>
<event>
 4    1  0.3957190E+000  0.1793137E+03  0.7546771E-02  0.1168469E+00
         21   -1    0    0  503  502  0.00000000000E+00  0.00000000000E+00  0.12498947268E+04  0.12498947268E+04  0.00000000000E+00 0. -1.
         21   -1    0    0  501  503 -0.00000000000E+00 -0.00000000000E+00 -0.68748161198E+02  0.68748161198E+02  0.00000000000E+00 0. -1.
          6    1    1    2  501    0 -0.20356981834E+02  0.42544152650E+02  0.68996390357E+02  0.19212993915E+03  0.17300000000E+03 0. -1.
         -6    1    1    2    0  502  0.20356981834E+02 -0.42544152650E+02  0.11121501752E+04  0.11265129489E+04  0.17300000000E+03 0. -1.
<mgrwt>
<rscale>  2 0.17931372E+03</rscale>
<asrwt>0</asrwt>
<pdfrwt beam="1">  1       21 0.19229148E+00 0.17931372E+03</pdfrwt>
<pdfrwt beam="2">  1       21 0.10576641E-01 0.17931372E+03</pdfrwt>
<totfact> 0.11193590E+04</totfact>
</mgrwt>
</event>
<event>
 4    1  0.3957190E+000  0.2131972E+03  0.7546771E-02  0.1139059E+00
         21   -1    0    0  503  502  0.00000000000E+00  0.00000000000E+00  0.82206906862E+02  0.82206906862E+02  0.00000000000E+00 0. -1.
         21   -1    0    0  501  503 -0.00000000000E+00 -0.00000000000E+00 -0.55378596912E+03  0.55378596912E+03  0.00000000000E+00 0. -1.
          6    1    1    2  501    0  0.62969510627E+02  0.10751221908E+03 -0.22314366764E+03  0.30861972219E+03  0.17300000000E+03 0. -1.
         -6    1    1    2    0  502 -0.62969510627E+02 -0.10751221908E+03 -0.24843539463E+03  0.32737315379E+03  0.17300000000E+03 0. -1.
<mgrwt>
<rscale>  2 0.21319718E+03</rscale>
<asrwt>0</asrwt>
<pdfrwt beam="1">  1       21 0.12647217E-01 0.21319718E+03</pdfrwt>
<pdfrwt beam="2">  1       21 0.85197841E-01 0.21319718E+03</pdfrwt>
<totfact> 0.63048205E+04</totfact>
</mgrwt>
</event>
<event>
 4    1  0.3957190E+000  0.1801429E+03  0.7546771E-02  0.1167665E+00
         21   -1    0    0  503  502  0.00000000000E+00  0.00000000000E+00  0.15567320280E+04  0.15567320280E+04  0.00000000000E+00 0. -1.
         21   -1    0    0  501  503 -0.00000000000E+00 -0.00000000000E+00 -0.44916266787E+02  0.44916266787E+02  0.00000000000E+00 0. -1.
          6    1    1    2  501    0 -0.25138696968E+02 -0.43480152558E+02  0.16966618763E+03  0.24746331643E+03  0.17300000000E+03 0. -1.
         -6    1    1    2    0  502  0.25138696968E+02  0.43480152558E+02  0.13421495736E+04  0.13541849784E+04  0.17300000000E+03 0. -1.
<mgrwt>
<rscale>  2 0.18014294E+03</rscale>
<asrwt>0</asrwt>
<pdfrwt beam="1">  1       21 0.23949719E+00 0.18014294E+03</pdfrwt>
<pdfrwt beam="2">  1       21 0.69101961E-02 0.18014294E+03</pdfrwt>
<totfact> 0.12004773E+04</totfact>
</mgrwt>
</event>
<event>
 4    1  0.3957190E+000  0.2391167E+03  0.7546771E-02  0.1120383E+00
         21   -1    0    0  501  502  0.00000000000E+00  0.00000000000E+00  0.54261939500E+03  0.54261939500E+03  0.00000000000E+00 0. -1.
         21   -1    0    0  502  503 -0.00000000000E+00 -0.00000000000E+00 -0.19823592316E+03  0.19823592316E+03  0.00000000000E+00 0.  1.
          6    1    1    2  501    0 -0.16506895492E+03 -0.23071690743E+00  0.42572565926E+03  0.48828183466E+03  0.17300000000E+03 0. -1.
         -6    1    1    2    0  503  0.16506895492E+03  0.23071690743E+00 -0.81342187426E+02  0.25257348350E+03  0.17300000000E+03 0.  1.
<mgrwt>
<rscale>  2 0.23911674E+03</rscale>
<asrwt>0</asrwt>
<pdfrwt beam="1">  1       21 0.83479906E-01 0.23911674E+03</pdfrwt>
<pdfrwt beam="2">  1       21 0.30497835E-01 0.23911674E+03</pdfrwt>
<totfact> 0.12519722E+04</totfact>
</mgrwt>
</event>
<event>
 4    1  0.3957190E+000  0.2378164E+03  0.7546771E-02  0.1121256E+00
         21   -1    0    0  503  502  0.00000000000E+00  0.00000000000E+00  0.10612682798E+03  0.10612682798E+03  0.00000000000E+00 0. -1.
         21   -1    0    0  501  503 -0.00000000000E+00 -0.00000000000E+00 -0.69617091838E+03  0.69617091838E+03  0.00000000000E+00 0.  1.
          6    1    1    2  501    0 -0.97129918338E+01  0.16289045157E+03 -0.10076296995E+03  0.25828243753E+03  0.17300000000E+03 0. -1.
         -6    1    1    2    0  502  0.97129918338E+01 -0.16289045157E+03 -0.48928112045E+03  0.54401530884E+03  0.17300000000E+03 0.  1.
<mgrwt>
<rscale>  2 0.23781640E+03</rscale>
<asrwt>0</asrwt>
<pdfrwt beam="1">  1       21 0.16327204E-01 0.23781640E+03</pdfrwt>
<pdfrwt beam="2">  1       21 0.10710322E+00 0.23781640E+03</pdfrwt>
<totfact> 0.22808642E+04</totfact>
</mgrwt>
</event>
<event>
 4    1  0.3957190E+000  0.2285952E+03  0.7546771E-02  0.1127632E+00
         21   -1    0    0  501  502  0.00000000000E+00  0.00000000000E+00  0.17361395661E+04  0.17361395661E+04  0.00000000000E+00 0. -1.
         21   -1    0    0  502  503 -0.00000000000E+00 -0.00000000000E+00 -0.31098267063E+02  0.31098267063E+02  0.00000000000E+00 0. -1.
          6    1    1    2  501    0  0.11815301659E+03 -0.91469273990E+02  0.10109280317E+04  0.10364512765E+04  0.17300000000E+03 0. -1.
         -6    1    1    2    0  503 -0.11815301659E+03  0.91469273990E+02  0.69411326733E+03  0.73078655659E+03  0.17300000000E+03 0. -1.
<mgrwt>
<rscale>  2 0.22859520E+03</rscale>
<asrwt>0</asrwt>
<pdfrwt beam="1">  1       21 0.26709832E+00 0.22859520E+03</pdfrwt>
<pdfrwt beam="2">  1       21 0.47843501E-02 0.22859520E+03</pdfrwt>
<totfact> 0.14832325E+04</totfact>
</mgrwt>
</event>
<event>
 4    1  0.3957190E+000  0.1956788E+03  0.7546771E-02  0.1153437E+00
         21   -1    0    0  503  502  0.00000000000E+00  0.00000000000E+00  0.20467539981E+03  0.20467539981E+03  0.00000000000E+00 0.  1.
         21   -1    0    0  501  503 -0.00000000000E+00 -0.00000000000E+00 -0.10440473639E+04  0.10440473639E+04  0.00000000000E+00 0.  1.
          6    1    1    2  501    0  0.70287783813E+02 -0.58487664493E+02 -0.98535017189E+03  0.10045920270E+04  0.17300000000E+03 0.  1.
         -6    1    1    2    0  502 -0.70287783813E+02  0.58487664493E+02  0.14597820781E+03  0.24413073671E+03  0.17300000000E+03 0.  1.
<mgrwt>
<rscale>  2 0.19567877E+03</rscale>
<asrwt>0</asrwt>
<pdfrwt beam="1">  1       21 0.31488524E-01 0.19567877E+03</pdfrwt>
<pdfrwt beam="2">  1       21 0.16062267E+00 0.19567877E+03</pdfrwt>
<totfact> 0.24075820E+03</totfact>
</mgrwt>
</event>
<event>
 4    1  0.3957190E+000  0.1792886E+03  0.7546771E-02  0.1168493E+00
         21   -1    0    0  501  502  0.00000000000E+00  0.00000000000E+00  0.81597234204E+02  0.81597234204E+02  0.00000000000E+00 0. -1.
         21   -1    0    0  502  503 -0.00000000000E+00 -0.00000000000E+00 -0.63718899318E+03  0.63718899318E+03  0.00000000000E+00 0. -1.
          6    1    1    2  501    0 -0.43167949755E+02 -0.18759456462E+02 -0.55740437115E+02  0.18775352306E+03  0.17300000000E+03 0. -1.
         -6    1    1    2    0  503  0.43167949755E+02  0.18759456462E+02 -0.49985132186E+03  0.53103270432E+03  0.17300000000E+03 0. -1.
<mgrwt>
<rscale>  2 0.17928856E+03</rscale>
<asrwt>0</asrwt>
<pdfrwt beam="1">  1       21 0.12553421E-01 0.17928856E+03</pdfrwt>
<pdfrwt beam="2">  1       21 0.98029072E-01 0.17928856E+03</pdfrwt>
<totfact> 0.46893132E+04</totfact>
</mgrwt>
</event>
<event>
 4    1  0.3957190E+000  0.1912014E+03  0.7546771E-02  0.1157382E+00
         21   -1    0    0  501  502  0.00000000000E+00  0.00000000000E+00  0.14790648580E+03  0.14790648580E+03  0.00000000000E+00 0.  1.
         21   -1    0    0  502  503 -0.00000000000E+00 -0.00000000000E+00 -0.32872989391E+03  0.32872989391E+03  0.00000000000E+00 0.  1.
          6    1    1    2  501    0 -0.32095898300E+02 -0.74825423292E+02  0.28295456188E+02  0.19328379006E+03  0.17300000000E+03 0.  1.
         -6    1    1    2    0  503  0.32095898300E+02  0.74825423292E+02 -0.20911886430E+03  0.28335258965E+03  0.17300000000E+03 0.  1.
<mgrwt>
<rscale>  2 0.19120144E+03</rscale>
<asrwt>0</asrwt>
<pdfrwt beam="1">  1       21 0.22754844E-01 0.19120144E+03</pdfrwt>
<pdfrwt beam="2">  1       21 0.50573829E-01 0.19120144E+03</pdfrwt>
<totfact> 0.67435103E+04</totfact>
</mgrwt>
</event>
<event>
 4    1  0.3957190E+000  0.2148041E+03  0.7546771E-02  0.1137817E+00
         21   -1    0    0  503  502  0.00000000000E+00  0.00000000000E+00  0.17379453740E+03  0.17379453740E+03  0.00000000000E+00 0. -1.
         21   -1    0    0  501  503 -0.00000000000E+00 -0.00000000000E+00 -0.28514529644E+03  0.28514529644E+03  0.00000000000E+00 0. -1.
          6    1    1    2  501    0  0.10710746377E+03 -0.68846303363E+02  0.45702329539E+01  0.21485276194E+03  0.17300000000E+03 0. -1.
         -6    1    1    2    0  502 -0.10710746377E+03  0.68846303363E+02 -0.11592099200E+03  0.24408707190E+03  0.17300000000E+03 0. -1.
<mgrwt>
<rscale>  2 0.21480415E+03</rscale>
<asrwt>0</asrwt>
<pdfrwt beam="1">  1       21 0.26737621E-01 0.21480415E+03</pdfrwt>
<pdfrwt beam="2">  1       21 0.43868507E-01 0.21480415E+03</pdfrwt>
<totfact> 0.65833359E+04</totfact>
</mgrwt>
</event>
<event>
 4    1  0.3957190E+000  0.2158871E+03  0.7546771E-02  0.1136987E+00
         21   -1    0    0  501  502  0.00000000000E+00  0.00000000000E+00  0.79695291559E+02  0.79695291559E+02  0.00000000000E+00 0. -1.
         21   -1    0    0  502  503 -0.00000000000E+00 -0.00000000000E+00 -0.70526593894E+03  0.70526593894E+03  0.00000000000E+00 0.  1.
          6    1    1    2  501    0  0.11391850408E+03  0.60834170269E+02 -0.15058867487E+03  0.26321886491E+03  0.17300000000E+03 0. -1.
         -6    1    1    2    0  503 -0.11391850408E+03 -0.60834170269E+02 -0.47498197251E+03  0.52174236560E+03  0.17300000000E+03 0.  1.
<mgrwt>
<rscale>  2 0.21588706E+03</rscale>
<asrwt>0</asrwt>
<pdfrwt beam="1">  1       21 0.12260814E-01 0.21588706E+03</pdfrwt>
<pdfrwt beam="2">  1       21 0.10850245E+00 0.21588706E+03</pdfrwt>
<totfact> 0.37643697E+04</totfact>
</mgrwt>
</event>
<event>
 4    1  0.3957190E+000  0.1816589E+03  0.7546771E-02  0.1166207E+00
         21   -1    0    0  501  502  0.00000000000E+00  0.00000000000E+00  0.24665027499E+04  0.24665027499E+04  0.00000000000E+00 0. -1.
         21   -1    0    0  502  503 -0.00000000000E+00 -0.00000000000E+00 -0.17318375258E+02  0.17318375258E+02  0.00000000000E+00 0. -1.
          6    1    1    2  501    0  0.42947435157E+02  0.35020835239E+02  0.18168857290E+04  0.18259446030E+04  0.17300000000E+03 0. -1.
         -6    1    1    2    0  503 -0.42947435157E+02 -0.35020835239E+02  0.63229864562E+03  0.65787652211E+03  0.17300000000E+03 0. -1.
<mgrwt>
<rscale>  2 0.18165886E+03</rscale>
<asrwt>0</asrwt>
<pdfrwt beam="1">  1       21 0.37946168E+00 0.18165886E+03</pdfrwt>
<pdfrwt beam="2">  1       21 0.26643674E-02 0.18165886E+03</pdfrwt>
<totfact> 0.90974683E+03</totfact>
</mgrwt>
</event>
<event>
 4    1  0.3957190E+000  0.2662986E+03  0.7546771E-02  0.1103417E+00
         21   -1    0    0  501  502  0.00000000000E+00  0.00000000000E+00  0.44306234262E+03  0.44306234262E+03  0.00000000000E+00 0. -1.
         21   -1    0    0  502  503 -0.00000000000E+00 -0.00000000000E+00 -0.18742584375E+03  0.18742584375E+03  0.00000000000E+00 0.  1.
          6    1    1    2  501    0 -0.18425356844E+03 -0.83884394802E+02  0.24828442003E+03  0.36408806957E+03  0.17300000000E+03 0. -1.
         -6    1    1    2    0  503  0.18425356844E+03  0.83884394802E+02  0.73520788413E+01  0.26640011681E+03  0.17300000000E+03 0.  1.
<mgrwt>
<rscale>  2 0.26629865E+03</rscale>
<asrwt>0</asrwt>
<pdfrwt beam="1">  1       21 0.68163437E-01 0.26629865E+03</pdfrwt>
<pdfrwt beam="2">  1       21 0.28834745E-01 0.26629865E+03</pdfrwt>
<totfact> 0.21759348E+04</totfact>
</mgrwt>
</event>
<event>
 4    1  0.3957190E+000  0.1793327E+03  0.7546771E-02  0.1168450E+00
         21   -1    0    0  503  502  0.00000000000E+00  0.00000000000E+00  0.32112816048E+03  0.32112816048E+03  0.00000000000E+00 0.  1.
         21   -1    0    0  501  503 -0.00000000000E+00 -0.00000000000E+00 -0.31099044401E+03  0.31099044401E+03  0.00000000000E+00 0.  1.
          6    1    1    2  501    0 -0.45979255217E+01  0.47011615072E+02 -0.25517136865E+03  0.31188565253E+03  0.17300000000E+03 0.  1.
         -6    1    1    2    0  502  0.45979255217E+01 -0.47011615072E+02  0.26530908513E+03  0.32023295196E+03  0.17300000000E+03 0.  1.
<mgrwt>
<rscale>  2 0.17933274E+03</rscale>
<asrwt>0</asrwt>
<pdfrwt beam="1">  1       21 0.49404332E-01 0.17933274E+03</pdfrwt>
<pdfrwt beam="2">  1       21 0.47844684E-01 0.17933274E+03</pdfrwt>
<totfact> 0.16450292E+04</totfact>
</mgrwt>
</event>
<event>
 4    1  0.3957190E+000  0.2119441E+03  0.7546771E-02  0.1140036E+00
         21   -1    0    0  501  502  0.00000000000E+00  0.00000000000E+00  0.24295754545E+03  0.24295754545E+03  0.00000000000E+00 0.  1.
         21   -1    0    0  502  503 -0.00000000000E+00 -0.00000000000E+00 -0.97807105366E+03  0.97807105366E+03  0.00000000000E+00 0.  1.
          6    1    1    2  501    0 -0.86692542598E+02  0.86462274199E+02  0.18223334520E+03  0.27951621403E+03  0.17300000000E+03 0.  1.
         -6    1    1    2    0  503  0.86692542598E+02 -0.86462274199E+02 -0.91734685342E+03  0.94151238509E+03  0.17300000000E+03 0.  1.
<mgrwt>
<rscale>  2 0.21194415E+03</rscale>
<asrwt>0</asrwt>
<pdfrwt beam="1">  1       21 0.37378084E-01 0.21194415E+03</pdfrwt>
<pdfrwt beam="2">  1       21 0.15047247E+00 0.21194415E+03</pdfrwt>
<totfact> 0.20098182E+03</totfact>
</mgrwt>
</event>
<event>
 4    1  0.3957190E+000  0.2061723E+03  0.7546771E-02  0.1144634E+00
         21   -1    0    0  501  502  0.00000000000E+00  0.00000000000E+00  0.77600776220E+02  0.77600776220E+02  0.00000000000E+00 0.  1.
         21   -1    0    0  502  503 -0.00000000000E+00 -0.00000000000E+00 -0.55191746189E+03  0.55191746189E+03  0.00000000000E+00 0. -1.
          6    1    1    2  501    0 -0.79197305429E+02 -0.79408964984E+02 -0.20985669389E+03  0.29418842410E+03  0.17300000000E+03 0. -1.
         -6    1    1    2    0  503  0.79197305429E+02  0.79408964984E+02 -0.26445999178E+03  0.33532981401E+03  0.17300000000E+03 0. -1.
<mgrwt>
<rscale>  2 0.20617225E+03</rscale>
<asrwt>0</asrwt>
<pdfrwt beam="1">  1       21 0.11938581E-01 0.20617225E+03</pdfrwt>
<pdfrwt beam="2">  1       21 0.84910376E-01 0.20617225E+03</pdfrwt>
<totfact> 0.70694343E+04</totfact>
</mgrwt>
</event>
<event>
 4    1  0.3957190E+000  0.2032347E+03  0.7546771E-02  0.1147038E+00
         21   -1    0    0  501  502  0.00000000000E+00  0.00000000000E+00  0.27222841136E+02  0.27222841136E+02  0.00000000000E+00 0.  1.
         21   -1    0    0  502  503 -0.00000000000E+00 -0.00000000000E+00 -0.15263435070E+04  0.15263435070E+04  0.00000000000E+00 0.  1.
          6    1    1    2  501    0 -0.91619358351E+02 -0.54600610120E+02 -0.80945937851E+03  0.83458302098E+03  0.17300000000E+03 0.  1.
         -6    1    1    2    0  503  0.91619358351E+02  0.54600610120E+02 -0.68966128731E+03  0.71898332711E+03  0.17300000000E+03 0.  1.
<mgrwt>
<rscale>  2 0.20323468E+03</rscale>
<asrwt>0</asrwt>
<pdfrwt beam="1">  1       21 0.41881315E-02 0.20323468E+03</pdfrwt>
<pdfrwt beam="2">  1       21 0.23482196E+00 0.20323468E+03</pdfrwt>
<totfact> 0.29430600E+04</totfact>
</mgrwt>
</event>
<event>
 4    1  0.3957190E+000  0.2028400E+03  0.7546771E-02  0.1147365E+00
         21   -1    0    0  501  502  0.00000000000E+00  0.00000000000E+00  0.30488927521E+02  0.30488927521E+02  0.00000000000E+00 0.  1.
         21   -1    0    0  502  503 -0.00000000000E+00 -0.00000000000E+00 -0.14835616616E+04  0.14835616616E+04  0.00000000000E+00 0. -1.
          6    1    1    2  501    0 -0.61285493786E+02  0.86366284096E+02 -0.49894786916E+03  0.53860284340E+03  0.17300000000E+03 0. -1.
         -6    1    1    2    0  503  0.61285493786E+02 -0.86366284096E+02 -0.95412486489E+03  0.97544774569E+03  0.17300000000E+03 0. -1.
<mgrwt>
<rscale>  2 0.20283995E+03</rscale>
<asrwt>0</asrwt>
<pdfrwt beam="1">  1       21 0.46906028E-02 0.20283995E+03</pdfrwt>
<pdfrwt beam="2">  1       21 0.22824033E+00 0.20283995E+03</pdfrwt>
<totfact> 0.26646884E+04</totfact>
</mgrwt>
</event>
<event>
 4    1  0.3957190E+000  0.2648382E+03  0.7546771E-02  0.1104271E+00
         21   -1    0    0  501  502  0.00000000000E+00  0.00000000000E+00  0.17700360219E+03  0.17700360219E+03  0.00000000000E+00 0. -1.
         21   -1    0    0  502  503 -0.00000000000E+00 -0.00000000000E+00 -0.40366353218E+03  0.40366353218E+03  0.00000000000E+00 0. -1.
          6    1    1    2  501    0 -0.19900703724E+03  0.24626372152E+02 -0.74007731276E+02  0.27498436931E+03  0.17300000000E+03 0. -1.
         -6    1    1    2    0  503  0.19900703724E+03 -0.24626372152E+02 -0.15265219872E+03  0.30568276506E+03  0.17300000000E+03 0. -1.
<mgrwt>
<rscale>  2 0.26483818E+03</rscale>
<asrwt>0</asrwt>
<pdfrwt beam="1">  1       21 0.27231324E-01 0.26483818E+03</pdfrwt>
<pdfrwt beam="2">  1       21 0.62102082E-01 0.26483818E+03</pdfrwt>
<totfact> 0.29861902E+04</totfact>
</mgrwt>
</event>
<event>
 4    1  0.3957190E+000  0.1946855E+03  0.7546771E-02  0.1154302E+00
         21   -1    0    0  503  502  0.00000000000E+00  0.00000000000E+00  0.58015629821E+02  0.58015629821E+02  0.00000000000E+00 0. -1.
         21   -1    0    0  501  503 -0.00000000000E+00 -0.00000000000E+00 -0.11638490559E+04  0.11638490559E+04  0.00000000000E+00 0. -1.
          6    1    1    2  501    0 -0.89265577682E+02 -0.22557736936E+01 -0.95754618143E+03  0.97713720708E+03  0.17300000000E+03 0. -1.
         -6    1    1    2    0  502  0.89265577682E+02  0.22557736936E+01 -0.14828724462E+03  0.24472747862E+03  0.17300000000E+03 0. -1.
<mgrwt>
<rscale>  2 0.19468547E+03</rscale>
<asrwt>0</asrwt>
<pdfrwt beam="1">  1       21 0.89254810E-02 0.19468547E+03</pdfrwt>
<pdfrwt beam="2">  1       21 0.17905371E+00 0.19468547E+03</pdfrwt>
<totfact> 0.18278433E+04</totfact>
</mgrwt>
</event>
<event>
 4    1  0.3957190E+000  0.1752852E+03  0.7546771E-02  0.1172446E+00
         21   -1    0    0  503  502  0.00000000000E+00  0.00000000000E+00  0.32071027454E+02  0.32071027454E+02  0.00000000000E+00 0. -1.
         21   -1    0    0  501  503 -0.00000000000E+00 -0.00000000000E+00 -0.13734534908E+04  0.13734534908E+04  0.00000000000E+00 0.  1.
          6    1    1    2  501    0 -0.43417867786E+01 -0.27875494083E+02 -0.10571906145E+04  0.10716234832E+04  0.17300000000E+03 0.  1.
         -6    1    1    2    0  502  0.43417867786E+01  0.27875494083E+02 -0.28419184884E+03  0.33390103509E+03  0.17300000000E+03 0. -1.
<mgrwt>
<rscale>  2 0.17528518E+03</rscale>
<asrwt>0</asrwt>
<pdfrwt beam="1">  1       21 0.49340048E-02 0.17528518E+03</pdfrwt>
<pdfrwt beam="2">  1       21 0.21130051E+00 0.17528518E+03</pdfrwt>
<totfact> 0.31741681E+04</totfact>
</mgrwt>
</event>
<event>
 4    1  0.3957190E+000  0.1807797E+03  0.7546771E-02  0.1167051E+00
         21   -1    0    0  501  502  0.00000000000E+00  0.00000000000E+00  0.30888215961E+03  0.30888215961E+03  0.00000000000E+00 0. -1.
         21   -1    0    0  502  503 -0.00000000000E+00 -0.00000000000E+00 -0.12536380096E+03  0.12536380096E+03  0.00000000000E+00 0. -1.
          6    1    1    2  501    0 -0.48871375719E+02  0.19076296096E+02  0.17752009480E+03  0.25336673123E+03  0.17300000000E+03 0. -1.
         -6    1    1    2    0  503  0.48871375719E+02 -0.19076296096E+02  0.59982638418E+01  0.18087922934E+03  0.17300000000E+03 0. -1.
<mgrwt>
<rscale>  2 0.18077975E+03</rscale>
<asrwt>0</asrwt>
<pdfrwt beam="1">  1       21 0.47520332E-01 0.18077975E+03</pdfrwt>
<pdfrwt beam="2">  1       21 0.19286739E-01 0.18077975E+03</pdfrwt>
<totfact> 0.10507019E+05</totfact>
</mgrwt>
</event>
<event>
 4    1  0.3957190E+000  0.2112592E+03  0.7546771E-02  0.1140573E+00
         21   -1    0    0  501  502  0.00000000000E+00  0.00000000000E+00  0.21380328188E+03  0.21380328188E+03  0.00000000000E+00 0. -1.
         21   -1    0    0  502  503 -0.00000000000E+00 -0.00000000000E+00 -0.22081989300E+03  0.22081989300E+03  0.00000000000E+00 0.  1.
          6    1    1    2  501    0 -0.31792348607E+02  0.11700731840E+03  0.47307290969E+02  0.21649121407E+03  0.17300000000E+03 0. -1.
         -6    1    1    2    0  503  0.31792348607E+02 -0.11700731840E+03 -0.54323902085E+02  0.21813196081E+03  0.17300000000E+03 0.  1.
<mgrwt>
<rscale>  2 0.21125924E+03</rscale>
<asrwt>0</asrwt>
<pdfrwt beam="1">  1       21 0.32892813E-01 0.21125924E+03</pdfrwt>
<pdfrwt beam="2">  1       21 0.33972291E-01 0.21125924E+03</pdfrwt>
<totfact> 0.73677884E+04</totfact>
</mgrwt>
</event>
<event>
 4    1  0.3957190E+000  0.1879312E+03  0.7546771E-02  0.1160341E+00
         21   -1    0    0  503  502  0.00000000000E+00  0.00000000000E+00  0.57516371520E+03  0.57516371520E+03  0.00000000000E+00 0. -1.
         21   -1    0    0  501  503 -0.00000000000E+00 -0.00000000000E+00 -0.13002298245E+03  0.13002298245E+03  0.00000000000E+00 0. -1.
          6    1    1    2  501    0 -0.67191726571E+02 -0.29570549957E+02 -0.33572242620E+02  0.19090636715E+03  0.17300000000E+03 0. -1.
         -6    1    1    2    0  502  0.67191726571E+02  0.29570549957E+02  0.47871297538E+03  0.51428033050E+03  0.17300000000E+03 0. -1.
<mgrwt>
<rscale>  2 0.18793123E+03</rscale>
<asrwt>0</asrwt>
<pdfrwt beam="1">  1       21 0.88486724E-01 0.18793123E+03</pdfrwt>
<pdfrwt beam="2">  1       21 0.20003536E-01 0.18793123E+03</pdfrwt>
<totfact> 0.25279984E+04</totfact>
</mgrwt>
</event>
<event>
 4    1  0.3957190E+000  0.2040736E+03  0.7546771E-02  0.1146347E+00
         21   -1    0    0  501  502  0.00000000000E+00  0.00000000000E+00  0.13585821307E+03  0.13585821307E+03  0.00000000000E+00 0.  1.
         21   -1    0    0  502  503 -0.00000000000E+00 -0.00000000000E+00 -0.41397531900E+03  0.41397531900E+03  0.00000000000E+00 0. -1.
          6    1    1    2  501    0  0.10821763689E+03 -0.24443604540E+01  0.99260995906E+00  0.20407600816E+03  0.17300000000E+03 0.  1.
         -6    1    1    2    0  503 -0.10821763689E+03  0.24443604540E+01 -0.27910971590E+03  0.34575752391E+03  0.17300000000E+03 0. -1.
<mgrwt>
<rscale>  2 0.20407359E+03</rscale>
<asrwt>0</asrwt>
<pdfrwt beam="1">  1       21 0.20901263E-01 0.20407359E+03</pdfrwt>
<pdfrwt beam="2">  1       21 0.63688511E-01 0.20407359E+03</pdfrwt>
<totfact> 0.48149110E+04</totfact>
</mgrwt>
</event>
<event>
 4    1  0.3957190E+000  0.1865982E+03  0.7546771E-02  0.1161566E+00
         21   -1    0    0  501  502  0.00000000000E+00  0.00000000000E+00  0.16103145249E+03  0.16103145249E+03  0.00000000000E+00 0. -1.
         21   -1    0    0  502  503 -0.00000000000E+00 -0.00000000000E+00 -0.31698905363E+03  0.31698905363E+03  0.00000000000E+00 0. -1.
          6    1    1    2  501    0  0.58184889873E+02 -0.38786734928E+02  0.56777475876E+02  0.19504505629E+03  0.17300000000E+03 0. -1.
         -6    1    1    2    0  503 -0.58184889873E+02  0.38786734928E+02 -0.21273507701E+03  0.28297544983E+03  0.17300000000E+03 0. -1.
<mgrwt>
<rscale>  2 0.18659821E+03</rscale>
<asrwt>0</asrwt>
<pdfrwt beam="1">  1       21 0.24774070E-01 0.18659821E+03</pdfrwt>
<pdfrwt beam="2">  1       21 0.48767546E-01 0.18659821E+03</pdfrwt>
<totfact> 0.62020104E+04</totfact>
</mgrwt>
</event>
<event>
 4    1  0.3957190E+000  0.1811396E+03  0.7546771E-02  0.1166705E+00
         21   -1    0    0  503  502  0.00000000000E+00  0.00000000000E+00  0.26890012945E+03  0.26890012945E+03  0.00000000000E+00 0.  1.
         21   -1    0    0  501  503 -0.00000000000E+00 -0.00000000000E+00 -0.12355387491E+03  0.12355387491E+03  0.00000000000E+00 0.  1.
          6    1    1    2  501    0 -0.38744367889E+02  0.37167797109E+02  0.50819336535E+02  0.18813339988E+03  0.17300000000E+03 0.  1.
         -6    1    1    2    0  502  0.38744367889E+02 -0.37167797109E+02  0.94526918011E+02  0.20432060448E+03  0.17300000000E+03 0.  1.
<mgrwt>
<rscale>  2 0.18113965E+03</rscale>
<asrwt>0</asrwt>
<pdfrwt beam="1">  1       21 0.41369251E-01 0.18113965E+03</pdfrwt>
<pdfrwt beam="2">  1       21 0.19008289E-01 0.18113965E+03</pdfrwt>
<totfact> 0.14333068E+05</totfact>
</mgrwt>
</event>
<event>
 4    1  0.3957190E+000  0.1748914E+03  0.7546771E-02  0.1172841E+00
         21   -1    0    0  501  502  0.00000000000E+00  0.00000000000E+00  0.80599840261E+02  0.80599840261E+02  0.00000000000E+00 0.  1.
         21   -1    0    0  502  503 -0.00000000000E+00 -0.00000000000E+00 -0.52864047384E+03  0.52864047384E+03  0.00000000000E+00 0.  1.
          6    1    1    2  501    0 -0.23921235276E+02  0.92606631524E+01 -0.62216781829E+02  0.18562842810E+03  0.17300000000E+03 0.  1.
         -6    1    1    2    0  503  0.23921235276E+02 -0.92606631524E+01 -0.38582385175E+03  0.42361188600E+03  0.17300000000E+03 0.  1.
<mgrwt>
<rscale>  2 0.17489135E+03</rscale>
<asrwt>0</asrwt>
<pdfrwt beam="1">  1       21 0.12399976E-01 0.17489135E+03</pdfrwt>
<pdfrwt beam="2">  1       21 0.81329300E-01 0.17489135E+03</pdfrwt>
<totfact> 0.73891544E+04</totfact>
</mgrwt>
</event>
<event>
 4    1  0.3957190E+000  0.1911067E+03  0.7546771E-02  0.1157467E+00
         21   -1    0    0  503  502  0.00000000000E+00  0.00000000000E+00  0.97615715862E+02  0.97615715862E+02  0.00000000000E+00 0. -1.
         21   -1    0    0  501  503 -0.00000000000E+00 -0.00000000000E+00 -0.38760332931E+03  0.38760332931E+03  0.00000000000E+00 0. -1.
          6    1    1    2  501    0 -0.39173252511E+01  0.81101257262E+02 -0.99774820524E+02  0.21558472621E+03  0.17300000000E+03 0. -1.
         -6    1    1    2    0  502  0.39173252511E+01 -0.81101257262E+02 -0.19021279292E+03  0.26963431895E+03  0.17300000000E+03 0. -1.
<mgrwt>
<rscale>  2 0.19110667E+03</rscale>
<asrwt>0</asrwt>
<pdfrwt beam="1">  1       21 0.15017802E-01 0.19110667E+03</pdfrwt>
<pdfrwt beam="2">  1       21 0.59631281E-01 0.19110667E+03</pdfrwt>
<totfact> 0.10284398E+05</totfact>
</mgrwt>
</event>
<event>
 4    1  0.3957190E+000  0.1940444E+03  0.7546771E-02  0.1154863E+00
         21   -1    0    0  503  502  0.00000000000E+00  0.00000000000E+00  0.72638163720E+03  0.72638163720E+03  0.00000000000E+00 0.  1.
         21   -1    0    0  501  503 -0.00000000000E+00 -0.00000000000E+00 -0.56855328837E+02  0.56855328837E+02  0.00000000000E+00 0.  1.
          6    1    1    2  501    0  0.24541574302E+02  0.84391488200E+02  0.21841191390E+03  0.29215916259E+03  0.17300000000E+03 0.  1.
         -6    1    1    2    0  502 -0.24541574302E+02 -0.84391488200E+02  0.45111439446E+03  0.49107780345E+03  0.17300000000E+03 0.  1.
<mgrwt>
<rscale>  2 0.19404436E+03</rscale>
<asrwt>0</asrwt>
<pdfrwt beam="1">  1       21 0.11175101E+00 0.19404436E+03</pdfrwt>
<pdfrwt beam="2">  1       21 0.87469742E-02 0.19404436E+03</pdfrwt>
<totfact> 0.64506573E+04</totfact>
</mgrwt>
</event>
<event>
 4    1  0.3957190E+000  0.2286615E+03  0.7546771E-02  0.1127585E+00
         21   -1    0    0  501  502  0.00000000000E+00  0.00000000000E+00  0.63715896349E+03  0.63715896349E+03  0.00000000000E+00 0.  1.
         21   -1    0    0  502  503 -0.00000000000E+00 -0.00000000000E+00 -0.20086794480E+03  0.20086794480E+03  0.00000000000E+00 0.  1.
          6    1    1    2  501    0  0.70029627230E+02  0.13210961972E+03  0.54039555991E+03  0.58678229479E+03  0.17300000000E+03 0.  1.
         -6    1    1    2    0  503 -0.70029627230E+02 -0.13210961972E+03 -0.10410454121E+03  0.25124461350E+03  0.17300000000E+03 0.  1.
<mgrwt>
<rscale>  2 0.22866154E+03</rscale>
<asrwt>0</asrwt>
<pdfrwt beam="1">  1       21 0.98024455E-01 0.22866154E+03</pdfrwt>
<pdfrwt beam="2">  1       21 0.30902761E-01 0.22866154E+03</pdfrwt>
<totfact> 0.84430640E+03</totfact>
</mgrwt>
</event>
