<event>
 8    1  0.2493819E-006  0.9118800E+02  0.7816164E-02  0.1184000E+00
        -11   -1    0    0    0    0  0.00000000000E+00  0.00000000000E+00  0.45593999997E+02  0.45594000000E+02  0.51100000000E-03 0. -1.
         11   -1    0    0    0    0 -0.00000000000E+00 -0.00000000000E+00 -0.45593999997E+02  0.45594000000E+02  0.51100000000E-03 0.  1.
         23    2    1    2    0    0 -0.35527136788E-14  0.00000000000E+00  0.00000000000E+00  0.91188000000E+02  0.91188000000E+02 0.  0.
    9900012    2    3    3    0    0  0.25009768660E+02  0.19550146278E+02  0.18656981635E+02  0.54367085948E+02  0.40000004035E+02 0.  0.
        -12    1    3    3    0    0 -0.25009768660E+02 -0.19550146278E+02 -0.18656981635E+02  0.36820914052E+02  0.00000000000E+00 0.  1.
         11    1    4    4    0    0  0.18411988759E+01 -0.53782316995E+01  0.75715040973E+01  0.94680021161E+01  0.51100000000E-03 0. -1.
        -11    1    4    4    0    0  0.45827398434E+01  0.67021919740E+01 -0.89249717292E+01  0.12065488070E+02  0.51100000000E-03 0.  1.
         12    1    4    4    0    0  0.18585829941E+02  0.18226186004E+02  0.20010449267E+02  0.32833595762E+02  0.00000000000E+00 0. -1.
</event>
<event>
 8    1  0.2493819E-006  0.9118800E+02  0.7816164E-02  0.1184000E+00
        -11   -1    0    0    0    0  0.00000000000E+00  0.00000000000E+00  0.45593999997E+02  0.45594000000E+02  0.51100000000E-03 0.  1.
         11   -1    0    0    0    0 -0.00000000000E+00 -0.00000000000E+00 -0.45593999997E+02  0.45594000000E+02  0.51100000000E-03 0. -1.
         23    2    1    2    0    0  0.35527136788E-14 -0.35527136788E-14  0.00000000000E+00  0.91188000000E+02  0.91188000000E+02 0.  0.
    9900012    2    3    3    0    0  0.13233956404E+02 -0.30086704803E+02 -0.16596133973E+02  0.54367094649E+02  0.40000023872E+02 0.  0.
        -12    1    3    3    0    0 -0.13233956404E+02  0.30086704803E+02  0.16596133973E+02  0.36820905351E+02  0.00000000000E+00 0.  1.
         11    1    4    4    0    0  0.68751196816E+01  0.47200490919E+00 -0.10796254044E+02  0.12808167743E+02  0.51100000000E-03 0. -1.
        -11    1    4    4    0    0 -0.41988432012E+01 -0.20511898431E+02 -0.13661108501E+02  0.24999882944E+02  0.51100000000E-03 0.  1.
        -12    1    4    4    0    0  0.10557679923E+02 -0.10046811282E+02  0.78612285725E+01  0.16559043963E+02  0.00000000000E+00 0.  1.
</event>
<event>
 8    1  0.2493819E-006  0.9118800E+02  0.7816164E-02  0.1184000E+00
        -11   -1    0    0    0    0  0.00000000000E+00  0.00000000000E+00  0.45593999997E+02  0.45594000000E+02  0.51100000000E-03 0.  1.
         11   -1    0    0    0    0 -0.00000000000E+00 -0.00000000000E+00 -0.45593999997E+02  0.45594000000E+02  0.51100000000E-03 0. -1.
         23    2    1    2    0    0  0.00000000000E+00  0.10658141036E-13  0.00000000000E+00  0.91188000000E+02  0.91188000000E+02 0.  0.
    9900012    2    3    3    0    0  0.25414771469E+02  0.25737107344E+02  0.68898957233E+01  0.54367082489E+02  0.39999996151E+02 0.  0.
         12    1    3    3    0    0 -0.25414771469E+02 -0.25737107344E+02 -0.68898957233E+01  0.36820917511E+02  0.00000000000E+00 0. -1.
         11    1    4    4    0    0  0.66355076793E+01 -0.77914602461E+01  0.68262385859E+01  0.12301802649E+02  0.51100000000E-03 0. -1.
        -11    1    4    4    0    0  0.12454851444E+02  0.61748083011E+01  0.13040328480E+01  0.13962524269E+02  0.51100000000E-03 0.  1.
         12    1    4    4    0    0  0.63244123455E+01  0.27353759289E+02 -0.12403757106E+01  0.28102755571E+02  0.00000000000E+00 0. -1.
</event>
<event>
 8    1  0.2493819E-006  0.9118800E+02  0.7816164E-02  0.1184000E+00
        -11   -1    0    0    0    0  0.00000000000E+00  0.00000000000E+00  0.45593999997E+02  0.45594000000E+02  0.51100000000E-03 0. -1.
         11   -1    0    0    0    0 -0.00000000000E+00 -0.00000000000E+00 -0.45593999997E+02  0.45594000000E+02  0.51100000000E-03 0.  1.
         23    2    1    2    0    0  0.00000000000E+00 -0.35527136788E-14  0.00000000000E+00  0.91188000000E+02  0.91188000000E+02 0.  0.
    9900012    2    3    3    0    0  0.17213580373E+02 -0.28938294743E+02 -0.14901270694E+02  0.54367080400E+02  0.39999991388E+02 0.  0.
         12    1    3    3    0    0 -0.17213580373E+02  0.28938294743E+02  0.14901270694E+02  0.36820919600E+02  0.00000000000E+00 0. -1.
         11    1    4    4    0    0 -0.63209330550E+01 -0.24553947386E+02 -0.12447967850E+02  0.28245396630E+02  0.51100000000E-03 0. -1.
        -11    1    4    4    0    0  0.11081386847E+01  0.18219570649E+01 -0.18838461043E+01  0.28454130274E+01  0.51100000000E-03 0.  1.
         12    1    4    4    0    0  0.22426374744E+02 -0.62063044220E+01 -0.56945673990E+00  0.23276270743E+02  0.00000000000E+00 0. -1.
</event>
<event>
 8    1  0.2493819E-006  0.9118800E+02  0.7816164E-02  0.1184000E+00
        -11   -1    0    0    0    0  0.00000000000E+00  0.00000000000E+00  0.45593999997E+02  0.45594000000E+02  0.51100000000E-03 0.  1.
         11   -1    0    0    0    0 -0.00000000000E+00 -0.00000000000E+00 -0.45593999997E+02  0.45594000000E+02  0.51100000000E-03 0. -1.
         23    2    1    2    0    0  0.35527136788E-14  0.00000000000E+00  0.00000000000E+00  0.91188000000E+02  0.91188000000E+02 0.  0.
    9900012    2    3    3    0    0  0.19054285531E+02 -0.31221840211E+02 -0.42321038056E+01  0.54367084667E+02  0.40000001116E+02 0.  0.
         12    1    3    3    0    0 -0.19054285531E+02  0.31221840211E+02  0.42321038056E+01  0.36820915333E+02  0.00000000000E+00 0. -1.
         11    1    4    4    0    0  0.27438002164E+02 -0.19173250566E+02 -0.29809006460E+01  0.33605702923E+02  0.51100000000E-03 0.  1.
        -11    1    4    4    0    0 -0.78305368225E+01 -0.49144036331E+01  0.56379602801E+01  0.10828447090E+02  0.51100000000E-03 0. -1.
        -12    1    4    4    0    0 -0.55317980977E+00 -0.71341860119E+01 -0.68891634397E+01  0.99329346546E+01  0.00000000000E+00 0.  1.
</event>
<event>
 8    1  0.2493819E-006  0.9118800E+02  0.7816164E-02  0.1184000E+00
        -11   -1    0    0    0    0  0.00000000000E+00  0.00000000000E+00  0.45593999997E+02  0.45594000000E+02  0.51100000000E-03 0.  1.
         11   -1    0    0    0    0 -0.00000000000E+00 -0.00000000000E+00 -0.45593999997E+02  0.45594000000E+02  0.51100000000E-03 0. -1.
         23    2    1    2    0    0  0.00000000000E+00  0.00000000000E+00  0.00000000000E+00  0.91188000000E+02  0.91188000000E+02 0.  0.
    9900012    2    3    3    0    0 -0.18143386950E+02 -0.18007114282E+02 -0.26501619854E+02  0.54367156587E+02  0.40000165070E+02 0.  0.
        -12    1    3    3    0    0  0.18143386950E+02  0.18007114282E+02  0.26501619854E+02  0.36820843413E+02  0.00000000000E+00 0.  1.
         11    1    4    4    0    0 -0.46293547892E+01 -0.14448181068E+02 -0.20516771861E+02  0.25517029408E+02  0.51100000000E-03 0. -1.
        -11    1    4    4    0    0  0.66993104599E+01 -0.28443151146E+01  0.12191395666E+01  0.73795115457E+01  0.51100000000E-03 0.  1.
         12    1    4    4    0    0 -0.20213342620E+02 -0.71461809964E+00 -0.72039875598E+01  0.21470615633E+02  0.00000000000E+00 0. -1.
</event>
<event>
 8    1  0.2493819E-006  0.9118800E+02  0.7816164E-02  0.1184000E+00
        -11   -1    0    0    0    0  0.00000000000E+00  0.00000000000E+00  0.45593999997E+02  0.45594000000E+02  0.51100000000E-03 0.  1.
         11   -1    0    0    0    0 -0.00000000000E+00 -0.00000000000E+00 -0.45593999997E+02  0.45594000000E+02  0.51100000000E-03 0. -1.
         23    2    1    2    0    0  0.00000000000E+00 -0.66613381478E-15 -0.17763568394E-14  0.91188000000E+02  0.91188000000E+02 0.  0.
    9900012    2    3    3    0    0 -0.35342945627E+02 -0.19957407321E+01 -0.10132753719E+02  0.54367089031E+02  0.40000011064E+02 0.  0.
         12    1    3    3    0    0  0.35342945627E+02  0.19957407321E+01  0.10132753719E+02  0.36820910969E+02  0.00000000000E+00 0. -1.
         11    1    4    4    0    0 -0.38511644389E+01  0.33392152354E+01  0.24762480606E+01  0.56668889739E+01  0.51100000000E-03 0. -1.
        -11    1    4    4    0    0 -0.20575774336E+02  0.59815103050E+01  0.79176268196E+01  0.22843593626E+02  0.51100000000E-03 0.  1.
        -12    1    4    4    0    0 -0.10916006852E+02 -0.11316466272E+02 -0.20526628599E+02  0.25856606431E+02  0.00000000000E+00 0.  1.
</event>
<event>
 8    1  0.2493819E-006  0.9118800E+02  0.7816164E-02  0.1184000E+00
        -11   -1    0    0    0    0  0.00000000000E+00  0.00000000000E+00  0.45593999997E+02  0.45594000000E+02  0.51100000000E-03 0. -1.
         11   -1    0    0    0    0 -0.00000000000E+00 -0.00000000000E+00 -0.45593999997E+02  0.45594000000E+02  0.51100000000E-03 0.  1.
         23    2    1    2    0    0  0.00000000000E+00  0.00000000000E+00  0.00000000000E+00  0.91188000000E+02  0.91188000000E+02 0.  0.
    9900012    2    3    3    0    0 -0.11431887784E+02 -0.21990148982E+02 -0.27230950296E+02  0.54367090661E+02  0.40000014780E+02 0.  0.
         12    1    3    3    0    0  0.11431887784E+02  0.21990148982E+02  0.27230950296E+02  0.36820909339E+02  0.00000000000E+00 0. -1.
         11    1    4    4    0    0  0.12506942303E+01 -0.39329108975E+01 -0.21339357033E+02  0.21734768989E+02  0.51100000000E-03 0. -1.
        -11    1    4    4    0    0  0.38294430683E+01 -0.14460176149E+02 -0.47492127837E+01  0.15694468796E+02  0.51100000000E-03 0.  1.
        -12    1    4    4    0    0 -0.16512025082E+02 -0.35970619356E+01 -0.11423804792E+01  0.16937852876E+02  0.00000000000E+00 0.  1.
</event>
<event>
 8    1  0.2493819E-006  0.9118800E+02  0.7816164E-02  0.1184000E+00
        -11   -1    0    0    0    0  0.00000000000E+00  0.00000000000E+00  0.45593999997E+02  0.45594000000E+02  0.51100000000E-03 0.  1.
         11   -1    0    0    0    0 -0.00000000000E+00 -0.00000000000E+00 -0.45593999997E+02  0.45594000000E+02  0.51100000000E-03 0. -1.
         23    2    1    2    0    0 -0.35527136788E-14  0.17763568394E-14  0.35527136788E-14  0.91188000000E+02  0.91188000000E+02 0.  0.
    9900012    2    3    3    0    0  0.13931774577E+02 -0.11804386954E+02 -0.31974079101E+02  0.54367087075E+02  0.40000006605E+02 0.  0.
        -12    1    3    3    0    0 -0.13931774577E+02  0.11804386954E+02  0.31974079101E+02  0.36820912925E+02  0.00000000000E+00 0.  1.
         11    1    4    4    0    0  0.18818195331E+02 -0.21837318788E+02 -0.27176167993E+02  0.39617383488E+02  0.51100000000E-03 0. -1.
        -11    1    4    4    0    0 -0.10228914865E+01 -0.14814822293E+01 -0.53777013657E+00  0.18789075469E+01  0.51100000000E-03 0.  1.
        -12    1    4    4    0    0 -0.38635292671E+01  0.11514414063E+02 -0.42601409717E+01  0.12870796040E+02  0.00000000000E+00 0.  1.
</event>
<event>
 8    1  0.2493819E-006  0.9118800E+02  0.7816164E-02  0.1184000E+00
        -11   -1    0    0    0    0  0.00000000000E+00  0.00000000000E+00  0.45593999997E+02  0.45594000000E+02  0.51100000000E-03 0. -1.
         11   -1    0    0    0    0 -0.00000000000E+00 -0.00000000000E+00 -0.45593999997E+02  0.45594000000E+02  0.51100000000E-03 0.  1.
         23    2    1    2    0    0  0.35527136788E-14  0.35527136788E-14  0.35527136788E-14  0.91188000000E+02  0.91188000000E+02 0.  0.
    9900012    2    3    3    0    0 -0.19218879958E+02 -0.18188600122E+02 -0.25604487091E+02  0.54367078224E+02  0.39999986426E+02 0.  0.
         12    1    3    3    0    0  0.19218879958E+02  0.18188600122E+02  0.25604487091E+02  0.36820921776E+02  0.00000000000E+00 0. -1.
         11    1    4    4    0    0  0.45202696968E+01 -0.64083892527E+01 -0.48520935926E+01  0.92218817732E+01  0.51100000000E-03 0. -1.
        -11    1    4    4    0    0 -0.57366563918E+01 -0.44035530033E+01 -0.24313950326E+02  0.25366684575E+02  0.51100000000E-03 0.  1.
         12    1    4    4    0    0 -0.18002493263E+02 -0.73766578659E+01  0.35615568273E+01  0.19778511875E+02  0.00000000000E+00 0. -1.
</event>
<event>
 8    1  0.2493819E-006  0.9118800E+02  0.7816164E-02  0.1184000E+00
        -11   -1    0    0    0    0  0.00000000000E+00  0.00000000000E+00  0.45593999997E+02  0.45594000000E+02  0.51100000000E-03 0.  1.
         11   -1    0    0    0    0 -0.00000000000E+00 -0.00000000000E+00 -0.45593999997E+02  0.45594000000E+02  0.51100000000E-03 0. -1.
         23    2    1    2    0    0 -0.17763568394E-14  0.00000000000E+00  0.00000000000E+00  0.91188000000E+02  0.91188000000E+02 0.  0.
    9900012    2    3    3    0    0 -0.15134092898E+02 -0.32793452174E+02 -0.71644668479E+01  0.54367070374E+02  0.39999968531E+02 0.  0.
         12    1    3    3    0    0  0.15134092898E+02  0.32793452174E+02  0.71644668479E+01  0.36820929626E+02  0.00000000000E+00 0. -1.
         11    1    4    4    0    0 -0.24775582249E+01  0.23292939845E+01 -0.10925802364E+02  0.11442773387E+02  0.51100000000E-03 0. -1.
        -11    1    4    4    0    0  0.42512576292E+01 -0.18700434594E+02  0.21752894712E+01  0.19300552582E+02  0.51100000000E-03 0.  1.
         12    1    4    4    0    0 -0.16907792303E+02 -0.16422311564E+02  0.15860460445E+01  0.23623744405E+02  0.00000000000E+00 0. -1.
</event>
<event>
 8    1  0.2493819E-006  0.9118800E+02  0.7816164E-02  0.1184000E+00
        -11   -1    0    0    0    0  0.00000000000E+00  0.00000000000E+00  0.45593999997E+02  0.45594000000E+02  0.51100000000E-03 0.  1.
         11   -1    0    0    0    0 -0.00000000000E+00 -0.00000000000E+00 -0.45593999997E+02  0.45594000000E+02  0.51100000000E-03 0. -1.
         23    2    1    2    0    0 -0.35527136788E-14  0.35527136788E-14  0.00000000000E+00  0.91188000000E+02  0.91188000000E+02 0.  0.
    9900012    2    3    3    0    0 -0.28517476958E+02  0.17492011938E+02  0.15380507685E+02  0.54367122901E+02  0.40000088277E+02 0.  0.
         12    1    3    3    0    0  0.28517476958E+02 -0.17492011938E+02 -0.15380507685E+02  0.36820877099E+02  0.00000000000E+00 0. -1.
         11    1    4    4    0    0 -0.38095288952E+02  0.11990063613E+02  0.72001545877E+01  0.40581459956E+02  0.51100000000E-03 0. -1.
        -11    1    4    4    0    0  0.19213810754E+01  0.10662511137E+01  0.11248734574E+01  0.24685901301E+01  0.51100000000E-03 0.  1.
         12    1    4    4    0    0  0.76564309184E+01  0.44356972106E+01  0.70554796400E+01  0.11317072815E+02  0.00000000000E+00 0. -1.
</event>
<event>
 8    1  0.2493819E-006  0.9118800E+02  0.7816164E-02  0.1184000E+00
        -11   -1    0    0    0    0  0.00000000000E+00  0.00000000000E+00  0.45593999997E+02  0.45594000000E+02  0.51100000000E-03 0. -1.
         11   -1    0    0    0    0 -0.00000000000E+00 -0.00000000000E+00 -0.45593999997E+02  0.45594000000E+02  0.51100000000E-03 0.  1.
         23    2    1    2    0    0  0.00000000000E+00  0.00000000000E+00  0.00000000000E+00  0.91188000000E+02  0.91188000000E+02 0.  0.
    9900012    2    3    3    0    0 -0.88562938580E+01  0.24172479614E+02 -0.26325623199E+02  0.54367066437E+02  0.39999959557E+02 0.  0.
         12    1    3    3    0    0  0.88562938580E+01 -0.24172479614E+02  0.26325623199E+02  0.36820933563E+02  0.00000000000E+00 0. -1.
         11    1    4    4    0    0 -0.29093040134E+01 -0.86155567143E+01 -0.37640341509E+01  0.98417387026E+01  0.51100000000E-03 0. -1.
        -11    1    4    4    0    0 -0.31803298246E+01  0.21211357768E+02 -0.24394071307E+02  0.32482409260E+02  0.51100000000E-03 0.  1.
         12    1    4    4    0    0 -0.27666600200E+01  0.11576678561E+02  0.18324822586E+01  0.12042918475E+02  0.00000000000E+00 0. -1.
</event>
<event>
 8    1  0.2493819E-006  0.9118800E+02  0.7816164E-02  0.1184000E+00
        -11   -1    0    0    0    0  0.00000000000E+00  0.00000000000E+00  0.45593999997E+02  0.45594000000E+02  0.51100000000E-03 0.  1.
         11   -1    0    0    0    0 -0.00000000000E+00 -0.00000000000E+00 -0.45593999997E+02  0.45594000000E+02  0.51100000000E-03 0. -1.
         23    2    1    2    0    0 -0.35527136788E-14 -0.35527136788E-14  0.00000000000E+00  0.91188000000E+02  0.91188000000E+02 0.  0.
    9900012    2    3    3    0    0 -0.31305035523E+02 -0.74463272398E+01  0.17897872061E+02  0.54366988841E+02  0.39999782660E+02 0.  0.
         12    1    3    3    0    0  0.31305035523E+02  0.74463272398E+01 -0.17897872061E+02  0.36821011159E+02  0.00000000000E+00 0. -1.
         11    1    4    4    0    0 -0.40225896480E+01  0.46537965659E+01 -0.20865435347E+01  0.64955919004E+01  0.51100000000E-03 0. -1.
        -11    1    4    4    0    0 -0.31123626594E+00  0.82676827596E+01 -0.60550323614E+00  0.82956663781E+01  0.51100000000E-03 0.  1.
         12    1    4    4    0    0 -0.26971209609E+02 -0.20367806565E+02  0.20589918832E+02  0.39575730563E+02  0.00000000000E+00 0. -1.
</event>
<event>
 8    1  0.2493819E-006  0.9118800E+02  0.7816164E-02  0.1184000E+00
        -11   -1    0    0    0    0  0.00000000000E+00  0.00000000000E+00  0.45593999997E+02  0.45594000000E+02  0.51100000000E-03 0. -1.
         11   -1    0    0    0    0 -0.00000000000E+00 -0.00000000000E+00 -0.45593999997E+02  0.45594000000E+02  0.51100000000E-03 0.  1.
         23    2    1    2    0    0 -0.35527136788E-14  0.00000000000E+00  0.88817841970E-15  0.91188000000E+02  0.91188000000E+02 0.  0.
    9900012    2    3    3    0    0 -0.21670877565E+02  0.28974778299E+02  0.68276189405E+01  0.54367067199E+02  0.39999961294E+02 0.  0.
        -12    1    3    3    0    0  0.21670877565E+02 -0.28974778299E+02 -0.68276189405E+01  0.36820932801E+02  0.00000000000E+00 0.  1.
         11    1    4    4    0    0 -0.13575952224E+02  0.51424215949E+01  0.10286837462E+02  0.17792414222E+02  0.51100000000E-03 0. -1.
        -11    1    4    4    0    0  0.30302395035E+01 -0.46031332527E+01  0.13242862776E+01  0.56678851080E+01  0.51100000000E-03 0.  1.
         12    1    4    4    0    0 -0.11125164845E+02  0.28435489957E+02 -0.47835047987E+01  0.30906767869E+02  0.00000000000E+00 0. -1.
</event>
<event>
 8    1  0.2493819E-006  0.9118800E+02  0.7816164E-02  0.1184000E+00
        -11   -1    0    0    0    0  0.00000000000E+00  0.00000000000E+00  0.45593999997E+02  0.45594000000E+02  0.51100000000E-03 0. -1.
         11   -1    0    0    0    0 -0.00000000000E+00 -0.00000000000E+00 -0.45593999997E+02  0.45594000000E+02  0.51100000000E-03 0.  1.
         23    2    1    2    0    0 -0.88817841970E-15  0.17763568394E-14  0.00000000000E+00  0.91188000000E+02  0.91188000000E+02 0.  0.
    9900012    2    3    3    0    0 -0.49278537394E+01  0.13820078760E+02  0.33771302520E+02  0.54367092987E+02  0.40000020081E+02 0.  0.
        -12    1    3    3    0    0  0.49278537394E+01 -0.13820078760E+02 -0.33771302520E+02  0.36820907013E+02  0.00000000000E+00 0.  1.
         11    1    4    4    0    0 -0.12645406415E+02  0.16691831522E+01  0.74707527372E+00  0.12776955722E+02  0.51100000000E-03 0.  1.
        -11    1    4    4    0    0 -0.19182424680E+00  0.15631438555E+02  0.26481241211E+02  0.30751175655E+02  0.51100000000E-03 0. -1.
         12    1    4    4    0    0  0.79093769223E+01 -0.34805429479E+01  0.65429860353E+01  0.10838961609E+02  0.00000000000E+00 0. -1.
</event>
<event>
 8    1  0.2493819E-006  0.9118800E+02  0.7816164E-02  0.1184000E+00
        -11   -1    0    0    0    0  0.00000000000E+00  0.00000000000E+00  0.45593999997E+02  0.45594000000E+02  0.51100000000E-03 0.  1.
         11   -1    0    0    0    0 -0.00000000000E+00 -0.00000000000E+00 -0.45593999997E+02  0.45594000000E+02  0.51100000000E-03 0. -1.
         23    2    1    2    0    0  0.13322676296E-14  0.71054273576E-14 -0.17763568394E-14  0.91188000000E+02  0.91188000000E+02 0.  0.
    9900012    2    3    3    0    0  0.36977364910E+01  0.33733276795E+02  0.14289003541E+02  0.54367043458E+02  0.39999907170E+02 0.  0.
         12    1    3    3    0    0 -0.36977364910E+01 -0.33733276795E+02 -0.14289003541E+02  0.36820956542E+02  0.00000000000E+00 0. -1.
         11    1    4    4    0    0  0.31713142839E+01  0.37779721199E+01 -0.39015176998E+01  0.62890498685E+01  0.51100000000E-03 0. -1.
        -11    1    4    4    0    0  0.15048950131E+02  0.24586264036E+02  0.96691525906E+01  0.30404733042E+02  0.51100000000E-03 0.  1.
        -12    1    4    4    0    0 -0.14522527924E+02  0.53690406394E+01  0.85213686498E+01  0.17673260547E+02  0.00000000000E+00 0.  1.
</event>
<event>
 8    1  0.2493819E-006  0.9118800E+02  0.7816164E-02  0.1184000E+00
        -11   -1    0    0    0    0  0.00000000000E+00  0.00000000000E+00  0.45593999997E+02  0.45594000000E+02  0.51100000000E-03 0. -1.
         11   -1    0    0    0    0 -0.00000000000E+00 -0.00000000000E+00 -0.45593999997E+02  0.45594000000E+02  0.51100000000E-03 0.  1.
         23    2    1    2    0    0  0.35527136788E-14  0.00000000000E+00 -0.35527136788E-14  0.91188000000E+02  0.91188000000E+02 0.  0.
    9900012    2    3    3    0    0  0.15807153529E+02  0.24530242908E+02 -0.22453973948E+02  0.54367083854E+02  0.39999999261E+02 0.  0.
         12    1    3    3    0    0 -0.15807153529E+02 -0.24530242908E+02  0.22453973948E+02  0.36820916146E+02  0.00000000000E+00 0. -1.
         11    1    4    4    0    0 -0.72340303604E+01  0.11999885897E+02  0.26017250624E+01  0.14251225573E+02  0.51100000000E-03 0. -1.
        -11    1    4    4    0    0  0.14527340703E+02  0.11741111254E+02 -0.66608074270E+01  0.19830876865E+02  0.51100000000E-03 0.  1.
         12    1    4    4    0    0  0.85138431857E+01  0.78924575717E+00 -0.18394891583E+02  0.20284981415E+02  0.00000000000E+00 0. -1.
</event>
<event>
 8    1  0.2493819E-006  0.9118800E+02  0.7816164E-02  0.1184000E+00
        -11   -1    0    0    0    0  0.00000000000E+00  0.00000000000E+00  0.45593999997E+02  0.45594000000E+02  0.51100000000E-03 0. -1.
         11   -1    0    0    0    0 -0.00000000000E+00 -0.00000000000E+00 -0.45593999997E+02  0.45594000000E+02  0.51100000000E-03 0.  1.
         23    2    1    2    0    0  0.17763568394E-14  0.00000000000E+00  0.00000000000E+00  0.91188000000E+02  0.91188000000E+02 0.  0.
    9900012    2    3    3    0    0  0.13198849879E+02  0.23569730010E+02  0.25020745979E+02  0.54367088275E+02  0.40000009341E+02 0.  0.
        -12    1    3    3    0    0 -0.13198849879E+02 -0.23569730010E+02 -0.25020745979E+02  0.36820911725E+02  0.00000000000E+00 0.  1.
         11    1    4    4    0    0  0.14886739217E+02  0.22433897826E+02  0.31811284188E+02  0.41675563321E+02  0.51100000000E-03 0. -1.
        -11    1    4    4    0    0  0.22347794949E+01  0.12448719490E+01  0.18797772237E+01  0.31745091325E+01  0.51100000000E-03 0.  1.
        -12    1    4    4    0    0 -0.39226688329E+01 -0.10903976489E+00 -0.86703154328E+01  0.95170158215E+01  0.00000000000E+00 0.  1.
</event>
<event>
 8    1  0.2493819E-006  0.9118800E+02  0.7816164E-02  0.1184000E+00
        -11   -1    0    0    0    0  0.00000000000E+00  0.00000000000E+00  0.45593999997E+02  0.45594000000E+02  0.51100000000E-03 0.  1.
         11   -1    0    0    0    0 -0.00000000000E+00 -0.00000000000E+00 -0.45593999997E+02  0.45594000000E+02  0.51100000000E-03 0. -1.
         23    2    1    2    0    0  0.35527136788E-14 -0.17763568394E-14  0.00000000000E+00  0.91188000000E+02  0.91188000000E+02 0.  0.
    9900012    2    3    3    0    0 -0.19723167160E+02  0.10371530116E+02  0.29312259102E+02  0.54367075332E+02  0.39999979834E+02 0.  0.
         12    1    3    3    0    0  0.19723167160E+02 -0.10371530116E+02 -0.29312259102E+02  0.36820924668E+02  0.00000000000E+00 0. -1.
         11    1    4    4    0    0  0.73944487219E-01  0.68017400739E+01  0.56016700835E+01  0.88118013939E+01  0.51100000000E-03 0. -1.
        -11    1    4    4    0    0 -0.35246574576E+01  0.81768991040E+01 -0.64375190436E+01  0.10987563008E+02  0.51100000000E-03 0.  1.
        -12    1    4    4    0    0 -0.16272454190E+02 -0.46071090614E+01  0.30148108062E+02  0.34567710930E+02  0.00000000000E+00 0.  1.
</event>
<event>
 8    1  0.2493819E-006  0.9118800E+02  0.7816164E-02  0.1184000E+00
        -11   -1    0    0    0    0  0.00000000000E+00  0.00000000000E+00  0.45593999997E+02  0.45594000000E+02  0.51100000000E-03 0. -1.
         11   -1    0    0    0    0 -0.00000000000E+00 -0.00000000000E+00 -0.45593999997E+02  0.45594000000E+02  0.51100000000E-03 0.  1.
         23    2    1    2    0    0  0.00000000000E+00 -0.71054273576E-14  0.00000000000E+00  0.91188000000E+02  0.91188000000E+02 0.  0.
    9900012    2    3    3    0    0 -0.11043676387E+02  0.34884892002E+02 -0.41061794041E+01  0.54367093066E+02  0.40000020263E+02 0.  0.
         12    1    3    3    0    0  0.11043676387E+02 -0.34884892002E+02  0.41061794041E+01  0.36820906934E+02  0.00000000000E+00 0. -1.
         11    1    4    4    0    0  0.76456687090E+01  0.43251446984E+00  0.68599954009E+01  0.10281189422E+02  0.51100000000E-03 0. -1.
        -11    1    4    4    0    0 -0.11686706738E+01  0.11114862162E+02 -0.98256985075E+01  0.14881206384E+02  0.51100000000E-03 0.  1.
        -12    1    4    4    0    0 -0.17520674422E+02  0.23337515370E+02 -0.11404762975E+01  0.29204697260E+02  0.00000000000E+00 0.  1.
</event>
<event>
 8    1  0.2493819E-006  0.9118800E+02  0.7816164E-02  0.1184000E+00
        -11   -1    0    0    0    0  0.00000000000E+00  0.00000000000E+00  0.45593999997E+02  0.45594000000E+02  0.51100000000E-03 0.  1.
         11   -1    0    0    0    0 -0.00000000000E+00 -0.00000000000E+00 -0.45593999997E+02  0.45594000000E+02  0.51100000000E-03 0. -1.
         23    2    1    2    0    0  0.35527136788E-14  0.00000000000E+00 -0.88817841970E-15  0.91188000000E+02  0.91188000000E+02 0.  0.
    9900012    2    3    3    0    0  0.29890468632E+02  0.20680043344E+02 -0.58886100860E+01  0.54367081536E+02  0.39999993979E+02 0.  0.
        -12    1    3    3    0    0 -0.29890468632E+02 -0.20680043344E+02  0.58886100860E+01  0.36820918464E+02  0.00000000000E+00 0.  1.
         11    1    4    4    0    0  0.98945883271E+01  0.31350291753E+01  0.17874017892E+01  0.10532145627E+02  0.51100000000E-03 0. -1.
        -11    1    4    4    0    0  0.13729347142E+02  0.27830862422E+02 -0.67222976884E+01  0.31752813459E+02  0.51100000000E-03 0.  1.
        -12    1    4    4    0    0  0.62665331633E+01 -0.10285848253E+02 -0.95371418681E+00  0.12082122451E+02  0.00000000000E+00 0.  1.
</event>
<event>
 8    1  0.2493819E-006  0.9118800E+02  0.7816164E-02  0.1184000E+00
        -11   -1    0    0    0    0  0.00000000000E+00  0.00000000000E+00  0.45593999997E+02  0.45594000000E+02  0.51100000000E-03 0.  1.
         11   -1    0    0    0    0 -0.00000000000E+00 -0.00000000000E+00 -0.45593999997E+02  0.45594000000E+02  0.51100000000E-03 0. -1.
         23    2    1    2    0    0  0.00000000000E+00  0.17763568394E-14  0.00000000000E+00  0.91188000000E+02  0.91188000000E+02 0.  0.
    9900012    2    3    3    0    0 -0.16250292869E+02 -0.61004611872E+01 -0.32472928911E+02  0.54367098910E+02  0.40000033584E+02 0.  0.
        -12    1    3    3    0    0  0.16250292869E+02  0.61004611872E+01  0.32472928911E+02  0.36820901090E+02  0.00000000000E+00 0.  1.
         11    1    4    4    0    0 -0.12005444249E+02  0.38921001784E+01 -0.30767449725E+02  0.33255301807E+02  0.51100000000E-03 0. -1.
        -11    1    4    4    0    0  0.63154187597E+01 -0.39020506821E+01  0.30508174657E+01  0.80260825504E+01  0.51100000000E-03 0.  1.
         12    1    4    4    0    0 -0.10560267379E+02 -0.60905106835E+01 -0.47562966524E+01  0.13085714553E+02  0.00000000000E+00 0. -1.
</event>
<event>
 8    1  0.2493819E-006  0.9118800E+02  0.7816164E-02  0.1184000E+00
        -11   -1    0    0    0    0  0.00000000000E+00  0.00000000000E+00  0.45593999997E+02  0.45594000000E+02  0.51100000000E-03 0.  1.
         11   -1    0    0    0    0 -0.00000000000E+00 -0.00000000000E+00 -0.45593999997E+02  0.45594000000E+02  0.51100000000E-03 0. -1.
         23    2    1    2    0    0  0.00000000000E+00  0.71054273576E-14  0.00000000000E+00  0.91188000000E+02  0.91188000000E+02 0.  0.
    9900012    2    3    3    0    0  0.13273960504E+02 -0.24630850545E+02 -0.23935383978E+02  0.54367089742E+02  0.40000012686E+02 0.  0.
        -12    1    3    3    0    0 -0.13273960504E+02  0.24630850545E+02  0.23935383978E+02  0.36820910258E+02  0.00000000000E+00 0.  1.
         11    1    4    4    0    0  0.10841694820E+02 -0.33869966185E+02 -0.17151311194E+02  0.39482710544E+02  0.51100000000E-03 0. -1.
        -11    1    4    4    0    0 -0.34370662289E+01  0.43762378998E+01 -0.21589181494E+01  0.59687360684E+01  0.51100000000E-03 0.  1.
         12    1    4    4    0    0  0.58693319134E+01  0.48628777408E+01 -0.46251546343E+01  0.89156431300E+01  0.00000000000E+00 0. -1.
</event>
<event>
 8    1  0.2493819E-006  0.9118800E+02  0.7816164E-02  0.1184000E+00
        -11   -1    0    0    0    0  0.00000000000E+00  0.00000000000E+00  0.45593999997E+02  0.45594000000E+02  0.51100000000E-03 0.  1.
         11   -1    0    0    0    0 -0.00000000000E+00 -0.00000000000E+00 -0.45593999997E+02  0.45594000000E+02  0.51100000000E-03 0. -1.
         23    2    1    2    0    0  0.00000000000E+00 -0.26090241079E-14 -0.35527136788E-14  0.91188000000E+02  0.91188000000E+02 0.  0.
    9900012    2    3    3    0    0 -0.30507572949E+02 -0.36181222739E+00 -0.20614016908E+02  0.54367073771E+02  0.39999976275E+02 0.  0.
        -12    1    3    3    0    0  0.30507572949E+02  0.36181222739E+00  0.20614016908E+02  0.36820926229E+02  0.00000000000E+00 0.  1.
         11    1    4    4    0    0 -0.20229305069E+02  0.78542995083E+01 -0.21503469343E+02  0.30550188189E+02  0.51100000000E-03 0. -1.
        -11    1    4    4    0    0  0.48139897724E+01  0.17515097311E+01  0.24198901541E+01  0.56655231432E+01  0.51100000000E-03 0.  1.
         12    1    4    4    0    0 -0.15092257652E+02 -0.99676214667E+01 -0.15304377190E+01  0.18151362438E+02  0.00000000000E+00 0. -1.
</event>
<event>
 8    1  0.2493819E-006  0.9118800E+02  0.7816164E-02  0.1184000E+00
        -11   -1    0    0    0    0  0.00000000000E+00  0.00000000000E+00  0.45593999997E+02  0.45594000000E+02  0.51100000000E-03 0. -1.
         11   -1    0    0    0    0 -0.00000000000E+00 -0.00000000000E+00 -0.45593999997E+02  0.45594000000E+02  0.51100000000E-03 0.  1.
         23    2    1    2    0    0  0.00000000000E+00  0.17763568394E-14  0.71054273576E-14  0.91188000000E+02  0.91188000000E+02 0.  0.
    9900012    2    3    3    0    0 -0.11232884988E+02 -0.76308516134E+01  0.34225306513E+02  0.54367092795E+02  0.40000019645E+02 0.  0.
        -12    1    3    3    0    0  0.11232884988E+02  0.76308516134E+01 -0.34225306513E+02  0.36820907205E+02  0.00000000000E+00 0.  1.
         11    1    4    4    0    0 -0.10749184504E+02  0.95194192155E+01  0.31405891615E+02  0.34532511321E+02  0.51100000000E-03 0. -1.
        -11    1    4    4    0    0 -0.21416257251E+01 -0.10519947783E+02  0.59974335455E+01  0.12297360347E+02  0.51100000000E-03 0.  1.
         12    1    4    4    0    0  0.16579252412E+01 -0.66303230456E+01 -0.31780186478E+01  0.75372211272E+01  0.00000000000E+00 0. -1.
</event>
<event>
 8    1  0.2493819E-006  0.9118800E+02  0.7816164E-02  0.1184000E+00
        -11   -1    0    0    0    0  0.00000000000E+00  0.00000000000E+00  0.45593999997E+02  0.45594000000E+02  0.51100000000E-03 0.  1.
         11   -1    0    0    0    0 -0.00000000000E+00 -0.00000000000E+00 -0.45593999997E+02  0.45594000000E+02  0.51100000000E-03 0. -1.
         23    2    1    2    0    0  0.00000000000E+00  0.00000000000E+00  0.00000000000E+00  0.91188000000E+02  0.91188000000E+02 0.  0.
    9900012    2    3    3    0    0 -0.21538689436E+01  0.22356404074E+02 -0.29177616754E+02  0.54367064733E+02  0.39999955671E+02 0.  0.
        -12    1    3    3    0    0  0.21538689436E+01 -0.22356404074E+02  0.29177616754E+02  0.36820935267E+02  0.00000000000E+00 0.  1.
         11    1    4    4    0    0  0.28920238090E+01  0.10493541936E+02 -0.16957746833E+02  0.20150518653E+02  0.51100000000E-03 0. -1.
        -11    1    4    4    0    0 -0.24056896277E+01  0.67355802921E+00 -0.20115338223E+02  0.20269875557E+02  0.51100000000E-03 0.  1.
        -12    1    4    4    0    0 -0.26402031249E+01  0.11189304109E+02  0.78954683019E+01  0.13946670523E+02  0.00000000000E+00 0.  1.
</event>
<event>
 8    1  0.2493819E-006  0.9118800E+02  0.7816164E-02  0.1184000E+00
        -11   -1    0    0    0    0  0.00000000000E+00  0.00000000000E+00  0.45593999997E+02  0.45594000000E+02  0.51100000000E-03 0.  1.
         11   -1    0    0    0    0 -0.00000000000E+00 -0.00000000000E+00 -0.45593999997E+02  0.45594000000E+02  0.51100000000E-03 0. -1.
         23    2    1    2    0    0 -0.17763568394E-14  0.00000000000E+00  0.00000000000E+00  0.91188000000E+02  0.91188000000E+02 0.  0.
    9900012    2    3    3    0    0 -0.13696335433E+02 -0.84823263129E+01 -0.33109531712E+02  0.54367074507E+02  0.39999977953E+02 0.  0.
        -12    1    3    3    0    0  0.13696335433E+02  0.84823263129E+01  0.33109531712E+02  0.36820925493E+02  0.00000000000E+00 0.  1.
         11    1    4    4    0    0 -0.10716503490E+00  0.18804168015E+01 -0.28668286590E+02  0.28730090636E+02  0.51100000000E-03 0. -1.
        -11    1    4    4    0    0 -0.17084035719E+02 -0.67048599604E+01 -0.73861730552E+01  0.19783199342E+02  0.51100000000E-03 0.  1.
        -12    1    4    4    0    0  0.34948653210E+01 -0.36578831540E+01  0.29449279329E+01  0.58537845288E+01  0.00000000000E+00 0.  1.
</event>
<event>
 8    1  0.2493819E-006  0.9118800E+02  0.7816164E-02  0.1184000E+00
        -11   -1    0    0    0    0  0.00000000000E+00  0.00000000000E+00  0.45593999997E+02  0.45594000000E+02  0.51100000000E-03 0.  1.
         11   -1    0    0    0    0 -0.00000000000E+00 -0.00000000000E+00 -0.45593999997E+02  0.45594000000E+02  0.51100000000E-03 0. -1.
         23    2    1    2    0    0 -0.71054273576E-14 -0.88817841970E-15  0.17763568394E-14  0.91188000000E+02  0.91188000000E+02 0.  0.
    9900012    2    3    3    0    0  0.32807771417E+02  0.57197150652E+01 -0.15707188396E+02  0.54367071534E+02  0.39999971176E+02 0.  0.
        -12    1    3    3    0    0 -0.32807771417E+02 -0.57197150652E+01  0.15707188396E+02  0.36820928466E+02  0.00000000000E+00 0.  1.
         11    1    4    4    0    0  0.35740659856E+02  0.37406191809E+01 -0.55035562241E+01  0.36354863914E+02  0.51100000000E-03 0.  1.
        -11    1    4    4    0    0  0.31606010468E+01 -0.38502789942E+01 -0.77798779461E+01  0.92379948273E+01  0.51100000000E-03 0. -1.
        -12    1    4    4    0    0 -0.60934894859E+01  0.58293748786E+01 -0.24237542256E+01  0.87742127929E+01  0.00000000000E+00 0.  1.
</event>
<event>
 8    1  0.2493819E-006  0.9118800E+02  0.7816164E-02  0.1184000E+00
        -11   -1    0    0    0    0  0.00000000000E+00  0.00000000000E+00  0.45593999997E+02  0.45594000000E+02  0.51100000000E-03 0.  1.
         11   -1    0    0    0    0 -0.00000000000E+00 -0.00000000000E+00 -0.45593999997E+02  0.45594000000E+02  0.51100000000E-03 0. -1.
         23    2    1    2    0    0 -0.35527136788E-14  0.35527136788E-14  0.88817841970E-15  0.91188000000E+02  0.91188000000E+02 0.  0.
    9900012    2    3    3    0    0  0.19608166196E+02  0.30156602823E+02  0.78663096962E+01  0.54367086057E+02  0.40000004283E+02 0.  0.
         12    1    3    3    0    0 -0.19608166196E+02 -0.30156602823E+02 -0.78663096962E+01  0.36820913943E+02  0.00000000000E+00 0. -1.
         11    1    4    4    0    0 -0.36128538653E+01 -0.38573596067E+00 -0.12370648960E+01  0.38382072770E+01  0.51100000000E-03 0. -1.
        -11    1    4    4    0    0  0.53056300443E+01  0.19646294076E+02  0.18544998773E+02  0.27532590885E+02  0.51100000000E-03 0.  1.
        -12    1    4    4    0    0  0.17915390017E+02  0.10896044708E+02 -0.94416241813E+01  0.22996287894E+02  0.00000000000E+00 0.  1.
</event>
<event>
 8    1  0.2493819E-006  0.9118800E+02  0.7816164E-02  0.1184000E+00
        -11   -1    0    0    0    0  0.00000000000E+00  0.00000000000E+00  0.45593999997E+02  0.45594000000E+02  0.51100000000E-03 0.  1.
         11   -1    0    0    0    0 -0.00000000000E+00 -0.00000000000E+00 -0.45593999997E+02  0.45594000000E+02  0.51100000000E-03 0. -1.
         23    2    1    2    0    0  0.71054273576E-14  0.00000000000E+00 -0.44408920985E-15  0.91188000000E+02  0.91188000000E+02 0.  0.
    9900012    2    3    3    0    0 -0.36558654743E+02 -0.41293621568E+01  0.14813012427E+01  0.54367066798E+02  0.39999960380E+02 0.  0.
         12    1    3    3    0    0  0.36558654743E+02  0.41293621568E+01 -0.14813012427E+01  0.36820933202E+02  0.00000000000E+00 0. -1.
         11    1    4    4    0    0 -0.49096138661E+01  0.97214676069E+01 -0.10022300019E+02  0.14800599268E+02  0.51100000000E-03 0. -1.
        -11    1    4    4    0    0 -0.11185834862E+02 -0.34841466990E+01  0.11795723067E+02  0.16625319928E+02  0.51100000000E-03 0.  1.
         12    1    4    4    0    0 -0.20463206016E+02 -0.10366683065E+02 -0.29212180518E+00  0.22941147603E+02  0.00000000000E+00 0. -1.
</event>
<event>
 8    1  0.2493819E-006  0.9118800E+02  0.7816164E-02  0.1184000E+00
        -11   -1    0    0    0    0  0.00000000000E+00  0.00000000000E+00  0.45593999997E+02  0.45594000000E+02  0.51100000000E-03 0. -1.
         11   -1    0    0    0    0 -0.00000000000E+00 -0.00000000000E+00 -0.45593999997E+02  0.45594000000E+02  0.51100000000E-03 0.  1.
         23    2    1    2    0    0  0.00000000000E+00 -0.17763568394E-14  0.00000000000E+00  0.91188000000E+02  0.91188000000E+02 0.  0.
    9900012    2    3    3    0    0 -0.17428232591E+02  0.15339043697E+02 -0.28578837569E+02  0.54367088692E+02  0.40000010290E+02 0.  0.
         12    1    3    3    0    0  0.17428232591E+02 -0.15339043697E+02  0.28578837569E+02  0.36820911308E+02  0.00000000000E+00 0. -1.
         11    1    4    4    0    0  0.12287050933E+01 -0.96907253974E+00 -0.37171182525E+01  0.40330864308E+01  0.51100000000E-03 0. -1.
        -11    1    4    4    0    0 -0.70118043314E+01  0.23139529875E+02 -0.27457455553E+02  0.36585722742E+02  0.51100000000E-03 0.  1.
        -12    1    4    4    0    0 -0.11645133353E+02 -0.68314136385E+01  0.25957362369E+01  0.13748279519E+02  0.00000000000E+00 0.  1.
</event>
<event>
 8    1  0.2493819E-006  0.9118800E+02  0.7816164E-02  0.1184000E+00
        -11   -1    0    0    0    0  0.00000000000E+00  0.00000000000E+00  0.45593999997E+02  0.45594000000E+02  0.51100000000E-03 0. -1.
         11   -1    0    0    0    0 -0.00000000000E+00 -0.00000000000E+00 -0.45593999997E+02  0.45594000000E+02  0.51100000000E-03 0.  1.
         23    2    1    2    0    0  0.35527136788E-14  0.88817841970E-15  0.35527136788E-14  0.91188000000E+02  0.91188000000E+02 0.  0.
    9900012    2    3    3    0    0 -0.17609965451E+02  0.75056888138E+01  0.31453678208E+02  0.54367080395E+02  0.39999991375E+02 0.  0.
        -12    1    3    3    0    0  0.17609965451E+02 -0.75056888138E+01 -0.31453678208E+02  0.36820919605E+02  0.00000000000E+00 0.  1.
         11    1    4    4    0    0  0.34655168506E+01  0.46123789877E+00  0.68046977032E+01  0.76502587234E+01  0.51100000000E-03 0. -1.
        -11    1    4    4    0    0  0.32351127603E+01 -0.61064491262E+01 -0.30794990100E+01  0.75655792849E+01  0.51100000000E-03 0.  1.
         12    1    4    4    0    0 -0.24310595062E+02  0.13150900041E+02  0.27728479515E+02  0.39151242386E+02  0.00000000000E+00 0. -1.
</event>
<event>
 8    1  0.2493819E-006  0.9118800E+02  0.7816164E-02  0.1184000E+00
        -11   -1    0    0    0    0  0.00000000000E+00  0.00000000000E+00  0.45593999997E+02  0.45594000000E+02  0.51100000000E-03 0. -1.
         11   -1    0    0    0    0 -0.00000000000E+00 -0.00000000000E+00 -0.45593999997E+02  0.45594000000E+02  0.51100000000E-03 0.  1.
         23    2    1    2    0    0  0.00000000000E+00  0.00000000000E+00 -0.44408920985E-15  0.91188000000E+02  0.91188000000E+02 0.  0.
    9900012    2    3    3    0    0 -0.10861578741E+02  0.35075244747E+02 -0.27454107609E+01  0.54367028163E+02  0.39999872302E+02 0.  0.
         12    1    3    3    0    0  0.10861578741E+02 -0.35075244747E+02  0.27454107609E+01  0.36820971837E+02  0.00000000000E+00 0. -1.
         11    1    4    4    0    0  0.31695562585E+01  0.53804570757E+01  0.11072611368E+02  0.12712125234E+02  0.51100000000E-03 0. -1.
        -11    1    4    4    0    0 -0.10644603069E+02  0.30908705930E+01 -0.92777961132E+01  0.14454707071E+02  0.51100000000E-03 0.  1.
        -12    1    4    4    0    0 -0.33865319305E+01  0.26603917078E+02 -0.45402260153E+01  0.27200195857E+02  0.00000000000E+00 0.  1.
</event>
<event>
 8    1  0.2493819E-006  0.9118800E+02  0.7816164E-02  0.1184000E+00
        -11   -1    0    0    0    0  0.00000000000E+00  0.00000000000E+00  0.45593999997E+02  0.45594000000E+02  0.51100000000E-03 0.  1.
         11   -1    0    0    0    0 -0.00000000000E+00 -0.00000000000E+00 -0.45593999997E+02  0.45594000000E+02  0.51100000000E-03 0. -1.
         23    2    1    2    0    0  0.00000000000E+00  0.00000000000E+00 -0.66613381478E-15  0.91188000000E+02  0.91188000000E+02 0.  0.
    9900012    2    3    3    0    0 -0.69341156082E+01 -0.36122122571E+02 -0.16990761319E+01  0.54367128771E+02  0.40000101660E+02 0.  0.
         12    1    3    3    0    0  0.69341156082E+01  0.36122122571E+02  0.16990761319E+01  0.36820871229E+02  0.00000000000E+00 0. -1.
         11    1    4    4    0    0 -0.51271406193E+01 -0.65705163468E+01 -0.95875957997E+01  0.12703591991E+02  0.51100000000E-03 0. -1.
        -11    1    4    4    0    0  0.44945959771E+01  0.40596914677E+01  0.39724525600E+01  0.72431255279E+01  0.51100000000E-03 0.  1.
        -12    1    4    4    0    0 -0.63015709660E+01 -0.33611297692E+02  0.39160671078E+01  0.34420411253E+02  0.00000000000E+00 0.  1.
</event>
<event>
 8    1  0.2493819E-006  0.9118800E+02  0.7816164E-02  0.1184000E+00
        -11   -1    0    0    0    0  0.00000000000E+00  0.00000000000E+00  0.45593999997E+02  0.45594000000E+02  0.51100000000E-03 0.  1.
         11   -1    0    0    0    0 -0.00000000000E+00 -0.00000000000E+00 -0.45593999997E+02  0.45594000000E+02  0.51100000000E-03 0. -1.
         23    2    1    2    0    0 -0.35527136788E-14  0.00000000000E+00  0.22204460493E-15  0.91188000000E+02  0.91188000000E+02 0.  0.
    9900012    2    3    3    0    0 -0.25587648317E+02  0.26442244632E+02  0.13643129667E+01  0.54367063056E+02  0.39999951849E+02 0.  0.
         12    1    3    3    0    0  0.25587648317E+02 -0.26442244632E+02 -0.13643129667E+01  0.36820936944E+02  0.00000000000E+00 0. -1.
         11    1    4    4    0    0 -0.92294100739E+00  0.51679878826E+01 -0.98648190050E+01  0.11174729219E+02  0.51100000000E-03 0. -1.
        -11    1    4    4    0    0 -0.20291593723E+02  0.31959705801E+01 -0.15896939956E+01  0.20603158278E+02  0.51100000000E-03 0.  1.
        -12    1    4    4    0    0 -0.43731135865E+01  0.18078286170E+02  0.12818825967E+02  0.22589175559E+02  0.00000000000E+00 0.  1.
</event>
<event>
 8    1  0.2493819E-006  0.9118800E+02  0.7816164E-02  0.1184000E+00
        -11   -1    0    0    0    0  0.00000000000E+00  0.00000000000E+00  0.45593999997E+02  0.45594000000E+02  0.51100000000E-03 0.  1.
         11   -1    0    0    0    0 -0.00000000000E+00 -0.00000000000E+00 -0.45593999997E+02  0.45594000000E+02  0.51100000000E-03 0. -1.
         23    2    1    2    0    0  0.00000000000E+00 -0.17763568394E-14 -0.17763568394E-14  0.91188000000E+02  0.91188000000E+02 0.  0.
    9900012    2    3    3    0    0  0.35104134499E+02 -0.91619050798E+01 -0.62880069138E+01  0.54367084822E+02  0.40000001468E+02 0.  0.
        -12    1    3    3    0    0 -0.35104134499E+02  0.91619050798E+01  0.62880069138E+01  0.36820915178E+02  0.00000000000E+00 0.  1.
         11    1    4    4    0    0  0.16055765135E+02 -0.66064639902E+01 -0.60611055684E+01  0.18389398074E+02  0.51100000000E-03 0. -1.
        -11    1    4    4    0    0  0.22195527799E+02  0.30232200732E+01  0.94996665094E+01  0.24331563409E+02  0.51100000000E-03 0.  1.
        -12    1    4    4    0    0 -0.31471584353E+01 -0.55786611628E+01 -0.97265678548E+01  0.11646123339E+02  0.00000000000E+00 0.  1.
</event>
<event>
 8    1  0.2493819E-006  0.9118800E+02  0.7816164E-02  0.1184000E+00
        -11   -1    0    0    0    0  0.00000000000E+00  0.00000000000E+00  0.45593999997E+02  0.45594000000E+02  0.51100000000E-03 0. -1.
         11   -1    0    0    0    0 -0.00000000000E+00 -0.00000000000E+00 -0.45593999997E+02  0.45594000000E+02  0.51100000000E-03 0.  1.
         23    2    1    2    0    0  0.22204460493E-15  0.00000000000E+00  0.00000000000E+00  0.91188000000E+02  0.91188000000E+02 0.  0.
    9900012    2    3    3    0    0  0.12281326414E+01 -0.20278519760E+02 -0.30709207884E+02  0.54367053213E+02  0.39999929410E+02 0.  0.
         12    1    3    3    0    0 -0.12281326414E+01  0.20278519760E+02  0.30709207884E+02  0.36820946787E+02  0.00000000000E+00 0. -1.
         11    1    4    4    0    0  0.24371975118E+01 -0.25450436959E+02 -0.21256935640E+02  0.33249390764E+02  0.51100000000E-03 0. -1.
        -11    1    4    4    0    0  0.35055889454E+01  0.66514960900E+01 -0.13011662138E+02  0.15027804428E+02  0.51100000000E-03 0.  1.
         12    1    4    4    0    0 -0.47146538158E+01 -0.14795788908E+01  0.35593898940E+01  0.60898580209E+01  0.00000000000E+00 0. -1.
</event>
<event>
 8    1  0.2493819E-006  0.9118800E+02  0.7816164E-02  0.1184000E+00
        -11   -1    0    0    0    0  0.00000000000E+00  0.00000000000E+00  0.45593999997E+02  0.45594000000E+02  0.51100000000E-03 0. -1.
         11   -1    0    0    0    0 -0.00000000000E+00 -0.00000000000E+00 -0.45593999997E+02  0.45594000000E+02  0.51100000000E-03 0.  1.
         23    2    1    2    0    0  0.00000000000E+00  0.00000000000E+00  0.00000000000E+00  0.91188000000E+02  0.91188000000E+02 0.  0.
    9900012    2    3    3    0    0  0.56560486264E+01  0.12891668607E+02  0.34023428898E+02  0.54367085841E+02  0.40000003791E+02 0.  0.
        -12    1    3    3    0    0 -0.56560486264E+01 -0.12891668607E+02 -0.34023428898E+02  0.36820914159E+02  0.00000000000E+00 0.  1.
         11    1    4    4    0    0  0.10013422015E+02  0.75659496809E+01  0.74961662986E+01  0.14618643045E+02  0.51100000000E-03 0. -1.
        -11    1    4    4    0    0 -0.55875713048E+01  0.16710026758E+02  0.19644517108E+02  0.26388501283E+02  0.51100000000E-03 0.  1.
        -12    1    4    4    0    0  0.12301979161E+01 -0.11384307831E+02  0.68827454921E+01  0.13359941513E+02  0.00000000000E+00 0.  1.
</event>
<event>
 8    1  0.2493819E-006  0.9118800E+02  0.7816164E-02  0.1184000E+00
        -11   -1    0    0    0    0  0.00000000000E+00  0.00000000000E+00  0.45593999997E+02  0.45594000000E+02  0.51100000000E-03 0.  1.
         11   -1    0    0    0    0 -0.00000000000E+00 -0.00000000000E+00 -0.45593999997E+02  0.45594000000E+02  0.51100000000E-03 0. -1.
         23    2    1    2    0    0  0.35527136788E-14  0.00000000000E+00  0.17763568394E-14  0.91188000000E+02  0.91188000000E+02 0.  0.
    9900012    2    3    3    0    0  0.21929224774E+02 -0.29085972923E+02 -0.53753965200E+01  0.54367087358E+02  0.40000007249E+02 0.  0.
        -12    1    3    3    0    0 -0.21929224774E+02  0.29085972923E+02  0.53753965200E+01  0.36820912642E+02  0.00000000000E+00 0.  1.
         11    1    4    4    0    0 -0.21942140623E+00 -0.10523135019E+02 -0.39864353597E+01  0.11255051467E+02  0.51100000000E-03 0. -1.
        -11    1    4    4    0    0 -0.54544650081E+01 -0.35694476133E+00  0.71124592379E+01  0.89702661476E+01  0.51100000000E-03 0.  1.
         12    1    4    4    0    0  0.27603111188E+02 -0.18205893143E+02 -0.85014203983E+01  0.34141769743E+02  0.00000000000E+00 0. -1.
</event>
<event>
 8    1  0.2493819E-006  0.9118800E+02  0.7816164E-02  0.1184000E+00
        -11   -1    0    0    0    0  0.00000000000E+00  0.00000000000E+00  0.45593999997E+02  0.45594000000E+02  0.51100000000E-03 0. -1.
         11   -1    0    0    0    0 -0.00000000000E+00 -0.00000000000E+00 -0.45593999997E+02  0.45594000000E+02  0.51100000000E-03 0.  1.
         23    2    1    2    0    0  0.00000000000E+00  0.00000000000E+00  0.35527136788E-14  0.91188000000E+02  0.91188000000E+02 0.  0.
    9900012    2    3    3    0    0  0.28255461750E+02  0.15566221172E+01 -0.23558144122E+02  0.54367077339E+02  0.39999984411E+02 0.  0.
         12    1    3    3    0    0 -0.28255461750E+02 -0.15566221172E+01  0.23558144122E+02  0.36820922661E+02  0.00000000000E+00 0. -1.
         11    1    4    4    0    0  0.13731022136E+02  0.17199806064E+02 -0.16635241414E+02  0.27588141560E+02  0.51100000000E-03 0. -1.
        -11    1    4    4    0    0  0.13621932976E+02 -0.16331852924E+02 -0.99987721881E+01  0.23500253689E+02  0.51100000000E-03 0.  1.
         12    1    4    4    0    0  0.90250663764E+00  0.68866897682E+00  0.30758694804E+01  0.32786820906E+01  0.00000000000E+00 0. -1.
</event>
<event>
 8    1  0.2493819E-006  0.9118800E+02  0.7816164E-02  0.1184000E+00
        -11   -1    0    0    0    0  0.00000000000E+00  0.00000000000E+00  0.45593999997E+02  0.45594000000E+02  0.51100000000E-03 0.  1.
         11   -1    0    0    0    0 -0.00000000000E+00 -0.00000000000E+00 -0.45593999997E+02  0.45594000000E+02  0.51100000000E-03 0. -1.
         23    2    1    2    0    0 -0.88817841970E-15 -0.35527136788E-14  0.00000000000E+00  0.91188000000E+02  0.91188000000E+02 0.  0.
    9900012    2    3    3    0    0 -0.60156972682E+01 -0.30027797142E+02  0.20443197140E+02  0.54367061336E+02  0.39999947927E+02 0.  0.
         12    1    3    3    0    0  0.60156972682E+01  0.30027797142E+02 -0.20443197140E+02  0.36820938664E+02  0.00000000000E+00 0. -1.
         11    1    4    4    0    0  0.28947993955E+01 -0.99863202365E+01 -0.44288836799E+01  0.11301392229E+02  0.51100000000E-03 0. -1.
        -11    1    4    4    0    0  0.81638384172E+00 -0.19376071181E+02  0.26846172858E+02  0.33118206690E+02  0.51100000000E-03 0.  1.
        -12    1    4    4    0    0 -0.97268805054E+01 -0.66540572475E+00 -0.19740920390E+01  0.99474624163E+01  0.00000000000E+00 0.  1.
</event>
<event>
 8    1  0.2493819E-006  0.9118800E+02  0.7816164E-02  0.1184000E+00
        -11   -1    0    0    0    0  0.00000000000E+00  0.00000000000E+00  0.45593999997E+02  0.45594000000E+02  0.51100000000E-03 0.  1.
         11   -1    0    0    0    0 -0.00000000000E+00 -0.00000000000E+00 -0.45593999997E+02  0.45594000000E+02  0.51100000000E-03 0. -1.
         23    2    1    2    0    0  0.00000000000E+00  0.17763568394E-14  0.35527136788E-14  0.91188000000E+02  0.91188000000E+02 0.  0.
    9900012    2    3    3    0    0 -0.13536781342E+02 -0.14324660190E+02  0.31102083254E+02  0.54367083099E+02  0.39999997542E+02 0.  0.
         12    1    3    3    0    0  0.13536781342E+02  0.14324660190E+02 -0.31102083254E+02  0.36820916901E+02  0.00000000000E+00 0. -1.
         11    1    4    4    0    0 -0.93944900536E+00 -0.12772489287E+02  0.54320268458E+01  0.13911360931E+02  0.51100000000E-03 0. -1.
        -11    1    4    4    0    0 -0.47511984862E+01  0.13368183148E+02  0.14151715956E+02  0.20038794188E+02  0.51100000000E-03 0.  1.
        -12    1    4    4    0    0 -0.78461338505E+01 -0.14920354051E+02  0.11518340452E+02  0.20416927981E+02  0.00000000000E+00 0.  1.
</event>
<event>
 8    1  0.2493819E-006  0.9118800E+02  0.7816164E-02  0.1184000E+00
        -11   -1    0    0    0    0  0.00000000000E+00  0.00000000000E+00  0.45593999997E+02  0.45594000000E+02  0.51100000000E-03 0. -1.
         11   -1    0    0    0    0 -0.00000000000E+00 -0.00000000000E+00 -0.45593999997E+02  0.45594000000E+02  0.51100000000E-03 0.  1.
         23    2    1    2    0    0  0.00000000000E+00  0.71054273576E-14  0.44408920985E-15  0.91188000000E+02  0.91188000000E+02 0.  0.
    9900012    2    3    3    0    0  0.12555878989E+02 -0.34612971642E+02  0.27134434898E+00  0.54367061244E+02  0.39999947719E+02 0.  0.
         12    1    3    3    0    0 -0.12555878989E+02  0.34612971642E+02 -0.27134434898E+00  0.36820938756E+02  0.00000000000E+00 0. -1.
         11    1    4    4    0    0  0.13878149007E+02 -0.21291843595E+01  0.12364083090E+01  0.14094862598E+02  0.51100000000E-03 0. -1.
        -11    1    4    4    0    0  0.93735654915E+01 -0.71851251074E+01 -0.43744037598E+01  0.12594648123E+02  0.51100000000E-03 0.  1.
        -12    1    4    4    0    0 -0.10695835509E+02 -0.25298662175E+02  0.34093397998E+01  0.27677550523E+02  0.00000000000E+00 0.  1.
</event>
<event>
 8    1  0.2493819E-006  0.9118800E+02  0.7816164E-02  0.1184000E+00
        -11   -1    0    0    0    0  0.00000000000E+00  0.00000000000E+00  0.45593999997E+02  0.45594000000E+02  0.51100000000E-03 0.  1.
         11   -1    0    0    0    0 -0.00000000000E+00 -0.00000000000E+00 -0.45593999997E+02  0.45594000000E+02  0.51100000000E-03 0. -1.
         23    2    1    2    0    0  0.00000000000E+00  0.00000000000E+00 -0.17763568394E-14  0.91188000000E+02  0.91188000000E+02 0.  0.
    9900012    2    3    3    0    0  0.33101596259E+02  0.65873314852E+01 -0.14719766562E+02  0.54367080149E+02  0.39999990816E+02 0.  0.
        -12    1    3    3    0    0 -0.33101596259E+02 -0.65873314852E+01  0.14719766562E+02  0.36820919851E+02  0.00000000000E+00 0.  1.
         11    1    4    4    0    0 -0.59146157155E+01 -0.14228324140E+01  0.18984867367E+01  0.63727061199E+01  0.51100000000E-03 0. -1.
        -11    1    4    4    0    0  0.22001793116E+02 -0.53854111506E+01 -0.42187323830E+01  0.23040817189E+02  0.51100000000E-03 0.  1.
         12    1    4    4    0    0  0.17014418859E+02  0.13395575050E+02 -0.12399520916E+02  0.24953556840E+02  0.00000000000E+00 0. -1.
</event>
<event>
 8    1  0.2493819E-006  0.9118800E+02  0.7816164E-02  0.1184000E+00
        -11   -1    0    0    0    0  0.00000000000E+00  0.00000000000E+00  0.45593999997E+02  0.45594000000E+02  0.51100000000E-03 0.  1.
         11   -1    0    0    0    0 -0.00000000000E+00 -0.00000000000E+00 -0.45593999997E+02  0.45594000000E+02  0.51100000000E-03 0. -1.
         23    2    1    2    0    0 -0.35527136788E-14  0.44408920985E-15  0.00000000000E+00  0.91188000000E+02  0.91188000000E+02 0.  0.
    9900012    2    3    3    0    0  0.24881252106E+02 -0.22172860970E+01  0.27051557950E+02  0.54367084048E+02  0.39999999704E+02 0.  0.
         12    1    3    3    0    0 -0.24881252106E+02  0.22172860970E+01 -0.27051557950E+02  0.36820915952E+02  0.00000000000E+00 0. -1.
         11    1    4    4    0    0  0.75091033535E+01 -0.35530716164E+01  0.96875725709E+00  0.83635782993E+01  0.51100000000E-03 0. -1.
        -11    1    4    4    0    0  0.14300664490E+01 -0.92641371278E+01 -0.41240277189E+01  0.10240943885E+02  0.51100000000E-03 0.  1.
         12    1    4    4    0    0  0.15942082304E+02  0.10599922647E+02  0.30206828412E+02  0.35762561863E+02  0.00000000000E+00 0. -1.
</event>
<event>
 8    1  0.2493819E-006  0.9118800E+02  0.7816164E-02  0.1184000E+00
        -11   -1    0    0    0    0  0.00000000000E+00  0.00000000000E+00  0.45593999997E+02  0.45594000000E+02  0.51100000000E-03 0.  1.
         11   -1    0    0    0    0 -0.00000000000E+00 -0.00000000000E+00 -0.45593999997E+02  0.45594000000E+02  0.51100000000E-03 0. -1.
         23    2    1    2    0    0 -0.71054273576E-14  0.00000000000E+00 -0.17763568394E-14  0.91188000000E+02  0.91188000000E+02 0.  0.
    9900012    2    3    3    0    0  0.30869234484E+02  0.19028256798E+02 -0.63871164749E+01  0.54367089483E+02  0.40000012095E+02 0.  0.
        -12    1    3    3    0    0 -0.30869234484E+02 -0.19028256798E+02  0.63871164749E+01  0.36820910517E+02  0.00000000000E+00 0.  1.
         11    1    4    4    0    0  0.21743445032E+02  0.18268441618E+01 -0.75054120276E+01  0.23074790821E+02  0.51100000000E-03 0. -1.
        -11    1    4    4    0    0  0.12580885762E+02  0.61020918680E+01 -0.83617958523E+01  0.16292140494E+02  0.51100000000E-03 0.  1.
        -12    1    4    4    0    0 -0.34550963109E+01  0.11099320768E+02  0.94800914050E+01  0.15000158169E+02  0.00000000000E+00 0.  1.
</event>
<event>
 8    1  0.2493819E-006  0.9118800E+02  0.7816164E-02  0.1184000E+00
        -11   -1    0    0    0    0  0.00000000000E+00  0.00000000000E+00  0.45593999997E+02  0.45594000000E+02  0.51100000000E-03 0.  1.
         11   -1    0    0    0    0 -0.00000000000E+00 -0.00000000000E+00 -0.45593999997E+02  0.45594000000E+02  0.51100000000E-03 0. -1.
         23    2    1    2    0    0  0.14988010832E-14  0.00000000000E+00  0.00000000000E+00  0.91188000000E+02  0.91188000000E+02 0.  0.
    9900012    2    3    3    0    0  0.38240609988E+00 -0.16922088700E+02  0.32699676334E+02  0.54367188593E+02  0.40000238034E+02 0.  0.
         12    1    3    3    0    0 -0.38240609988E+00  0.16922088700E+02 -0.32699676334E+02  0.36820811407E+02  0.00000000000E+00 0. -1.
         11    1    4    4    0    0 -0.13676842431E+02 -0.18051125956E+02  0.49678344621E+01  0.23185740157E+02  0.51100000000E-03 0. -1.
        -11    1    4    4    0    0  0.38031382770E+01  0.69366931222E+00  0.95335357221E+01  0.10287533305E+02  0.51100000000E-03 0.  1.
         12    1    4    4    0    0  0.10256110253E+02  0.43536794399E+00  0.18198306149E+02  0.20893915131E+02  0.00000000000E+00 0. -1.
</event>
<event>
 8    1  0.2493819E-006  0.9118800E+02  0.7816164E-02  0.1184000E+00
        -11   -1    0    0    0    0  0.00000000000E+00  0.00000000000E+00  0.45593999997E+02  0.45594000000E+02  0.51100000000E-03 0.  1.
         11   -1    0    0    0    0 -0.00000000000E+00 -0.00000000000E+00 -0.45593999997E+02  0.45594000000E+02  0.51100000000E-03 0. -1.
         23    2    1    2    0    0  0.00000000000E+00  0.00000000000E+00  0.88817841970E-15  0.91188000000E+02  0.91188000000E+02 0.  0.
    9900012    2    3    3    0    0  0.35368399553E+02 -0.97575296793E+01 -0.31057978625E+01  0.54367094896E+02  0.40000024433E+02 0.  0.
        -12    1    3    3    0    0 -0.35368399553E+02  0.97575296793E+01  0.31057978625E+01  0.36820905104E+02  0.00000000000E+00 0.  1.
         11    1    4    4    0    0  0.94377683139E+01 -0.75515650482E+01  0.69277679164E+01  0.13931675204E+02  0.51100000000E-03 0. -1.
        -11    1    4    4    0    0  0.52632035693E+01 -0.12133293784E+02  0.36686129851E+01  0.13725044676E+02  0.51100000000E-03 0.  1.
        -12    1    4    4    0    0  0.20667427669E+02  0.99273291533E+01 -0.13702178764E+02  0.26710375015E+02  0.00000000000E+00 0.  1.
</event>
<event>
 8    1  0.2493819E-006  0.9118800E+02  0.7816164E-02  0.1184000E+00
        -11   -1    0    0    0    0  0.00000000000E+00  0.00000000000E+00  0.45593999997E+02  0.45594000000E+02  0.51100000000E-03 0. -1.
         11   -1    0    0    0    0 -0.00000000000E+00 -0.00000000000E+00 -0.45593999997E+02  0.45594000000E+02  0.51100000000E-03 0.  1.
         23    2    1    2    0    0  0.17763568394E-14 -0.71054273576E-14  0.00000000000E+00  0.91188000000E+02  0.91188000000E+02 0.  0.
    9900012    2    3    3    0    0 -0.93181491299E+01  0.25972754187E+02  0.24379664329E+02  0.54367083443E+02  0.39999998326E+02 0.  0.
        -12    1    3    3    0    0  0.93181491299E+01 -0.25972754187E+02 -0.24379664329E+02  0.36820916557E+02  0.00000000000E+00 0.  1.
         11    1    4    4    0    0 -0.12988960395E+02  0.32784605582E+02  0.17063557842E+02  0.39175355286E+02  0.51100000000E-03 0. -1.
        -11    1    4    4    0    0 -0.31043713712E+01  0.32640910591E+00  0.33558677621E+01  0.45831771963E+01  0.51100000000E-03 0.  1.
        -12    1    4    4    0    0  0.67751826363E+01 -0.71382605007E+01  0.39602387249E+01  0.10608550961E+02  0.00000000000E+00 0.  1.
</event>
<event>
 8    1  0.2493819E-006  0.9118800E+02  0.7816164E-02  0.1184000E+00
        -11   -1    0    0    0    0  0.00000000000E+00  0.00000000000E+00  0.45593999997E+02  0.45594000000E+02  0.51100000000E-03 0.  1.
         11   -1    0    0    0    0 -0.00000000000E+00 -0.00000000000E+00 -0.45593999997E+02  0.45594000000E+02  0.51100000000E-03 0. -1.
         23    2    1    2    0    0 -0.17763568394E-14  0.44408920985E-15  0.00000000000E+00  0.91188000000E+02  0.91188000000E+02 0.  0.
    9900012    2    3    3    0    0 -0.96981593605E+01 -0.30078735414E+01  0.35393191610E+02  0.54367087321E+02  0.40000007165E+02 0.  0.
         12    1    3    3    0    0  0.96981593605E+01  0.30078735414E+01 -0.35393191610E+02  0.36820912679E+02  0.00000000000E+00 0. -1.
         11    1    4    4    0    0  0.49061827339E+01  0.35326505168E+01  0.20286913304E+02  0.21168587585E+02  0.51100000000E-03 0.  1.
        -11    1    4    4    0    0  0.14781281509E+01  0.77290317249E+01  0.57735063518E+01  0.97599267462E+01  0.51100000000E-03 0. -1.
         12    1    4    4    0    0 -0.16082470245E+02 -0.14269555783E+02  0.93327719538E+01  0.23438572989E+02  0.00000000000E+00 0. -1.
</event>
<event>
 8    1  0.2493819E-006  0.9118800E+02  0.7816164E-02  0.1184000E+00
        -11   -1    0    0    0    0  0.00000000000E+00  0.00000000000E+00  0.45593999997E+02  0.45594000000E+02  0.51100000000E-03 0. -1.
         11   -1    0    0    0    0 -0.00000000000E+00 -0.00000000000E+00 -0.45593999997E+02  0.45594000000E+02  0.51100000000E-03 0.  1.
         23    2    1    2    0    0 -0.13322676296E-14  0.71054273576E-14  0.88817841970E-15  0.91188000000E+02  0.91188000000E+02 0.  0.
    9900012    2    3    3    0    0 -0.33857525943E+01 -0.35950466910E+02 -0.72028433598E+01  0.54367077359E+02  0.39999984455E+02 0.  0.
         12    1    3    3    0    0  0.33857525943E+01  0.35950466910E+02  0.72028433598E+01  0.36820922641E+02  0.00000000000E+00 0. -1.
         11    1    4    4    0    0  0.89847121518E+01 -0.37152936195E+02  0.26137446168E+01  0.38313148938E+02  0.51100000000E-03 0. -1.
        -11    1    4    4    0    0 -0.32907791679E+01  0.71430371567E+00 -0.13444140289E+01  0.36258663340E+01  0.51100000000E-03 0.  1.
         12    1    4    4    0    0 -0.90796855782E+01  0.48816556961E+00 -0.84721739476E+01  0.12428062086E+02  0.00000000000E+00 0. -1.
</event>
<event>
 8    1  0.2493819E-006  0.9118800E+02  0.7816164E-02  0.1184000E+00
        -11   -1    0    0    0    0  0.00000000000E+00  0.00000000000E+00  0.45593999997E+02  0.45594000000E+02  0.51100000000E-03 0.  1.
         11   -1    0    0    0    0 -0.00000000000E+00 -0.00000000000E+00 -0.45593999997E+02  0.45594000000E+02  0.51100000000E-03 0. -1.
         23    2    1    2    0    0  0.88817841970E-15  0.44408920985E-15  0.00000000000E+00  0.91188000000E+02  0.91188000000E+02 0.  0.
    9900012    2    3    3    0    0 -0.47689914808E+01  0.51178405750E+00 -0.36507193916E+02  0.54367076461E+02  0.39999982408E+02 0.  0.
        -12    1    3    3    0    0  0.47689914808E+01 -0.51178405750E+00  0.36507193916E+02  0.36820923539E+02  0.00000000000E+00 0.  1.
         11    1    4    4    0    0 -0.48462181662E+01  0.10775789148E+02 -0.14621787155E+02  0.18798939389E+02  0.51100000000E-03 0.  1.
        -11    1    4    4    0    0  0.12538346708E+02 -0.43891508044E+01 -0.15410171456E+02  0.20345716195E+02  0.51100000000E-03 0. -1.
         12    1    4    4    0    0 -0.12461120023E+02 -0.58748542858E+01 -0.64752353049E+01  0.15222420877E+02  0.00000000000E+00 0. -1.
</event>
<event>
 8    1  0.2493819E-006  0.9118800E+02  0.7816164E-02  0.1184000E+00
        -11   -1    0    0    0    0  0.00000000000E+00  0.00000000000E+00  0.45593999997E+02  0.45594000000E+02  0.51100000000E-03 0. -1.
         11   -1    0    0    0    0 -0.00000000000E+00 -0.00000000000E+00 -0.45593999997E+02  0.45594000000E+02  0.51100000000E-03 0.  1.
         23    2    1    2    0    0  0.88817841970E-15  0.35527136788E-14  0.00000000000E+00  0.91188000000E+02  0.91188000000E+02 0.  0.
    9900012    2    3    3    0    0 -0.56679696065E+01 -0.16699725007E+02  0.32322958782E+02  0.54367077155E+02  0.39999983990E+02 0.  0.
        -12    1    3    3    0    0  0.56679696065E+01  0.16699725007E+02 -0.32322958782E+02  0.36820922845E+02  0.00000000000E+00 0.  1.
         11    1    4    4    0    0  0.77295844313E+01 -0.17315558343E+02  0.20607999419E+02  0.28004725967E+02  0.51100000000E-03 0. -1.
        -11    1    4    4    0    0  0.48411760378E+01 -0.17965914370E+01  0.18381215075E+01  0.54811875682E+01  0.51100000000E-03 0.  1.
        -12    1    4    4    0    0 -0.18238730076E+02  0.24124247736E+01  0.98768378559E+01  0.20881163619E+02  0.00000000000E+00 0.  1.
</event>
<event>
 8    1  0.2493819E-006  0.9118800E+02  0.7816164E-02  0.1184000E+00
        -11   -1    0    0    0    0  0.00000000000E+00  0.00000000000E+00  0.45593999997E+02  0.45594000000E+02  0.51100000000E-03 0.  1.
         11   -1    0    0    0    0 -0.00000000000E+00 -0.00000000000E+00 -0.45593999997E+02  0.45594000000E+02  0.51100000000E-03 0. -1.
         23    2    1    2    0    0 -0.71054273576E-14  0.00000000000E+00  0.00000000000E+00  0.91188000000E+02  0.91188000000E+02 0.  0.
    9900012    2    3    3    0    0 -0.33020018759E+02 -0.82887922131E+01 -0.14026899289E+02  0.54367087207E+02  0.40000006907E+02 0.  0.
        -12    1    3    3    0    0  0.33020018759E+02  0.82887922131E+01  0.14026899289E+02  0.36820912793E+02  0.00000000000E+00 0.  1.
         11    1    4    4    0    0 -0.18877413685E+02 -0.13283585154E+02  0.86304241719E+01  0.24643348060E+02  0.51100000000E-03 0. -1.
        -11    1    4    4    0    0 -0.87376037032E+01  0.15425140993E+01 -0.35288045868E+01  0.95486925960E+01  0.51100000000E-03 0.  1.
        -12    1    4    4    0    0 -0.54050013714E+01  0.34522788416E+01 -0.19128518874E+02  0.20175046551E+02  0.00000000000E+00 0.  1.
</event>
<event>
 8    1  0.2493819E-006  0.9118800E+02  0.7816164E-02  0.1184000E+00
        -11   -1    0    0    0    0  0.00000000000E+00  0.00000000000E+00  0.45593999997E+02  0.45594000000E+02  0.51100000000E-03 0. -1.
         11   -1    0    0    0    0 -0.00000000000E+00 -0.00000000000E+00 -0.45593999997E+02  0.45594000000E+02  0.51100000000E-03 0.  1.
         23    2    1    2    0    0  0.55511151231E-15  0.00000000000E+00  0.00000000000E+00  0.91188000000E+02  0.91188000000E+02 0.  0.
    9900012    2    3    3    0    0 -0.93162007137E+00 -0.31565895241E+02 -0.18934263215E+02  0.54367082279E+02  0.39999995671E+02 0.  0.
         12    1    3    3    0    0  0.93162007137E+00  0.31565895241E+02  0.18934263215E+02  0.36820917721E+02  0.00000000000E+00 0. -1.
         11    1    4    4    0    0  0.18905687450E+01 -0.16062046687E+02  0.38798581409E+01  0.16631803673E+02  0.51100000000E-03 0. -1.
        -11    1    4    4    0    0  0.45212255669E+01  0.32373167633E+01 -0.15250379780E+02  0.16232553223E+02  0.51100000000E-03 0.  1.
        -12    1    4    4    0    0 -0.73434143832E+01 -0.18741165317E+02 -0.75637415762E+01  0.21502725383E+02  0.00000000000E+00 0.  1.
</event>
<event>
 8    1  0.2493819E-006  0.9118800E+02  0.7816164E-02  0.1184000E+00
        -11   -1    0    0    0    0  0.00000000000E+00  0.00000000000E+00  0.45593999997E+02  0.45594000000E+02  0.51100000000E-03 0.  1.
         11   -1    0    0    0    0 -0.00000000000E+00 -0.00000000000E+00 -0.45593999997E+02  0.45594000000E+02  0.51100000000E-03 0. -1.
         23    2    1    2    0    0  0.00000000000E+00  0.00000000000E+00  0.00000000000E+00  0.91188000000E+02  0.91188000000E+02 0.  0.
    9900012    2    3    3    0    0 -0.16301969510E+02 -0.52080990319E+01  0.32602152238E+02  0.54367097839E+02  0.40000031144E+02 0.  0.
         12    1    3    3    0    0  0.16301969510E+02  0.52080990319E+01 -0.32602152238E+02  0.36820902161E+02  0.00000000000E+00 0. -1.
         11    1    4    4    0    0  0.38597015626E+01 -0.70457421039E+01 -0.34008645580E+01  0.87238556814E+01  0.51100000000E-03 0. -1.
        -11    1    4    4    0    0 -0.20461060609E+02  0.18047631932E+01  0.17069423821E+02  0.26707253720E+02  0.51100000000E-03 0.  1.
        -12    1    4    4    0    0  0.29938953662E+00  0.32879878864E-01  0.18933592975E+02  0.18935988438E+02  0.00000000000E+00 0.  1.
</event>
<event>
 8    1  0.2493819E-006  0.9118800E+02  0.7816164E-02  0.1184000E+00
        -11   -1    0    0    0    0  0.00000000000E+00  0.00000000000E+00  0.45593999997E+02  0.45594000000E+02  0.51100000000E-03 0.  1.
         11   -1    0    0    0    0 -0.00000000000E+00 -0.00000000000E+00 -0.45593999997E+02  0.45594000000E+02  0.51100000000E-03 0. -1.
         23    2    1    2    0    0  0.00000000000E+00  0.00000000000E+00  0.00000000000E+00  0.91188000000E+02  0.91188000000E+02 0.  0.
    9900012    2    3    3    0    0  0.23430692811E+02 -0.21784341679E+02 -0.18227038443E+02  0.54367084226E+02  0.40000000111E+02 0.  0.
        -12    1    3    3    0    0 -0.23430692811E+02  0.21784341679E+02  0.18227038443E+02  0.36820915774E+02  0.00000000000E+00 0.  1.
         11    1    4    4    0    0  0.18026333475E+02 -0.68880065394E+01 -0.11942376638E+02  0.22693913120E+02  0.51100000000E-03 0. -1.
        -11    1    4    4    0    0  0.10938873982E+02 -0.16690918297E+02  0.35277506012E+01  0.20265506215E+02  0.51100000000E-03 0.  1.
         12    1    4    4    0    0 -0.55345146456E+01  0.17945831568E+01 -0.98124124059E+01  0.11407664892E+02  0.00000000000E+00 0. -1.
</event>
<event>
 8    1  0.2493819E-006  0.9118800E+02  0.7816164E-02  0.1184000E+00
        -11   -1    0    0    0    0  0.00000000000E+00  0.00000000000E+00  0.45593999997E+02  0.45594000000E+02  0.51100000000E-03 0.  1.
         11   -1    0    0    0    0 -0.00000000000E+00 -0.00000000000E+00 -0.45593999997E+02  0.45594000000E+02  0.51100000000E-03 0. -1.
         23    2    1    2    0    0 -0.17763568394E-14 -0.35527136788E-14  0.00000000000E+00  0.91188000000E+02  0.91188000000E+02 0.  0.
    9900012    2    3    3    0    0 -0.10871227864E+02  0.29213766140E+02  0.19599796554E+02  0.54367085396E+02  0.40000002776E+02 0.  0.
         12    1    3    3    0    0  0.10871227864E+02 -0.29213766140E+02 -0.19599796554E+02  0.36820914604E+02  0.00000000000E+00 0. -1.
         11    1    4    4    0    0 -0.12319255080E+02  0.18605497474E+02  0.41716062586E+01  0.22700900445E+02  0.51100000000E-03 0. -1.
        -11    1    4    4    0    0 -0.77916898855E+01  0.13854612378E+02  0.15012364990E+02  0.21863938764E+02  0.51100000000E-03 0.  1.
        -12    1    4    4    0    0  0.92397171013E+01 -0.32463437122E+01  0.41582530448E+00  0.98022461862E+01  0.00000000000E+00 0.  1.
</event>
<event>
 8    1  0.2493819E-006  0.9118800E+02  0.7816164E-02  0.1184000E+00
        -11   -1    0    0    0    0  0.00000000000E+00  0.00000000000E+00  0.45593999997E+02  0.45594000000E+02  0.51100000000E-03 0.  1.
         11   -1    0    0    0    0 -0.00000000000E+00 -0.00000000000E+00 -0.45593999997E+02  0.45594000000E+02  0.51100000000E-03 0. -1.
         23    2    1    2    0    0 -0.88817841970E-15  0.00000000000E+00  0.00000000000E+00  0.91188000000E+02  0.91188000000E+02 0.  0.
    9900012    2    3    3    0    0 -0.46646595859E+01  0.28950299930E+01 -0.36409320840E+02  0.54367097081E+02  0.40000029416E+02 0.  0.
        -12    1    3    3    0    0  0.46646595859E+01 -0.28950299930E+01  0.36409320840E+02  0.36820902919E+02  0.00000000000E+00 0.  1.
         11    1    4    4    0    0 -0.45489500744E+01 -0.48540117882E+01 -0.56290330954E+01  0.87143784098E+01  0.51100000000E-03 0. -1.
        -11    1    4    4    0    0 -0.11031022403E+02 -0.80854131885E+00  0.87195375837E+00  0.11094931182E+02  0.51100000000E-03 0.  1.
         12    1    4    4    0    0  0.10915312891E+02  0.85575831001E+01 -0.31652241503E+02  0.34557787490E+02  0.00000000000E+00 0. -1.
</event>
<event>
 8    1  0.2493819E-006  0.9118800E+02  0.7816164E-02  0.1184000E+00
        -11   -1    0    0    0    0  0.00000000000E+00  0.00000000000E+00  0.45593999997E+02  0.45594000000E+02  0.51100000000E-03 0.  1.
         11   -1    0    0    0    0 -0.00000000000E+00 -0.00000000000E+00 -0.45593999997E+02  0.45594000000E+02  0.51100000000E-03 0. -1.
         23    2    1    2    0    0  0.71054273576E-14  0.00000000000E+00  0.00000000000E+00  0.91188000000E+02  0.91188000000E+02 0.  0.
    9900012    2    3    3    0    0  0.27778825486E+02  0.17296588876E+02 -0.16880431774E+02  0.54367026235E+02  0.39999867908E+02 0.  0.
        -12    1    3    3    0    0 -0.27778825486E+02 -0.17296588876E+02  0.16880431774E+02  0.36820973765E+02  0.00000000000E+00 0.  1.
         11    1    4    4    0    0  0.88043521054E+00  0.14643070470E+02 -0.87315708191E+01  0.17071467663E+02  0.51100000000E-03 0. -1.
        -11    1    4    4    0    0 -0.49480304476E+00 -0.72212881485E+01 -0.23037623678E+01  0.75959959113E+01  0.51100000000E-03 0.  1.
        -12    1    4    4    0    0  0.27393193320E+02  0.98748065550E+01 -0.58450985867E+01  0.29699562661E+02  0.00000000000E+00 0.  1.
</event>
<event>
 8    1  0.2493819E-006  0.9118800E+02  0.7816164E-02  0.1184000E+00
        -11   -1    0    0    0    0  0.00000000000E+00  0.00000000000E+00  0.45593999997E+02  0.45594000000E+02  0.51100000000E-03 0. -1.
         11   -1    0    0    0    0 -0.00000000000E+00 -0.00000000000E+00 -0.45593999997E+02  0.45594000000E+02  0.51100000000E-03 0.  1.
         23    2    1    2    0    0  0.17763568394E-14  0.00000000000E+00  0.17763568394E-14  0.91188000000E+02  0.91188000000E+02 0.  0.
    9900012    2    3    3    0    0 -0.67368718045E+01 -0.32565266713E+02 -0.15807959570E+02  0.54367168620E+02  0.40000192502E+02 0.  0.
        -12    1    3    3    0    0  0.67368718045E+01  0.32565266713E+02  0.15807959570E+02  0.36820831380E+02  0.00000000000E+00 0.  1.
         11    1    4    4    0    0  0.74809531930E+01 -0.25623659395E+02  0.55539725156E+01  0.27265054418E+02  0.51100000000E-03 0. -1.
        -11    1    4    4    0    0 -0.49601384218E+01 -0.17910934436E+01 -0.11396956642E+02  0.12557930157E+02  0.51100000000E-03 0.  1.
         12    1    4    4    0    0 -0.92576865758E+01 -0.51505138743E+01 -0.99649754442E+01  0.14544184044E+02  0.00000000000E+00 0. -1.
</event>
<event>
 8    1  0.2493819E-006  0.9118800E+02  0.7816164E-02  0.1184000E+00
        -11   -1    0    0    0    0  0.00000000000E+00  0.00000000000E+00  0.45593999997E+02  0.45594000000E+02  0.51100000000E-03 0. -1.
         11   -1    0    0    0    0 -0.00000000000E+00 -0.00000000000E+00 -0.45593999997E+02  0.45594000000E+02  0.51100000000E-03 0.  1.
         23    2    1    2    0    0  0.00000000000E+00  0.17763568394E-14 -0.44408920985E-15  0.91188000000E+02  0.91188000000E+02 0.  0.
    9900012    2    3    3    0    0  0.36240939351E+02 -0.55176425316E+01  0.34538535065E+01  0.54367093328E+02  0.40000020859E+02 0.  0.
        -12    1    3    3    0    0 -0.36240939351E+02  0.55176425316E+01 -0.34538535065E+01  0.36820906672E+02  0.00000000000E+00 0.  1.
         11    1    4    4    0    0  0.29893100214E+02  0.92239666818E+01  0.24840229782E+01  0.31382309860E+02  0.51100000000E-03 0. -1.
        -11    1    4    4    0    0 -0.29586629258E+01 -0.17998689988E+00 -0.40224352892E+01  0.49966055988E+01  0.51100000000E-03 0.  1.
         12    1    4    4    0    0  0.93065020626E+01 -0.14561622313E+02  0.49922658175E+01  0.17988177869E+02  0.00000000000E+00 0. -1.
</event>
<event>
 8    1  0.2493819E-006  0.9118800E+02  0.7816164E-02  0.1184000E+00
        -11   -1    0    0    0    0  0.00000000000E+00  0.00000000000E+00  0.45593999997E+02  0.45594000000E+02  0.51100000000E-03 0. -1.
         11   -1    0    0    0    0 -0.00000000000E+00 -0.00000000000E+00 -0.45593999997E+02  0.45594000000E+02  0.51100000000E-03 0.  1.
         23    2    1    2    0    0  0.22204460493E-14 -0.35527136788E-14  0.35527136788E-14  0.91188000000E+02  0.91188000000E+02 0.  0.
    9900012    2    3    3    0    0  0.10635715435E+01 -0.29918507655E+02  0.21436666716E+02  0.54367096091E+02  0.40000027160E+02 0.  0.
        -12    1    3    3    0    0 -0.10635715435E+01  0.29918507655E+02 -0.21436666716E+02  0.36820903909E+02  0.00000000000E+00 0.  1.
         11    1    4    4    0    0  0.16606729859E-01 -0.13698770952E+02  0.52762259077E+01  0.14679753454E+02  0.51100000000E-03 0. -1.
        -11    1    4    4    0    0 -0.12229743369E+02 -0.14338614866E+02  0.20692056651E+00  0.18846891403E+02  0.51100000000E-03 0.  1.
        -12    1    4    4    0    0  0.13276708183E+02 -0.18811218367E+01  0.15953520242E+02  0.20840451234E+02  0.00000000000E+00 0.  1.
</event>
<event>
 8    1  0.2493819E-006  0.9118800E+02  0.7816164E-02  0.1184000E+00
        -11   -1    0    0    0    0  0.00000000000E+00  0.00000000000E+00  0.45593999997E+02  0.45594000000E+02  0.51100000000E-03 0.  1.
         11   -1    0    0    0    0 -0.00000000000E+00 -0.00000000000E+00 -0.45593999997E+02  0.45594000000E+02  0.51100000000E-03 0. -1.
         23    2    1    2    0    0  0.22204460493E-15 -0.17763568394E-14  0.00000000000E+00  0.91188000000E+02  0.91188000000E+02 0.  0.
    9900012    2    3    3    0    0  0.19332961833E+01 -0.15548761917E+02  0.33320826025E+02  0.54367094548E+02  0.40000023642E+02 0.  0.
         12    1    3    3    0    0 -0.19332961833E+01  0.15548761917E+02 -0.33320826025E+02  0.36820905452E+02  0.00000000000E+00 0. -1.
         11    1    4    4    0    0  0.16928629538E+01 -0.12615840091E+02  0.51023777648E+01  0.13713477505E+02  0.51100000000E-03 0.  1.
        -11    1    4    4    0    0  0.25241245443E+01 -0.15239687966E+02  0.94965948071E+01  0.18132970170E+02  0.51100000000E-03 0. -1.
         12    1    4    4    0    0 -0.22836913148E+01  0.12306766140E+02  0.18721853453E+02  0.22520646873E+02  0.00000000000E+00 0. -1.
</event>
<event>
 8    1  0.2493819E-006  0.9118800E+02  0.7816164E-02  0.1184000E+00
        -11   -1    0    0    0    0  0.00000000000E+00  0.00000000000E+00  0.45593999997E+02  0.45594000000E+02  0.51100000000E-03 0. -1.
         11   -1    0    0    0    0 -0.00000000000E+00 -0.00000000000E+00 -0.45593999997E+02  0.45594000000E+02  0.51100000000E-03 0.  1.
         23    2    1    2    0    0 -0.88817841970E-15 -0.88817841970E-15  0.00000000000E+00  0.91188000000E+02  0.91188000000E+02 0.  0.
    9900012    2    3    3    0    0 -0.30222832164E+01  0.68338434760E+01  0.36054741592E+02  0.54367081981E+02  0.39999994991E+02 0.  0.
        -12    1    3    3    0    0  0.30222832164E+01 -0.68338434760E+01 -0.36054741592E+02  0.36820918019E+02  0.00000000000E+00 0.  1.
         11    1    4    4    0    0  0.22891638844E+01 -0.58861609139E+01  0.57046895561E+01  0.85106195302E+01  0.51100000000E-03 0. -1.
        -11    1    4    4    0    0  0.34372912019E+01  0.51548995173E+01 -0.54393073660E+01  0.82446361184E+01  0.51100000000E-03 0.  1.
         12    1    4    4    0    0 -0.87487383027E+01  0.75651048726E+01  0.35789359402E+02  0.37611826332E+02  0.00000000000E+00 0. -1.
</event>
<event>
 8    1  0.2493819E-006  0.9118800E+02  0.7816164E-02  0.1184000E+00
        -11   -1    0    0    0    0  0.00000000000E+00  0.00000000000E+00  0.45593999997E+02  0.45594000000E+02  0.51100000000E-03 0.  1.
         11   -1    0    0    0    0 -0.00000000000E+00 -0.00000000000E+00 -0.45593999997E+02  0.45594000000E+02  0.51100000000E-03 0. -1.
         23    2    1    2    0    0  0.35527136788E-14 -0.88817841970E-15 -0.71054273576E-14  0.91188000000E+02  0.91188000000E+02 0.  0.
    9900012    2    3    3    0    0  0.25306496433E+02 -0.57177444595E+01 -0.26127945958E+02  0.54367069493E+02  0.39999966523E+02 0.  0.
        -12    1    3    3    0    0 -0.25306496433E+02  0.57177444595E+01  0.26127945958E+02  0.36820930507E+02  0.00000000000E+00 0.  1.
         11    1    4    4    0    0 -0.57504802629E+00  0.14263019982E+01 -0.48860711144E+00  0.16136154415E+01  0.51100000000E-03 0. -1.
        -11    1    4    4    0    0  0.95264823644E+01 -0.64956326172E+01  0.88778445943E+01  0.14552086938E+02  0.51100000000E-03 0.  1.
         12    1    4    4    0    0  0.16355062095E+02 -0.64841384055E+00 -0.34517183441E+02  0.38201367114E+02  0.00000000000E+00 0. -1.
</event>
<event>
 8    1  0.2493819E-006  0.9118800E+02  0.7816164E-02  0.1184000E+00
        -11   -1    0    0    0    0  0.00000000000E+00  0.00000000000E+00  0.45593999997E+02  0.45594000000E+02  0.51100000000E-03 0.  1.
         11   -1    0    0    0    0 -0.00000000000E+00 -0.00000000000E+00 -0.45593999997E+02  0.45594000000E+02  0.51100000000E-03 0. -1.
         23    2    1    2    0    0  0.00000000000E+00 -0.35527136788E-14  0.00000000000E+00  0.91188000000E+02  0.91188000000E+02 0.  0.
    9900012    2    3    3    0    0  0.16146171955E+02 -0.27685917205E+02  0.18126443891E+02  0.54367124829E+02  0.40000092672E+02 0.  0.
         12    1    3    3    0    0 -0.16146171955E+02  0.27685917205E+02 -0.18126443891E+02  0.36820875171E+02  0.00000000000E+00 0. -1.
         11    1    4    4    0    0 -0.97457049020E+00  0.26065964926E+01  0.99762122576E+01  0.10357072182E+02  0.51100000000E-03 0. -1.
        -11    1    4    4    0    0  0.41527810783E+01 -0.31876050320E+01 -0.82556647430E+01  0.97756031596E+01  0.51100000000E-03 0.  1.
        -12    1    4    4    0    0  0.12967961367E+02 -0.27104908665E+02  0.16405896376E+02  0.34234449487E+02  0.00000000000E+00 0.  1.
</event>
<event>
 8    1  0.2493819E-006  0.9118800E+02  0.7816164E-02  0.1184000E+00
        -11   -1    0    0    0    0  0.00000000000E+00  0.00000000000E+00  0.45593999997E+02  0.45594000000E+02  0.51100000000E-03 0.  1.
         11   -1    0    0    0    0 -0.00000000000E+00 -0.00000000000E+00 -0.45593999997E+02  0.45594000000E+02  0.51100000000E-03 0. -1.
         23    2    1    2    0    0 -0.17763568394E-14  0.71054273576E-14 -0.15543122345E-14  0.91188000000E+02  0.91188000000E+02 0.  0.
    9900012    2    3    3    0    0 -0.13632053142E+02  0.34158141018E+02 -0.17800763777E+01  0.54367080096E+02  0.39999990696E+02 0.  0.
         12    1    3    3    0    0  0.13632053142E+02 -0.34158141018E+02  0.17800763777E+01  0.36820919904E+02  0.00000000000E+00 0. -1.
         11    1    4    4    0    0  0.54877976411E+01  0.70170214134E+00 -0.56585479275E+01  0.79137521919E+01  0.51100000000E-03 0. -1.
        -11    1    4    4    0    0 -0.21912418876E+02  0.22722696186E+02  0.10819137043E+02  0.33369578205E+02  0.51100000000E-03 0.  1.
        -12    1    4    4    0    0  0.27925680934E+01  0.10733742691E+02 -0.69406654936E+01  0.13083749699E+02  0.00000000000E+00 0.  1.
</event>
<event>
 8    1  0.2493819E-006  0.9118800E+02  0.7816164E-02  0.1184000E+00
        -11   -1    0    0    0    0  0.00000000000E+00  0.00000000000E+00  0.45593999997E+02  0.45594000000E+02  0.51100000000E-03 0. -1.
         11   -1    0    0    0    0 -0.00000000000E+00 -0.00000000000E+00 -0.45593999997E+02  0.45594000000E+02  0.51100000000E-03 0.  1.
         23    2    1    2    0    0  0.00000000000E+00  0.44408920985E-15 -0.35527136788E-14  0.91188000000E+02  0.91188000000E+02 0.  0.
    9900012    2    3    3    0    0  0.27087771323E+02  0.29517825895E+01  0.24765245056E+02  0.54367112743E+02  0.40000065120E+02 0.  0.
         12    1    3    3    0    0 -0.27087771323E+02 -0.29517825895E+01 -0.24765245056E+02  0.36820887257E+02  0.00000000000E+00 0. -1.
         11    1    4    4    0    0  0.18224562055E+02 -0.84529207041E+01  0.16147822237E+02  0.25774768549E+02  0.51100000000E-03 0. -1.
        -11    1    4    4    0    0 -0.45173010369E+01 -0.31037188247E+01 -0.24063665867E+01  0.59857898068E+01  0.51100000000E-03 0.  1.
        -12    1    4    4    0    0  0.13380510305E+02  0.14508422118E+02  0.11023789406E+02  0.22606554387E+02  0.00000000000E+00 0.  1.
</event>
<event>
 8    1  0.2493819E-006  0.9118800E+02  0.7816164E-02  0.1184000E+00
        -11   -1    0    0    0    0  0.00000000000E+00  0.00000000000E+00  0.45593999997E+02  0.45594000000E+02  0.51100000000E-03 0. -1.
         11   -1    0    0    0    0 -0.00000000000E+00 -0.00000000000E+00 -0.45593999997E+02  0.45594000000E+02  0.51100000000E-03 0.  1.
         23    2    1    2    0    0  0.35527136788E-14  0.71054273576E-14  0.00000000000E+00  0.91188000000E+02  0.91188000000E+02 0.  0.
    9900012    2    3    3    0    0  0.88367077467E+01  0.29994784099E+02  0.19442344861E+02  0.54367092208E+02  0.40000018306E+02 0.  0.
        -12    1    3    3    0    0 -0.88367077467E+01 -0.29994784099E+02 -0.19442344861E+02  0.36820907792E+02  0.00000000000E+00 0.  1.
         11    1    4    4    0    0 -0.49623651668E+01  0.65615629948E+00  0.14467906477E+02  0.15309341176E+02  0.51100000000E-03 0.  1.
        -11    1    4    4    0    0 -0.24915011181E+01  0.67554122383E+01  0.83300329193E+01  0.11010568606E+02  0.51100000000E-03 0. -1.
         12    1    4    4    0    0  0.16290574032E+02  0.22583215561E+02 -0.33555945354E+01  0.28047182426E+02  0.00000000000E+00 0. -1.
</event>
<event>
 8    1  0.2493819E-006  0.9118800E+02  0.7816164E-02  0.1184000E+00
        -11   -1    0    0    0    0  0.00000000000E+00  0.00000000000E+00  0.45593999997E+02  0.45594000000E+02  0.51100000000E-03 0. -1.
         11   -1    0    0    0    0 -0.00000000000E+00 -0.00000000000E+00 -0.45593999997E+02  0.45594000000E+02  0.51100000000E-03 0.  1.
         23    2    1    2    0    0 -0.88817841970E-15  0.71054273576E-14  0.00000000000E+00  0.91188000000E+02  0.91188000000E+02 0.  0.
    9900012    2    3    3    0    0  0.72602604910E+01 -0.32323694224E+02 -0.16069839627E+02  0.54367186099E+02  0.40000232350E+02 0.  0.
         12    1    3    3    0    0 -0.72602604910E+01  0.32323694224E+02  0.16069839627E+02  0.36820813901E+02  0.00000000000E+00 0. -1.
         11    1    4    4    0    0 -0.57317526894E+01 -0.20772799872E+01 -0.10374989520E+02  0.12033639883E+02  0.51100000000E-03 0. -1.
        -11    1    4    4    0    0  0.12185881775E+02 -0.37927292791E+01 -0.90644956531E+01  0.15653932149E+02  0.51100000000E-03 0.  1.
        -12    1    4    4    0    0  0.80613140559E+00 -0.26453684958E+02  0.33696455457E+01  0.26679614067E+02  0.00000000000E+00 0.  1.
</event>
<event>
 8    1  0.2493819E-006  0.9118800E+02  0.7816164E-02  0.1184000E+00
        -11   -1    0    0    0    0  0.00000000000E+00  0.00000000000E+00  0.45593999997E+02  0.45594000000E+02  0.51100000000E-03 0. -1.
         11   -1    0    0    0    0 -0.00000000000E+00 -0.00000000000E+00 -0.45593999997E+02  0.45594000000E+02  0.51100000000E-03 0.  1.
         23    2    1    2    0    0  0.35527136788E-14  0.00000000000E+00  0.35527136788E-14  0.91188000000E+02  0.91188000000E+02 0.  0.
    9900012    2    3    3    0    0 -0.23823397897E+02  0.44394243977E+01 -0.27722167803E+02  0.54367063509E+02  0.39999952881E+02 0.  0.
         12    1    3    3    0    0  0.23823397897E+02 -0.44394243977E+01  0.27722167803E+02  0.36820936491E+02  0.00000000000E+00 0. -1.
         11    1    4    4    0    0 -0.14081853381E+01  0.76320778447E+01  0.17639295660E+01  0.79588344592E+01  0.51100000000E-03 0. -1.
        -11    1    4    4    0    0 -0.22947341006E+02 -0.18776207772E+01 -0.72666359387E+01  0.24143527438E+02  0.51100000000E-03 0.  1.
         12    1    4    4    0    0  0.53212844644E+00 -0.13150326698E+01 -0.22219461431E+02  0.22264701612E+02  0.00000000000E+00 0. -1.
</event>
<event>
 8    1  0.2493819E-006  0.9118800E+02  0.7816164E-02  0.1184000E+00
        -11   -1    0    0    0    0  0.00000000000E+00  0.00000000000E+00  0.45593999997E+02  0.45594000000E+02  0.51100000000E-03 0.  1.
         11   -1    0    0    0    0 -0.00000000000E+00 -0.00000000000E+00 -0.45593999997E+02  0.45594000000E+02  0.51100000000E-03 0. -1.
         23    2    1    2    0    0  0.00000000000E+00  0.53290705182E-14  0.00000000000E+00  0.91188000000E+02  0.91188000000E+02 0.  0.
    9900012    2    3    3    0    0 -0.29746236697E+02 -0.15599138686E+02 -0.15086671429E+02  0.54367090449E+02  0.40000014296E+02 0.  0.
        -12    1    3    3    0    0  0.29746236697E+02  0.15599138686E+02  0.15086671429E+02  0.36820909551E+02  0.00000000000E+00 0.  1.
         11    1    4    4    0    0 -0.12093044049E+01 -0.48359677001E+01 -0.96541285074E+00  0.50775016468E+01  0.51100000000E-03 0. -1.
        -11    1    4    4    0    0 -0.13754703675E+02  0.12512240683E+02 -0.10837173962E+02  0.21521904652E+02  0.51100000000E-03 0.  1.
        -12    1    4    4    0    0 -0.14782228617E+02 -0.23275411670E+02 -0.32840846159E+01  0.27767684150E+02  0.00000000000E+00 0.  1.
</event>
<event>
 8    1  0.2493819E-006  0.9118800E+02  0.7816164E-02  0.1184000E+00
        -11   -1    0    0    0    0  0.00000000000E+00  0.00000000000E+00  0.45593999997E+02  0.45594000000E+02  0.51100000000E-03 0. -1.
         11   -1    0    0    0    0 -0.00000000000E+00 -0.00000000000E+00 -0.45593999997E+02  0.45594000000E+02  0.51100000000E-03 0.  1.
         23    2    1    2    0    0  0.00000000000E+00  0.00000000000E+00  0.44408920985E-15  0.91188000000E+02  0.91188000000E+02 0.  0.
    9900012    2    3    3    0    0  0.65998272871E+01 -0.36088791982E+02 -0.31336859906E+01  0.54367100842E+02  0.40000037989E+02 0.  0.
        -12    1    3    3    0    0 -0.65998272871E+01  0.36088791982E+02  0.31336859906E+01  0.36820899158E+02  0.00000000000E+00 0.  1.
         11    1    4    4    0    0  0.11849319209E+02 -0.27076102479E+02  0.59986243059E+01  0.30158003664E+02  0.51100000000E-03 0. -1.
        -11    1    4    4    0    0  0.43160612906E+01  0.42536657816E+01 -0.22343969926E+01  0.64586831342E+01  0.51100000000E-03 0.  1.
         12    1    4    4    0    0 -0.95655532120E+01 -0.13266355284E+02 -0.68979133039E+01  0.17750414044E+02  0.00000000000E+00 0. -1.
</event>
<event>
 8    1  0.2493819E-006  0.9118800E+02  0.7816164E-02  0.1184000E+00
        -11   -1    0    0    0    0  0.00000000000E+00  0.00000000000E+00  0.45593999997E+02  0.45594000000E+02  0.51100000000E-03 0.  1.
         11   -1    0    0    0    0 -0.00000000000E+00 -0.00000000000E+00 -0.45593999997E+02  0.45594000000E+02  0.51100000000E-03 0. -1.
         23    2    1    2    0    0  0.00000000000E+00  0.17763568394E-14  0.00000000000E+00  0.91188000000E+02  0.91188000000E+02 0.  0.
    9900012    2    3    3    0    0  0.33329002373E+02  0.14601836299E+02 -0.56341623555E+01  0.54367084640E+02  0.40000001053E+02 0.  0.
         12    1    3    3    0    0 -0.33329002373E+02 -0.14601836299E+02  0.56341623555E+01  0.36820915360E+02  0.00000000000E+00 0. -1.
         11    1    4    4    0    0  0.10817651156E+02  0.78641480718E+01 -0.14938584127E+02  0.20050628355E+02  0.51100000000E-03 0. -1.
        -11    1    4    4    0    0 -0.97880524628E+00 -0.24476675851E+01 -0.47576328517E+01  0.54391365978E+01  0.51100000000E-03 0.  1.
        -12    1    4    4    0    0  0.23490156464E+02  0.91853558124E+01  0.14062054624E+02  0.28877319687E+02  0.00000000000E+00 0.  1.
</event>
<event>
 8    1  0.2493819E-006  0.9118800E+02  0.7816164E-02  0.1184000E+00
        -11   -1    0    0    0    0  0.00000000000E+00  0.00000000000E+00  0.45593999997E+02  0.45594000000E+02  0.51100000000E-03 0.  1.
         11   -1    0    0    0    0 -0.00000000000E+00 -0.00000000000E+00 -0.45593999997E+02  0.45594000000E+02  0.51100000000E-03 0. -1.
         23    2    1    2    0    0 -0.35527136788E-14  0.00000000000E+00  0.00000000000E+00  0.91188000000E+02  0.91188000000E+02 0.  0.
    9900012    2    3    3    0    0  0.25753761428E+02 -0.26108660399E+02  0.32957252849E+01  0.54367079579E+02  0.39999989516E+02 0.  0.
        -12    1    3    3    0    0 -0.25753761428E+02  0.26108660399E+02 -0.32957252849E+01  0.36820920421E+02  0.00000000000E+00 0.  1.
         11    1    4    4    0    0  0.17852058320E+02 -0.18717207086E+00  0.36158805027E+01  0.18215532156E+02  0.51100000000E-03 0. -1.
        -11    1    4    4    0    0  0.10881792892E+02 -0.27601578447E+02  0.47379910574E+01  0.30045117887E+02  0.51100000000E-03 0.  1.
         12    1    4    4    0    0 -0.29800897842E+01  0.16800901198E+01 -0.50581462753E+01  0.61064295357E+01  0.00000000000E+00 0. -1.
</event>
<event>
 8    1  0.2493819E-006  0.9118800E+02  0.7816164E-02  0.1184000E+00
        -11   -1    0    0    0    0  0.00000000000E+00  0.00000000000E+00  0.45593999997E+02  0.45594000000E+02  0.51100000000E-03 0. -1.
         11   -1    0    0    0    0 -0.00000000000E+00 -0.00000000000E+00 -0.45593999997E+02  0.45594000000E+02  0.51100000000E-03 0.  1.
         23    2    1    2    0    0  0.00000000000E+00 -0.71054273576E-14  0.88817841970E-15  0.91188000000E+02  0.91188000000E+02 0.  0.
    9900012    2    3    3    0    0 -0.14171771228E+02  0.33399892517E+02 -0.62759937435E+01  0.54367081797E+02  0.39999994572E+02 0.  0.
         12    1    3    3    0    0  0.14171771228E+02 -0.33399892517E+02  0.62759937435E+01  0.36820918203E+02  0.00000000000E+00 0. -1.
         11    1    4    4    0    0 -0.22311922039E+02  0.13066314567E+02 -0.38030543244E+01  0.26134530107E+02  0.51100000000E-03 0. -1.
        -11    1    4    4    0    0 -0.82470020191E+00  0.18511248247E+02 -0.40035819860E+01  0.18957191540E+02  0.51100000000E-03 0.  1.
         12    1    4    4    0    0  0.89648510136E+01  0.18223297021E+01  0.15306425668E+01  0.92753601497E+01  0.00000000000E+00 0. -1.
</event>
<event>
 8    1  0.2493819E-006  0.9118800E+02  0.7816164E-02  0.1184000E+00
        -11   -1    0    0    0    0  0.00000000000E+00  0.00000000000E+00  0.45593999997E+02  0.45594000000E+02  0.51100000000E-03 0.  1.
         11   -1    0    0    0    0 -0.00000000000E+00 -0.00000000000E+00 -0.45593999997E+02  0.45594000000E+02  0.51100000000E-03 0. -1.
         23    2    1    2    0    0  0.00000000000E+00  0.00000000000E+00 -0.71054273576E-14  0.91188000000E+02  0.91188000000E+02 0.  0.
    9900012    2    3    3    0    0 -0.20946717042E+01 -0.11995009144E+02 -0.34749272845E+02  0.54367083971E+02  0.39999999529E+02 0.  0.
        -12    1    3    3    0    0  0.20946717042E+01  0.11995009144E+02  0.34749272845E+02  0.36820916029E+02  0.00000000000E+00 0.  1.
         11    1    4    4    0    0 -0.17010190015E+01 -0.15793388666E+02 -0.88449226065E+01  0.18181233384E+02  0.51100000000E-03 0. -1.
        -11    1    4    4    0    0 -0.24231785582E+01  0.14074277814E+02 -0.18441422979E+02  0.23324733055E+02  0.51100000000E-03 0.  1.
        -12    1    4    4    0    0  0.20295258554E+01 -0.10275898292E+02 -0.74629272598E+01  0.12861117533E+02  0.00000000000E+00 0.  1.
</event>
<event>
 8    1  0.2493819E-006  0.9118800E+02  0.7816164E-02  0.1184000E+00
        -11   -1    0    0    0    0  0.00000000000E+00  0.00000000000E+00  0.45593999997E+02  0.45594000000E+02  0.51100000000E-03 0. -1.
         11   -1    0    0    0    0 -0.00000000000E+00 -0.00000000000E+00 -0.45593999997E+02  0.45594000000E+02  0.51100000000E-03 0.  1.
         23    2    1    2    0    0  0.00000000000E+00  0.71054273576E-14 -0.17763568394E-14  0.91188000000E+02  0.91188000000E+02 0.  0.
    9900012    2    3    3    0    0 -0.22185450641E+02  0.27689747061E+02 -0.98418904852E+01  0.54367093972E+02  0.40000022328E+02 0.  0.
         12    1    3    3    0    0  0.22185450641E+02 -0.27689747061E+02  0.98418904852E+01  0.36820906028E+02  0.00000000000E+00 0. -1.
         11    1    4    4    0    0  0.40641823522E+01 -0.11794193064E+01 -0.82647274445E+00  0.43118053702E+01  0.51100000000E-03 0. -1.
        -11    1    4    4    0    0 -0.24564698708E+02  0.27141104581E+02 -0.17971019118E+02  0.40780160727E+02  0.51100000000E-03 0.  1.
         12    1    4    4    0    0 -0.16849342844E+01  0.17280617861E+01  0.89556013769E+01  0.92751278752E+01  0.00000000000E+00 0. -1.
</event>
<event>
 8    1  0.2493819E-006  0.9118800E+02  0.7816164E-02  0.1184000E+00
        -11   -1    0    0    0    0  0.00000000000E+00  0.00000000000E+00  0.45593999997E+02  0.45594000000E+02  0.51100000000E-03 0.  1.
         11   -1    0    0    0    0 -0.00000000000E+00 -0.00000000000E+00 -0.45593999997E+02  0.45594000000E+02  0.51100000000E-03 0. -1.
         23    2    1    2    0    0  0.00000000000E+00  0.44408920985E-15 -0.71054273576E-14  0.91188000000E+02  0.91188000000E+02 0.  0.
    9900012    2    3    3    0    0  0.13857451050E+02  0.35843796011E+01 -0.33924938682E+02  0.54367106593E+02  0.40000051099E+02 0.  0.
        -12    1    3    3    0    0 -0.13857451050E+02 -0.35843796011E+01  0.33924938682E+02  0.36820893407E+02  0.00000000000E+00 0.  1.
         11    1    4    4    0    0  0.13268340624E+02 -0.28477676446E+01 -0.26128483668E+01  0.13819754713E+02  0.51100000000E-03 0. -1.
        -11    1    4    4    0    0 -0.58121739517E+01  0.70676085176E+01 -0.60151282634E+00  0.91702930239E+01  0.51100000000E-03 0.  1.
         12    1    4    4    0    0  0.64012843773E+01 -0.63546127200E+00 -0.30710577489E+02  0.31377058855E+02  0.00000000000E+00 0. -1.
</event>
<event>
 8    1  0.2493819E-006  0.9118800E+02  0.7816164E-02  0.1184000E+00
        -11   -1    0    0    0    0  0.00000000000E+00  0.00000000000E+00  0.45593999997E+02  0.45594000000E+02  0.51100000000E-03 0. -1.
         11   -1    0    0    0    0 -0.00000000000E+00 -0.00000000000E+00 -0.45593999997E+02  0.45594000000E+02  0.51100000000E-03 0.  1.
         23    2    1    2    0    0 -0.71054273576E-14  0.00000000000E+00 -0.17763568394E-14  0.91188000000E+02  0.91188000000E+02 0.  0.
    9900012    2    3    3    0    0 -0.32779811787E+02 -0.10039944706E+02 -0.13433642938E+02  0.54367091360E+02  0.40000016373E+02 0.  0.
         12    1    3    3    0    0  0.32779811787E+02  0.10039944706E+02  0.13433642938E+02  0.36820908640E+02  0.00000000000E+00 0. -1.
         11    1    4    4    0    0 -0.12455133854E+02  0.88572824201E+01 -0.13097793711E+02  0.20127941066E+02  0.51100000000E-03 0. -1.
        -11    1    4    4    0    0  0.21164139791E+01 -0.97746553300E+01 -0.50871968130E+00  0.10014084627E+02  0.51100000000E-03 0.  1.
         12    1    4    4    0    0 -0.22441091912E+02 -0.91225717964E+01  0.17287045369E+00  0.24225065667E+02  0.00000000000E+00 0. -1.
</event>
<event>
 8    1  0.2493819E-006  0.9118800E+02  0.7816164E-02  0.1184000E+00
        -11   -1    0    0    0    0  0.00000000000E+00  0.00000000000E+00  0.45593999997E+02  0.45594000000E+02  0.51100000000E-03 0.  1.
         11   -1    0    0    0    0 -0.00000000000E+00 -0.00000000000E+00 -0.45593999997E+02  0.45594000000E+02  0.51100000000E-03 0. -1.
         23    2    1    2    0    0  0.00000000000E+00  0.35527136788E-14  0.00000000000E+00  0.91188000000E+02  0.91188000000E+02 0.  0.
    9900012    2    3    3    0    0 -0.84697490682E+01 -0.24922061257E+02  0.25747445853E+02  0.54367126103E+02  0.40000095577E+02 0.  0.
         12    1    3    3    0    0  0.84697490682E+01  0.24922061257E+02 -0.25747445853E+02  0.36820873897E+02  0.00000000000E+00 0. -1.
         11    1    4    4    0    0 -0.32658515550E+01 -0.18931533464E+02  0.17496856662E+02  0.25984778986E+02  0.51100000000E-03 0.  1.
        -11    1    4    4    0    0  0.85948001101E+01  0.44703091222E+01  0.15286761432E+01  0.98077063370E+01  0.51100000000E-03 0. -1.
         12    1    4    4    0    0 -0.13798697623E+02 -0.10460836916E+02  0.67219130474E+01  0.18574640780E+02  0.00000000000E+00 0. -1.
</event>
<event>
 8    1  0.2493819E-006  0.9118800E+02  0.7816164E-02  0.1184000E+00
        -11   -1    0    0    0    0  0.00000000000E+00  0.00000000000E+00  0.45593999997E+02  0.45594000000E+02  0.51100000000E-03 0. -1.
         11   -1    0    0    0    0 -0.00000000000E+00 -0.00000000000E+00 -0.45593999997E+02  0.45594000000E+02  0.51100000000E-03 0.  1.
         23    2    1    2    0    0  0.35527136788E-14  0.35527136788E-14  0.88817841970E-15  0.91188000000E+02  0.91188000000E+02 0.  0.
    9900012    2    3    3    0    0  0.26430321023E+02 -0.25272728409E+02  0.43020039480E+01  0.54367083274E+02  0.39999997939E+02 0.  0.
        -12    1    3    3    0    0 -0.26430321023E+02  0.25272728409E+02 -0.43020039480E+01  0.36820916726E+02  0.00000000000E+00 0.  1.
         11    1    4    4    0    0  0.14643130431E+02  0.71680955517E+01  0.19156923917E+01  0.16415624882E+02  0.51100000000E-03 0. -1.
        -11    1    4    4    0    0 -0.23068542293E+01 -0.15350602548E+02 -0.93789512948E+00  0.15551277200E+02  0.51100000000E-03 0.  1.
         12    1    4    4    0    0  0.14094044821E+02 -0.17090221413E+02  0.33242066858E+01  0.22400181192E+02  0.00000000000E+00 0. -1.
</event>
<event>
 8    1  0.2493819E-006  0.9118800E+02  0.7816164E-02  0.1184000E+00
        -11   -1    0    0    0    0  0.00000000000E+00  0.00000000000E+00  0.45593999997E+02  0.45594000000E+02  0.51100000000E-03 0.  1.
         11   -1    0    0    0    0 -0.00000000000E+00 -0.00000000000E+00 -0.45593999997E+02  0.45594000000E+02  0.51100000000E-03 0. -1.
         23    2    1    2    0    0 -0.88817841970E-15  0.00000000000E+00  0.35527136788E-14  0.91188000000E+02  0.91188000000E+02 0.  0.
    9900012    2    3    3    0    0  0.59439450858E+01 -0.25943046854E+02  0.25444216520E+02  0.54367077719E+02  0.39999985277E+02 0.  0.
         12    1    3    3    0    0 -0.59439450858E+01  0.25943046854E+02 -0.25444216520E+02  0.36820922281E+02  0.00000000000E+00 0. -1.
         11    1    4    4    0    0 -0.44096452442E+01 -0.45433730060E+01 -0.29946310159E+01  0.70039292283E+01  0.51100000000E-03 0. -1.
        -11    1    4    4    0    0 -0.45162304307E+01 -0.60723419196E+01  0.24507396163E+02  0.25649213255E+02  0.51100000000E-03 0.  1.
         12    1    4    4    0    0  0.14869820761E+02 -0.15327331929E+02  0.39314513736E+01  0.21713935236E+02  0.00000000000E+00 0. -1.
</event>
<event>
 8    1  0.2493819E-006  0.9118800E+02  0.7816164E-02  0.1184000E+00
        -11   -1    0    0    0    0  0.00000000000E+00  0.00000000000E+00  0.45593999997E+02  0.45594000000E+02  0.51100000000E-03 0.  1.
         11   -1    0    0    0    0 -0.00000000000E+00 -0.00000000000E+00 -0.45593999997E+02  0.45594000000E+02  0.51100000000E-03 0. -1.
         23    2    1    2    0    0  0.00000000000E+00  0.17763568394E-14  0.00000000000E+00  0.91188000000E+02  0.91188000000E+02 0.  0.
    9900012    2    3    3    0    0  0.28583814911E+02  0.36965259322E+01 -0.22914650590E+02  0.54367082161E+02  0.39999995402E+02 0.  0.
        -12    1    3    3    0    0 -0.28583814911E+02 -0.36965259322E+01  0.22914650590E+02  0.36820917839E+02  0.00000000000E+00 0.  1.
         11    1    4    4    0    0  0.16317168359E+02 -0.12076828478E+02 -0.12247536782E+02  0.23708688847E+02  0.51100000000E-03 0. -1.
        -11    1    4    4    0    0  0.15019039875E+02  0.15733547418E+02 -0.14351554137E+02  0.26059224461E+02  0.51100000000E-03 0.  1.
         12    1    4    4    0    0 -0.27523933227E+01  0.39806992138E-01  0.36844403289E+01  0.45991688528E+01  0.00000000000E+00 0. -1.
</event>
<event>
 8    1  0.2493819E-006  0.9118800E+02  0.7816164E-02  0.1184000E+00
        -11   -1    0    0    0    0  0.00000000000E+00  0.00000000000E+00  0.45593999997E+02  0.45594000000E+02  0.51100000000E-03 0.  1.
         11   -1    0    0    0    0 -0.00000000000E+00 -0.00000000000E+00 -0.45593999997E+02  0.45594000000E+02  0.51100000000E-03 0. -1.
         23    2    1    2    0    0  0.00000000000E+00 -0.44408920985E-15  0.00000000000E+00  0.91188000000E+02  0.91188000000E+02 0.  0.
    9900012    2    3    3    0    0 -0.32512130431E+02 -0.23979086640E+01  0.17116998954E+02  0.54367078714E+02  0.39999987545E+02 0.  0.
         12    1    3    3    0    0  0.32512130431E+02  0.23979086640E+01 -0.17116998954E+02  0.36820921286E+02  0.00000000000E+00 0. -1.
         11    1    4    4    0    0 -0.30538137261E+01  0.45462189185E+01 -0.43342872522E+01  0.69842630946E+01  0.51100000000E-03 0.  1.
        -11    1    4    4    0    0 -0.53927053441E+01  0.83716235390E+01  0.15213563028E+02  0.18182899985E+02  0.51100000000E-03 0. -1.
        -12    1    4    4    0    0 -0.24065611361E+02 -0.15315751122E+02  0.62377231781E+01  0.29199915634E+02  0.00000000000E+00 0.  1.
</event>
<event>
 8    1  0.2493819E-006  0.9118800E+02  0.7816164E-02  0.1184000E+00
        -11   -1    0    0    0    0  0.00000000000E+00  0.00000000000E+00  0.45593999997E+02  0.45594000000E+02  0.51100000000E-03 0. -1.
         11   -1    0    0    0    0 -0.00000000000E+00 -0.00000000000E+00 -0.45593999997E+02  0.45594000000E+02  0.51100000000E-03 0.  1.
         23    2    1    2    0    0  0.00000000000E+00 -0.44408920985E-15  0.71054273576E-14  0.91188000000E+02  0.91188000000E+02 0.  0.
    9900012    2    3    3    0    0  0.17423429632E+02  0.39454029969E+01 -0.32196851545E+02  0.54367090799E+02  0.40000015095E+02 0.  0.
         12    1    3    3    0    0 -0.17423429632E+02 -0.39454029969E+01  0.32196851545E+02  0.36820909201E+02  0.00000000000E+00 0. -1.
         11    1    4    4    0    0  0.16638344532E+02  0.41538820690E+01 -0.22806100353E+02  0.28534320713E+02  0.51100000000E-03 0. -1.
        -11    1    4    4    0    0  0.90099682937E+01  0.33859497574E+01 -0.12985445470E+02  0.16163724161E+02  0.51100000000E-03 0.  1.
         12    1    4    4    0    0 -0.82248831937E+01 -0.35944288296E+01  0.35946942775E+01  0.96690459255E+01  0.00000000000E+00 0. -1.
</event>
<event>
 8    1  0.2493819E-006  0.9118800E+02  0.7816164E-02  0.1184000E+00
        -11   -1    0    0    0    0  0.00000000000E+00  0.00000000000E+00  0.45593999997E+02  0.45594000000E+02  0.51100000000E-03 0.  1.
         11   -1    0    0    0    0 -0.00000000000E+00 -0.00000000000E+00 -0.45593999997E+02  0.45594000000E+02  0.51100000000E-03 0. -1.
         23    2    1    2    0    0 -0.17763568394E-14 -0.17763568394E-14  0.35527136788E-14  0.91188000000E+02  0.91188000000E+02 0.  0.
    9900012    2    3    3    0    0  0.14557379267E+02  0.13078614482E+02 -0.31189909388E+02  0.54367110609E+02  0.40000060256E+02 0.  0.
        -12    1    3    3    0    0 -0.14557379267E+02 -0.13078614482E+02  0.31189909388E+02  0.36820889391E+02  0.00000000000E+00 0.  1.
         11    1    4    4    0    0 -0.47509336107E+01  0.13749970729E+01 -0.15802746831E+02  0.16558647131E+02  0.51100000000E-03 0. -1.
        -11    1    4    4    0    0 -0.71226332008E+00 -0.80171077336E+00 -0.14129096214E+02  0.14169736034E+02  0.51100000000E-03 0.  1.
        -12    1    4    4    0    0  0.20020576198E+02  0.12505328183E+02 -0.12580663428E+01  0.23638727444E+02  0.00000000000E+00 0.  1.
</event>
<event>
 8    1  0.2493819E-006  0.9118800E+02  0.7816164E-02  0.1184000E+00
        -11   -1    0    0    0    0  0.00000000000E+00  0.00000000000E+00  0.45593999997E+02  0.45594000000E+02  0.51100000000E-03 0.  1.
         11   -1    0    0    0    0 -0.00000000000E+00 -0.00000000000E+00 -0.45593999997E+02  0.45594000000E+02  0.51100000000E-03 0. -1.
         23    2    1    2    0    0  0.00000000000E+00  0.00000000000E+00 -0.35527136788E-14  0.91188000000E+02  0.91188000000E+02 0.  0.
    9900012    2    3    3    0    0 -0.12482024481E+02 -0.27617131798E+02 -0.20911109440E+02  0.54367062995E+02  0.39999951710E+02 0.  0.
        -12    1    3    3    0    0  0.12482024481E+02  0.27617131798E+02  0.20911109440E+02  0.36820937005E+02  0.00000000000E+00 0.  1.
         11    1    4    4    0    0 -0.11321599880E+02 -0.22268859343E+02 -0.39125899077E+00  0.24984671383E+02  0.51100000000E-03 0.  1.
        -11    1    4    4    0    0  0.40459353062E+01 -0.98019932272E+01 -0.19841583374E+02  0.22497490855E+02  0.51100000000E-03 0. -1.
         12    1    4    4    0    0 -0.52063599078E+01  0.44537207718E+01 -0.67826707538E+00  0.68849007566E+01  0.00000000000E+00 0. -1.
</event>
<event>
 8    1  0.2493819E-006  0.9118800E+02  0.7816164E-02  0.1184000E+00
        -11   -1    0    0    0    0  0.00000000000E+00  0.00000000000E+00  0.45593999997E+02  0.45594000000E+02  0.51100000000E-03 0. -1.
         11   -1    0    0    0    0 -0.00000000000E+00 -0.00000000000E+00 -0.45593999997E+02  0.45594000000E+02  0.51100000000E-03 0.  1.
         23    2    1    2    0    0  0.00000000000E+00  0.00000000000E+00  0.35527136788E-14  0.91188000000E+02  0.91188000000E+02 0.  0.
    9900012    2    3    3    0    0  0.98659167568E+01  0.27154629628E+02 -0.22826953731E+02  0.54367081485E+02  0.39999993860E+02 0.  0.
         12    1    3    3    0    0 -0.98659167568E+01 -0.27154629628E+02  0.22826953731E+02  0.36820918515E+02  0.00000000000E+00 0. -1.
         11    1    4    4    0    0  0.57679523300E+01 -0.37370570533E+01  0.55655541375E+01  0.88436566317E+01  0.51100000000E-03 0. -1.
        -11    1    4    4    0    0  0.37572376642E+01 -0.73249986921E+00 -0.43622630481E+01  0.58036824591E+01  0.51100000000E-03 0.  1.
         12    1    4    4    0    0  0.34072676255E+00  0.31624186551E+02 -0.24030244820E+02  0.39719742394E+02  0.00000000000E+00 0. -1.
</event>
<event>
 8    1  0.2493819E-006  0.9118800E+02  0.7816164E-02  0.1184000E+00
        -11   -1    0    0    0    0  0.00000000000E+00  0.00000000000E+00  0.45593999997E+02  0.45594000000E+02  0.51100000000E-03 0. -1.
         11   -1    0    0    0    0 -0.00000000000E+00 -0.00000000000E+00 -0.45593999997E+02  0.45594000000E+02  0.51100000000E-03 0.  1.
         23    2    1    2    0    0  0.00000000000E+00 -0.17763568394E-14 -0.11102230246E-14  0.91188000000E+02  0.91188000000E+02 0.  0.
    9900012    2    3    3    0    0 -0.34677845335E+02 -0.12363735646E+02  0.60348986010E+00  0.54367094033E+02  0.40000022467E+02 0.  0.
         12    1    3    3    0    0  0.34677845335E+02  0.12363735646E+02 -0.60348986010E+00  0.36820905967E+02  0.00000000000E+00 0. -1.
         11    1    4    4    0    0 -0.17169208522E+01 -0.44627329175E+01  0.13710128043E+02  0.14520034901E+02  0.51100000000E-03 0. -1.
        -11    1    4    4    0    0  0.18668285872E+01 -0.10115764753E+01 -0.60809322483E+00  0.22086451889E+01  0.51100000000E-03 0.  1.
         12    1    4    4    0    0 -0.34827753070E+02 -0.68894262532E+01 -0.12498544959E+02  0.37638413943E+02  0.00000000000E+00 0. -1.
</event>
<event>
 8    1  0.2493819E-006  0.9118800E+02  0.7816164E-02  0.1184000E+00
        -11   -1    0    0    0    0  0.00000000000E+00  0.00000000000E+00  0.45593999997E+02  0.45594000000E+02  0.51100000000E-03 0.  1.
         11   -1    0    0    0    0 -0.00000000000E+00 -0.00000000000E+00 -0.45593999997E+02  0.45594000000E+02  0.51100000000E-03 0. -1.
         23    2    1    2    0    0  0.00000000000E+00  0.00000000000E+00  0.00000000000E+00  0.91188000000E+02  0.91188000000E+02 0.  0.
    9900012    2    3    3    0    0  0.24002525972E+02  0.23059933099E+02 -0.15744705092E+02  0.54367115899E+02  0.40000072314E+02 0.  0.
        -12    1    3    3    0    0 -0.24002525972E+02 -0.23059933099E+02  0.15744705092E+02  0.36820884101E+02  0.00000000000E+00 0.  1.
         11    1    4    4    0    0 -0.51056328867E+01 -0.51513778778E+01 -0.67195090246E+00  0.72839343414E+01  0.51100000000E-03 0. -1.
        -11    1    4    4    0    0 -0.17018641084E+01 -0.10359366385E+01  0.42848703946E-01  0.19928227305E+01  0.51100000000E-03 0.  1.
         12    1    4    4    0    0  0.30810022967E+02  0.29247247615E+02 -0.15115602894E+02  0.45090358827E+02  0.00000000000E+00 0. -1.
</event>
<event>
 8    1  0.2493819E-006  0.9118800E+02  0.7816164E-02  0.1184000E+00
        -11   -1    0    0    0    0  0.00000000000E+00  0.00000000000E+00  0.45593999997E+02  0.45594000000E+02  0.51100000000E-03 0. -1.
         11   -1    0    0    0    0 -0.00000000000E+00 -0.00000000000E+00 -0.45593999997E+02  0.45594000000E+02  0.51100000000E-03 0.  1.
         23    2    1    2    0    0  0.44408920985E-15  0.00000000000E+00  0.35527136788E-14  0.91188000000E+02  0.91188000000E+02 0.  0.
    9900012    2    3    3    0    0 -0.20357579113E+01  0.30620286510E+02  0.20347805997E+02  0.54367089295E+02  0.40000011667E+02 0.  0.
        -12    1    3    3    0    0  0.20357579113E+01 -0.30620286510E+02 -0.20347805997E+02  0.36820910705E+02  0.00000000000E+00 0.  1.
         11    1    4    4    0    0  0.73487263453E+01  0.24692041822E+01  0.67248084782E+01  0.10262738305E+02  0.51100000000E-03 0. -1.
        -11    1    4    4    0    0 -0.15483355866E+02  0.26613646090E+02  0.19585027154E+01  0.30852166864E+02  0.51100000000E-03 0.  1.
        -12    1    4    4    0    0  0.60988716093E+01  0.15374362380E+01  0.11664494803E+02  0.13252184126E+02  0.00000000000E+00 0.  1.
</event>
<event>
 8    1  0.2493819E-006  0.9118800E+02  0.7816164E-02  0.1184000E+00
        -11   -1    0    0    0    0  0.00000000000E+00  0.00000000000E+00  0.45593999997E+02  0.45594000000E+02  0.51100000000E-03 0.  1.
         11   -1    0    0    0    0 -0.00000000000E+00 -0.00000000000E+00 -0.45593999997E+02  0.45594000000E+02  0.51100000000E-03 0. -1.
         23    2    1    2    0    0  0.00000000000E+00  0.35527136788E-14 -0.88817841970E-15  0.91188000000E+02  0.91188000000E+02 0.  0.
    9900012    2    3    3    0    0  0.26940221266E+02 -0.24513340312E+02 -0.53945429316E+01  0.54367075670E+02  0.39999980604E+02 0.  0.
        -12    1    3    3    0    0 -0.26940221266E+02  0.24513340312E+02  0.53945429316E+01  0.36820924330E+02  0.00000000000E+00 0.  1.
         11    1    4    4    0    0  0.62277628568E+01  0.38654848696E+01  0.73209265120E+00  0.73663398910E+01  0.51100000000E-03 0.  1.
        -11    1    4    4    0    0  0.10942530340E+02  0.44884971696E-01 -0.12145677429E+02  0.16348041637E+02  0.51100000000E-03 0. -1.
        -12    1    4    4    0    0  0.97699280689E+01 -0.28423710154E+02  0.60190418463E+01  0.30652694141E+02  0.00000000000E+00 0.  1.
</event>
<event>
 8    1  0.2493819E-006  0.9118800E+02  0.7816164E-02  0.1184000E+00
        -11   -1    0    0    0    0  0.00000000000E+00  0.00000000000E+00  0.45593999997E+02  0.45594000000E+02  0.51100000000E-03 0.  1.
         11   -1    0    0    0    0 -0.00000000000E+00 -0.00000000000E+00 -0.45593999997E+02  0.45594000000E+02  0.51100000000E-03 0. -1.
         23    2    1    2    0    0  0.00000000000E+00  0.71054273576E-14  0.00000000000E+00  0.91188000000E+02  0.91188000000E+02 0.  0.
    9900012    2    3    3    0    0 -0.11964040424E+02  0.26192253511E+02 -0.22947830834E+02  0.54367145213E+02  0.40000139142E+02 0.  0.
         12    1    3    3    0    0  0.11964040424E+02 -0.26192253511E+02  0.22947830834E+02  0.36820854787E+02  0.00000000000E+00 0. -1.
         11    1    4    4    0    0 -0.48890298497E+01  0.88744096409E+00  0.64159029488E+01  0.81150462257E+01  0.51100000000E-03 0. -1.
        -11    1    4    4    0    0 -0.56437286297E-01  0.46561571770E+01  0.41697444229E+01  0.62505802641E+01  0.51100000000E-03 0.  1.
         12    1    4    4    0    0 -0.70185732877E+01  0.20648655370E+02 -0.33533478206E+02  0.40001518723E+02  0.00000000000E+00 0. -1.
</event>
<event>
 8    1  0.2493819E-006  0.9118800E+02  0.7816164E-02  0.1184000E+00
        -11   -1    0    0    0    0  0.00000000000E+00  0.00000000000E+00  0.45593999997E+02  0.45594000000E+02  0.51100000000E-03 0. -1.
         11   -1    0    0    0    0 -0.00000000000E+00 -0.00000000000E+00 -0.45593999997E+02  0.45594000000E+02  0.51100000000E-03 0.  1.
         23    2    1    2    0    0 -0.35527136788E-14 -0.35527136788E-14  0.38857805862E-15  0.91188000000E+02  0.91188000000E+02 0.  0.
    9900012    2    3    3    0    0 -0.26197607023E+02 -0.25870189512E+02 -0.44618201679E+00  0.54367076634E+02  0.39999982803E+02 0.  0.
        -12    1    3    3    0    0  0.26197607023E+02  0.25870189512E+02  0.44618201679E+00  0.36820923366E+02  0.00000000000E+00 0.  1.
         11    1    4    4    0    0 -0.49152760535E+01  0.48467707577E+01  0.67647115734E+01  0.96650115568E+01  0.51100000000E-03 0. -1.
        -11    1    4    4    0    0 -0.87757245779E+00  0.38650786601E+01 -0.62334519550E+00  0.40121722248E+01  0.51100000000E-03 0.  1.
         12    1    4    4    0    0 -0.20404758512E+02 -0.34582038930E+02 -0.65875483947E+01  0.40689892852E+02  0.00000000000E+00 0. -1.
</event>
<event>
 8    1  0.2493819E-006  0.9118800E+02  0.7816164E-02  0.1184000E+00
        -11   -1    0    0    0    0  0.00000000000E+00  0.00000000000E+00  0.45593999997E+02  0.45594000000E+02  0.51100000000E-03 0.  1.
         11   -1    0    0    0    0 -0.00000000000E+00 -0.00000000000E+00 -0.45593999997E+02  0.45594000000E+02  0.51100000000E-03 0. -1.
         23    2    1    2    0    0  0.35527136788E-14 -0.88817841970E-15  0.00000000000E+00  0.91188000000E+02  0.91188000000E+02 0.  0.
    9900012    2    3    3    0    0  0.29132484087E+02 -0.38527216864E+01  0.22186039723E+02  0.54367279582E+02  0.40000445462E+02 0.  0.
         12    1    3    3    0    0 -0.29132484087E+02  0.38527216864E+01 -0.22186039723E+02  0.36820720418E+02  0.00000000000E+00 0. -1.
         11    1    4    4    0    0 -0.66238369314E+00  0.27454785451E+01  0.14859671669E+01  0.31913168568E+01  0.51100000000E-03 0. -1.
        -11    1    4    4    0    0  0.24601196136E+02  0.22650109609E+01  0.28908142204E+02  0.38026698673E+02  0.51100000000E-03 0.  1.
         12    1    4    4    0    0  0.51936716443E+01 -0.88632111924E+01 -0.82080696481E+01  0.13149264053E+02  0.00000000000E+00 0. -1.
</event>
<event>
 8    1  0.2493819E-006  0.9118800E+02  0.7816164E-02  0.1184000E+00
        -11   -1    0    0    0    0  0.00000000000E+00  0.00000000000E+00  0.45593999997E+02  0.45594000000E+02  0.51100000000E-03 0. -1.
         11   -1    0    0    0    0 -0.00000000000E+00 -0.00000000000E+00 -0.45593999997E+02  0.45594000000E+02  0.51100000000E-03 0.  1.
         23    2    1    2    0    0  0.00000000000E+00  0.00000000000E+00  0.00000000000E+00  0.91188000000E+02  0.91188000000E+02 0.  0.
    9900012    2    3    3    0    0  0.31497533507E+02  0.44883764229E+01 -0.18534807312E+02  0.54367092596E+02  0.40000019192E+02 0.  0.
        -12    1    3    3    0    0 -0.31497533507E+02 -0.44883764229E+01  0.18534807312E+02  0.36820907404E+02  0.00000000000E+00 0.  1.
         11    1    4    4    0    0  0.52559379699E+01  0.86677112558E+01 -0.20595827933E+02  0.22955222300E+02  0.51100000000E-03 0.  1.
        -11    1    4    4    0    0  0.11922405966E+02 -0.27124738790E+01 -0.73010200422E+01  0.14241003212E+02  0.51100000000E-03 0. -1.
         12    1    4    4    0    0  0.14319189572E+02 -0.14668609539E+01  0.93620406633E+01  0.17170867084E+02  0.00000000000E+00 0. -1.
</event>
<event>
 8    1  0.2493819E-006  0.9118800E+02  0.7816164E-02  0.1184000E+00
        -11   -1    0    0    0    0  0.00000000000E+00  0.00000000000E+00  0.45593999997E+02  0.45594000000E+02  0.51100000000E-03 0. -1.
         11   -1    0    0    0    0 -0.00000000000E+00 -0.00000000000E+00 -0.45593999997E+02  0.45594000000E+02  0.51100000000E-03 0.  1.
         23    2    1    2    0    0 -0.11657341759E-14  0.35527136788E-14  0.00000000000E+00  0.91188000000E+02  0.91188000000E+02 0.  0.
    9900012    2    3    3    0    0 -0.20041779977E+00 -0.31927118341E+02  0.18341320153E+02  0.54367013080E+02  0.39999837918E+02 0.  0.
        -12    1    3    3    0    0  0.20041779977E+00  0.31927118341E+02 -0.18341320153E+02  0.36820986920E+02  0.00000000000E+00 0.  1.
         11    1    4    4    0    0 -0.37938923941E+01 -0.50170718557E+01  0.44517244147E+01  0.77060028567E+01  0.51100000000E-03 0. -1.
        -11    1    4    4    0    0 -0.13544806265E+02 -0.17152847789E+02  0.15620366655E+02  0.26864061843E+02  0.51100000000E-03 0.  1.
         12    1    4    4    0    0  0.17138280859E+02 -0.97571986964E+01 -0.17307709168E+01  0.19796948380E+02  0.00000000000E+00 0. -1.
</event>
<event>
 8    1  0.2493819E-006  0.9118800E+02  0.7816164E-02  0.1184000E+00
        -11   -1    0    0    0    0  0.00000000000E+00  0.00000000000E+00  0.45593999997E+02  0.45594000000E+02  0.51100000000E-03 0.  1.
         11   -1    0    0    0    0 -0.00000000000E+00 -0.00000000000E+00 -0.45593999997E+02  0.45594000000E+02  0.51100000000E-03 0. -1.
         23    2    1    2    0    0  0.00000000000E+00  0.00000000000E+00  0.00000000000E+00  0.91188000000E+02  0.91188000000E+02 0.  0.
    9900012    2    3    3    0    0  0.13621453425E+02 -0.32689706900E+02 -0.10080514386E+02  0.54367113252E+02  0.40000066281E+02 0.  0.
        -12    1    3    3    0    0 -0.13621453425E+02  0.32689706900E+02  0.10080514386E+02  0.36820886748E+02  0.00000000000E+00 0.  1.
         11    1    4    4    0    0  0.37460654426E+01 -0.24601664358E+02  0.72171357010E+01  0.25910653089E+02  0.51100000000E-03 0. -1.
        -11    1    4    4    0    0  0.35171132641E+00 -0.41391923174E+01  0.33771192548E+01  0.53536481599E+01  0.51100000000E-03 0.  1.
        -12    1    4    4    0    0  0.95236766555E+01 -0.39488502239E+01 -0.20674769342E+02  0.23102812004E+02  0.00000000000E+00 0.  1.
</event>
<event>
 8    1  0.2493819E-006  0.9118800E+02  0.7816164E-02  0.1184000E+00
        -11   -1    0    0    0    0  0.00000000000E+00  0.00000000000E+00  0.45593999997E+02  0.45594000000E+02  0.51100000000E-03 0. -1.
         11   -1    0    0    0    0 -0.00000000000E+00 -0.00000000000E+00 -0.45593999997E+02  0.45594000000E+02  0.51100000000E-03 0.  1.
         23    2    1    2    0    0  0.00000000000E+00  0.00000000000E+00  0.17763568394E-14  0.91188000000E+02  0.91188000000E+02 0.  0.
    9900012    2    3    3    0    0 -0.30201016815E+01  0.33743641604E+02 -0.14423088815E+02  0.54367084017E+02  0.39999999633E+02 0.  0.
         12    1    3    3    0    0  0.30201016815E+01 -0.33743641604E+02  0.14423088815E+02  0.36820915983E+02  0.00000000000E+00 0. -1.
         11    1    4    4    0    0 -0.15824000055E+01  0.46636623470E+01  0.12972071833E+02  0.13875459782E+02  0.51100000000E-03 0. -1.
        -11    1    4    4    0    0  0.13403995718E+00  0.29804557527E+01 -0.60230738578E+01  0.67214955301E+01  0.51100000000E-03 0.  1.
         12    1    4    4    0    0 -0.15717416332E+01  0.26099523504E+02 -0.21372086791E+02  0.33770128704E+02  0.00000000000E+00 0. -1.
</event>
<event>
 8    1  0.2493819E-006  0.9118800E+02  0.7816164E-02  0.1184000E+00
        -11   -1    0    0    0    0  0.00000000000E+00  0.00000000000E+00  0.45593999997E+02  0.45594000000E+02  0.51100000000E-03 0. -1.
         11   -1    0    0    0    0 -0.00000000000E+00 -0.00000000000E+00 -0.45593999997E+02  0.45594000000E+02  0.51100000000E-03 0.  1.
         23    2    1    2    0    0  0.17763568394E-14  0.00000000000E+00  0.00000000000E+00  0.91188000000E+02  0.91188000000E+02 0.  0.
    9900012    2    3    3    0    0  0.15812985534E+02  0.66146155528E+01 -0.32588038177E+02  0.54367029309E+02  0.39999874915E+02 0.  0.
         12    1    3    3    0    0 -0.15812985534E+02 -0.66146155528E+01  0.32588038177E+02  0.36820970691E+02  0.00000000000E+00 0. -1.
         11    1    4    4    0    0  0.13199796408E+02  0.10935242306E+02  0.12732001356E+01  0.17188228191E+02  0.51100000000E-03 0. -1.
        -11    1    4    4    0    0  0.30219819973E+01  0.27703372401E+01 -0.26978975050E+02  0.27288683344E+02  0.51100000000E-03 0.  1.
         12    1    4    4    0    0 -0.40879287149E+00 -0.70909639933E+01 -0.68822632631E+01  0.98901177743E+01  0.00000000000E+00 0. -1.
</event>
<event>
 8    1  0.2493819E-006  0.9118800E+02  0.7816164E-02  0.1184000E+00
        -11   -1    0    0    0    0  0.00000000000E+00  0.00000000000E+00  0.45593999997E+02  0.45594000000E+02  0.51100000000E-03 0. -1.
         11   -1    0    0    0    0 -0.00000000000E+00 -0.00000000000E+00 -0.45593999997E+02  0.45594000000E+02  0.51100000000E-03 0.  1.
         23    2    1    2    0    0  0.00000000000E+00  0.14432899320E-14  0.00000000000E+00  0.91188000000E+02  0.91188000000E+02 0.  0.
    9900012    2    3    3    0    0  0.12469434942E+02  0.79946703672E+00 -0.34636020745E+02  0.54367083548E+02  0.39999998564E+02 0.  0.
         12    1    3    3    0    0 -0.12469434942E+02 -0.79946703672E+00  0.34636020745E+02  0.36820916452E+02  0.00000000000E+00 0. -1.
         11    1    4    4    0    0  0.39888142437E+01  0.16758685480E+02 -0.37525574412E+01  0.17630821470E+02  0.51100000000E-03 0. -1.
        -11    1    4    4    0    0  0.32303829588E+01 -0.13714826133E+02 -0.23532207898E+02  0.27428026519E+02  0.51100000000E-03 0.  1.
         12    1    4    4    0    0  0.52502377400E+01 -0.22443923105E+01 -0.73512554064E+01  0.93082355589E+01  0.00000000000E+00 0. -1.
</event>
<event>
 8    1  0.2493819E-006  0.9118800E+02  0.7816164E-02  0.1184000E+00
        -11   -1    0    0    0    0  0.00000000000E+00  0.00000000000E+00  0.45593999997E+02  0.45594000000E+02  0.51100000000E-03 0.  1.
         11   -1    0    0    0    0 -0.00000000000E+00 -0.00000000000E+00 -0.45593999997E+02  0.45594000000E+02  0.51100000000E-03 0. -1.
         23    2    1    2    0    0  0.00000000000E+00 -0.17763568394E-14  0.17763568394E-14  0.91188000000E+02  0.91188000000E+02 0.  0.
    9900012    2    3    3    0    0  0.33270736911E+02 -0.10500354753E+02  0.11772040355E+02  0.54367077705E+02  0.39999985244E+02 0.  0.
         12    1    3    3    0    0 -0.33270736911E+02  0.10500354753E+02 -0.11772040355E+02  0.36820922295E+02  0.00000000000E+00 0. -1.
         11    1    4    4    0    0 -0.38051728738E+01  0.17643484415E+01 -0.46420467623E+01  0.62562660131E+01  0.51100000000E-03 0. -1.
        -11    1    4    4    0    0  0.12291479757E+01 -0.11680203089E+01  0.98759747760E+01  0.10020476746E+02  0.51100000000E-03 0.  1.
        -12    1    4    4    0    0  0.35846761809E+02 -0.11096682886E+02  0.65381123411E+01  0.38090334945E+02  0.00000000000E+00 0.  1.
</event>
<event>
 8    1  0.2493819E-006  0.9118800E+02  0.7816164E-02  0.1184000E+00
        -11   -1    0    0    0    0  0.00000000000E+00  0.00000000000E+00  0.45593999997E+02  0.45594000000E+02  0.51100000000E-03 0. -1.
         11   -1    0    0    0    0 -0.00000000000E+00 -0.00000000000E+00 -0.45593999997E+02  0.45594000000E+02  0.51100000000E-03 0.  1.
         23    2    1    2    0    0  0.00000000000E+00  0.00000000000E+00 -0.44408920985E-15  0.91188000000E+02  0.91188000000E+02 0.  0.
    9900012    2    3    3    0    0  0.12246870259E+02  0.34574500925E+02 -0.32263054034E+01  0.54366932771E+02  0.39999654836E+02 0.  0.
         12    1    3    3    0    0 -0.12246870259E+02 -0.34574500925E+02  0.32263054034E+01  0.36821067229E+02  0.00000000000E+00 0. -1.
         11    1    4    4    0    0  0.10258048479E+01  0.15101511589E+02 -0.98035230146E+01  0.18033773638E+02  0.51100000000E-03 0. -1.
        -11    1    4    4    0    0  0.13163623138E+02  0.96162785983E+01 -0.83687317993E+01  0.18324558941E+02  0.51100000000E-03 0.  1.
         12    1    4    4    0    0 -0.19425577266E+01  0.98567107374E+01  0.14945949411E+02  0.18008600192E+02  0.00000000000E+00 0. -1.
</event>
<event>
 8    1  0.2493819E-006  0.9118800E+02  0.7816164E-02  0.1184000E+00
        -11   -1    0    0    0    0  0.00000000000E+00  0.00000000000E+00  0.45593999997E+02  0.45594000000E+02  0.51100000000E-03 0.  1.
         11   -1    0    0    0    0 -0.00000000000E+00 -0.00000000000E+00 -0.45593999997E+02  0.45594000000E+02  0.51100000000E-03 0. -1.
         23    2    1    2    0    0 -0.35527136788E-14  0.00000000000E+00  0.00000000000E+00  0.91188000000E+02  0.91188000000E+02 0.  0.
    9900012    2    3    3    0    0 -0.22256300903E+02 -0.18332340061E+02  0.22898990411E+02  0.54367063241E+02  0.39999952269E+02 0.  0.
         12    1    3    3    0    0  0.22256300903E+02  0.18332340061E+02 -0.22898990411E+02  0.36820936759E+02  0.00000000000E+00 0. -1.
         11    1    4    4    0    0 -0.25009267012E+02 -0.13752273938E+02  0.14013980276E+02  0.31795913549E+02  0.51100000000E-03 0. -1.
        -11    1    4    4    0    0 -0.67365621774E+01 -0.73298489151E+01  0.11459613735E+01  0.10021037013E+02  0.51100000000E-03 0.  1.
         12    1    4    4    0    0  0.94895282871E+01  0.27497827917E+01  0.77390487616E+01  0.12550112679E+02  0.00000000000E+00 0. -1.
</event>
<event>
 8    1  0.2493819E-006  0.9118800E+02  0.7816164E-02  0.1184000E+00
        -11   -1    0    0    0    0  0.00000000000E+00  0.00000000000E+00  0.45593999997E+02  0.45594000000E+02  0.51100000000E-03 0. -1.
         11   -1    0    0    0    0 -0.00000000000E+00 -0.00000000000E+00 -0.45593999997E+02  0.45594000000E+02  0.51100000000E-03 0.  1.
         23    2    1    2    0    0  0.13322676296E-14  0.00000000000E+00  0.00000000000E+00  0.91188000000E+02  0.91188000000E+02 0.  0.
    9900012    2    3    3    0    0  0.13163109543E+01  0.22476719136E+02 -0.29134948813E+02  0.54367070897E+02  0.39999969725E+02 0.  0.
         12    1    3    3    0    0 -0.13163109543E+01 -0.22476719136E+02  0.29134948813E+02  0.36820929103E+02  0.00000000000E+00 0. -1.
         11    1    4    4    0    0 -0.35592341195E+01  0.11592781240E+02 -0.61782011917E+01  0.13609955717E+02  0.51100000000E-03 0. -1.
        -11    1    4    4    0    0  0.15269131841E+02  0.94932860516E+01 -0.30210242540E+01  0.18231715636E+02  0.51100000000E-03 0.  1.
        -12    1    4    4    0    0 -0.10393586767E+02  0.13906518443E+01 -0.19935723367E+02  0.22525399544E+02  0.00000000000E+00 0.  1.
</event>
<event>
 8    1  0.2493819E-006  0.9118800E+02  0.7816164E-02  0.1184000E+00
        -11   -1    0    0    0    0  0.00000000000E+00  0.00000000000E+00  0.45593999997E+02  0.45594000000E+02  0.51100000000E-03 0. -1.
         11   -1    0    0    0    0 -0.00000000000E+00 -0.00000000000E+00 -0.45593999997E+02  0.45594000000E+02  0.51100000000E-03 0.  1.
         23    2    1    2    0    0  0.00000000000E+00  0.00000000000E+00  0.00000000000E+00  0.91188000000E+02  0.91188000000E+02 0.  0.
    9900012    2    3    3    0    0 -0.99578697867E+01 -0.20693367138E+02  0.28782008678E+02  0.54367100531E+02  0.40000037280E+02 0.  0.
        -12    1    3    3    0    0  0.99578697867E+01  0.20693367138E+02 -0.28782008678E+02  0.36820899469E+02  0.00000000000E+00 0.  1.
         11    1    4    4    0    0 -0.82012269435E+01 -0.21769638325E+02  0.21919608943E+02  0.31963205920E+02  0.51100000000E-03 0. -1.
        -11    1    4    4    0    0  0.84240396253E+01  0.56709396589E+01  0.34408900205E+01  0.10722113813E+02  0.51100000000E-03 0.  1.
        -12    1    4    4    0    0 -0.10180682469E+02 -0.45946684716E+01  0.34215097138E+01  0.11681780798E+02  0.00000000000E+00 0.  1.
</event>
<event>
 8    1  0.2493819E-006  0.9118800E+02  0.7816164E-02  0.1184000E+00
        -11   -1    0    0    0    0  0.00000000000E+00  0.00000000000E+00  0.45593999997E+02  0.45594000000E+02  0.51100000000E-03 0. -1.
         11   -1    0    0    0    0 -0.00000000000E+00 -0.00000000000E+00 -0.45593999997E+02  0.45594000000E+02  0.51100000000E-03 0.  1.
         23    2    1    2    0    0  0.17763568394E-14  0.14210854715E-13  0.66613381478E-15  0.91188000000E+02  0.91188000000E+02 0.  0.
    9900012    2    3    3    0    0  0.94792746284E+01  0.35548399740E+02  0.14923604293E+01  0.54367183724E+02  0.40000226936E+02 0.  0.
         12    1    3    3    0    0 -0.94792746284E+01 -0.35548399740E+02 -0.14923604293E+01  0.36820816276E+02  0.00000000000E+00 0. -1.
         11    1    4    4    0    0 -0.64095845153E+01  0.30607080376E+01 -0.84181470088E+01  0.11014350034E+02  0.51100000000E-03 0. -1.
        -11    1    4    4    0    0 -0.46763980097E+01  0.43509371566E+01 -0.17151716645E+01  0.66137105006E+01  0.51100000000E-03 0.  1.
         12    1    4    4    0    0  0.20565257153E+02  0.28136754546E+02  0.11625679103E+02  0.36739123190E+02  0.00000000000E+00 0. -1.
</event>
<event>
 8    1  0.2493819E-006  0.9118800E+02  0.7816164E-02  0.1184000E+00
        -11   -1    0    0    0    0  0.00000000000E+00  0.00000000000E+00  0.45593999997E+02  0.45594000000E+02  0.51100000000E-03 0. -1.
         11   -1    0    0    0    0 -0.00000000000E+00 -0.00000000000E+00 -0.45593999997E+02  0.45594000000E+02  0.51100000000E-03 0.  1.
         23    2    1    2    0    0 -0.17763568394E-14  0.35527136788E-14  0.00000000000E+00  0.91188000000E+02  0.91188000000E+02 0.  0.
    9900012    2    3    3    0    0  0.12098958047E+02  0.18087702516E+02  0.29702320049E+02  0.54367114834E+02  0.40000069887E+02 0.  0.
        -12    1    3    3    0    0 -0.12098958047E+02 -0.18087702516E+02 -0.29702320049E+02  0.36820885166E+02  0.00000000000E+00 0.  1.
         11    1    4    4    0    0 -0.85844196270E+00  0.19253696628E+02  0.22191036671E+02  0.29391901355E+02  0.51100000000E-03 0. -1.
        -11    1    4    4    0    0  0.46242845034E+01  0.14382116246E+01 -0.67177005390E+01  0.82813018685E+01  0.51100000000E-03 0.  1.
         12    1    4    4    0    0  0.83331155066E+01 -0.26042057372E+01  0.14228983916E+02  0.16693911611E+02  0.00000000000E+00 0. -1.
</event>
<event>
 8    1  0.2493819E-006  0.9118800E+02  0.7816164E-02  0.1184000E+00
        -11   -1    0    0    0    0  0.00000000000E+00  0.00000000000E+00  0.45593999997E+02  0.45594000000E+02  0.51100000000E-03 0. -1.
         11   -1    0    0    0    0 -0.00000000000E+00 -0.00000000000E+00 -0.45593999997E+02  0.45594000000E+02  0.51100000000E-03 0.  1.
         23    2    1    2    0    0  0.00000000000E+00  0.00000000000E+00  0.00000000000E+00  0.91188000000E+02  0.91188000000E+02 0.  0.
    9900012    2    3    3    0    0  0.30965656696E+01 -0.31484572114E+02  0.18839148340E+02  0.54367075102E+02  0.39999979311E+02 0.  0.
        -12    1    3    3    0    0 -0.30965656696E+01  0.31484572114E+02 -0.18839148340E+02  0.36820924898E+02  0.00000000000E+00 0.  1.
         11    1    4    4    0    0  0.20639993695E+00 -0.24050181235E+01 -0.53238217516E+01  0.58454932565E+01  0.51100000000E-03 0. -1.
        -11    1    4    4    0    0  0.51225563017E+01 -0.30825706130E+02  0.81965205683E+01  0.32305536541E+02  0.51100000000E-03 0.  1.
         12    1    4    4    0    0 -0.22323905690E+01  0.17461521401E+01  0.15966449524E+02  0.16216045305E+02  0.00000000000E+00 0. -1.
</event>
<event>
 8    1  0.2493819E-006  0.9118800E+02  0.7816164E-02  0.1184000E+00
        -11   -1    0    0    0    0  0.00000000000E+00  0.00000000000E+00  0.45593999997E+02  0.45594000000E+02  0.51100000000E-03 0.  1.
         11   -1    0    0    0    0 -0.00000000000E+00 -0.00000000000E+00 -0.45593999997E+02  0.45594000000E+02  0.51100000000E-03 0. -1.
         23    2    1    2    0    0  0.88817841970E-15  0.44408920985E-15  0.00000000000E+00  0.91188000000E+02  0.91188000000E+02 0.  0.
    9900012    2    3    3    0    0 -0.79881107014E+01  0.39255558514E+01  0.35729033753E+02  0.54367031053E+02  0.39999878891E+02 0.  0.
         12    1    3    3    0    0  0.79881107014E+01 -0.39255558514E+01 -0.35729033753E+02  0.36820968947E+02  0.00000000000E+00 0. -1.
         11    1    4    4    0    0 -0.16392218257E+02 -0.93192447918E+01  0.59836814925E+01  0.19782759852E+02  0.51100000000E-03 0. -1.
        -11    1    4    4    0    0 -0.93982637712E+00  0.51760802320E+01  0.78877722989E+01  0.94811408748E+01  0.51100000000E-03 0.  1.
         12    1    4    4    0    0  0.93439339329E+01  0.80687204112E+01  0.21857579961E+02  0.25103130326E+02  0.00000000000E+00 0. -1.
</event>
<event>
 8    1  0.2493819E-006  0.9118800E+02  0.7816164E-02  0.1184000E+00
        -11   -1    0    0    0    0  0.00000000000E+00  0.00000000000E+00  0.45593999997E+02  0.45594000000E+02  0.51100000000E-03 0. -1.
         11   -1    0    0    0    0 -0.00000000000E+00 -0.00000000000E+00 -0.45593999997E+02  0.45594000000E+02  0.51100000000E-03 0.  1.
         23    2    1    2    0    0  0.00000000000E+00 -0.88817841970E-15  0.00000000000E+00  0.91188000000E+02  0.91188000000E+02 0.  0.
    9900012    2    3    3    0    0 -0.28942615636E+02  0.45867928693E+01  0.22295015654E+02  0.54367063134E+02  0.39999952026E+02 0.  0.
        -12    1    3    3    0    0  0.28942615636E+02 -0.45867928693E+01 -0.22295015654E+02  0.36820936866E+02  0.00000000000E+00 0.  1.
         11    1    4    4    0    0 -0.15798917201E+02  0.10505989155E+02  0.69292249354E+01  0.20198904706E+02  0.51100000000E-03 0. -1.
        -11    1    4    4    0    0 -0.20772692174E+02 -0.66711558253E+01  0.72171708487E+01  0.22980352816E+02  0.51100000000E-03 0.  1.
        -12    1    4    4    0    0  0.76289937392E+01  0.75195953974E+00  0.81486198700E+01  0.11187805612E+02  0.00000000000E+00 0.  1.
</event>
<event>
 8    1  0.2493819E-006  0.9118800E+02  0.7816164E-02  0.1184000E+00
        -11   -1    0    0    0    0  0.00000000000E+00  0.00000000000E+00  0.45593999997E+02  0.45594000000E+02  0.51100000000E-03 0.  1.
         11   -1    0    0    0    0 -0.00000000000E+00 -0.00000000000E+00 -0.45593999997E+02  0.45594000000E+02  0.51100000000E-03 0. -1.
         23    2    1    2    0    0 -0.71054273576E-14 -0.35527136788E-14 -0.35527136788E-14  0.91188000000E+02  0.91188000000E+02 0.  0.
    9900012    2    3    3    0    0  0.19934238160E+02  0.25306632611E+02  0.17832134590E+02  0.54367020530E+02  0.39999854902E+02 0.  0.
         12    1    3    3    0    0 -0.19934238160E+02 -0.25306632611E+02 -0.17832134590E+02  0.36820979470E+02  0.00000000000E+00 0. -1.
         11    1    4    4    0    0  0.58676621968E+01 -0.28010633704E+00  0.46816655800E+01  0.75117183174E+01  0.51100000000E-03 0. -1.
        -11    1    4    4    0    0 -0.31294010557E+01 -0.61372666985E+01  0.77488923479E+01  0.10368438956E+02  0.51100000000E-03 0.  1.
        -12    1    4    4    0    0  0.17195977019E+02  0.31724005646E+02  0.54015766617E+01  0.36486863257E+02  0.00000000000E+00 0.  1.
</event>
<event>
 8    1  0.2493819E-006  0.9118800E+02  0.7816164E-02  0.1184000E+00
        -11   -1    0    0    0    0  0.00000000000E+00  0.00000000000E+00  0.45593999997E+02  0.45594000000E+02  0.51100000000E-03 0. -1.
         11   -1    0    0    0    0 -0.00000000000E+00 -0.00000000000E+00 -0.45593999997E+02  0.45594000000E+02  0.51100000000E-03 0.  1.
         23    2    1    2    0    0  0.35527136788E-14 -0.17763568394E-14  0.35527136788E-14  0.91188000000E+02  0.91188000000E+02 0.  0.
    9900012    2    3    3    0    0  0.28609056701E+02 -0.63182729587E+01  0.22302058187E+02  0.54367075271E+02  0.39999979696E+02 0.  0.
        -12    1    3    3    0    0 -0.28609056701E+02  0.63182729587E+01 -0.22302058187E+02  0.36820924729E+02  0.00000000000E+00 0.  1.
         11    1    4    4    0    0  0.36943815500E+01 -0.84054015421E+01  0.18170345332E+02  0.20358307392E+02  0.51100000000E-03 0.  1.
        -11    1    4    4    0    0  0.21011441679E+02 -0.42243762023E+01  0.10829189907E+02  0.24012442401E+02  0.51100000000E-03 0. -1.
        -12    1    4    4    0    0  0.39032334720E+01  0.63115047857E+01 -0.66974770529E+01  0.99963254784E+01  0.00000000000E+00 0.  1.
</event>
<event>
 8    1  0.2493819E-006  0.9118800E+02  0.7816164E-02  0.1184000E+00
        -11   -1    0    0    0    0  0.00000000000E+00  0.00000000000E+00  0.45593999997E+02  0.45594000000E+02  0.51100000000E-03 0. -1.
         11   -1    0    0    0    0 -0.00000000000E+00 -0.00000000000E+00 -0.45593999997E+02  0.45594000000E+02  0.51100000000E-03 0.  1.
         23    2    1    2    0    0  0.35527136788E-14 -0.35527136788E-14  0.00000000000E+00  0.91188000000E+02  0.91188000000E+02 0.  0.
    9900012    2    3    3    0    0  0.30442825172E+02 -0.17628997480E+02 -0.10873675493E+02  0.54367028050E+02  0.39999872046E+02 0.  0.
         12    1    3    3    0    0 -0.30442825172E+02  0.17628997480E+02  0.10873675493E+02  0.36820971950E+02  0.00000000000E+00 0. -1.
         11    1    4    4    0    0  0.84274606525E+01 -0.16087613880E+02  0.42464603165E+01  0.18651161864E+02  0.51100000000E-03 0. -1.
        -11    1    4    4    0    0  0.30894433809E+00 -0.72528947142E+01 -0.10555943865E+02  0.12811240357E+02  0.51100000000E-03 0.  1.
         12    1    4    4    0    0  0.21706420181E+02  0.57115111141E+01 -0.45641919442E+01  0.22904625830E+02  0.00000000000E+00 0. -1.
</event>
<event>
 8    1  0.2493819E-006  0.9118800E+02  0.7816164E-02  0.1184000E+00
        -11   -1    0    0    0    0  0.00000000000E+00  0.00000000000E+00  0.45593999997E+02  0.45594000000E+02  0.51100000000E-03 0.  1.
         11   -1    0    0    0    0 -0.00000000000E+00 -0.00000000000E+00 -0.45593999997E+02  0.45594000000E+02  0.51100000000E-03 0. -1.
         23    2    1    2    0    0 -0.17763568394E-14  0.35527136788E-14  0.00000000000E+00  0.91188000000E+02  0.91188000000E+02 0.  0.
    9900012    2    3    3    0    0 -0.45621845285E+01  0.17174787320E+02  0.32248920089E+02  0.54367086186E+02  0.40000004578E+02 0.  0.
         12    1    3    3    0    0  0.45621845285E+01 -0.17174787320E+02 -0.32248920089E+02  0.36820913814E+02  0.00000000000E+00 0. -1.
         11    1    4    4    0    0 -0.50950223732E+01  0.98756005307E+01 -0.49354331273E+01  0.12159162769E+02  0.51100000000E-03 0. -1.
        -11    1    4    4    0    0  0.34046045034E+01 -0.57075973146E+01  0.11941746710E+02  0.13666503345E+02  0.51100000000E-03 0.  1.
        -12    1    4    4    0    0 -0.28717666587E+01  0.13006784104E+02  0.25242606507E+02  0.28541420072E+02  0.00000000000E+00 0.  1.
</event>
<event>
 8    1  0.2493819E-006  0.9118800E+02  0.7816164E-02  0.1184000E+00
        -11   -1    0    0    0    0  0.00000000000E+00  0.00000000000E+00  0.45593999997E+02  0.45594000000E+02  0.51100000000E-03 0. -1.
         11   -1    0    0    0    0 -0.00000000000E+00 -0.00000000000E+00 -0.45593999997E+02  0.45594000000E+02  0.51100000000E-03 0.  1.
         23    2    1    2    0    0  0.00000000000E+00  0.00000000000E+00  0.00000000000E+00  0.91188000000E+02  0.91188000000E+02 0.  0.
    9900012    2    3    3    0    0 -0.98268184579E+01 -0.13156392646E+02  0.32956424313E+02  0.54367042219E+02  0.39999904345E+02 0.  0.
        -12    1    3    3    0    0  0.98268184579E+01  0.13156392646E+02 -0.32956424313E+02  0.36820957781E+02  0.00000000000E+00 0.  1.
         11    1    4    4    0    0 -0.64376888816E+01 -0.33431649614E+00  0.54213883763E+01  0.84230076483E+01  0.51100000000E-03 0. -1.
        -11    1    4    4    0    0 -0.13873253785E+02 -0.16243963115E+02  0.67304987506E+01  0.22397167722E+02  0.51100000000E-03 0.  1.
         12    1    4    4    0    0  0.10484124209E+02  0.34218869657E+01  0.20804537186E+02  0.23546866848E+02  0.00000000000E+00 0. -1.
</event>
<event>
 8    1  0.2493819E-006  0.9118800E+02  0.7816164E-02  0.1184000E+00
        -11   -1    0    0    0    0  0.00000000000E+00  0.00000000000E+00  0.45593999997E+02  0.45594000000E+02  0.51100000000E-03 0. -1.
         11   -1    0    0    0    0 -0.00000000000E+00 -0.00000000000E+00 -0.45593999997E+02  0.45594000000E+02  0.51100000000E-03 0.  1.
         23    2    1    2    0    0  0.00000000000E+00 -0.35527136788E-14  0.00000000000E+00  0.91188000000E+02  0.91188000000E+02 0.  0.
    9900012    2    3    3    0    0 -0.13847021423E+02  0.23733546546E+02  0.24510430951E+02  0.54367048636E+02  0.39999918975E+02 0.  0.
        -12    1    3    3    0    0  0.13847021423E+02 -0.23733546546E+02 -0.24510430951E+02  0.36820951364E+02  0.00000000000E+00 0.  1.
         11    1    4    4    0    0 -0.18913904221E+02  0.10698388927E+02  0.17377356183E+02  0.27823799286E+02  0.51100000000E-03 0. -1.
        -11    1    4    4    0    0  0.77028332493E+01 -0.14676184351E+01 -0.32758717953E+01  0.84981692275E+01  0.51100000000E-03 0.  1.
         12    1    4    4    0    0 -0.26359504513E+01  0.14502776054E+02  0.10408946564E+02  0.18045080122E+02  0.00000000000E+00 0. -1.
</event>
<event>
 8    1  0.2493819E-006  0.9118800E+02  0.7816164E-02  0.1184000E+00
        -11   -1    0    0    0    0  0.00000000000E+00  0.00000000000E+00  0.45593999997E+02  0.45594000000E+02  0.51100000000E-03 0.  1.
         11   -1    0    0    0    0 -0.00000000000E+00 -0.00000000000E+00 -0.45593999997E+02  0.45594000000E+02  0.51100000000E-03 0. -1.
         23    2    1    2    0    0  0.00000000000E+00  0.35527136788E-14  0.17763568394E-14  0.91188000000E+02  0.91188000000E+02 0.  0.
    9900012    2    3    3    0    0 -0.27032801273E+02 -0.24464856398E+02 -0.51456929269E+01  0.54367086120E+02  0.40000004428E+02 0.  0.
         12    1    3    3    0    0  0.27032801273E+02  0.24464856398E+02  0.51456929269E+01  0.36820913880E+02  0.00000000000E+00 0. -1.
         11    1    4    4    0    0 -0.13683996072E+02 -0.95658904400E+01  0.73404441772E+00  0.16712176097E+02  0.51100000000E-03 0.  1.
        -11    1    4    4    0    0 -0.10316752321E+02 -0.19401502436E+02  0.74978747797E+01  0.23217919840E+02  0.51100000000E-03 0. -1.
         12    1    4    4    0    0 -0.30320528795E+01  0.45025364778E+01 -0.13377612124E+02  0.14436990183E+02  0.00000000000E+00 0. -1.
</event>
<event>
 8    1  0.2493819E-006  0.9118800E+02  0.7816164E-02  0.1184000E+00
        -11   -1    0    0    0    0  0.00000000000E+00  0.00000000000E+00  0.45593999997E+02  0.45594000000E+02  0.51100000000E-03 0. -1.
         11   -1    0    0    0    0 -0.00000000000E+00 -0.00000000000E+00 -0.45593999997E+02  0.45594000000E+02  0.51100000000E-03 0.  1.
         23    2    1    2    0    0  0.00000000000E+00  0.26645352591E-14 -0.35527136788E-14  0.91188000000E+02  0.91188000000E+02 0.  0.
    9900012    2    3    3    0    0 -0.27404603930E+02 -0.68417743011E+01  0.23621081287E+02  0.54367113627E+02  0.40000067135E+02 0.  0.
        -12    1    3    3    0    0  0.27404603930E+02  0.68417743011E+01 -0.23621081287E+02  0.36820886373E+02  0.00000000000E+00 0.  1.
         11    1    4    4    0    0 -0.54000082536E+01  0.73965255201E+01  0.15580634134E+02  0.18072765123E+02  0.51100000000E-03 0. -1.
        -11    1    4    4    0    0  0.46499008215E+01 -0.36484376103E+01  0.44311653354E+01  0.73870089439E+01  0.51100000000E-03 0.  1.
         12    1    4    4    0    0 -0.26654496498E+02 -0.10589862211E+02  0.36092818176E+01  0.28907339560E+02  0.00000000000E+00 0. -1.
</event>
<event>
 8    1  0.2493819E-006  0.9118800E+02  0.7816164E-02  0.1184000E+00
        -11   -1    0    0    0    0  0.00000000000E+00  0.00000000000E+00  0.45593999997E+02  0.45594000000E+02  0.51100000000E-03 0.  1.
         11   -1    0    0    0    0 -0.00000000000E+00 -0.00000000000E+00 -0.45593999997E+02  0.45594000000E+02  0.51100000000E-03 0. -1.
         23    2    1    2    0    0  0.14432899320E-14  0.00000000000E+00 -0.53290705182E-14  0.91188000000E+02  0.91188000000E+02 0.  0.
    9900012    2    3    3    0    0 -0.81496835001E+00  0.33390732248E+02 -0.15497447500E+02  0.54367135637E+02  0.40000117311E+02 0.  0.
        -12    1    3    3    0    0  0.81496835001E+00 -0.33390732248E+02  0.15497447500E+02  0.36820864363E+02  0.00000000000E+00 0.  1.
         11    1    4    4    0    0 -0.37623039736E+01  0.12336832170E+00 -0.42217261189E+01  0.56562463363E+01  0.51100000000E-03 0. -1.
        -11    1    4    4    0    0 -0.11595246266E+02  0.94723594084E+01  0.57484697649E+01  0.16038086969E+02  0.51100000000E-03 0.  1.
        -12    1    4    4    0    0  0.14542581890E+02  0.23795004517E+02 -0.17024191146E+02  0.32672802331E+02  0.00000000000E+00 0.  1.
</event>
<event>
 8    1  0.2493819E-006  0.9118800E+02  0.7816164E-02  0.1184000E+00
        -11   -1    0    0    0    0  0.00000000000E+00  0.00000000000E+00  0.45593999997E+02  0.45594000000E+02  0.51100000000E-03 0. -1.
         11   -1    0    0    0    0 -0.00000000000E+00 -0.00000000000E+00 -0.45593999997E+02  0.45594000000E+02  0.51100000000E-03 0.  1.
         23    2    1    2    0    0  0.00000000000E+00  0.17763568394E-14  0.00000000000E+00  0.91188000000E+02  0.91188000000E+02 0.  0.
    9900012    2    3    3    0    0 -0.44392247853E+01 -0.14364701224E+02 -0.33611446816E+02  0.54367072323E+02  0.39999972974E+02 0.  0.
         12    1    3    3    0    0  0.44392247853E+01  0.14364701224E+02  0.33611446816E+02  0.36820927677E+02  0.00000000000E+00 0. -1.
         11    1    4    4    0    0 -0.48736537815E+01 -0.25054700304E+02 -0.26090510695E+02  0.36499387078E+02  0.51100000000E-03 0. -1.
        -11    1    4    4    0    0  0.62841434770E+01  0.58818524743E+01 -0.45259047474E+01  0.97247345369E+01  0.51100000000E-03 0.  1.
        -12    1    4    4    0    0 -0.58497144808E+01  0.48081466061E+01 -0.29950313736E+01  0.81429507073E+01  0.00000000000E+00 0.  1.
</event>
<event>
 8    1  0.2493819E-006  0.9118800E+02  0.7816164E-02  0.1184000E+00
        -11   -1    0    0    0    0  0.00000000000E+00  0.00000000000E+00  0.45593999997E+02  0.45594000000E+02  0.51100000000E-03 0. -1.
         11   -1    0    0    0    0 -0.00000000000E+00 -0.00000000000E+00 -0.45593999997E+02  0.45594000000E+02  0.51100000000E-03 0.  1.
         23    2    1    2    0    0  0.00000000000E+00  0.00000000000E+00  0.00000000000E+00  0.91188000000E+02  0.91188000000E+02 0.  0.
    9900012    2    3    3    0    0  0.38985763746E+01 -0.12997990973E+02  0.34229126164E+02  0.54367085494E+02  0.40000003001E+02 0.  0.
        -12    1    3    3    0    0 -0.38985763746E+01  0.12997990973E+02 -0.34229126164E+02  0.36820914506E+02  0.00000000000E+00 0.  1.
         11    1    4    4    0    0  0.67981037027E+01  0.54973794039E+01 -0.30561844552E+01  0.92615148841E+01  0.51100000000E-03 0. -1.
        -11    1    4    4    0    0 -0.79225585965E+01 -0.17627729463E+02  0.23610699736E+02  0.30511783347E+02  0.51100000000E-03 0.  1.
         12    1    4    4    0    0  0.50230312683E+01 -0.86764091428E+00  0.13674610883E+02  0.14593787263E+02  0.00000000000E+00 0. -1.
</event>
<event>
 8    1  0.2493819E-006  0.9118800E+02  0.7816164E-02  0.1184000E+00
        -11   -1    0    0    0    0  0.00000000000E+00  0.00000000000E+00  0.45593999997E+02  0.45594000000E+02  0.51100000000E-03 0.  1.
         11   -1    0    0    0    0 -0.00000000000E+00 -0.00000000000E+00 -0.45593999997E+02  0.45594000000E+02  0.51100000000E-03 0. -1.
         23    2    1    2    0    0  0.00000000000E+00  0.00000000000E+00  0.35527136788E-14  0.91188000000E+02  0.91188000000E+02 0.  0.
    9900012    2    3    3    0    0 -0.18703608866E+02  0.20410843556E+02  0.24276575510E+02  0.54367086951E+02  0.40000006322E+02 0.  0.
         12    1    3    3    0    0  0.18703608866E+02 -0.20410843556E+02 -0.24276575510E+02  0.36820913049E+02  0.00000000000E+00 0. -1.
         11    1    4    4    0    0 -0.19556296426E+02  0.12505864795E+01  0.80780106489E+01  0.21195918304E+02  0.51100000000E-03 0. -1.
        -11    1    4    4    0    0 -0.10295313892E+02  0.11159147771E+02  0.94004185610E+01  0.17857433648E+02  0.51100000000E-03 0.  1.
        -12    1    4    4    0    0  0.11148001452E+02  0.80011093056E+01  0.67981463004E+01  0.15313734999E+02  0.00000000000E+00 0.  1.
</event>
<event>
 8    1  0.2493819E-006  0.9118800E+02  0.7816164E-02  0.1184000E+00
        -11   -1    0    0    0    0  0.00000000000E+00  0.00000000000E+00  0.45593999997E+02  0.45594000000E+02  0.51100000000E-03 0.  1.
         11   -1    0    0    0    0 -0.00000000000E+00 -0.00000000000E+00 -0.45593999997E+02  0.45594000000E+02  0.51100000000E-03 0. -1.
         23    2    1    2    0    0  0.00000000000E+00  0.17763568394E-14  0.00000000000E+00  0.91188000000E+02  0.91188000000E+02 0.  0.
    9900012    2    3    3    0    0  0.34004781480E+02  0.13004698149E+02 -0.55077365360E+01  0.54367048095E+02  0.39999917742E+02 0.  0.
         12    1    3    3    0    0 -0.34004781480E+02 -0.13004698149E+02  0.55077365360E+01  0.36820951905E+02  0.00000000000E+00 0. -1.
         11    1    4    4    0    0  0.37328892122E+02  0.17980908544E+02 -0.10827577561E+02  0.42825175951E+02  0.51100000000E-03 0. -1.
        -11    1    4    4    0    0 -0.16313910364E+01  0.61592253989E+00 -0.16817972127E+01  0.24226513193E+01  0.51100000000E-03 0.  1.
        -12    1    4    4    0    0 -0.16927196060E+01 -0.55921329349E+01  0.70016382382E+01  0.91192208244E+01  0.00000000000E+00 0.  1.
</event>
<event>
 8    1  0.2493819E-006  0.9118800E+02  0.7816164E-02  0.1184000E+00
        -11   -1    0    0    0    0  0.00000000000E+00  0.00000000000E+00  0.45593999997E+02  0.45594000000E+02  0.51100000000E-03 0. -1.
         11   -1    0    0    0    0 -0.00000000000E+00 -0.00000000000E+00 -0.45593999997E+02  0.45594000000E+02  0.51100000000E-03 0.  1.
         23    2    1    2    0    0 -0.35527136788E-14  0.44408920985E-15 -0.35527136788E-14  0.91188000000E+02  0.91188000000E+02 0.  0.
    9900012    2    3    3    0    0 -0.23249455659E+02  0.42208997232E+00 -0.28549188452E+02  0.54367197325E+02  0.40000257940E+02 0.  0.
         12    1    3    3    0    0  0.23249455659E+02 -0.42208997232E+00  0.28549188452E+02  0.36820802675E+02  0.00000000000E+00 0. -1.
         11    1    4    4    0    0 -0.13163051382E+00 -0.49447825018E+01 -0.14148587763E+02  0.14988353363E+02  0.51100000000E-03 0. -1.
        -11    1    4    4    0    0 -0.15262254831E+02 -0.10643034409E+02 -0.94617149086E+01  0.20874258148E+02  0.51100000000E-03 0.  1.
         12    1    4    4    0    0 -0.78555703143E+01  0.16009906883E+02 -0.49388857804E+01  0.18504585814E+02  0.00000000000E+00 0. -1.
</event>
<event>
 8    1  0.2493819E-006  0.9118800E+02  0.7816164E-02  0.1184000E+00
        -11   -1    0    0    0    0  0.00000000000E+00  0.00000000000E+00  0.45593999997E+02  0.45594000000E+02  0.51100000000E-03 0. -1.
         11   -1    0    0    0    0 -0.00000000000E+00 -0.00000000000E+00 -0.45593999997E+02  0.45594000000E+02  0.51100000000E-03 0.  1.
         23    2    1    2    0    0  0.00000000000E+00  0.35527136788E-14  0.00000000000E+00  0.91188000000E+02  0.91188000000E+02 0.  0.
    9900012    2    3    3    0    0 -0.33806104212E+02  0.14443663749E+02  0.20753641038E+01  0.54367092343E+02  0.40000018615E+02 0.  0.
         12    1    3    3    0    0  0.33806104212E+02 -0.14443663749E+02 -0.20753641038E+01  0.36820907657E+02  0.00000000000E+00 0. -1.
         11    1    4    4    0    0 -0.14369847635E+01 -0.10106870841E+02  0.73754461102E+01  0.12594084682E+02  0.51100000000E-03 0. -1.
        -11    1    4    4    0    0 -0.25377203966E+01  0.40417085401E+01 -0.26890313872E+01  0.54778027344E+01  0.51100000000E-03 0.  1.
         12    1    4    4    0    0 -0.29831399052E+02  0.20508826049E+02 -0.26110506192E+01  0.36295204927E+02  0.00000000000E+00 0. -1.
</event>
<event>
 8    1  0.2493819E-006  0.9118800E+02  0.7816164E-02  0.1184000E+00
        -11   -1    0    0    0    0  0.00000000000E+00  0.00000000000E+00  0.45593999997E+02  0.45594000000E+02  0.51100000000E-03 0. -1.
         11   -1    0    0    0    0 -0.00000000000E+00 -0.00000000000E+00 -0.45593999997E+02  0.45594000000E+02  0.51100000000E-03 0.  1.
         23    2    1    2    0    0  0.00000000000E+00  0.13322676296E-14  0.44408920985E-15  0.91188000000E+02  0.91188000000E+02 0.  0.
    9900012    2    3    3    0    0 -0.36563802971E+02  0.31494058863E+01  0.29916913743E+01  0.54367073037E+02  0.39999974602E+02 0.  0.
         12    1    3    3    0    0  0.36563802971E+02 -0.31494058863E+01 -0.29916913743E+01  0.36820926963E+02  0.00000000000E+00 0. -1.
         11    1    4    4    0    0 -0.10811326205E+02  0.10793917450E+02  0.12291433217E+01  0.15326585458E+02  0.51100000000E-03 0. -1.
        -11    1    4    4    0    0 -0.20452220084E+02 -0.92700737537E+01  0.13400450186E+02  0.26149562888E+02  0.51100000000E-03 0.  1.
        -12    1    4    4    0    0 -0.53002566824E+01  0.16255621899E+01 -0.11637902134E+02  0.12890924692E+02  0.00000000000E+00 0.  1.
</event>
<event>
 8    1  0.2493819E-006  0.9118800E+02  0.7816164E-02  0.1184000E+00
        -11   -1    0    0    0    0  0.00000000000E+00  0.00000000000E+00  0.45593999997E+02  0.45594000000E+02  0.51100000000E-03 0.  1.
         11   -1    0    0    0    0 -0.00000000000E+00 -0.00000000000E+00 -0.45593999997E+02  0.45594000000E+02  0.51100000000E-03 0. -1.
         23    2    1    2    0    0 -0.71054273576E-14  0.00000000000E+00  0.17763568394E-14  0.91188000000E+02  0.91188000000E+02 0.  0.
    9900012    2    3    3    0    0  0.33971222935E+02  0.10015949026E+02  0.10070606687E+02  0.54367077393E+02  0.39999984533E+02 0.  0.
         12    1    3    3    0    0 -0.33971222935E+02 -0.10015949026E+02 -0.10070606687E+02  0.36820922607E+02  0.00000000000E+00 0. -1.
         11    1    4    4    0    0  0.22548727920E+02  0.47163182883E+01  0.45649059837E+01  0.23484615303E+02  0.51100000000E-03 0. -1.
        -11    1    4    4    0    0  0.22861405416E+01  0.32963178350E+01  0.16191665090E+02  0.16681192058E+02  0.51100000000E-03 0.  1.
         12    1    4    4    0    0  0.91363544731E+01  0.20033129027E+01 -0.10685964387E+02  0.14201270032E+02  0.00000000000E+00 0. -1.
</event>
<event>
 8    1  0.2493819E-006  0.9118800E+02  0.7816164E-02  0.1184000E+00
        -11   -1    0    0    0    0  0.00000000000E+00  0.00000000000E+00  0.45593999997E+02  0.45594000000E+02  0.51100000000E-03 0. -1.
         11   -1    0    0    0    0 -0.00000000000E+00 -0.00000000000E+00 -0.45593999997E+02  0.45594000000E+02  0.51100000000E-03 0.  1.
         23    2    1    2    0    0 -0.17763568394E-14  0.00000000000E+00  0.00000000000E+00  0.91188000000E+02  0.91188000000E+02 0.  0.
    9900012    2    3    3    0    0 -0.10841180540E+02  0.23650906142E+02  0.26055373148E+02  0.54367095249E+02  0.40000025239E+02 0.  0.
        -12    1    3    3    0    0  0.10841180540E+02 -0.23650906142E+02 -0.26055373148E+02  0.36820904751E+02  0.00000000000E+00 0.  1.
         11    1    4    4    0    0 -0.10181235630E+02  0.26549340308E+02  0.20991000223E+02  0.35343275462E+02  0.51100000000E-03 0. -1.
        -11    1    4    4    0    0 -0.42323212691E+01  0.55826268169E+01  0.66805036653E+01  0.96802580020E+01  0.51100000000E-03 0.  1.
        -12    1    4    4    0    0  0.35723763588E+01 -0.84810609836E+01 -0.16161307407E+01  0.93435617848E+01  0.00000000000E+00 0.  1.
</event>
<event>
 8    1  0.2493819E-006  0.9118800E+02  0.7816164E-02  0.1184000E+00
        -11   -1    0    0    0    0  0.00000000000E+00  0.00000000000E+00  0.45593999997E+02  0.45594000000E+02  0.51100000000E-03 0.  1.
         11   -1    0    0    0    0 -0.00000000000E+00 -0.00000000000E+00 -0.45593999997E+02  0.45594000000E+02  0.51100000000E-03 0. -1.
         23    2    1    2    0    0  0.00000000000E+00  0.00000000000E+00  0.00000000000E+00  0.91188000000E+02  0.91188000000E+02 0.  0.
    9900012    2    3    3    0    0  0.25359757059E+01 -0.36460499078E+02  0.44699816667E+01  0.54367083365E+02  0.39999998146E+02 0.  0.
         12    1    3    3    0    0 -0.25359757059E+01  0.36460499078E+02 -0.44699816667E+01  0.36820916635E+02  0.00000000000E+00 0. -1.
         11    1    4    4    0    0 -0.62913034481E+00 -0.17346212346E+02  0.10580440033E+02  0.20328123359E+02  0.51100000000E-03 0. -1.
        -11    1    4    4    0    0 -0.48241207664E+01 -0.13383610885E+02  0.83924566632E+01  0.16517460779E+02  0.51100000000E-03 0.  1.
         12    1    4    4    0    0  0.79892268172E+01 -0.57306758471E+01 -0.14502915030E+02  0.17521499227E+02  0.00000000000E+00 0. -1.
</event>
<event>
 8    1  0.2493819E-006  0.9118800E+02  0.7816164E-02  0.1184000E+00
        -11   -1    0    0    0    0  0.00000000000E+00  0.00000000000E+00  0.45593999997E+02  0.45594000000E+02  0.51100000000E-03 0. -1.
         11   -1    0    0    0    0 -0.00000000000E+00 -0.00000000000E+00 -0.45593999997E+02  0.45594000000E+02  0.51100000000E-03 0.  1.
         23    2    1    2    0    0  0.35527136788E-14  0.00000000000E+00  0.00000000000E+00  0.91188000000E+02  0.91188000000E+02 0.  0.
    9900012    2    3    3    0    0  0.30288657080E+02 -0.20874860330E+02 -0.16179810774E+01  0.54367076542E+02  0.39999982592E+02 0.  0.
        -12    1    3    3    0    0 -0.30288657080E+02  0.20874860330E+02  0.16179810774E+01  0.36820923458E+02  0.00000000000E+00 0.  1.
         11    1    4    4    0    0  0.70948069762E+01  0.38703278502E+01  0.37850698902E+01  0.89242634448E+01  0.51100000000E-03 0. -1.
        -11    1    4    4    0    0  0.13342027073E+00 -0.16286838804E+02 -0.11737978939E+02  0.20076331065E+02  0.51100000000E-03 0.  1.
        -12    1    4    4    0    0  0.23060429833E+02 -0.84583493762E+01  0.63349279712E+01  0.25366482032E+02  0.00000000000E+00 0.  1.
</event>
<event>
 8    1  0.2493819E-006  0.9118800E+02  0.7816164E-02  0.1184000E+00
        -11   -1    0    0    0    0  0.00000000000E+00  0.00000000000E+00  0.45593999997E+02  0.45594000000E+02  0.51100000000E-03 0.  1.
         11   -1    0    0    0    0 -0.00000000000E+00 -0.00000000000E+00 -0.45593999997E+02  0.45594000000E+02  0.51100000000E-03 0. -1.
         23    2    1    2    0    0  0.00000000000E+00 -0.35527136788E-14  0.35527136788E-14  0.91188000000E+02  0.91188000000E+02 0.  0.
    9900012    2    3    3    0    0 -0.89892559585E+01  0.28694149969E+02 -0.21251324229E+02  0.54367085473E+02  0.40000002954E+02 0.  0.
        -12    1    3    3    0    0  0.89892559585E+01 -0.28694149969E+02  0.21251324229E+02  0.36820914527E+02  0.00000000000E+00 0.  1.
         11    1    4    4    0    0  0.46718550376E+01  0.18698959305E+02 -0.31461531915E+01  0.19528839923E+02  0.51100000000E-03 0. -1.
        -11    1    4    4    0    0 -0.51589500114E+01  0.41470277979E+01 -0.22624382856E+02  0.23572766165E+02  0.51100000000E-03 0.  1.
         12    1    4    4    0    0 -0.85021609847E+01  0.58481628658E+01  0.45192118192E+01  0.11265479385E+02  0.00000000000E+00 0. -1.
</event>
<event>
 8    1  0.2493819E-006  0.9118800E+02  0.7816164E-02  0.1184000E+00
        -11   -1    0    0    0    0  0.00000000000E+00  0.00000000000E+00  0.45593999997E+02  0.45594000000E+02  0.51100000000E-03 0.  1.
         11   -1    0    0    0    0 -0.00000000000E+00 -0.00000000000E+00 -0.45593999997E+02  0.45594000000E+02  0.51100000000E-03 0. -1.
         23    2    1    2    0    0  0.88817841970E-15  0.00000000000E+00  0.00000000000E+00  0.91188000000E+02  0.91188000000E+02 0.  0.
    9900012    2    3    3    0    0 -0.50512337340E+01 -0.59351003016E+01  0.35986688617E+02  0.54367053034E+02  0.39999929002E+02 0.  0.
         12    1    3    3    0    0  0.50512337340E+01  0.59351003016E+01 -0.35986688617E+02  0.36820946966E+02  0.00000000000E+00 0. -1.
         11    1    4    4    0    0 -0.11481114830E+01 -0.41930185451E+01  0.79946310975E+00  0.44202608545E+01  0.51100000000E-03 0. -1.
        -11    1    4    4    0    0  0.13273693700E+02  0.18509176781E+01  0.37063488971E+01  0.13905173968E+02  0.51100000000E-03 0.  1.
        -12    1    4    4    0    0 -0.17176815951E+02 -0.35929994345E+01  0.31480876610E+02  0.36041618211E+02  0.00000000000E+00 0.  1.
</event>
<event>
 8    1  0.2493819E-006  0.9118800E+02  0.7816164E-02  0.1184000E+00
        -11   -1    0    0    0    0  0.00000000000E+00  0.00000000000E+00  0.45593999997E+02  0.45594000000E+02  0.51100000000E-03 0. -1.
         11   -1    0    0    0    0 -0.00000000000E+00 -0.00000000000E+00 -0.45593999997E+02  0.45594000000E+02  0.51100000000E-03 0.  1.
         23    2    1    2    0    0  0.00000000000E+00  0.55511151231E-15 -0.35527136788E-14  0.91188000000E+02  0.91188000000E+02 0.  0.
    9900012    2    3    3    0    0  0.23352924622E+02  0.19729864752E+00 -0.28467196580E+02  0.54367091588E+02  0.40000016893E+02 0.  0.
         12    1    3    3    0    0 -0.23352924622E+02 -0.19729864752E+00  0.28467196580E+02  0.36820908412E+02  0.00000000000E+00 0. -1.
         11    1    4    4    0    0 -0.23097046629E+01  0.20719797043E+00 -0.85039897889E+01  0.88145056140E+01  0.51100000000E-03 0. -1.
        -11    1    4    4    0    0  0.51392121058E+01  0.14330019205E+02 -0.36025633096E+01  0.15644149518E+02  0.51100000000E-03 0.  1.
         12    1    4    4    0    0  0.20523417179E+02 -0.14339918528E+02 -0.16360643482E+02  0.29908436456E+02  0.00000000000E+00 0. -1.
</event>
<event>
 8    1  0.2493819E-006  0.9118800E+02  0.7816164E-02  0.1184000E+00
        -11   -1    0    0    0    0  0.00000000000E+00  0.00000000000E+00  0.45593999997E+02  0.45594000000E+02  0.51100000000E-03 0. -1.
         11   -1    0    0    0    0 -0.00000000000E+00 -0.00000000000E+00 -0.45593999997E+02  0.45594000000E+02  0.51100000000E-03 0.  1.
         23    2    1    2    0    0 -0.35527136788E-14  0.00000000000E+00  0.00000000000E+00  0.91188000000E+02  0.91188000000E+02 0.  0.
    9900012    2    3    3    0    0 -0.20392965877E+02 -0.28119134740E+02 -0.12215658413E+02  0.54367067010E+02  0.39999960862E+02 0.  0.
        -12    1    3    3    0    0  0.20392965877E+02  0.28119134740E+02  0.12215658413E+02  0.36820932990E+02  0.00000000000E+00 0.  1.
         11    1    4    4    0    0 -0.95625318865E+01 -0.27421303082E+02 -0.22702700114E+02  0.36861666694E+02  0.51100000000E-03 0. -1.
        -11    1    4    4    0    0 -0.29186128962E+01 -0.36206414542E+01  0.69430948932E+01  0.83566687582E+01  0.51100000000E-03 0.  1.
         12    1    4    4    0    0 -0.79118210947E+01  0.29228097957E+01  0.35439468075E+01  0.91487315574E+01  0.00000000000E+00 0. -1.
</event>
<event>
 8    1  0.2493819E-006  0.9118800E+02  0.7816164E-02  0.1184000E+00
        -11   -1    0    0    0    0  0.00000000000E+00  0.00000000000E+00  0.45593999997E+02  0.45594000000E+02  0.51100000000E-03 0.  1.
         11   -1    0    0    0    0 -0.00000000000E+00 -0.00000000000E+00 -0.45593999997E+02  0.45594000000E+02  0.51100000000E-03 0. -1.
         23    2    1    2    0    0  0.17763568394E-14  0.00000000000E+00  0.00000000000E+00  0.91188000000E+02  0.91188000000E+02 0.  0.
    9900012    2    3    3    0    0 -0.80232801318E+01  0.34946966747E+02 -0.83735846772E+01  0.54367076204E+02  0.39999981821E+02 0.  0.
        -12    1    3    3    0    0  0.80232801318E+01 -0.34946966747E+02  0.83735846772E+01  0.36820923796E+02  0.00000000000E+00 0.  1.
         11    1    4    4    0    0  0.56298947842E+01  0.22892948958E+02 -0.86017380586E+01  0.25095272965E+02  0.51100000000E-03 0. -1.
        -11    1    4    4    0    0  0.27736974257E+01 -0.21149124551E+01 -0.57897338644E+01  0.67592359467E+01  0.51100000000E-03 0.  1.
        -12    1    4    4    0    0 -0.16426872342E+02  0.14168930244E+02  0.60178872458E+01  0.22512567292E+02  0.00000000000E+00 0.  1.
</event>
<event>
 8    1  0.2493819E-006  0.9118800E+02  0.7816164E-02  0.1184000E+00
        -11   -1    0    0    0    0  0.00000000000E+00  0.00000000000E+00  0.45593999997E+02  0.45594000000E+02  0.51100000000E-03 0.  1.
         11   -1    0    0    0    0 -0.00000000000E+00 -0.00000000000E+00 -0.45593999997E+02  0.45594000000E+02  0.51100000000E-03 0. -1.
         23    2    1    2    0    0  0.00000000000E+00  0.17763568394E-14 -0.88817841970E-15  0.91188000000E+02  0.91188000000E+02 0.  0.
    9900012    2    3    3    0    0 -0.33097578941E+02 -0.14558749497E+02  0.69549240549E+01  0.54367110721E+02  0.40000060511E+02 0.  0.
        -12    1    3    3    0    0  0.33097578941E+02  0.14558749497E+02 -0.69549240549E+01  0.36820889279E+02  0.00000000000E+00 0.  1.
         11    1    4    4    0    0 -0.14491340521E+02  0.84884159992E+01  0.40036487516E+01  0.17265032866E+02  0.51100000000E-03 0. -1.
        -11    1    4    4    0    0  0.51694899763E+00  0.30347554487E+01 -0.29073781905E+01  0.42343624200E+01  0.51100000000E-03 0.  1.
         12    1    4    4    0    0 -0.19123187418E+02 -0.26081920944E+02  0.58586534939E+01  0.32867715435E+02  0.00000000000E+00 0. -1.
</event>
<event>
 8    1  0.2493819E-006  0.9118800E+02  0.7816164E-02  0.1184000E+00
        -11   -1    0    0    0    0  0.00000000000E+00  0.00000000000E+00  0.45593999997E+02  0.45594000000E+02  0.51100000000E-03 0.  1.
         11   -1    0    0    0    0 -0.00000000000E+00 -0.00000000000E+00 -0.45593999997E+02  0.45594000000E+02  0.51100000000E-03 0. -1.
         23    2    1    2    0    0  0.00000000000E+00  0.72164496601E-15  0.35527136788E-14  0.91188000000E+02  0.91188000000E+02 0.  0.
    9900012    2    3    3    0    0 -0.33008796650E+02 -0.16859752956E+00  0.16314743735E+02  0.54367082785E+02  0.39999996825E+02 0.  0.
         12    1    3    3    0    0  0.33008796650E+02  0.16859752956E+00 -0.16314743735E+02  0.36820917215E+02  0.00000000000E+00 0. -1.
         11    1    4    4    0    0 -0.17495119517E+01  0.42252512266E+01 -0.52019069197E+01  0.69262815319E+01  0.51100000000E-03 0. -1.
        -11    1    4    4    0    0 -0.79427743202E+01  0.10026808024E+02  0.14104172539E+02  0.19040804246E+02  0.51100000000E-03 0.  1.
        -12    1    4    4    0    0 -0.23316510378E+02 -0.14420656780E+02  0.74124781155E+01  0.28399997007E+02  0.00000000000E+00 0.  1.
</event>
<event>
 8    1  0.2493819E-006  0.9118800E+02  0.7816164E-02  0.1184000E+00
        -11   -1    0    0    0    0  0.00000000000E+00  0.00000000000E+00  0.45593999997E+02  0.45594000000E+02  0.51100000000E-03 0. -1.
         11   -1    0    0    0    0 -0.00000000000E+00 -0.00000000000E+00 -0.45593999997E+02  0.45594000000E+02  0.51100000000E-03 0.  1.
         23    2    1    2    0    0 -0.71054273576E-14 -0.10658141036E-13 -0.88817841970E-15  0.91188000000E+02  0.91188000000E+02 0.  0.
    9900012    2    3    3    0    0  0.19140932123E+02  0.31193366765E+02  0.40468545256E+01  0.54367103158E+02  0.40000043270E+02 0.  0.
        -12    1    3    3    0    0 -0.19140932123E+02 -0.31193366765E+02 -0.40468545256E+01  0.36820896842E+02  0.00000000000E+00 0.  1.
         11    1    4    4    0    0  0.20509379918E+02  0.38059256428E+02  0.53621327951E+01  0.43564826786E+02  0.51100000000E-03 0. -1.
        -11    1    4    4    0    0 -0.29281978381E+01 -0.78631418957E+01 -0.23070408049E+01  0.87020561126E+01  0.51100000000E-03 0.  1.
        -12    1    4    4    0    0  0.15597500434E+01  0.99725223249E+00  0.99176253540E+00  0.21002202598E+01  0.00000000000E+00 0.  1.
</event>
<event>
 8    1  0.2493819E-006  0.9118800E+02  0.7816164E-02  0.1184000E+00
        -11   -1    0    0    0    0  0.00000000000E+00  0.00000000000E+00  0.45593999997E+02  0.45594000000E+02  0.51100000000E-03 0. -1.
         11   -1    0    0    0    0 -0.00000000000E+00 -0.00000000000E+00 -0.45593999997E+02  0.45594000000E+02  0.51100000000E-03 0.  1.
         23    2    1    2    0    0  0.17763568394E-14  0.00000000000E+00  0.00000000000E+00  0.91188000000E+02  0.91188000000E+02 0.  0.
    9900012    2    3    3    0    0  0.63817257661E+01  0.31174735891E+02 -0.18525377576E+02  0.54367079371E+02  0.39999989041E+02 0.  0.
         12    1    3    3    0    0 -0.63817257661E+01 -0.31174735891E+02  0.18525377576E+02  0.36820920629E+02  0.00000000000E+00 0. -1.
         11    1    4    4    0    0 -0.84427984940E+01  0.23919049678E+02 -0.71688155671E+01  0.26358939676E+02  0.51100000000E-03 0. -1.
        -11    1    4    4    0    0  0.19351736166E+02  0.64526102840E+01 -0.67179602490E+01  0.21476891355E+02  0.51100000000E-03 0.  1.
        -12    1    4    4    0    0 -0.45272119060E+01  0.80307592904E+00 -0.46386017598E+01  0.65312483398E+01  0.00000000000E+00 0.  1.
</event>
<event>
 8    1  0.2493819E-006  0.9118800E+02  0.7816164E-02  0.1184000E+00
        -11   -1    0    0    0    0  0.00000000000E+00  0.00000000000E+00  0.45593999997E+02  0.45594000000E+02  0.51100000000E-03 0.  1.
         11   -1    0    0    0    0 -0.00000000000E+00 -0.00000000000E+00 -0.45593999997E+02  0.45594000000E+02  0.51100000000E-03 0. -1.
         23    2    1    2    0    0  0.00000000000E+00  0.44408920985E-14  0.00000000000E+00  0.91188000000E+02  0.91188000000E+02 0.  0.
    9900012    2    3    3    0    0  0.11738226664E+02 -0.68392057377E+01 -0.34223078699E+02  0.54367084531E+02  0.40000000804E+02 0.  0.
        -12    1    3    3    0    0 -0.11738226664E+02  0.68392057377E+01  0.34223078699E+02  0.36820915469E+02  0.00000000000E+00 0.  1.
         11    1    4    4    0    0  0.51176753328E+01  0.48489103728E+00 -0.31199352360E+01  0.60132949593E+01  0.51100000000E-03 0. -1.
        -11    1    4    4    0    0  0.54959900649E+01  0.12030784311E+02 -0.19894790962E+01  0.13375488973E+02  0.51100000000E-03 0.  1.
        -12    1    4    4    0    0  0.11245612667E+01 -0.19354881086E+02 -0.29113664367E+02  0.34978300599E+02  0.00000000000E+00 0.  1.
</event>
<event>
 8    1  0.2493819E-006  0.9118800E+02  0.7816164E-02  0.1184000E+00
        -11   -1    0    0    0    0  0.00000000000E+00  0.00000000000E+00  0.45593999997E+02  0.45594000000E+02  0.51100000000E-03 0.  1.
         11   -1    0    0    0    0 -0.00000000000E+00 -0.00000000000E+00 -0.45593999997E+02  0.45594000000E+02  0.51100000000E-03 0. -1.
         23    2    1    2    0    0  0.00000000000E+00 -0.17763568394E-14 -0.35527136788E-14  0.91188000000E+02  0.91188000000E+02 0.  0.
    9900012    2    3    3    0    0  0.24343402028E+02  0.14508342230E+02  0.23509283924E+02  0.54367086824E+02  0.40000006032E+02 0.  0.
         12    1    3    3    0    0 -0.24343402028E+02 -0.14508342230E+02 -0.23509283924E+02  0.36820913176E+02  0.00000000000E+00 0. -1.
         11    1    4    4    0    0  0.12441341283E+02 -0.29242594471E+01  0.40114595599E+01  0.13395151149E+02  0.51100000000E-03 0. -1.
        -11    1    4    4    0    0 -0.40078130671E+01  0.42516104211E+01  0.19452696795E+02  0.20311232597E+02  0.51100000000E-03 0.  1.
        -12    1    4    4    0    0  0.15909873812E+02  0.13180991256E+02  0.45127569086E-01  0.20660703078E+02  0.00000000000E+00 0.  1.
</event>
<event>
 8    1  0.2493819E-006  0.9118800E+02  0.7816164E-02  0.1184000E+00
        -11   -1    0    0    0    0  0.00000000000E+00  0.00000000000E+00  0.45593999997E+02  0.45594000000E+02  0.51100000000E-03 0. -1.
         11   -1    0    0    0    0 -0.00000000000E+00 -0.00000000000E+00 -0.45593999997E+02  0.45594000000E+02  0.51100000000E-03 0.  1.
         23    2    1    2    0    0  0.35527136788E-14 -0.88817841970E-15 -0.35527136788E-14  0.91188000000E+02  0.91188000000E+02 0.  0.
    9900012    2    3    3    0    0 -0.28408805630E+02 -0.79024837612E+01  0.22051579998E+02  0.54367059391E+02  0.39999943494E+02 0.  0.
        -12    1    3    3    0    0  0.28408805630E+02  0.79024837612E+01 -0.22051579998E+02  0.36820940609E+02  0.00000000000E+00 0.  1.
         11    1    4    4    0    0  0.75811541846E+01  0.28727830739E+01 -0.34593129322E+00  0.81145825574E+01  0.51100000000E-03 0. -1.
        -11    1    4    4    0    0 -0.34541668912E+02 -0.12997253323E+02  0.23060835376E+02  0.43518474395E+02  0.51100000000E-03 0.  1.
        -12    1    4    4    0    0 -0.14482909026E+01  0.22219864884E+01 -0.66332408458E+00  0.27340024386E+01  0.00000000000E+00 0.  1.
</event>
<event>
 8    1  0.2493819E-006  0.9118800E+02  0.7816164E-02  0.1184000E+00
        -11   -1    0    0    0    0  0.00000000000E+00  0.00000000000E+00  0.45593999997E+02  0.45594000000E+02  0.51100000000E-03 0.  1.
         11   -1    0    0    0    0 -0.00000000000E+00 -0.00000000000E+00 -0.45593999997E+02  0.45594000000E+02  0.51100000000E-03 0. -1.
         23    2    1    2    0    0 -0.35527136788E-14 -0.35527136788E-14  0.17763568394E-14  0.91188000000E+02  0.91188000000E+02 0.  0.
    9900012    2    3    3    0    0  0.25387689716E+02  0.22432598459E+02 -0.14423014472E+02  0.54367087339E+02  0.40000007206E+02 0.  0.
        -12    1    3    3    0    0 -0.25387689716E+02 -0.22432598459E+02  0.14423014472E+02  0.36820912661E+02  0.00000000000E+00 0.  1.
         11    1    4    4    0    0  0.23634495994E+01  0.14223854392E+02 -0.21696249882E+01  0.14581193388E+02  0.51100000000E-03 0.  1.
        -11    1    4    4    0    0  0.17542474685E+02  0.16315014012E+02  0.18776294437E+00  0.23957323629E+02  0.51100000000E-03 0. -1.
         12    1    4    4    0    0  0.54817654317E+01 -0.81062699451E+01 -0.12441152429E+02  0.15828570321E+02  0.00000000000E+00 0. -1.
</event>
<event>
 8    1  0.2493819E-006  0.9118800E+02  0.7816164E-02  0.1184000E+00
        -11   -1    0    0    0    0  0.00000000000E+00  0.00000000000E+00  0.45593999997E+02  0.45594000000E+02  0.51100000000E-03 0. -1.
         11   -1    0    0    0    0 -0.00000000000E+00 -0.00000000000E+00 -0.45593999997E+02  0.45594000000E+02  0.51100000000E-03 0.  1.
         23    2    1    2    0    0  0.00000000000E+00  0.35527136788E-14  0.00000000000E+00  0.91188000000E+02  0.91188000000E+02 0.  0.
    9900012    2    3    3    0    0  0.15844383416E+02 -0.28367269907E+02  0.17321451117E+02  0.54367093485E+02  0.40000021218E+02 0.  0.
        -12    1    3    3    0    0 -0.15844383416E+02  0.28367269907E+02 -0.17321451117E+02  0.36820906515E+02  0.00000000000E+00 0.  1.
         11    1    4    4    0    0 -0.97392367126E+01 -0.17917558590E+02  0.10712476028E+02  0.23035815169E+02  0.51100000000E-03 0. -1.
        -11    1    4    4    0    0  0.57993601644E+01  0.30667489775E+01  0.36500203574E+00  0.65704455218E+01  0.51100000000E-03 0.  1.
         12    1    4    4    0    0  0.19784259964E+02 -0.13516460294E+02  0.62439730529E+01  0.24760832794E+02  0.00000000000E+00 0. -1.
</event>
<event>
 8    1  0.2493819E-006  0.9118800E+02  0.7816164E-02  0.1184000E+00
        -11   -1    0    0    0    0  0.00000000000E+00  0.00000000000E+00  0.45593999997E+02  0.45594000000E+02  0.51100000000E-03 0.  1.
         11   -1    0    0    0    0 -0.00000000000E+00 -0.00000000000E+00 -0.45593999997E+02  0.45594000000E+02  0.51100000000E-03 0. -1.
         23    2    1    2    0    0  0.00000000000E+00  0.00000000000E+00 -0.17763568394E-14  0.91188000000E+02  0.91188000000E+02 0.  0.
    9900012    2    3    3    0    0 -0.30978460225E+02 -0.12752807025E+02 -0.15280105252E+02  0.54367072507E+02  0.39999973394E+02 0.  0.
        -12    1    3    3    0    0  0.30978460225E+02  0.12752807025E+02  0.15280105252E+02  0.36820927493E+02  0.00000000000E+00 0.  1.
         11    1    4    4    0    0 -0.18215917975E+02  0.69589689984E+01  0.57704337862E+01  0.20335801522E+02  0.51100000000E-03 0. -1.
        -11    1    4    4    0    0 -0.20836479777E+00 -0.10881069098E+02 -0.55475413768E+01  0.12215412240E+02  0.51100000000E-03 0.  1.
         12    1    4    4    0    0 -0.12554177452E+02 -0.88307069262E+01 -0.15502997662E+02  0.21815858746E+02  0.00000000000E+00 0. -1.
</event>
<event>
 8    1  0.2493819E-006  0.9118800E+02  0.7816164E-02  0.1184000E+00
        -11   -1    0    0    0    0  0.00000000000E+00  0.00000000000E+00  0.45593999997E+02  0.45594000000E+02  0.51100000000E-03 0.  1.
         11   -1    0    0    0    0 -0.00000000000E+00 -0.00000000000E+00 -0.45593999997E+02  0.45594000000E+02  0.51100000000E-03 0. -1.
         23    2    1    2    0    0  0.44408920985E-15 -0.71054273576E-14 -0.35527136788E-14  0.91188000000E+02  0.91188000000E+02 0.  0.
    9900012    2    3    3    0    0 -0.30516708674E+01  0.32745179935E+02 -0.16559621677E+02  0.54367074235E+02  0.39999977334E+02 0.  0.
         12    1    3    3    0    0  0.30516708674E+01 -0.32745179935E+02  0.16559621677E+02  0.36820925765E+02  0.00000000000E+00 0. -1.
         11    1    4    4    0    0 -0.16144596658E+02  0.99149932256E+01 -0.58911093063E+01  0.19840873495E+02  0.51100000000E-03 0. -1.
        -11    1    4    4    0    0  0.22734835506E+00  0.11509416428E+02  0.37743419478E+01  0.12114619730E+02  0.51100000000E-03 0.  1.
         12    1    4    4    0    0  0.12865577436E+02  0.11320770281E+02 -0.14442854319E+02  0.22411581011E+02  0.00000000000E+00 0. -1.
</event>
<event>
 8    1  0.2493819E-006  0.9118800E+02  0.7816164E-02  0.1184000E+00
        -11   -1    0    0    0    0  0.00000000000E+00  0.00000000000E+00  0.45593999997E+02  0.45594000000E+02  0.51100000000E-03 0. -1.
         11   -1    0    0    0    0 -0.00000000000E+00 -0.00000000000E+00 -0.45593999997E+02  0.45594000000E+02  0.51100000000E-03 0.  1.
         23    2    1    2    0    0  0.44408920985E-15  0.88817841970E-15  0.00000000000E+00  0.91188000000E+02  0.91188000000E+02 0.  0.
    9900012    2    3    3    0    0 -0.32171049453E+01 -0.53498290773E+01  0.36287862910E+02  0.54367089773E+02  0.40000012754E+02 0.  0.
        -12    1    3    3    0    0  0.32171049453E+01  0.53498290773E+01 -0.36287862910E+02  0.36820910227E+02  0.00000000000E+00 0.  1.
         11    1    4    4    0    0 -0.78596253463E+01 -0.54748025458E+01  0.48277021002E+01  0.10726317231E+02  0.51100000000E-03 0. -1.
        -11    1    4    4    0    0 -0.56694792889E+01 -0.11813046150E+02  0.79425495289E+01  0.15322374099E+02  0.51100000000E-03 0.  1.
         12    1    4    4    0    0  0.10311999690E+02  0.11938019618E+02  0.23517611281E+02  0.28318398443E+02  0.00000000000E+00 0. -1.
</event>
<event>
 8    1  0.2493819E-006  0.9118800E+02  0.7816164E-02  0.1184000E+00
        -11   -1    0    0    0    0  0.00000000000E+00  0.00000000000E+00  0.45593999997E+02  0.45594000000E+02  0.51100000000E-03 0. -1.
         11   -1    0    0    0    0 -0.00000000000E+00 -0.00000000000E+00 -0.45593999997E+02  0.45594000000E+02  0.51100000000E-03 0.  1.
         23    2    1    2    0    0  0.35527136788E-14  0.00000000000E+00  0.22204460493E-15  0.91188000000E+02  0.91188000000E+02 0.  0.
    9900012    2    3    3    0    0 -0.31441450382E+02  0.19129579970E+02  0.11289697000E+01  0.54367079254E+02  0.39999988776E+02 0.  0.
        -12    1    3    3    0    0  0.31441450382E+02 -0.19129579970E+02 -0.11289697000E+01  0.36820920746E+02  0.00000000000E+00 0.  1.
         11    1    4    4    0    0 -0.14732287651E+02  0.23698331395E+02  0.97248226777E+01  0.29550353411E+02  0.51100000000E-03 0. -1.
        -11    1    4    4    0    0 -0.13723335802E+02 -0.64407997110E+01  0.38987594959E+00  0.15164624953E+02  0.51100000000E-03 0.  1.
        -12    1    4    4    0    0 -0.29858269289E+01  0.18720482858E+01 -0.89857289273E+01  0.96521008899E+01  0.00000000000E+00 0.  1.
</event>
<event>
 8    1  0.2493819E-006  0.9118800E+02  0.7816164E-02  0.1184000E+00
        -11   -1    0    0    0    0  0.00000000000E+00  0.00000000000E+00  0.45593999997E+02  0.45594000000E+02  0.51100000000E-03 0. -1.
         11   -1    0    0    0    0 -0.00000000000E+00 -0.00000000000E+00 -0.45593999997E+02  0.45594000000E+02  0.51100000000E-03 0.  1.
         23    2    1    2    0    0  0.71054273576E-14 -0.35527136788E-14  0.00000000000E+00  0.91188000000E+02  0.91188000000E+02 0.  0.
    9900012    2    3    3    0    0 -0.33032570932E+02 -0.73843096237E+01 -0.14494870387E+02  0.54367081509E+02  0.39999993916E+02 0.  0.
         12    1    3    3    0    0  0.33032570932E+02  0.73843096237E+01  0.14494870387E+02  0.36820918491E+02  0.00000000000E+00 0. -1.
         11    1    4    4    0    0  0.29201325732E+01 -0.31150092553E+01 -0.19372749586E+01  0.46886556103E+01  0.51100000000E-03 0. -1.
        -11    1    4    4    0    0 -0.18838845386E+02 -0.17714103944E+02 -0.34580533459E+01  0.26089264214E+02  0.51100000000E-03 0.  1.
        -12    1    4    4    0    0 -0.17113858119E+02  0.13444803575E+02 -0.90995420823E+01  0.23589161685E+02  0.00000000000E+00 0.  1.
</event>
<event>
 8    1  0.2493819E-006  0.9118800E+02  0.7816164E-02  0.1184000E+00
        -11   -1    0    0    0    0  0.00000000000E+00  0.00000000000E+00  0.45593999997E+02  0.45594000000E+02  0.51100000000E-03 0. -1.
         11   -1    0    0    0    0 -0.00000000000E+00 -0.00000000000E+00 -0.45593999997E+02  0.45594000000E+02  0.51100000000E-03 0.  1.
         23    2    1    2    0    0  0.00000000000E+00 -0.71054273576E-14  0.17763568394E-14  0.91188000000E+02  0.91188000000E+02 0.  0.
    9900012    2    3    3    0    0 -0.10670711412E+02 -0.34794562113E+02 -0.55905445588E+01  0.54367084434E+02  0.40000000584E+02 0.  0.
        -12    1    3    3    0    0  0.10670711412E+02  0.34794562113E+02  0.55905445588E+01  0.36820915566E+02  0.00000000000E+00 0.  1.
         11    1    4    4    0    0 -0.72021277071E+01 -0.17668158706E+02  0.15999084611E+02  0.24899903298E+02  0.51100000000E-03 0. -1.
        -11    1    4    4    0    0  0.16761050661E+01  0.36671469864E+00 -0.28054437569E+01  0.32885137672E+01  0.51100000000E-03 0.  1.
         12    1    4    4    0    0 -0.51446887715E+01 -0.17493118105E+02 -0.18784185413E+02  0.26178667369E+02  0.00000000000E+00 0. -1.
</event>
<event>
 8    1  0.2493819E-006  0.9118800E+02  0.7816164E-02  0.1184000E+00
        -11   -1    0    0    0    0  0.00000000000E+00  0.00000000000E+00  0.45593999997E+02  0.45594000000E+02  0.51100000000E-03 0.  1.
         11   -1    0    0    0    0 -0.00000000000E+00 -0.00000000000E+00 -0.45593999997E+02  0.45594000000E+02  0.51100000000E-03 0. -1.
         23    2    1    2    0    0  0.88817841970E-15  0.00000000000E+00  0.00000000000E+00  0.91188000000E+02  0.91188000000E+02 0.  0.
    9900012    2    3    3    0    0 -0.41012833043E+01  0.32893627640E+02  0.16030235153E+02  0.54367086063E+02  0.40000004298E+02 0.  0.
        -12    1    3    3    0    0  0.41012833043E+01 -0.32893627640E+02 -0.16030235153E+02  0.36820913937E+02  0.00000000000E+00 0.  1.
         11    1    4    4    0    0  0.39282689364E+01  0.24694310529E+02 -0.14054053033E+01  0.25044269477E+02  0.51100000000E-03 0. -1.
        -11    1    4    4    0    0 -0.58573060594E+01  0.13718771943E+02  0.17984811677E+02  0.23365919396E+02  0.51100000000E-03 0.  1.
         12    1    4    4    0    0 -0.21722461812E+01 -0.55194548313E+01 -0.54917122058E+00  0.59568971903E+01  0.00000000000E+00 0. -1.
</event>
<event>
 8    1  0.2493819E-006  0.9118800E+02  0.7816164E-02  0.1184000E+00
        -11   -1    0    0    0    0  0.00000000000E+00  0.00000000000E+00  0.45593999997E+02  0.45594000000E+02  0.51100000000E-03 0.  1.
         11   -1    0    0    0    0 -0.00000000000E+00 -0.00000000000E+00 -0.45593999997E+02  0.45594000000E+02  0.51100000000E-03 0. -1.
         23    2    1    2    0    0  0.17763568394E-14 -0.35527136788E-14  0.00000000000E+00  0.91188000000E+02  0.91188000000E+02 0.  0.
    9900012    2    3    3    0    0 -0.12858516256E+02  0.28211448203E+02 -0.19863337168E+02  0.54367089997E+02  0.40000013265E+02 0.  0.
        -12    1    3    3    0    0  0.12858516256E+02 -0.28211448203E+02  0.19863337168E+02  0.36820910003E+02  0.00000000000E+00 0.  1.
         11    1    4    4    0    0 -0.64127193612E+01  0.99206244188E+01 -0.13144031114E+02  0.17672218668E+02  0.51100000000E-03 0. -1.
        -11    1    4    4    0    0 -0.10379566871E+02 -0.51562177946E+01 -0.56563830660E+01  0.12896381664E+02  0.51100000000E-03 0.  1.
        -12    1    4    4    0    0  0.39337699759E+01  0.23447041579E+02 -0.10629229874E+01  0.23798489665E+02  0.00000000000E+00 0.  1.
</event>
<event>
 8    1  0.2493819E-006  0.9118800E+02  0.7816164E-02  0.1184000E+00
        -11   -1    0    0    0    0  0.00000000000E+00  0.00000000000E+00  0.45593999997E+02  0.45594000000E+02  0.51100000000E-03 0.  1.
         11   -1    0    0    0    0 -0.00000000000E+00 -0.00000000000E+00 -0.45593999997E+02  0.45594000000E+02  0.51100000000E-03 0. -1.
         23    2    1    2    0    0  0.00000000000E+00  0.00000000000E+00 -0.17763568394E-14  0.91188000000E+02  0.91188000000E+02 0.  0.
    9900012    2    3    3    0    0 -0.36336502767E+02 -0.37690356491E+01  0.46078588159E+01  0.54367089827E+02  0.40000012879E+02 0.  0.
         12    1    3    3    0    0  0.36336502767E+02  0.37690356491E+01 -0.46078588159E+01  0.36820910173E+02  0.00000000000E+00 0. -1.
         11    1    4    4    0    0 -0.23871231981E+02 -0.25839016344E+01 -0.16920404094E+02  0.29373667441E+02  0.51100000000E-03 0. -1.
        -11    1    4    4    0    0 -0.75746599579E+01 -0.10240864328E+01  0.11136846652E+02  0.13507537900E+02  0.51100000000E-03 0.  1.
         12    1    4    4    0    0 -0.48906108283E+01 -0.16104758189E+00  0.10391416258E+02  0.11485884487E+02  0.00000000000E+00 0. -1.
</event>
<event>
 8    1  0.2493819E-006  0.9118800E+02  0.7816164E-02  0.1184000E+00
        -11   -1    0    0    0    0  0.00000000000E+00  0.00000000000E+00  0.45593999997E+02  0.45594000000E+02  0.51100000000E-03 0.  1.
         11   -1    0    0    0    0 -0.00000000000E+00 -0.00000000000E+00 -0.45593999997E+02  0.45594000000E+02  0.51100000000E-03 0. -1.
         23    2    1    2    0    0  0.35527136788E-14  0.00000000000E+00 -0.88817841970E-15  0.91188000000E+02  0.91188000000E+02 0.  0.
    9900012    2    3    3    0    0  0.28429771810E+02  0.22716944606E+02 -0.56096543810E+01  0.54367085839E+02  0.40000003787E+02 0.  0.
         12    1    3    3    0    0 -0.28429771810E+02 -0.22716944606E+02  0.56096543810E+01  0.36820914161E+02  0.00000000000E+00 0. -1.
         11    1    4    4    0    0  0.60307456585E+01 -0.79679550610E+01  0.50643233677E+01  0.11202926961E+02  0.51100000000E-03 0. -1.
        -11    1    4    4    0    0  0.21528787828E+01  0.17192075179E+02 -0.25476514717E+01  0.17512648695E+02  0.51100000000E-03 0.  1.
         12    1    4    4    0    0  0.20246147369E+02  0.13492824488E+02 -0.81263262770E+01  0.25651510183E+02  0.00000000000E+00 0. -1.
</event>
<event>
 8    1  0.2493819E-006  0.9118800E+02  0.7816164E-02  0.1184000E+00
        -11   -1    0    0    0    0  0.00000000000E+00  0.00000000000E+00  0.45593999997E+02  0.45594000000E+02  0.51100000000E-03 0.  1.
         11   -1    0    0    0    0 -0.00000000000E+00 -0.00000000000E+00 -0.45593999997E+02  0.45594000000E+02  0.51100000000E-03 0. -1.
         23    2    1    2    0    0 -0.35527136788E-14 -0.35527136788E-14  0.00000000000E+00  0.91188000000E+02  0.91188000000E+02 0.  0.
    9900012    2    3    3    0    0  0.13758918538E+02  0.24777649149E+02 -0.23506232871E+02  0.54367045090E+02  0.39999910891E+02 0.  0.
        -12    1    3    3    0    0 -0.13758918538E+02 -0.24777649149E+02  0.23506232871E+02  0.36820954910E+02  0.00000000000E+00 0.  1.
         11    1    4    4    0    0  0.38449041823E+01  0.96120903704E+01 -0.20430425519E+02  0.22903664698E+02  0.51100000000E-03 0. -1.
        -11    1    4    4    0    0  0.78138173199E+01  0.20094057686E+02 -0.90999881780E+01  0.23401638415E+02  0.51100000000E-03 0.  1.
         12    1    4    4    0    0  0.21001970359E+01 -0.49284989072E+01  0.60241808259E+01  0.80617419762E+01  0.00000000000E+00 0. -1.
</event>
<event>
 8    1  0.2493819E-006  0.9118800E+02  0.7816164E-02  0.1184000E+00
        -11   -1    0    0    0    0  0.00000000000E+00  0.00000000000E+00  0.45593999997E+02  0.45594000000E+02  0.51100000000E-03 0. -1.
         11   -1    0    0    0    0 -0.00000000000E+00 -0.00000000000E+00 -0.45593999997E+02  0.45594000000E+02  0.51100000000E-03 0.  1.
         23    2    1    2    0    0  0.00000000000E+00 -0.88817841970E-15  0.00000000000E+00  0.91188000000E+02  0.91188000000E+02 0.  0.
    9900012    2    3    3    0    0 -0.21275911883E+02  0.38150935974E+01  0.29808735257E+02  0.54367081173E+02  0.39999993150E+02 0.  0.
        -12    1    3    3    0    0  0.21275911883E+02 -0.38150935974E+01 -0.29808735257E+02  0.36820918827E+02  0.00000000000E+00 0.  1.
         11    1    4    4    0    0 -0.42684731353E+01 -0.77618842415E+01  0.22503625840E+02  0.24184290068E+02  0.51100000000E-03 0. -1.
        -11    1    4    4    0    0 -0.18461539790E+02  0.90994317298E+00  0.53335081536E+01  0.19238054930E+02  0.51100000000E-03 0.  1.
        -12    1    4    4    0    0  0.14541010421E+01  0.10667034666E+02  0.19716012637E+01  0.10944736175E+02  0.00000000000E+00 0.  1.
</event>
<event>
 8    1  0.2493819E-006  0.9118800E+02  0.7816164E-02  0.1184000E+00
        -11   -1    0    0    0    0  0.00000000000E+00  0.00000000000E+00  0.45593999997E+02  0.45594000000E+02  0.51100000000E-03 0.  1.
         11   -1    0    0    0    0 -0.00000000000E+00 -0.00000000000E+00 -0.45593999997E+02  0.45594000000E+02  0.51100000000E-03 0. -1.
         23    2    1    2    0    0  0.00000000000E+00  0.35527136788E-14  0.17763568394E-14  0.91188000000E+02  0.91188000000E+02 0.  0.
    9900012    2    3    3    0    0 -0.23008746423E+02 -0.26294094212E+02  0.11618787853E+02  0.54367108735E+02  0.40000055984E+02 0.  0.
         12    1    3    3    0    0  0.23008746423E+02  0.26294094212E+02 -0.11618787853E+02  0.36820891265E+02  0.00000000000E+00 0. -1.
         11    1    4    4    0    0 -0.85337796735E+01 -0.83371346441E+01  0.13890922969E+02  0.18310951662E+02  0.51100000000E-03 0. -1.
        -11    1    4    4    0    0 -0.57218621677E+01 -0.36148217303E+01  0.12153470494E+02  0.13910912555E+02  0.51100000000E-03 0.  1.
         12    1    4    4    0    0 -0.87531045816E+01 -0.14342137837E+02 -0.14425605610E+02  0.22145244518E+02  0.00000000000E+00 0. -1.
</event>
<event>
 8    1  0.2493819E-006  0.9118800E+02  0.7816164E-02  0.1184000E+00
        -11   -1    0    0    0    0  0.00000000000E+00  0.00000000000E+00  0.45593999997E+02  0.45594000000E+02  0.51100000000E-03 0.  1.
         11   -1    0    0    0    0 -0.00000000000E+00 -0.00000000000E+00 -0.45593999997E+02  0.45594000000E+02  0.51100000000E-03 0. -1.
         23    2    1    2    0    0  0.35527136788E-14  0.00000000000E+00  0.00000000000E+00  0.91188000000E+02  0.91188000000E+02 0.  0.
    9900012    2    3    3    0    0 -0.25691815586E+02 -0.16284343270E+02 -0.20749225668E+02  0.54367087605E+02  0.40000007812E+02 0.  0.
        -12    1    3    3    0    0  0.25691815586E+02  0.16284343270E+02  0.20749225668E+02  0.36820912395E+02  0.00000000000E+00 0.  1.
         11    1    4    4    0    0  0.55684889683E+01  0.94883586493E+00 -0.43277276789E+00  0.56653024119E+01  0.51100000000E-03 0. -1.
        -11    1    4    4    0    0 -0.19522764114E+02  0.78122564547E+00 -0.62822741356E+00  0.19548485929E+02  0.51100000000E-03 0.  1.
         12    1    4    4    0    0 -0.11737540439E+02 -0.18014404780E+02 -0.19688225486E+02  0.29153299264E+02  0.00000000000E+00 0. -1.
</event>
<event>
 8    1  0.2493819E-006  0.9118800E+02  0.7816164E-02  0.1184000E+00
        -11   -1    0    0    0    0  0.00000000000E+00  0.00000000000E+00  0.45593999997E+02  0.45594000000E+02  0.51100000000E-03 0. -1.
         11   -1    0    0    0    0 -0.00000000000E+00 -0.00000000000E+00 -0.45593999997E+02  0.45594000000E+02  0.51100000000E-03 0.  1.
         23    2    1    2    0    0  0.00000000000E+00 -0.44408920985E-15  0.17763568394E-14  0.91188000000E+02  0.91188000000E+02 0.  0.
    9900012    2    3    3    0    0  0.35812011294E+02  0.20695495091E+01  0.83065267407E+01  0.54367060650E+02  0.39999946364E+02 0.  0.
         12    1    3    3    0    0 -0.35812011294E+02 -0.20695495091E+01 -0.83065267407E+01  0.36820939350E+02  0.00000000000E+00 0. -1.
         11    1    4    4    0    0  0.12878211563E+02 -0.37861660333E+01  0.11784782919E+02  0.17862376521E+02  0.51100000000E-03 0. -1.
        -11    1    4    4    0    0 -0.25433573679E+01  0.72054698033E+01 -0.74647462516E+01  0.10682223488E+02  0.51100000000E-03 0.  1.
        -12    1    4    4    0    0  0.25477157099E+02 -0.13497542609E+01  0.39864900738E+01  0.25822460641E+02  0.00000000000E+00 0.  1.
</event>
<event>
 8    1  0.2493819E-006  0.9118800E+02  0.7816164E-02  0.1184000E+00
        -11   -1    0    0    0    0  0.00000000000E+00  0.00000000000E+00  0.45593999997E+02  0.45594000000E+02  0.51100000000E-03 0.  1.
         11   -1    0    0    0    0 -0.00000000000E+00 -0.00000000000E+00 -0.45593999997E+02  0.45594000000E+02  0.51100000000E-03 0. -1.
         23    2    1    2    0    0 -0.13322676296E-14  0.00000000000E+00  0.00000000000E+00  0.91188000000E+02  0.91188000000E+02 0.  0.
    9900012    2    3    3    0    0 -0.20216396447E+01  0.18669498054E+02  0.31672444129E+02  0.54367069790E+02  0.39999967200E+02 0.  0.
         12    1    3    3    0    0  0.20216396447E+01 -0.18669498054E+02 -0.31672444129E+02  0.36820930210E+02  0.00000000000E+00 0. -1.
         11    1    4    4    0    0 -0.13720927218E+02 -0.19498744470E+01  0.32061697210E+01  0.14224815592E+02  0.51100000000E-03 0. -1.
        -11    1    4    4    0    0  0.37299434538E-01  0.78808876902E+01  0.13538430774E+01  0.79964162831E+01  0.51100000000E-03 0.  1.
        -12    1    4    4    0    0  0.11661988139E+02  0.12738484811E+02  0.27112431330E+02  0.32145837915E+02  0.00000000000E+00 0.  1.
</event>
<event>
 8    1  0.2493819E-006  0.9118800E+02  0.7816164E-02  0.1184000E+00
        -11   -1    0    0    0    0  0.00000000000E+00  0.00000000000E+00  0.45593999997E+02  0.45594000000E+02  0.51100000000E-03 0.  1.
         11   -1    0    0    0    0 -0.00000000000E+00 -0.00000000000E+00 -0.45593999997E+02  0.45594000000E+02  0.51100000000E-03 0. -1.
         23    2    1    2    0    0  0.17763568394E-14  0.00000000000E+00  0.00000000000E+00  0.91188000000E+02  0.91188000000E+02 0.  0.
    9900012    2    3    3    0    0 -0.13768736164E+02  0.16966546085E+02 -0.29636816833E+02  0.54367045455E+02  0.39999911724E+02 0.  0.
        -12    1    3    3    0    0  0.13768736164E+02 -0.16966546085E+02  0.29636816833E+02  0.36820954545E+02  0.00000000000E+00 0.  1.
         11    1    4    4    0    0  0.11938495548E+02  0.37895012607E+01 -0.16034155005E+02  0.20346550635E+02  0.51100000000E-03 0. -1.
        -11    1    4    4    0    0 -0.14295857989E+02  0.12331419524E+02 -0.45245217526E+01  0.19414086650E+02  0.51100000000E-03 0.  1.
         12    1    4    4    0    0 -0.11411373723E+02  0.84562529975E+00 -0.90781400760E+01  0.14606408170E+02  0.00000000000E+00 0. -1.
</event>
<event>
 8    1  0.2493819E-006  0.9118800E+02  0.7816164E-02  0.1184000E+00
        -11   -1    0    0    0    0  0.00000000000E+00  0.00000000000E+00  0.45593999997E+02  0.45594000000E+02  0.51100000000E-03 0. -1.
         11   -1    0    0    0    0 -0.00000000000E+00 -0.00000000000E+00 -0.45593999997E+02  0.45594000000E+02  0.51100000000E-03 0.  1.
         23    2    1    2    0    0  0.00000000000E+00 -0.71054273576E-14 -0.17763568394E-14  0.91188000000E+02  0.91188000000E+02 0.  0.
    9900012    2    3    3    0    0  0.13453564533E+02 -0.31861372902E+02 -0.12634641317E+02  0.54367086879E+02  0.40000006158E+02 0.  0.
        -12    1    3    3    0    0 -0.13453564533E+02  0.31861372902E+02  0.12634641317E+02  0.36820913121E+02  0.00000000000E+00 0.  1.
         11    1    4    4    0    0 -0.14300812009E+01 -0.37859514466E+01 -0.15056917463E+02  0.15591322085E+02  0.51100000000E-03 0.  1.
        -11    1    4    4    0    0  0.72777642411E+01 -0.41371146626E+01  0.95174575681E+01  0.12675313365E+02  0.51100000000E-03 0. -1.
        -12    1    4    4    0    0  0.76058814926E+01 -0.23938306793E+02 -0.70951814220E+01  0.26100451429E+02  0.00000000000E+00 0.  1.
</event>
<event>
 8    1  0.2493819E-006  0.9118800E+02  0.7816164E-02  0.1184000E+00
        -11   -1    0    0    0    0  0.00000000000E+00  0.00000000000E+00  0.45593999997E+02  0.45594000000E+02  0.51100000000E-03 0. -1.
         11   -1    0    0    0    0 -0.00000000000E+00 -0.00000000000E+00 -0.45593999997E+02  0.45594000000E+02  0.51100000000E-03 0.  1.
         23    2    1    2    0    0 -0.88817841970E-15  0.00000000000E+00  0.88817841970E-15  0.91188000000E+02  0.91188000000E+02 0.  0.
    9900012    2    3    3    0    0  0.77508632249E+01  0.35440810580E+02 -0.62969455269E+01  0.54367102968E+02  0.40000042836E+02 0.  0.
         12    1    3    3    0    0 -0.77508632249E+01 -0.35440810580E+02  0.62969455269E+01  0.36820897032E+02  0.00000000000E+00 0. -1.
         11    1    4    4    0    0  0.10758425858E+02  0.11947490051E+02  0.13694954231E+01  0.16135729405E+02  0.51100000000E-03 0. -1.
        -11    1    4    4    0    0  0.11927402175E+02  0.17199787572E+02 -0.67754703198E+01  0.22000059397E+02  0.51100000000E-03 0.  1.
         12    1    4    4    0    0 -0.14934964808E+02  0.62935329566E+01 -0.89097063020E+00  0.16231314166E+02  0.00000000000E+00 0. -1.
</event>
<event>
 8    1  0.2493819E-006  0.9118800E+02  0.7816164E-02  0.1184000E+00
        -11   -1    0    0    0    0  0.00000000000E+00  0.00000000000E+00  0.45593999997E+02  0.45594000000E+02  0.51100000000E-03 0.  1.
         11   -1    0    0    0    0 -0.00000000000E+00 -0.00000000000E+00 -0.45593999997E+02  0.45594000000E+02  0.51100000000E-03 0. -1.
         23    2    1    2    0    0  0.00000000000E+00  0.88817841970E-15  0.00000000000E+00  0.91188000000E+02  0.91188000000E+02 0.  0.
    9900012    2    3    3    0    0 -0.31268217895E+02  0.52582956703E+00  0.19437123824E+02  0.54367085704E+02  0.40000003480E+02 0.  0.
         12    1    3    3    0    0  0.31268217895E+02 -0.52582956703E+00 -0.19437123824E+02  0.36820914296E+02  0.00000000000E+00 0. -1.
         11    1    4    4    0    0 -0.53938189331E+01 -0.14756493168E+02  0.94427909133E+01  0.18330675760E+02  0.51100000000E-03 0. -1.
        -11    1    4    4    0    0 -0.18669101477E+02  0.12772567358E+01  0.71475859746E+01  0.20031343446E+02  0.51100000000E-03 0.  1.
        -12    1    4    4    0    0 -0.72052974841E+01  0.14005066000E+02  0.28467469359E+01  0.16005066498E+02  0.00000000000E+00 0.  1.
</event>
<event>
 8    1  0.2493819E-006  0.9118800E+02  0.7816164E-02  0.1184000E+00
        -11   -1    0    0    0    0  0.00000000000E+00  0.00000000000E+00  0.45593999997E+02  0.45594000000E+02  0.51100000000E-03 0. -1.
         11   -1    0    0    0    0 -0.00000000000E+00 -0.00000000000E+00 -0.45593999997E+02  0.45594000000E+02  0.51100000000E-03 0.  1.
         23    2    1    2    0    0  0.00000000000E+00  0.00000000000E+00  0.00000000000E+00  0.91188000000E+02  0.91188000000E+02 0.  0.
    9900012    2    3    3    0    0  0.21232816925E+02 -0.23167922847E+02 -0.19188336755E+02  0.54367116916E+02  0.40000074634E+02 0.  0.
        -12    1    3    3    0    0 -0.21232816925E+02  0.23167922847E+02  0.19188336755E+02  0.36820883084E+02  0.00000000000E+00 0.  1.
         11    1    4    4    0    0  0.15688044339E+02 -0.12407402180E+02 -0.42349303476E+01  0.20444877093E+02  0.51100000000E-03 0. -1.
        -11    1    4    4    0    0  0.53159693410E+00 -0.70411662341E+01 -0.22815617541E+02  0.23883320985E+02  0.51100000000E-03 0.  1.
        -12    1    4    4    0    0  0.50131756520E+01 -0.37193544332E+01  0.78622111338E+01  0.10038918838E+02  0.00000000000E+00 0.  1.
</event>
<event>
 8    1  0.2493819E-006  0.9118800E+02  0.7816164E-02  0.1184000E+00
        -11   -1    0    0    0    0  0.00000000000E+00  0.00000000000E+00  0.45593999997E+02  0.45594000000E+02  0.51100000000E-03 0.  1.
         11   -1    0    0    0    0 -0.00000000000E+00 -0.00000000000E+00 -0.45593999997E+02  0.45594000000E+02  0.51100000000E-03 0. -1.
         23    2    1    2    0    0  0.00000000000E+00 -0.88817841970E-15  0.71054273576E-14  0.91188000000E+02  0.91188000000E+02 0.  0.
    9900012    2    3    3    0    0 -0.11479997098E+02 -0.62822876248E+01  0.34416894261E+02  0.54367080922E+02  0.39999992577E+02 0.  0.
         12    1    3    3    0    0  0.11479997098E+02  0.62822876248E+01 -0.34416894261E+02  0.36820919078E+02  0.00000000000E+00 0. -1.
         11    1    4    4    0    0 -0.44071946441E+01  0.14755794122E+02  0.43414603729E+01  0.16000159475E+02  0.51100000000E-03 0. -1.
        -11    1    4    4    0    0  0.55013082918E+00 -0.11298242422E+02  0.16465195315E+02  0.19976375617E+02  0.51100000000E-03 0.  1.
        -12    1    4    4    0    0 -0.76229332830E+01 -0.97398393243E+01  0.13610238573E+02  0.18390545830E+02  0.00000000000E+00 0.  1.
</event>
<event>
 8    1  0.2493819E-006  0.9118800E+02  0.7816164E-02  0.1184000E+00
        -11   -1    0    0    0    0  0.00000000000E+00  0.00000000000E+00  0.45593999997E+02  0.45594000000E+02  0.51100000000E-03 0. -1.
         11   -1    0    0    0    0 -0.00000000000E+00 -0.00000000000E+00 -0.45593999997E+02  0.45594000000E+02  0.51100000000E-03 0.  1.
         23    2    1    2    0    0  0.00000000000E+00  0.17763568394E-14  0.35527136788E-14  0.91188000000E+02  0.91188000000E+02 0.  0.
    9900012    2    3    3    0    0  0.22819614677E+02 -0.45581218401E+01 -0.28535394542E+02  0.54367081619E+02  0.39999994167E+02 0.  0.
         12    1    3    3    0    0 -0.22819614677E+02  0.45581218401E+01  0.28535394542E+02  0.36820918381E+02  0.00000000000E+00 0. -1.
         11    1    4    4    0    0 -0.99636245653E+01  0.47960195308E+01 -0.45007856087E+01  0.11938705507E+02  0.51100000000E-03 0. -1.
        -11    1    4    4    0    0  0.63119981376E+01 -0.14518066430E+00 -0.15616448608E+01  0.65039321065E+01  0.51100000000E-03 0.  1.
        -12    1    4    4    0    0  0.26471241105E+02 -0.92089607066E+01 -0.22472964073E+02  0.35924444006E+02  0.00000000000E+00 0.  1.
</event>
<event>
 8    1  0.2493819E-006  0.9118800E+02  0.7816164E-02  0.1184000E+00
        -11   -1    0    0    0    0  0.00000000000E+00  0.00000000000E+00  0.45593999997E+02  0.45594000000E+02  0.51100000000E-03 0.  1.
         11   -1    0    0    0    0 -0.00000000000E+00 -0.00000000000E+00 -0.45593999997E+02  0.45594000000E+02  0.51100000000E-03 0. -1.
         23    2    1    2    0    0 -0.44408920985E-15  0.00000000000E+00  0.00000000000E+00  0.91188000000E+02  0.91188000000E+02 0.  0.
    9900012    2    3    3    0    0  0.37113184797E+00 -0.22873783009E+02 -0.28851912066E+02  0.54367075000E+02  0.39999979078E+02 0.  0.
        -12    1    3    3    0    0 -0.37113184797E+00  0.22873783009E+02  0.28851912066E+02  0.36820925000E+02  0.00000000000E+00 0.  1.
         11    1    4    4    0    0  0.16316512715E+01 -0.17469967265E+02 -0.80029773641E+01  0.19284960177E+02  0.51100000000E-03 0. -1.
        -11    1    4    4    0    0  0.36969450158E+01 -0.11105439234E+02  0.12082216721E+01  0.11766817025E+02  0.51100000000E-03 0.  1.
         12    1    4    4    0    0 -0.49574644393E+01  0.57016234899E+01 -0.22057156374E+02  0.23315297797E+02  0.00000000000E+00 0. -1.
</event>
<event>
 8    1  0.2493819E-006  0.9118800E+02  0.7816164E-02  0.1184000E+00
        -11   -1    0    0    0    0  0.00000000000E+00  0.00000000000E+00  0.45593999997E+02  0.45594000000E+02  0.51100000000E-03 0. -1.
         11   -1    0    0    0    0 -0.00000000000E+00 -0.00000000000E+00 -0.45593999997E+02  0.45594000000E+02  0.51100000000E-03 0.  1.
         23    2    1    2    0    0  0.88817841970E-15  0.17763568394E-14  0.00000000000E+00  0.91188000000E+02  0.91188000000E+02 0.  0.
    9900012    2    3    3    0    0  0.48515090786E+01  0.11210447264E+02 -0.34735698387E+02  0.54367081887E+02  0.39999994779E+02 0.  0.
         12    1    3    3    0    0 -0.48515090786E+01 -0.11210447264E+02  0.34735698387E+02  0.36820918113E+02  0.00000000000E+00 0. -1.
         11    1    4    4    0    0 -0.52922511689E+00  0.12970293151E+02 -0.29909799564E+02  0.32605286287E+02  0.51100000000E-03 0. -1.
        -11    1    4    4    0    0 -0.40762561530E+01 -0.82998866827E+01 -0.44390928346E+01  0.10257169621E+02  0.51100000000E-03 0.  1.
         12    1    4    4    0    0  0.94569903485E+01  0.65400407953E+01 -0.38680598855E+00  0.11504625980E+02  0.00000000000E+00 0. -1.
</event>
<event>
 8    1  0.2493819E-006  0.9118800E+02  0.7816164E-02  0.1184000E+00
        -11   -1    0    0    0    0  0.00000000000E+00  0.00000000000E+00  0.45593999997E+02  0.45594000000E+02  0.51100000000E-03 0. -1.
         11   -1    0    0    0    0 -0.00000000000E+00 -0.00000000000E+00 -0.45593999997E+02  0.45594000000E+02  0.51100000000E-03 0.  1.
         23    2    1    2    0    0 -0.66613381478E-15 -0.24424906542E-14  0.71054273576E-14  0.91188000000E+02  0.91188000000E+02 0.  0.
    9900012    2    3    3    0    0 -0.18225188943E+01 -0.82881402351E+00  0.36766443671E+02  0.54367083553E+02  0.39999998576E+02 0.  0.
        -12    1    3    3    0    0  0.18225188943E+01  0.82881402351E+00 -0.36766443671E+02  0.36820916447E+02  0.00000000000E+00 0.  1.
         11    1    4    4    0    0 -0.37996001133E+01 -0.13509999428E+02  0.21469173833E+02  0.25649219693E+02  0.51100000000E-03 0. -1.
        -11    1    4    4    0    0 -0.18377387100E+01  0.53808889633E+00 -0.46651488808E+01  0.50428600583E+01  0.51100000000E-03 0.  1.
         12    1    4    4    0    0  0.38148199290E+01  0.12143096508E+02  0.19962418719E+02  0.23675003801E+02  0.00000000000E+00 0. -1.
</event>
<event>
 8    1  0.2493819E-006  0.9118800E+02  0.7816164E-02  0.1184000E+00
        -11   -1    0    0    0    0  0.00000000000E+00  0.00000000000E+00  0.45593999997E+02  0.45594000000E+02  0.51100000000E-03 0.  1.
         11   -1    0    0    0    0 -0.00000000000E+00 -0.00000000000E+00 -0.45593999997E+02  0.45594000000E+02  0.51100000000E-03 0. -1.
         23    2    1    2    0    0  0.00000000000E+00  0.00000000000E+00  0.00000000000E+00  0.91188000000E+02  0.91188000000E+02 0.  0.
    9900012    2    3    3    0    0  0.12099023751E+02  0.27814905275E+02  0.20874080809E+02  0.54367046987E+02  0.39999915216E+02 0.  0.
         12    1    3    3    0    0 -0.12099023751E+02 -0.27814905275E+02 -0.20874080809E+02  0.36820953013E+02  0.00000000000E+00 0. -1.
         11    1    4    4    0    0 -0.34799040850E+01  0.15565293718E+02  0.12359334966E+02  0.20177741748E+02  0.51100000000E-03 0. -1.
        -11    1    4    4    0    0 -0.24522576922E+01  0.63972973096E+01 -0.69241126681E+01  0.97407554716E+01  0.51100000000E-03 0.  1.
        -12    1    4    4    0    0  0.18031185529E+02  0.58523142470E+01  0.15438858511E+02  0.24448549767E+02  0.00000000000E+00 0.  1.
</event>
<event>
 8    1  0.2493819E-006  0.9118800E+02  0.7816164E-02  0.1184000E+00
        -11   -1    0    0    0    0  0.00000000000E+00  0.00000000000E+00  0.45593999997E+02  0.45594000000E+02  0.51100000000E-03 0.  1.
         11   -1    0    0    0    0 -0.00000000000E+00 -0.00000000000E+00 -0.45593999997E+02  0.45594000000E+02  0.51100000000E-03 0. -1.
         23    2    1    2    0    0 -0.35527136788E-14 -0.88817841970E-15  0.35527136788E-14  0.91188000000E+02  0.91188000000E+02 0.  0.
    9900012    2    3    3    0    0 -0.30793969893E+02  0.37106201222E+01 -0.19842955695E+02  0.54367079667E+02  0.39999989718E+02 0.  0.
        -12    1    3    3    0    0  0.30793969893E+02 -0.37106201222E+01  0.19842955695E+02  0.36820920333E+02  0.00000000000E+00 0.  1.
         11    1    4    4    0    0 -0.21636885064E+01 -0.13711896966E+02 -0.56225897224E+01  0.14977021794E+02  0.51100000000E-03 0. -1.
        -11    1    4    4    0    0 -0.18115157170E+00  0.59402982172E+01 -0.12024488393E+01  0.60634843344E+01  0.51100000000E-03 0.  1.
        -12    1    4    4    0    0 -0.28449129815E+02  0.11482218871E+02 -0.13017917133E+02  0.33326573539E+02  0.00000000000E+00 0.  1.
</event>
<event>
 8    1  0.2493819E-006  0.9118800E+02  0.7816164E-02  0.1184000E+00
        -11   -1    0    0    0    0  0.00000000000E+00  0.00000000000E+00  0.45593999997E+02  0.45594000000E+02  0.51100000000E-03 0.  1.
         11   -1    0    0    0    0 -0.00000000000E+00 -0.00000000000E+00 -0.45593999997E+02  0.45594000000E+02  0.51100000000E-03 0. -1.
         23    2    1    2    0    0  0.00000000000E+00  0.00000000000E+00  0.00000000000E+00  0.91188000000E+02  0.91188000000E+02 0.  0.
    9900012    2    3    3    0    0  0.15159132013E+02  0.28441580685E+02 -0.17806083816E+02  0.54367089961E+02  0.40000013183E+02 0.  0.
        -12    1    3    3    0    0 -0.15159132013E+02 -0.28441580685E+02  0.17806083816E+02  0.36820910039E+02  0.00000000000E+00 0.  1.
         11    1    4    4    0    0  0.13451225591E+02  0.48717271822E+01 -0.35874003148E+01  0.14749191060E+02  0.51100000000E-03 0. -1.
        -11    1    4    4    0    0 -0.32717507679E+00  0.14834454051E+02  0.71295222511E+01  0.16462021696E+02  0.51100000000E-03 0.  1.
         12    1    4    4    0    0  0.20350814989E+01  0.87353994522E+01 -0.21348205753E+02  0.23155877206E+02  0.00000000000E+00 0. -1.
</event>
<event>
 8    1  0.2493819E-006  0.9118800E+02  0.7816164E-02  0.1184000E+00
        -11   -1    0    0    0    0  0.00000000000E+00  0.00000000000E+00  0.45593999997E+02  0.45594000000E+02  0.51100000000E-03 0. -1.
         11   -1    0    0    0    0 -0.00000000000E+00 -0.00000000000E+00 -0.45593999997E+02  0.45594000000E+02  0.51100000000E-03 0.  1.
         23    2    1    2    0    0  0.00000000000E+00  0.00000000000E+00  0.11102230246E-14  0.91188000000E+02  0.91188000000E+02 0.  0.
    9900012    2    3    3    0    0 -0.32179686639E+02 -0.17894028038E+02 -0.23191629224E+00  0.54367051387E+02  0.39999925247E+02 0.  0.
        -12    1    3    3    0    0  0.32179686639E+02  0.17894028038E+02  0.23191629224E+00  0.36820948613E+02  0.00000000000E+00 0.  1.
         11    1    4    4    0    0 -0.26571442964E+02 -0.27060712444E+01  0.53290868637E+01  0.27235336785E+02  0.51100000000E-03 0. -1.
        -11    1    4    4    0    0 -0.11732149929E+02 -0.11129961528E+02 -0.95411669571E+01  0.18776401485E+02  0.51100000000E-03 0.  1.
         12    1    4    4    0    0  0.61239062541E+01 -0.40579952658E+01  0.39801638012E+01  0.83553131163E+01  0.00000000000E+00 0. -1.
</event>
<event>
 8    1  0.2493819E-006  0.9118800E+02  0.7816164E-02  0.1184000E+00
        -11   -1    0    0    0    0  0.00000000000E+00  0.00000000000E+00  0.45593999997E+02  0.45594000000E+02  0.51100000000E-03 0.  1.
         11   -1    0    0    0    0 -0.00000000000E+00 -0.00000000000E+00 -0.45593999997E+02  0.45594000000E+02  0.51100000000E-03 0. -1.
         23    2    1    2    0    0 -0.35527136788E-14  0.00000000000E+00  0.00000000000E+00  0.91188000000E+02  0.91188000000E+02 0.  0.
    9900012    2    3    3    0    0  0.26242255353E+02 -0.16849024950E+02 -0.19576114449E+02  0.54367219662E+02  0.40000308863E+02 0.  0.
        -12    1    3    3    0    0 -0.26242255353E+02  0.16849024950E+02  0.19576114449E+02  0.36820780338E+02  0.00000000000E+00 0.  1.
         11    1    4    4    0    0  0.29224043185E+02 -0.17174472563E+02 -0.15733276711E+02  0.37370351941E+02  0.51100000000E-03 0. -1.
        -11    1    4    4    0    0  0.62487062807E+01  0.76526660345E+00  0.12898278742E+01  0.64261667706E+01  0.51100000000E-03 0.  1.
         12    1    4    4    0    0 -0.92304941127E+01 -0.43981899103E+00 -0.51326656116E+01  0.10570700951E+02  0.00000000000E+00 0. -1.
</event>
<event>
 8    1  0.2493819E-006  0.9118800E+02  0.7816164E-02  0.1184000E+00
        -11   -1    0    0    0    0  0.00000000000E+00  0.00000000000E+00  0.45593999997E+02  0.45594000000E+02  0.51100000000E-03 0. -1.
         11   -1    0    0    0    0 -0.00000000000E+00 -0.00000000000E+00 -0.45593999997E+02  0.45594000000E+02  0.51100000000E-03 0.  1.
         23    2    1    2    0    0  0.13877787808E-16  0.00000000000E+00  0.00000000000E+00  0.91188000000E+02  0.91188000000E+02 0.  0.
    9900012    2    3    3    0    0  0.14191466663E-01  0.29386972305E+02 -0.22185260255E+02  0.54367080467E+02  0.39999991541E+02 0.  0.
         12    1    3    3    0    0 -0.14191466663E-01 -0.29386972305E+02  0.22185260255E+02  0.36820919533E+02  0.00000000000E+00 0. -1.
         11    1    4    4    0    0 -0.22413202092E+01 -0.28830714484E+01  0.16841721586E+01  0.40214491639E+01  0.51100000000E-03 0. -1.
        -11    1    4    4    0    0  0.19092975117E+00  0.20665797416E+02  0.31143262883E+01  0.20900015921E+02  0.51100000000E-03 0.  1.
        -12    1    4    4    0    0  0.20645819247E+01  0.11604246338E+02 -0.26983758702E+02  0.29445615383E+02  0.00000000000E+00 0.  1.
</event>
<event>
 8    1  0.2493819E-006  0.9118800E+02  0.7816164E-02  0.1184000E+00
        -11   -1    0    0    0    0  0.00000000000E+00  0.00000000000E+00  0.45593999997E+02  0.45594000000E+02  0.51100000000E-03 0. -1.
         11   -1    0    0    0    0 -0.00000000000E+00 -0.00000000000E+00 -0.45593999997E+02  0.45594000000E+02  0.51100000000E-03 0.  1.
         23    2    1    2    0    0  0.00000000000E+00  0.17763568394E-14  0.00000000000E+00  0.91188000000E+02  0.91188000000E+02 0.  0.
    9900012    2    3    3    0    0  0.64584999940E+01  0.14301262098E+02  0.33309798350E+02  0.54367068644E+02  0.39999964589E+02 0.  0.
        -12    1    3    3    0    0 -0.64584999940E+01 -0.14301262098E+02 -0.33309798350E+02  0.36820931356E+02  0.00000000000E+00 0.  1.
         11    1    4    4    0    0  0.58166625703E+01  0.80403017842E+01 -0.27094824699E+01  0.10286948612E+02  0.51100000000E-03 0. -1.
        -11    1    4    4    0    0 -0.90860662132E+01 -0.20256062320E+01  0.50784873927E+01  0.10604278113E+02  0.51100000000E-03 0.  1.
         12    1    4    4    0    0  0.97279036369E+01  0.82865665460E+01  0.30940793427E+02  0.33475841919E+02  0.00000000000E+00 0. -1.
</event>
<event>
 8    1  0.2493819E-006  0.9118800E+02  0.7816164E-02  0.1184000E+00
        -11   -1    0    0    0    0  0.00000000000E+00  0.00000000000E+00  0.45593999997E+02  0.45594000000E+02  0.51100000000E-03 0. -1.
         11   -1    0    0    0    0 -0.00000000000E+00 -0.00000000000E+00 -0.45593999997E+02  0.45594000000E+02  0.51100000000E-03 0.  1.
         23    2    1    2    0    0  0.35527136788E-14  0.35527136788E-14  0.17763568394E-14  0.91188000000E+02  0.91188000000E+02 0.  0.
    9900012    2    3    3    0    0 -0.19520598145E+02 -0.27279152463E+02 -0.15184620783E+02  0.54367100780E+02  0.40000037847E+02 0.  0.
         12    1    3    3    0    0  0.19520598145E+02  0.27279152463E+02  0.15184620783E+02  0.36820899220E+02  0.00000000000E+00 0. -1.
         11    1    4    4    0    0  0.33028183200E+01 -0.13033802960E+02  0.36541963106E+01  0.13933476931E+02  0.51100000000E-03 0. -1.
        -11    1    4    4    0    0 -0.97691407852E+01 -0.15094480079E+02 -0.20476017688E+02  0.27249710846E+02  0.51100000000E-03 0.  1.
         12    1    4    4    0    0 -0.13054275680E+02  0.84913057612E+00  0.16372005947E+01  0.13183913002E+02  0.00000000000E+00 0. -1.
</event>
<event>
 8    1  0.2493819E-006  0.9118800E+02  0.7816164E-02  0.1184000E+00
        -11   -1    0    0    0    0  0.00000000000E+00  0.00000000000E+00  0.45593999997E+02  0.45594000000E+02  0.51100000000E-03 0. -1.
         11   -1    0    0    0    0 -0.00000000000E+00 -0.00000000000E+00 -0.45593999997E+02  0.45594000000E+02  0.51100000000E-03 0.  1.
         23    2    1    2    0    0  0.00000000000E+00  0.00000000000E+00  0.00000000000E+00  0.91188000000E+02  0.91188000000E+02 0.  0.
    9900012    2    3    3    0    0 -0.31673574090E+02  0.32937005148E+01  0.18485483578E+02  0.54367124646E+02  0.40000092255E+02 0.  0.
        -12    1    3    3    0    0  0.31673574090E+02 -0.32937005148E+01 -0.18485483578E+02  0.36820875354E+02  0.00000000000E+00 0.  1.
         11    1    4    4    0    0 -0.28952279761E+02  0.73390100921E+01  0.17103998979E+02  0.34418633817E+02  0.51100000000E-03 0. -1.
        -11    1    4    4    0    0 -0.88980092713E+01 -0.77293534912E+01 -0.20774347382E+01  0.11968007760E+02  0.51100000000E-03 0.  1.
         12    1    4    4    0    0  0.61767149423E+01  0.36840439139E+01  0.34589193375E+01  0.79804830694E+01  0.00000000000E+00 0. -1.
</event>
<event>
 8    1  0.2493819E-006  0.9118800E+02  0.7816164E-02  0.1184000E+00
        -11   -1    0    0    0    0  0.00000000000E+00  0.00000000000E+00  0.45593999997E+02  0.45594000000E+02  0.51100000000E-03 0. -1.
         11   -1    0    0    0    0 -0.00000000000E+00 -0.00000000000E+00 -0.45593999997E+02  0.45594000000E+02  0.51100000000E-03 0.  1.
         23    2    1    2    0    0  0.00000000000E+00  0.00000000000E+00 -0.17763568394E-14  0.91188000000E+02  0.91188000000E+02 0.  0.
    9900012    2    3    3    0    0  0.30775226139E+02 -0.15481123198E+02 -0.13000023637E+02  0.54367077498E+02  0.39999984771E+02 0.  0.
         12    1    3    3    0    0 -0.30775226139E+02  0.15481123198E+02  0.13000023637E+02  0.36820922502E+02  0.00000000000E+00 0. -1.
         11    1    4    4    0    0 -0.77793558099E+00 -0.11287000110E+02  0.11386518585E+01  0.11370931517E+02  0.51100000000E-03 0. -1.
        -11    1    4    4    0    0  0.40945363924E+01  0.26471056033E+01  0.63888457619E+01  0.80367746499E+01  0.51100000000E-03 0.  1.
        -12    1    4    4    0    0  0.27458625327E+02 -0.68412286919E+01 -0.20527521257E+02  0.34959371331E+02  0.00000000000E+00 0.  1.
</event>
<event>
 8    1  0.2493819E-006  0.9118800E+02  0.7816164E-02  0.1184000E+00
        -11   -1    0    0    0    0  0.00000000000E+00  0.00000000000E+00  0.45593999997E+02  0.45594000000E+02  0.51100000000E-03 0. -1.
         11   -1    0    0    0    0 -0.00000000000E+00 -0.00000000000E+00 -0.45593999997E+02  0.45594000000E+02  0.51100000000E-03 0.  1.
         23    2    1    2    0    0  0.00000000000E+00 -0.49960036108E-15  0.00000000000E+00  0.91188000000E+02  0.91188000000E+02 0.  0.
    9900012    2    3    3    0    0 -0.32440760277E+02  0.31212019312E+00  0.17414925240E+02  0.54367082474E+02  0.39999996116E+02 0.  0.
        -12    1    3    3    0    0  0.32440760277E+02 -0.31212019312E+00 -0.17414925240E+02  0.36820917526E+02  0.00000000000E+00 0.  1.
         11    1    4    4    0    0 -0.45342697531E+01  0.11317918266E+02  0.71630949689E+01  0.14140891269E+02  0.51100000000E-03 0. -1.
        -11    1    4    4    0    0 -0.20400782440E+02  0.28905272841E+01 -0.13201023229E+01  0.20646785284E+02  0.51100000000E-03 0.  1.
         12    1    4    4    0    0 -0.75057080834E+01 -0.13896325357E+02  0.11571932594E+02  0.19579405921E+02  0.00000000000E+00 0. -1.
</event>
<event>
 8    1  0.2493819E-006  0.9118800E+02  0.7816164E-02  0.1184000E+00
        -11   -1    0    0    0    0  0.00000000000E+00  0.00000000000E+00  0.45593999997E+02  0.45594000000E+02  0.51100000000E-03 0. -1.
         11   -1    0    0    0    0 -0.00000000000E+00 -0.00000000000E+00 -0.45593999997E+02  0.45594000000E+02  0.51100000000E-03 0.  1.
         23    2    1    2    0    0  0.35527136788E-14 -0.88817841970E-15  0.00000000000E+00  0.91188000000E+02  0.91188000000E+02 0.  0.
    9900012    2    3    3    0    0  0.28161325458E+02  0.58093641126E+01  0.22999380702E+02  0.54367075573E+02  0.39999980384E+02 0.  0.
        -12    1    3    3    0    0 -0.28161325458E+02 -0.58093641126E+01 -0.22999380702E+02  0.36820924427E+02  0.00000000000E+00 0.  1.
         11    1    4    4    0    0  0.72529983536E+01  0.10349053112E+02  0.19389897481E+02  0.23144697234E+02  0.51100000000E-03 0. -1.
        -11    1    4    4    0    0  0.19268556409E+02  0.54550455092E+01 -0.10928793311E+01  0.20055651899E+02  0.51100000000E-03 0.  1.
        -12    1    4    4    0    0  0.16397706958E+01 -0.99947345088E+01  0.47023625519E+01  0.11166726441E+02  0.00000000000E+00 0.  1.
</event>
<event>
 8    1  0.2493819E-006  0.9118800E+02  0.7816164E-02  0.1184000E+00
        -11   -1    0    0    0    0  0.00000000000E+00  0.00000000000E+00  0.45593999997E+02  0.45594000000E+02  0.51100000000E-03 0.  1.
         11   -1    0    0    0    0 -0.00000000000E+00 -0.00000000000E+00 -0.45593999997E+02  0.45594000000E+02  0.51100000000E-03 0. -1.
         23    2    1    2    0    0 -0.17763568394E-14  0.00000000000E+00  0.00000000000E+00  0.91188000000E+02  0.91188000000E+02 0.  0.
    9900012    2    3    3    0    0 -0.12725892179E+02 -0.36765564043E+01  0.34355695136E+02  0.54367093072E+02  0.40000020276E+02 0.  0.
         12    1    3    3    0    0  0.12725892179E+02  0.36765564043E+01 -0.34355695136E+02  0.36820906928E+02  0.00000000000E+00 0. -1.
         11    1    4    4    0    0 -0.17092680335E+02 -0.14516387656E+02  0.29753032536E+02  0.37257592205E+02  0.51100000000E-03 0. -1.
        -11    1    4    4    0    0 -0.12584928122E+01 -0.20425072486E+01  0.99294490931E+00  0.25964552514E+01  0.51100000000E-03 0.  1.
         12    1    4    4    0    0  0.56252809685E+01  0.12882338501E+02  0.36097176910E+01  0.14513045615E+02  0.00000000000E+00 0. -1.
</event>
<event>
 8    1  0.2493819E-006  0.9118800E+02  0.7816164E-02  0.1184000E+00
        -11   -1    0    0    0    0  0.00000000000E+00  0.00000000000E+00  0.45593999997E+02  0.45594000000E+02  0.51100000000E-03 0. -1.
         11   -1    0    0    0    0 -0.00000000000E+00 -0.00000000000E+00 -0.45593999997E+02  0.45594000000E+02  0.51100000000E-03 0.  1.
         23    2    1    2    0    0  0.00000000000E+00  0.00000000000E+00  0.33306690739E-15  0.91188000000E+02  0.91188000000E+02 0.  0.
    9900012    2    3    3    0    0 -0.16112032384E+02  0.33108403285E+02  0.12891391291E+00  0.54367074231E+02  0.39999977326E+02 0.  0.
         12    1    3    3    0    0  0.16112032384E+02 -0.33108403285E+02 -0.12891391291E+00  0.36820925769E+02  0.00000000000E+00 0. -1.
         11    1    4    4    0    0  0.20026106654E+01  0.24035257414E+01  0.94764749662E+01  0.99795272189E+01  0.51100000000E-03 0.  1.
        -11    1    4    4    0    0  0.59586240943E+01  0.75518411580E+01  0.29199845051E+00  0.96239684813E+01  0.51100000000E-03 0. -1.
        -12    1    4    4    0    0 -0.24073267144E+02  0.23153036386E+02 -0.96395595038E+01  0.34763578531E+02  0.00000000000E+00 0.  1.
</event>
<event>
 8    1  0.2493819E-006  0.9118800E+02  0.7816164E-02  0.1184000E+00
        -11   -1    0    0    0    0  0.00000000000E+00  0.00000000000E+00  0.45593999997E+02  0.45594000000E+02  0.51100000000E-03 0. -1.
         11   -1    0    0    0    0 -0.00000000000E+00 -0.00000000000E+00 -0.45593999997E+02  0.45594000000E+02  0.51100000000E-03 0.  1.
         23    2    1    2    0    0 -0.17763568394E-14 -0.88817841970E-15  0.00000000000E+00  0.91188000000E+02  0.91188000000E+02 0.  0.
    9900012    2    3    3    0    0  0.12934621503E+02 -0.26733526441E+01  0.34370456544E+02  0.54367088403E+02  0.40000009633E+02 0.  0.
        -12    1    3    3    0    0 -0.12934621503E+02  0.26733526441E+01 -0.34370456544E+02  0.36820911597E+02  0.00000000000E+00 0.  1.
         11    1    4    4    0    0 -0.46773626993E+00  0.20200121994E+01  0.71971118974E+01  0.74898362085E+01  0.51100000000E-03 0. -1.
        -11    1    4    4    0    0  0.15710845235E+00 -0.12105174703E+02  0.29156785109E+02  0.31570208358E+02  0.51100000000E-03 0.  1.
        -12    1    4    4    0    0  0.13245249320E+02  0.74118098593E+01 -0.19834404622E+01  0.15307043837E+02  0.00000000000E+00 0.  1.
</event>
<event>
 8    1  0.2493819E-006  0.9118800E+02  0.7816164E-02  0.1184000E+00
        -11   -1    0    0    0    0  0.00000000000E+00  0.00000000000E+00  0.45593999997E+02  0.45594000000E+02  0.51100000000E-03 0.  1.
         11   -1    0    0    0    0 -0.00000000000E+00 -0.00000000000E+00 -0.45593999997E+02  0.45594000000E+02  0.51100000000E-03 0. -1.
         23    2    1    2    0    0  0.00000000000E+00  0.00000000000E+00  0.35527136788E-14  0.91188000000E+02  0.91188000000E+02 0.  0.
    9900012    2    3    3    0    0 -0.15924357925E+02  0.10369916009E+02 -0.31538228057E+02  0.54367079828E+02  0.39999990084E+02 0.  0.
        -12    1    3    3    0    0  0.15924357925E+02 -0.10369916009E+02  0.31538228057E+02  0.36820920172E+02  0.00000000000E+00 0.  1.
         11    1    4    4    0    0 -0.98061433756E+01  0.20537773424E+02 -0.89235851757E+01  0.24445673600E+02  0.51100000000E-03 0. -1.
        -11    1    4    4    0    0 -0.10680378724E+02 -0.10133667239E+02 -0.14821995738E+02  0.20891463791E+02  0.51100000000E-03 0.  1.
         12    1    4    4    0    0  0.45621641745E+01 -0.34190176252E-01 -0.77926471428E+01  0.90299424370E+01  0.00000000000E+00 0. -1.
</event>
<event>
 8    1  0.2493819E-006  0.9118800E+02  0.7816164E-02  0.1184000E+00
        -11   -1    0    0    0    0  0.00000000000E+00  0.00000000000E+00  0.45593999997E+02  0.45594000000E+02  0.51100000000E-03 0. -1.
         11   -1    0    0    0    0 -0.00000000000E+00 -0.00000000000E+00 -0.45593999997E+02  0.45594000000E+02  0.51100000000E-03 0.  1.
         23    2    1    2    0    0  0.35527136788E-14  0.35527136788E-14  0.00000000000E+00  0.91188000000E+02  0.91188000000E+02 0.  0.
    9900012    2    3    3    0    0  0.25219769564E+02  0.20636706302E+02 -0.17142699422E+02  0.54367047169E+02  0.39999915632E+02 0.  0.
         12    1    3    3    0    0 -0.25219769564E+02 -0.20636706302E+02  0.17142699422E+02  0.36820952831E+02  0.00000000000E+00 0. -1.
         11    1    4    4    0    0  0.12452131281E+02 -0.98819807737E+00 -0.16248994863E+02  0.20495412735E+02  0.51100000000E-03 0. -1.
        -11    1    4    4    0    0  0.83774283016E+01  0.10689955117E+02 -0.11667818532E+02  0.17905151072E+02  0.51100000000E-03 0.  1.
         12    1    4    4    0    0  0.43902099820E+01  0.10934949263E+02  0.10774113973E+02  0.15966483363E+02  0.00000000000E+00 0. -1.
</event>
<event>
 8    1  0.2493819E-006  0.9118800E+02  0.7816164E-02  0.1184000E+00
        -11   -1    0    0    0    0  0.00000000000E+00  0.00000000000E+00  0.45593999997E+02  0.45594000000E+02  0.51100000000E-03 0.  1.
         11   -1    0    0    0    0 -0.00000000000E+00 -0.00000000000E+00 -0.45593999997E+02  0.45594000000E+02  0.51100000000E-03 0. -1.
         23    2    1    2    0    0  0.35527136788E-14  0.00000000000E+00  0.35527136788E-14  0.91188000000E+02  0.91188000000E+02 0.  0.
    9900012    2    3    3    0    0 -0.24835625793E+02  0.17378969627E+02 -0.20903197098E+02  0.54367074662E+02  0.39999978307E+02 0.  0.
        -12    1    3    3    0    0  0.24835625793E+02 -0.17378969627E+02  0.20903197098E+02  0.36820925338E+02  0.00000000000E+00 0.  1.
         11    1    4    4    0    0  0.49348483429E+01  0.39004875194E+01 -0.14120756630E+01  0.64467425104E+01  0.51100000000E-03 0. -1.
        -11    1    4    4    0    0 -0.81474658912E+01  0.27678959045E+01  0.77135387336E+01  0.11555999664E+02  0.51100000000E-03 0.  1.
         12    1    4    4    0    0 -0.21623008244E+02  0.10710586203E+02 -0.27204660169E+02  0.36364332487E+02  0.00000000000E+00 0. -1.
</event>
<event>
 8    1  0.2493819E-006  0.9118800E+02  0.7816164E-02  0.1184000E+00
        -11   -1    0    0    0    0  0.00000000000E+00  0.00000000000E+00  0.45593999997E+02  0.45594000000E+02  0.51100000000E-03 0. -1.
         11   -1    0    0    0    0 -0.00000000000E+00 -0.00000000000E+00 -0.45593999997E+02  0.45594000000E+02  0.51100000000E-03 0.  1.
         23    2    1    2    0    0  0.00000000000E+00 -0.17763568394E-14 -0.17763568394E-14  0.91188000000E+02  0.91188000000E+02 0.  0.
    9900012    2    3    3    0    0 -0.32458873903E+02  0.15768908280E+02  0.73172287373E+01  0.54367098330E+02  0.40000032263E+02 0.  0.
        -12    1    3    3    0    0  0.32458873903E+02 -0.15768908280E+02 -0.73172287373E+01  0.36820901670E+02  0.00000000000E+00 0.  1.
         11    1    4    4    0    0 -0.86476171722E+01  0.43283309993E+01  0.82219382479E+01  0.12693147790E+02  0.51100000000E-03 0. -1.
        -11    1    4    4    0    0 -0.59081964679E+00  0.38061054768E+01  0.12995819932E+02  0.13554587516E+02  0.51100000000E-03 0.  1.
        -12    1    4    4    0    0 -0.23220437084E+02  0.76344718039E+01 -0.13900529443E+02  0.28119363024E+02  0.00000000000E+00 0.  1.
</event>
<event>
 8    1  0.2493819E-006  0.9118800E+02  0.7816164E-02  0.1184000E+00
        -11   -1    0    0    0    0  0.00000000000E+00  0.00000000000E+00  0.45593999997E+02  0.45594000000E+02  0.51100000000E-03 0.  1.
         11   -1    0    0    0    0 -0.00000000000E+00 -0.00000000000E+00 -0.45593999997E+02  0.45594000000E+02  0.51100000000E-03 0. -1.
         23    2    1    2    0    0  0.00000000000E+00  0.71054273576E-14  0.22204460493E-14  0.91188000000E+02  0.91188000000E+02 0.  0.
    9900012    2    3    3    0    0  0.80828131014E+01  0.35854076045E+02  0.22201106204E+01  0.54367142761E+02  0.40000133552E+02 0.  0.
         12    1    3    3    0    0 -0.80828131014E+01 -0.35854076045E+02 -0.22201106204E+01  0.36820857239E+02  0.00000000000E+00 0. -1.
         11    1    4    4    0    0  0.12061741112E+02  0.33404309639E+01 -0.63658617060E+01  0.14041662052E+02  0.51100000000E-03 0. -1.
        -11    1    4    4    0    0 -0.20470138190E+01 -0.22650434233E+01  0.42375659869E+01  0.52228012637E+01  0.51100000000E-03 0.  1.
         12    1    4    4    0    0 -0.19319141912E+01  0.34778688504E+02  0.43484063395E+01  0.35102679445E+02  0.00000000000E+00 0. -1.
</event>
<event>
 8    1  0.2493819E-006  0.9118800E+02  0.7816164E-02  0.1184000E+00
        -11   -1    0    0    0    0  0.00000000000E+00  0.00000000000E+00  0.45593999997E+02  0.45594000000E+02  0.51100000000E-03 0. -1.
         11   -1    0    0    0    0 -0.00000000000E+00 -0.00000000000E+00 -0.45593999997E+02  0.45594000000E+02  0.51100000000E-03 0.  1.
         23    2    1    2    0    0  0.35527136788E-14  0.00000000000E+00  0.00000000000E+00  0.91188000000E+02  0.91188000000E+02 0.  0.
    9900012    2    3    3    0    0  0.25419844759E+02 -0.15124201488E+02 -0.21928498963E+02  0.54367230793E+02  0.40000334237E+02 0.  0.
         12    1    3    3    0    0 -0.25419844759E+02  0.15124201488E+02  0.21928498963E+02  0.36820769207E+02  0.00000000000E+00 0. -1.
         11    1    4    4    0    0 -0.58136819078E+01 -0.80456751768E+01 -0.11191329362E+02  0.14959199161E+02  0.51100000000E-03 0. -1.
        -11    1    4    4    0    0  0.22660615146E+02  0.47843934885E+01 -0.50419265003E+01  0.23702635359E+02  0.51100000000E-03 0.  1.
        -12    1    4    4    0    0  0.85729115205E+01 -0.11862919800E+02 -0.56952431005E+01  0.15705396273E+02  0.00000000000E+00 0.  1.
</event>
<event>
 8    1  0.2493819E-006  0.9118800E+02  0.7816164E-02  0.1184000E+00
        -11   -1    0    0    0    0  0.00000000000E+00  0.00000000000E+00  0.45593999997E+02  0.45594000000E+02  0.51100000000E-03 0.  1.
         11   -1    0    0    0    0 -0.00000000000E+00 -0.00000000000E+00 -0.45593999997E+02  0.45594000000E+02  0.51100000000E-03 0. -1.
         23    2    1    2    0    0  0.00000000000E+00  0.35527136788E-14  0.00000000000E+00  0.91188000000E+02  0.91188000000E+02 0.  0.
    9900012    2    3    3    0    0  0.11860004275E+02 -0.16623390343E+02 -0.30639547595E+02  0.54367099892E+02  0.40000035825E+02 0.  0.
        -12    1    3    3    0    0 -0.11860004275E+02  0.16623390343E+02  0.30639547595E+02  0.36820900108E+02  0.00000000000E+00 0.  1.
         11    1    4    4    0    0 -0.23708794104E+01  0.42392382086E+01 -0.65732218183E+01  0.81730933618E+01  0.51100000000E-03 0. -1.
        -11    1    4    4    0    0 -0.67752906341E+00 -0.20141193132E+02 -0.29980478684E+01  0.20374371100E+02  0.51100000000E-03 0.  1.
        -12    1    4    4    0    0  0.14908412749E+02 -0.72143541936E+00 -0.21068277908E+02  0.25819635431E+02  0.00000000000E+00 0.  1.
</event>
<event>
 8    1  0.2493819E-006  0.9118800E+02  0.7816164E-02  0.1184000E+00
        -11   -1    0    0    0    0  0.00000000000E+00  0.00000000000E+00  0.45593999997E+02  0.45594000000E+02  0.51100000000E-03 0.  1.
         11   -1    0    0    0    0 -0.00000000000E+00 -0.00000000000E+00 -0.45593999997E+02  0.45594000000E+02  0.51100000000E-03 0. -1.
         23    2    1    2    0    0  0.00000000000E+00  0.17763568394E-14 -0.26645352591E-14  0.91188000000E+02  0.91188000000E+02 0.  0.
    9900012    2    3    3    0    0  0.32827254618E+02  0.15356590673E+02 -0.65058995095E+01  0.54367078620E+02  0.39999987330E+02 0.  0.
        -12    1    3    3    0    0 -0.32827254618E+02 -0.15356590673E+02  0.65058995095E+01  0.36820921380E+02  0.00000000000E+00 0.  1.
         11    1    4    4    0    0  0.24117579978E+02  0.12132250465E+02  0.92149769750E+01  0.28526565974E+02  0.51100000000E-03 0. -1.
        -11    1    4    4    0    0 -0.21965576800E+01  0.57117806692E+01 -0.12939482754E+02  0.14313613040E+02  0.51100000000E-03 0.  1.
         12    1    4    4    0    0  0.10906232319E+02 -0.24874404614E+01 -0.27813937307E+01  0.11526899606E+02  0.00000000000E+00 0. -1.
</event>
<event>
 8    1  0.2493819E-006  0.9118800E+02  0.7816164E-02  0.1184000E+00
        -11   -1    0    0    0    0  0.00000000000E+00  0.00000000000E+00  0.45593999997E+02  0.45594000000E+02  0.51100000000E-03 0.  1.
         11   -1    0    0    0    0 -0.00000000000E+00 -0.00000000000E+00 -0.45593999997E+02  0.45594000000E+02  0.51100000000E-03 0. -1.
         23    2    1    2    0    0 -0.35527136788E-14 -0.17763568394E-14  0.00000000000E+00  0.91188000000E+02  0.91188000000E+02 0.  0.
    9900012    2    3    3    0    0  0.24682350751E+02  0.92313038919E+01  0.25716598902E+02  0.54367097387E+02  0.40000030113E+02 0.  0.
         12    1    3    3    0    0 -0.24682350751E+02 -0.92313038919E+01 -0.25716598902E+02  0.36820902613E+02  0.00000000000E+00 0. -1.
         11    1    4    4    0    0  0.81488842309E+01 -0.13769905120E+02  0.19060497047E+02  0.24886083444E+02  0.51100000000E-03 0. -1.
        -11    1    4    4    0    0  0.10171229341E+02  0.17803656239E+02  0.47078569844E+01  0.21037775535E+02  0.51100000000E-03 0.  1.
         12    1    4    4    0    0  0.63622371789E+01  0.51975527727E+01  0.19482448704E+01  0.84432384084E+01  0.00000000000E+00 0. -1.
</event>
<event>
 8    1  0.2493819E-006  0.9118800E+02  0.7816164E-02  0.1184000E+00
        -11   -1    0    0    0    0  0.00000000000E+00  0.00000000000E+00  0.45593999997E+02  0.45594000000E+02  0.51100000000E-03 0.  1.
         11   -1    0    0    0    0 -0.00000000000E+00 -0.00000000000E+00 -0.45593999997E+02  0.45594000000E+02  0.51100000000E-03 0. -1.
         23    2    1    2    0    0 -0.88817841970E-15 -0.35527136788E-14  0.00000000000E+00  0.91188000000E+02  0.91188000000E+02 0.  0.
    9900012    2    3    3    0    0 -0.77844760157E+01 -0.26319920090E+02  0.24544711157E+02  0.54367094170E+02  0.40000022778E+02 0.  0.
         12    1    3    3    0    0  0.77844760157E+01  0.26319920090E+02 -0.24544711157E+02  0.36820905830E+02  0.00000000000E+00 0. -1.
         11    1    4    4    0    0  0.64848522688E+01 -0.22031109355E+02  0.22845562495E+02  0.32393561310E+02  0.51100000000E-03 0.  1.
        -11    1    4    4    0    0 -0.64222858007E+01  0.58751549022E+01  0.26474283119E+01  0.90979160778E+01  0.51100000000E-03 0. -1.
         12    1    4    4    0    0 -0.78470424838E+01 -0.10163965637E+02 -0.94827965011E+00  0.12875616782E+02  0.00000000000E+00 0. -1.
</event>
<event>
 8    1  0.2493819E-006  0.9118800E+02  0.7816164E-02  0.1184000E+00
        -11   -1    0    0    0    0  0.00000000000E+00  0.00000000000E+00  0.45593999997E+02  0.45594000000E+02  0.51100000000E-03 0.  1.
         11   -1    0    0    0    0 -0.00000000000E+00 -0.00000000000E+00 -0.45593999997E+02  0.45594000000E+02  0.51100000000E-03 0. -1.
         23    2    1    2    0    0  0.35527136788E-14 -0.35527136788E-14  0.00000000000E+00  0.91188000000E+02  0.91188000000E+02 0.  0.
    9900012    2    3    3    0    0  0.71828030320E+01 -0.21572441261E+02 -0.28962323260E+02  0.54367094933E+02  0.40000024519E+02 0.  0.
        -12    1    3    3    0    0 -0.71828030320E+01  0.21572441261E+02  0.28962323260E+02  0.36820905067E+02  0.00000000000E+00 0.  1.
         11    1    4    4    0    0 -0.11908846607E+02 -0.25055047242E+01 -0.14598846530E+02  0.19005907021E+02  0.51100000000E-03 0. -1.
        -11    1    4    4    0    0  0.20378980757E+02 -0.11617137894E+02 -0.14887140715E+02  0.27782867175E+02  0.51100000000E-03 0.  1.
         12    1    4    4    0    0 -0.12873311179E+01 -0.74497986422E+01  0.52366398588E+00  0.75783207366E+01  0.00000000000E+00 0. -1.
</event>
<event>
 8    1  0.2493819E-006  0.9118800E+02  0.7816164E-02  0.1184000E+00
        -11   -1    0    0    0    0  0.00000000000E+00  0.00000000000E+00  0.45593999997E+02  0.45594000000E+02  0.51100000000E-03 0. -1.
         11   -1    0    0    0    0 -0.00000000000E+00 -0.00000000000E+00 -0.45593999997E+02  0.45594000000E+02  0.51100000000E-03 0.  1.
         23    2    1    2    0    0  0.35527136788E-14  0.00000000000E+00  0.35527136788E-14  0.91188000000E+02  0.91188000000E+02 0.  0.
    9900012    2    3    3    0    0  0.20412851271E+02  0.21042202253E+02 -0.22278271381E+02  0.54367080017E+02  0.39999990515E+02 0.  0.
         12    1    3    3    0    0 -0.20412851271E+02 -0.21042202253E+02  0.22278271381E+02  0.36820919983E+02  0.00000000000E+00 0. -1.
         11    1    4    4    0    0  0.13655065107E+02  0.19656674426E+02 -0.89683340689E+01  0.25559277549E+02  0.51100000000E-03 0. -1.
        -11    1    4    4    0    0  0.10691331200E+02  0.23228306845E+01 -0.18941889439E+02  0.21874534989E+02  0.51100000000E-03 0.  1.
        -12    1    4    4    0    0 -0.39335450354E+01 -0.93730285777E+00  0.56319521263E+01  0.69332674797E+01  0.00000000000E+00 0.  1.
</event>
<event>
 8    1  0.2493819E-006  0.9118800E+02  0.7816164E-02  0.1184000E+00
        -11   -1    0    0    0    0  0.00000000000E+00  0.00000000000E+00  0.45593999997E+02  0.45594000000E+02  0.51100000000E-03 0. -1.
         11   -1    0    0    0    0 -0.00000000000E+00 -0.00000000000E+00 -0.45593999997E+02  0.45594000000E+02  0.51100000000E-03 0.  1.
         23    2    1    2    0    0  0.00000000000E+00 -0.71054273576E-14 -0.11102230246E-14  0.91188000000E+02  0.91188000000E+02 0.  0.
    9900012    2    3    3    0    0  0.18208495342E+02 -0.31941616101E+02  0.19898159792E+01  0.54367143011E+02  0.40000134122E+02 0.  0.
         12    1    3    3    0    0 -0.18208495342E+02  0.31941616101E+02 -0.19898159792E+01  0.36820856989E+02  0.00000000000E+00 0. -1.
         11    1    4    4    0    0  0.16380994824E+02 -0.14904457144E+01  0.85509661486E+01  0.18538539376E+02  0.51100000000E-03 0. -1.
        -11    1    4    4    0    0  0.30805824183E+01 -0.13967256212E+02 -0.11740871617E+02  0.18504656190E+02  0.51100000000E-03 0.  1.
         12    1    4    4    0    0 -0.12530819012E+01 -0.16483914175E+02  0.51797214481E+01  0.17323947445E+02  0.00000000000E+00 0. -1.
</event>
<event>
 8    1  0.2493819E-006  0.9118800E+02  0.7816164E-02  0.1184000E+00
        -11   -1    0    0    0    0  0.00000000000E+00  0.00000000000E+00  0.45593999997E+02  0.45594000000E+02  0.51100000000E-03 0.  1.
         11   -1    0    0    0    0 -0.00000000000E+00 -0.00000000000E+00 -0.45593999997E+02  0.45594000000E+02  0.51100000000E-03 0. -1.
         23    2    1    2    0    0 -0.44408920985E-15  0.00000000000E+00  0.00000000000E+00  0.91188000000E+02  0.91188000000E+02 0.  0.
    9900012    2    3    3    0    0  0.39628301993E+01  0.16012996367E+02  0.32918977758E+02  0.54367093269E+02  0.40000020726E+02 0.  0.
         12    1    3    3    0    0 -0.39628301993E+01 -0.16012996367E+02 -0.32918977758E+02  0.36820906731E+02  0.00000000000E+00 0. -1.
         11    1    4    4    0    0 -0.75646671821E+01  0.21536745569E+02  0.11572173646E+02  0.25592397356E+02  0.51100000000E-03 0. -1.
        -11    1    4    4    0    0 -0.19031974735E+00  0.40772330587E+01  0.55349495252E+01  0.68771881993E+01  0.51100000000E-03 0.  1.
        -12    1    4    4    0    0  0.11717817129E+02 -0.96009822599E+01  0.15811854587E+02  0.21897507714E+02  0.00000000000E+00 0.  1.
</event>
<event>
 8    1  0.2493819E-006  0.9118800E+02  0.7816164E-02  0.1184000E+00
        -11   -1    0    0    0    0  0.00000000000E+00  0.00000000000E+00  0.45593999997E+02  0.45594000000E+02  0.51100000000E-03 0.  1.
         11   -1    0    0    0    0 -0.00000000000E+00 -0.00000000000E+00 -0.45593999997E+02  0.45594000000E+02  0.51100000000E-03 0. -1.
         23    2    1    2    0    0  0.00000000000E+00  0.00000000000E+00  0.00000000000E+00  0.91188000000E+02  0.91188000000E+02 0.  0.
    9900012    2    3    3    0    0  0.12182211723E+02 -0.97743574435E+01 -0.33344239071E+02  0.54367046385E+02  0.39999913844E+02 0.  0.
        -12    1    3    3    0    0 -0.12182211723E+02  0.97743574435E+01  0.33344239071E+02  0.36820953615E+02  0.00000000000E+00 0.  1.
         11    1    4    4    0    0  0.75184926482E+01 -0.75987212035E+01 -0.29481885899E+02  0.31360004656E+02  0.51100000000E-03 0. -1.
        -11    1    4    4    0    0 -0.72119148241E+01 -0.28800415458E+01 -0.72642369771E+01  0.10633696152E+02  0.51100000000E-03 0.  1.
         12    1    4    4    0    0  0.11875633899E+02  0.70440530575E+00  0.34018838049E+01  0.12373345576E+02  0.00000000000E+00 0. -1.
</event>
<event>
 8    1  0.2493819E-006  0.9118800E+02  0.7816164E-02  0.1184000E+00
        -11   -1    0    0    0    0  0.00000000000E+00  0.00000000000E+00  0.45593999997E+02  0.45594000000E+02  0.51100000000E-03 0.  1.
         11   -1    0    0    0    0 -0.00000000000E+00 -0.00000000000E+00 -0.45593999997E+02  0.45594000000E+02  0.51100000000E-03 0. -1.
         23    2    1    2    0    0  0.00000000000E+00 -0.11102230246E-15  0.35527136788E-14  0.91188000000E+02  0.91188000000E+02 0.  0.
    9900012    2    3    3    0    0  0.29273216531E+02 -0.83348953474E+00 -0.22319617422E+02  0.54367065293E+02  0.39999956948E+02 0.  0.
        -12    1    3    3    0    0 -0.29273216531E+02  0.83348953474E+00  0.22319617422E+02  0.36820934707E+02  0.00000000000E+00 0.  1.
         11    1    4    4    0    0  0.63540869414E+01  0.30130874937E+01 -0.11894569869E+02  0.13817883692E+02  0.51100000000E-03 0. -1.
        -11    1    4    4    0    0 -0.64000372561E+01  0.44260108562E+01 -0.58688346777E+01  0.97464490823E+01  0.51100000000E-03 0.  1.
         12    1    4    4    0    0  0.29319166846E+02 -0.82725878847E+01 -0.45562128754E+01  0.30802732518E+02  0.00000000000E+00 0. -1.
</event>
<event>
 8    1  0.2493819E-006  0.9118800E+02  0.7816164E-02  0.1184000E+00
        -11   -1    0    0    0    0  0.00000000000E+00  0.00000000000E+00  0.45593999997E+02  0.45594000000E+02  0.51100000000E-03 0. -1.
         11   -1    0    0    0    0 -0.00000000000E+00 -0.00000000000E+00 -0.45593999997E+02  0.45594000000E+02  0.51100000000E-03 0.  1.
         23    2    1    2    0    0  0.00000000000E+00  0.00000000000E+00 -0.44408920985E-15  0.91188000000E+02  0.91188000000E+02 0.  0.
    9900012    2    3    3    0    0 -0.32553681649E+02 -0.17000203868E+02  0.26513848916E+01  0.54367096123E+02  0.40000027232E+02 0.  0.
        -12    1    3    3    0    0  0.32553681649E+02  0.17000203868E+02 -0.26513848916E+01  0.36820903877E+02  0.00000000000E+00 0.  1.
         11    1    4    4    0    0 -0.14539617022E+02 -0.11650699775E+02  0.78734214323E+01  0.20226963037E+02  0.51100000000E-03 0. -1.
        -11    1    4    4    0    0  0.52855642603E-02  0.85885296828E+01 -0.72904675731E+01  0.11265601970E+02  0.51100000000E-03 0.  1.
        -12    1    4    4    0    0 -0.18019350191E+02 -0.13938033776E+02  0.20684310324E+01  0.22874531117E+02  0.00000000000E+00 0.  1.
</event>
<event>
 8    1  0.2493819E-006  0.9118800E+02  0.7816164E-02  0.1184000E+00
        -11   -1    0    0    0    0  0.00000000000E+00  0.00000000000E+00  0.45593999997E+02  0.45594000000E+02  0.51100000000E-03 0.  1.
         11   -1    0    0    0    0 -0.00000000000E+00 -0.00000000000E+00 -0.45593999997E+02  0.45594000000E+02  0.51100000000E-03 0. -1.
         23    2    1    2    0    0  0.17763568394E-14  0.00000000000E+00  0.00000000000E+00  0.91188000000E+02  0.91188000000E+02 0.  0.
    9900012    2    3    3    0    0  0.12182388199E+02 -0.67759590136E+01 -0.34080134226E+02  0.54367085405E+02  0.40000002797E+02 0.  0.
        -12    1    3    3    0    0 -0.12182388199E+02  0.67759590136E+01  0.34080134226E+02  0.36820914595E+02  0.00000000000E+00 0.  1.
         11    1    4    4    0    0 -0.12030417732E+02  0.11406900878E+01 -0.18721840521E+01  0.12228540308E+02  0.51100000000E-03 0.  1.
        -11    1    4    4    0    0  0.11350593883E+02 -0.38430027935E+01 -0.22582394740E+02  0.25564999598E+02  0.51100000000E-03 0. -1.
         12    1    4    4    0    0  0.12862212048E+02 -0.40736463078E+01 -0.96255554335E+01  0.16573545499E+02  0.00000000000E+00 0. -1.
</event>
<event>
 8    1  0.2493819E-006  0.9118800E+02  0.7816164E-02  0.1184000E+00
        -11   -1    0    0    0    0  0.00000000000E+00  0.00000000000E+00  0.45593999997E+02  0.45594000000E+02  0.51100000000E-03 0. -1.
         11   -1    0    0    0    0 -0.00000000000E+00 -0.00000000000E+00 -0.45593999997E+02  0.45594000000E+02  0.51100000000E-03 0.  1.
         23    2    1    2    0    0 -0.88817841970E-15  0.00000000000E+00 -0.35527136788E-14  0.91188000000E+02  0.91188000000E+02 0.  0.
    9900012    2    3    3    0    0 -0.49735947659E+01 -0.30489848009E+02  0.20035317227E+02  0.54367062846E+02  0.39999951371E+02 0.  0.
        -12    1    3    3    0    0  0.49735947659E+01  0.30489848009E+02 -0.20035317227E+02  0.36820937154E+02  0.00000000000E+00 0.  1.
         11    1    4    4    0    0  0.29412186288E+01 -0.16062469268E+01 -0.29656898998E+00  0.33643349476E+01  0.51100000000E-03 0. -1.
        -11    1    4    4    0    0  0.95140527347E+01 -0.18113834870E+01 -0.41681806149E+01  0.10543815224E+02  0.51100000000E-03 0.  1.
         12    1    4    4    0    0 -0.17428866129E+02 -0.27072217595E+02  0.24500066832E+02  0.40458912675E+02  0.00000000000E+00 0. -1.
</event>
<event>
 8    1  0.2493819E-006  0.9118800E+02  0.7816164E-02  0.1184000E+00
        -11   -1    0    0    0    0  0.00000000000E+00  0.00000000000E+00  0.45593999997E+02  0.45594000000E+02  0.51100000000E-03 0. -1.
         11   -1    0    0    0    0 -0.00000000000E+00 -0.00000000000E+00 -0.45593999997E+02  0.45594000000E+02  0.51100000000E-03 0.  1.
         23    2    1    2    0    0  0.00000000000E+00 -0.88817841970E-15 -0.35527136788E-14  0.91188000000E+02  0.91188000000E+02 0.  0.
    9900012    2    3    3    0    0  0.25096253629E+02 -0.25534272457E+01 -0.26822334343E+02  0.54367088054E+02  0.40000008836E+02 0.  0.
         12    1    3    3    0    0 -0.25096253629E+02  0.25534272457E+01  0.26822334343E+02  0.36820911946E+02  0.00000000000E+00 0. -1.
         11    1    4    4    0    0 -0.48294995981E+01  0.60167743092E+00 -0.70507515194E+01  0.85673321021E+01  0.51100000000E-03 0. -1.
        -11    1    4    4    0    0  0.11073386862E+02 -0.11436788210E+02  0.17490088579E+01  0.16014963422E+02  0.51100000000E-03 0.  1.
        -12    1    4    4    0    0  0.18852366365E+02  0.82816835330E+01 -0.21520591682E+02  0.29784792530E+02  0.00000000000E+00 0.  1.
</event>
<event>
 8    1  0.2493819E-006  0.9118800E+02  0.7816164E-02  0.1184000E+00
        -11   -1    0    0    0    0  0.00000000000E+00  0.00000000000E+00  0.45593999997E+02  0.45594000000E+02  0.51100000000E-03 0. -1.
         11   -1    0    0    0    0 -0.00000000000E+00 -0.00000000000E+00 -0.45593999997E+02  0.45594000000E+02  0.51100000000E-03 0.  1.
         23    2    1    2    0    0  0.35527136788E-14  0.13322676296E-14  0.00000000000E+00  0.91188000000E+02  0.91188000000E+02 0.  0.
    9900012    2    3    3    0    0  0.29366152593E+02  0.23491632647E+01  0.22088254978E+02  0.54367075322E+02  0.39999979812E+02 0.  0.
        -12    1    3    3    0    0 -0.29366152593E+02 -0.23491632647E+01 -0.22088254978E+02  0.36820924678E+02  0.00000000000E+00 0.  1.
         11    1    4    4    0    0  0.15415822214E+01  0.82628098586E+01  0.88117718151E+01  0.12177759453E+02  0.51100000000E-03 0. -1.
        -11    1    4    4    0    0 -0.39747602888E+01 -0.27085179429E+01 -0.36363542107E+01  0.60297480053E+01  0.51100000000E-03 0.  1.
         12    1    4    4    0    0  0.31799330660E+02 -0.32051286511E+01  0.16912837374E+02  0.36159567864E+02  0.00000000000E+00 0. -1.
</event>
<event>
 8    1  0.2493819E-006  0.9118800E+02  0.7816164E-02  0.1184000E+00
        -11   -1    0    0    0    0  0.00000000000E+00  0.00000000000E+00  0.45593999997E+02  0.45594000000E+02  0.51100000000E-03 0.  1.
         11   -1    0    0    0    0 -0.00000000000E+00 -0.00000000000E+00 -0.45593999997E+02  0.45594000000E+02  0.51100000000E-03 0. -1.
         23    2    1    2    0    0  0.00000000000E+00  0.00000000000E+00 -0.35527136788E-14  0.91188000000E+02  0.91188000000E+02 0.  0.
    9900012    2    3    3    0    0  0.20548834472E+02 -0.14296951457E+02 -0.27002270896E+02  0.54367081317E+02  0.39999993478E+02 0.  0.
        -12    1    3    3    0    0 -0.20548834472E+02  0.14296951457E+02  0.27002270896E+02  0.36820918683E+02  0.00000000000E+00 0.  1.
         11    1    4    4    0    0  0.18171255561E+02  0.57677076935E+01 -0.89234067811E+01  0.21049659606E+02  0.51100000000E-03 0. -1.
        -11    1    4    4    0    0  0.73141684704E+01 -0.20576748706E+02 -0.18085046028E+02  0.28354338959E+02  0.51100000000E-03 0.  1.
        -12    1    4    4    0    0 -0.49365895585E+01  0.51208955530E+00  0.61819129580E-02  0.49630827515E+01  0.00000000000E+00 0.  1.
</event>
<event>
 8    1  0.2493819E-006  0.9118800E+02  0.7816164E-02  0.1184000E+00
        -11   -1    0    0    0    0  0.00000000000E+00  0.00000000000E+00  0.45593999997E+02  0.45594000000E+02  0.51100000000E-03 0. -1.
         11   -1    0    0    0    0 -0.00000000000E+00 -0.00000000000E+00 -0.45593999997E+02  0.45594000000E+02  0.51100000000E-03 0.  1.
         23    2    1    2    0    0  0.00000000000E+00 -0.88817841970E-15  0.00000000000E+00  0.91188000000E+02  0.91188000000E+02 0.  0.
    9900012    2    3    3    0    0 -0.11158129797E+02  0.11624986674E+01  0.35070263081E+02  0.54367100822E+02  0.40000037944E+02 0.  0.
        -12    1    3    3    0    0  0.11158129797E+02 -0.11624986674E+01 -0.35070263081E+02  0.36820899178E+02  0.00000000000E+00 0.  1.
         11    1    4    4    0    0  0.34827337422E+01  0.27520859853E+01  0.18659666284E+01  0.48151057423E+01  0.51100000000E-03 0. -1.
        -11    1    4    4    0    0  0.49494854803E+00 -0.15921822204E+02  0.14867482491E+02  0.21789709320E+02  0.51100000000E-03 0.  1.
        -12    1    4    4    0    0 -0.15135812088E+02  0.14332234886E+02  0.18336813961E+02  0.27762285760E+02  0.00000000000E+00 0.  1.
</event>
<event>
 8    1  0.2493819E-006  0.9118800E+02  0.7816164E-02  0.1184000E+00
        -11   -1    0    0    0    0  0.00000000000E+00  0.00000000000E+00  0.45593999997E+02  0.45594000000E+02  0.51100000000E-03 0.  1.
         11   -1    0    0    0    0 -0.00000000000E+00 -0.00000000000E+00 -0.45593999997E+02  0.45594000000E+02  0.51100000000E-03 0. -1.
         23    2    1    2    0    0  0.00000000000E+00  0.00000000000E+00  0.00000000000E+00  0.91188000000E+02  0.91188000000E+02 0.  0.
    9900012    2    3    3    0    0  0.20401470974E+02 -0.37414021487E+01 -0.30423054550E+02  0.54367077197E+02  0.39999984085E+02 0.  0.
        -12    1    3    3    0    0 -0.20401470974E+02  0.37414021487E+01  0.30423054550E+02  0.36820922803E+02  0.00000000000E+00 0.  1.
         11    1    4    4    0    0  0.16736363997E+02 -0.19108831940E+00 -0.86791957686E+01  0.18853934180E+02  0.51100000000E-03 0. -1.
        -11    1    4    4    0    0  0.15152088323E+02 -0.50326938997E+01 -0.15928902588E+02  0.22553131187E+02  0.51100000000E-03 0.  1.
        -12    1    4    4    0    0 -0.11486981346E+02  0.14823800705E+01 -0.58149561926E+01  0.12960011830E+02  0.00000000000E+00 0.  1.
</event>
<event>
 8    1  0.2493819E-006  0.9118800E+02  0.7816164E-02  0.1184000E+00
        -11   -1    0    0    0    0  0.00000000000E+00  0.00000000000E+00  0.45593999997E+02  0.45594000000E+02  0.51100000000E-03 0.  1.
         11   -1    0    0    0    0 -0.00000000000E+00 -0.00000000000E+00 -0.45593999997E+02  0.45594000000E+02  0.51100000000E-03 0. -1.
         23    2    1    2    0    0  0.35527136788E-14 -0.88817841970E-15  0.71054273576E-14  0.91188000000E+02  0.91188000000E+02 0.  0.
    9900012    2    3    3    0    0 -0.10997168890E+02 -0.16644424115E+01 -0.35100870440E+02  0.54367092926E+02  0.40000019943E+02 0.  0.
        -12    1    3    3    0    0  0.10997168890E+02  0.16644424115E+01  0.35100870440E+02  0.36820907074E+02  0.00000000000E+00 0.  1.
         11    1    4    4    0    0 -0.26738387039E+01 -0.89048489565E+01 -0.11577569042E+02  0.14848766061E+02  0.51100000000E-03 0. -1.
        -11    1    4    4    0    0 -0.68019494304E+01 -0.82954821028E+01  0.64510062204E+00  0.10746985365E+02  0.51100000000E-03 0.  1.
         12    1    4    4    0    0 -0.15213807556E+01  0.15535888648E+02 -0.24168402020E+02  0.28771341500E+02  0.00000000000E+00 0. -1.
</event>
<event>
 8    1  0.2493819E-006  0.9118800E+02  0.7816164E-02  0.1184000E+00
        -11   -1    0    0    0    0  0.00000000000E+00  0.00000000000E+00  0.45593999997E+02  0.45594000000E+02  0.51100000000E-03 0. -1.
         11   -1    0    0    0    0 -0.00000000000E+00 -0.00000000000E+00 -0.45593999997E+02  0.45594000000E+02  0.51100000000E-03 0.  1.
         23    2    1    2    0    0  0.35527136788E-14  0.35527136788E-14  0.00000000000E+00  0.91188000000E+02  0.91188000000E+02 0.  0.
    9900012    2    3    3    0    0 -0.18506366208E+02 -0.30706146090E+02  0.83920847371E+01  0.54367080889E+02  0.39999992503E+02 0.  0.
        -12    1    3    3    0    0  0.18506366208E+02  0.30706146090E+02 -0.83920847371E+01  0.36820919111E+02  0.00000000000E+00 0.  1.
         11    1    4    4    0    0 -0.12234182077E+02 -0.15876545244E+02  0.39170225790E+01  0.20422609190E+02  0.51100000000E-03 0. -1.
        -11    1    4    4    0    0  0.10930519880E+02 -0.11921687705E+02  0.14698677486E+01  0.16240794748E+02  0.51100000000E-03 0.  1.
        -12    1    4    4    0    0 -0.17202704012E+02 -0.29079131406E+01  0.30051944096E+01  0.17703676951E+02  0.00000000000E+00 0.  1.
</event>
<event>
 8    1  0.2493819E-006  0.9118800E+02  0.7816164E-02  0.1184000E+00
        -11   -1    0    0    0    0  0.00000000000E+00  0.00000000000E+00  0.45593999997E+02  0.45594000000E+02  0.51100000000E-03 0.  1.
         11   -1    0    0    0    0 -0.00000000000E+00 -0.00000000000E+00 -0.45593999997E+02  0.45594000000E+02  0.51100000000E-03 0. -1.
         23    2    1    2    0    0  0.71054273576E-14  0.17763568394E-14 -0.17763568394E-14  0.91188000000E+02  0.91188000000E+02 0.  0.
    9900012    2    3    3    0    0  0.32452882113E+02  0.15762811597E+02 -0.73565899093E+01  0.54367147186E+02  0.40000143640E+02 0.  0.
        -12    1    3    3    0    0 -0.32452882113E+02 -0.15762811597E+02  0.73565899093E+01  0.36820852814E+02  0.00000000000E+00 0.  1.
         11    1    4    4    0    0  0.16077789996E+01 -0.29324111124E+00 -0.47330251092E+01  0.50072418162E+01  0.51100000000E-03 0. -1.
        -11    1    4    4    0    0  0.43322311542E+00  0.61558270461E+01 -0.14091326878E+02  0.15383347566E+02  0.51100000000E-03 0.  1.
        -12    1    4    4    0    0  0.30411879998E+02  0.99002256617E+01  0.11467762078E+02  0.33976557804E+02  0.00000000000E+00 0.  1.
</event>
<event>
 8    1  0.2493819E-006  0.9118800E+02  0.7816164E-02  0.1184000E+00
        -11   -1    0    0    0    0  0.00000000000E+00  0.00000000000E+00  0.45593999997E+02  0.45594000000E+02  0.51100000000E-03 0.  1.
         11   -1    0    0    0    0 -0.00000000000E+00 -0.00000000000E+00 -0.45593999997E+02  0.45594000000E+02  0.51100000000E-03 0. -1.
         23    2    1    2    0    0  0.35527136788E-14  0.00000000000E+00 -0.88817841970E-15  0.91188000000E+02  0.91188000000E+02 0.  0.
    9900012    2    3    3    0    0 -0.28150500063E+02 -0.22653898576E+02  0.70802939923E+01  0.54367077449E+02  0.39999984661E+02 0.  0.
        -12    1    3    3    0    0  0.28150500063E+02  0.22653898576E+02 -0.70802939923E+01  0.36820922551E+02  0.00000000000E+00 0.  1.
         11    1    4    4    0    0 -0.30146490011E+01 -0.18268368710E+02  0.45186647309E+01  0.19058849260E+02  0.51100000000E-03 0. -1.
        -11    1    4    4    0    0  0.19052789083E+01  0.46421817971E+01 -0.35569222442E+01  0.61507426924E+01  0.51100000000E-03 0.  1.
        -12    1    4    4    0    0 -0.27041129970E+02 -0.90277116629E+01  0.61185515056E+01  0.29157485496E+02  0.00000000000E+00 0.  1.
</event>
<event>
 8    1  0.2493819E-006  0.9118800E+02  0.7816164E-02  0.1184000E+00
        -11   -1    0    0    0    0  0.00000000000E+00  0.00000000000E+00  0.45593999997E+02  0.45594000000E+02  0.51100000000E-03 0.  1.
         11   -1    0    0    0    0 -0.00000000000E+00 -0.00000000000E+00 -0.45593999997E+02  0.45594000000E+02  0.51100000000E-03 0. -1.
         23    2    1    2    0    0 -0.71054273576E-14  0.00000000000E+00  0.88817841970E-15  0.91188000000E+02  0.91188000000E+02 0.  0.
    9900012    2    3    3    0    0  0.34921361242E+02 -0.10071837902E+02 -0.59022732445E+01  0.54367079056E+02  0.39999988323E+02 0.  0.
        -12    1    3    3    0    0 -0.34921361242E+02  0.10071837902E+02  0.59022732445E+01  0.36820920944E+02  0.00000000000E+00 0.  1.
         11    1    4    4    0    0  0.27262998654E+02  0.10955311348E+02 -0.48021992539E+01  0.29771648598E+02  0.51100000000E-03 0. -1.
        -11    1    4    4    0    0  0.54062384687E+01 -0.17313438817E+02  0.32743663187E+01  0.18431062181E+02  0.51100000000E-03 0.  1.
        -12    1    4    4    0    0  0.22521241199E+01 -0.37137104330E+01 -0.43744403093E+01  0.61643682767E+01  0.00000000000E+00 0.  1.
</event>
<event>
 8    1  0.2493819E-006  0.9118800E+02  0.7816164E-02  0.1184000E+00
        -11   -1    0    0    0    0  0.00000000000E+00  0.00000000000E+00  0.45593999997E+02  0.45594000000E+02  0.51100000000E-03 0. -1.
         11   -1    0    0    0    0 -0.00000000000E+00 -0.00000000000E+00 -0.45593999997E+02  0.45594000000E+02  0.51100000000E-03 0.  1.
         23    2    1    2    0    0  0.00000000000E+00  0.00000000000E+00  0.00000000000E+00  0.91188000000E+02  0.91188000000E+02 0.  0.
    9900012    2    3    3    0    0  0.24780221052E+02  0.17494364628E+02 -0.20872658834E+02  0.54367081544E+02  0.39999993996E+02 0.  0.
         12    1    3    3    0    0 -0.24780221052E+02 -0.17494364628E+02  0.20872658834E+02  0.36820918456E+02  0.00000000000E+00 0. -1.
         11    1    4    4    0    0  0.13070271365E+02  0.15075011070E+02  0.62448169837E+01  0.20906594455E+02  0.51100000000E-03 0. -1.
        -11    1    4    4    0    0 -0.20627381599E+01 -0.38028492643E+01 -0.79571113225E+01  0.90571613712E+01  0.51100000000E-03 0.  1.
         12    1    4    4    0    0  0.13772687847E+02  0.62222028230E+01 -0.19160364495E+02  0.24403325718E+02  0.00000000000E+00 0. -1.
</event>
<event>
 8    1  0.2493819E-006  0.9118800E+02  0.7816164E-02  0.1184000E+00
        -11   -1    0    0    0    0  0.00000000000E+00  0.00000000000E+00  0.45593999997E+02  0.45594000000E+02  0.51100000000E-03 0. -1.
         11   -1    0    0    0    0 -0.00000000000E+00 -0.00000000000E+00 -0.45593999997E+02  0.45594000000E+02  0.51100000000E-03 0.  1.
         23    2    1    2    0    0  0.35527136788E-14 -0.88817841970E-15  0.00000000000E+00  0.91188000000E+02  0.91188000000E+02 0.  0.
    9900012    2    3    3    0    0 -0.21584007230E+02 -0.23093658577E+01  0.29741812564E+02  0.54367109823E+02  0.40000058464E+02 0.  0.
        -12    1    3    3    0    0  0.21584007230E+02  0.23093658577E+01 -0.29741812564E+02  0.36820890177E+02  0.00000000000E+00 0.  1.
         11    1    4    4    0    0 -0.84140942012E+01 -0.43934382270E+00  0.86611425680E+00  0.84699562211E+01  0.51100000000E-03 0. -1.
        -11    1    4    4    0    0 -0.21209531128E+02 -0.76400358228E+01  0.10162180951E+02  0.24728208183E+02  0.51100000000E-03 0.  1.
        -12    1    4    4    0    0  0.80396180984E+01  0.57700137878E+01  0.18713517357E+02  0.21168945419E+02  0.00000000000E+00 0.  1.
</event>
<event>
 8    1  0.2493819E-006  0.9118800E+02  0.7816164E-02  0.1184000E+00
        -11   -1    0    0    0    0  0.00000000000E+00  0.00000000000E+00  0.45593999997E+02  0.45594000000E+02  0.51100000000E-03 0.  1.
         11   -1    0    0    0    0 -0.00000000000E+00 -0.00000000000E+00 -0.45593999997E+02  0.45594000000E+02  0.51100000000E-03 0. -1.
         23    2    1    2    0    0  0.00000000000E+00  0.44408920985E-15  0.35527136788E-14  0.91188000000E+02  0.91188000000E+02 0.  0.
    9900012    2    3    3    0    0 -0.18222903030E+02  0.36926822437E+01 -0.31781588176E+02  0.54367089583E+02  0.40000012321E+02 0.  0.
        -12    1    3    3    0    0  0.18222903030E+02 -0.36926822437E+01  0.31781588176E+02  0.36820910417E+02  0.00000000000E+00 0.  1.
         11    1    4    4    0    0 -0.11739576390E+02 -0.86651153739E+00 -0.18771411560E+02  0.22157039248E+02  0.51100000000E-03 0. -1.
        -11    1    4    4    0    0  0.47814566803E+01 -0.68063824495E+01  0.36730855065E+01  0.90928943376E+01  0.51100000000E-03 0.  1.
        -12    1    4    4    0    0 -0.11264783321E+02  0.11365576231E+02 -0.16683262123E+02  0.23117155997E+02  0.00000000000E+00 0.  1.
</event>
<event>
 8    1  0.2493819E-006  0.9118800E+02  0.7816164E-02  0.1184000E+00
        -11   -1    0    0    0    0  0.00000000000E+00  0.00000000000E+00  0.45593999997E+02  0.45594000000E+02  0.51100000000E-03 0.  1.
         11   -1    0    0    0    0 -0.00000000000E+00 -0.00000000000E+00 -0.45593999997E+02  0.45594000000E+02  0.51100000000E-03 0. -1.
         23    2    1    2    0    0 -0.44408920985E-15 -0.35527136788E-14  0.00000000000E+00  0.91188000000E+02  0.91188000000E+02 0.  0.
    9900012    2    3    3    0    0  0.37934069672E+01 -0.31880181412E+02 -0.18028978058E+02  0.54367082669E+02  0.39999996559E+02 0.  0.
        -12    1    3    3    0    0 -0.37934069672E+01  0.31880181412E+02  0.18028978058E+02  0.36820917331E+02  0.00000000000E+00 0.  1.
         11    1    4    4    0    0  0.15408459726E+01 -0.13028608809E+02 -0.10035871000E+01  0.13157736930E+02  0.51100000000E-03 0. -1.
        -11    1    4    4    0    0 -0.35976995734E+01  0.85521325344E+01 -0.62545366274E+01  0.11189353949E+02  0.51100000000E-03 0.  1.
        -12    1    4    4    0    0  0.58502605680E+01 -0.27403705138E+02 -0.10770854331E+02  0.30019991789E+02  0.00000000000E+00 0.  1.
</event>
<event>
 8    1  0.2493819E-006  0.9118800E+02  0.7816164E-02  0.1184000E+00
        -11   -1    0    0    0    0  0.00000000000E+00  0.00000000000E+00  0.45593999997E+02  0.45594000000E+02  0.51100000000E-03 0.  1.
         11   -1    0    0    0    0 -0.00000000000E+00 -0.00000000000E+00 -0.45593999997E+02  0.45594000000E+02  0.51100000000E-03 0. -1.
         23    2    1    2    0    0  0.00000000000E+00  0.00000000000E+00  0.00000000000E+00  0.91188000000E+02  0.91188000000E+02 0.  0.
    9900012    2    3    3    0    0  0.11480148252E+02 -0.22593347450E+02 -0.26711955852E+02  0.54367058427E+02  0.39999941296E+02 0.  0.
        -12    1    3    3    0    0 -0.11480148252E+02  0.22593347450E+02  0.26711955852E+02  0.36820941573E+02  0.00000000000E+00 0.  1.
         11    1    4    4    0    0  0.41257910946E+01 -0.98417611525E+01 -0.23832305262E+02  0.26112471907E+02  0.51100000000E-03 0. -1.
        -11    1    4    4    0    0  0.13197319311E+02 -0.68089848283E+01 -0.94845764125E+01  0.17620689583E+02  0.51100000000E-03 0.  1.
        -12    1    4    4    0    0 -0.58429621532E+01 -0.59426014689E+01  0.66049258229E+01  0.10633896937E+02  0.00000000000E+00 0.  1.
</event>
<event>
 8    1  0.2493819E-006  0.9118800E+02  0.7816164E-02  0.1184000E+00
        -11   -1    0    0    0    0  0.00000000000E+00  0.00000000000E+00  0.45593999997E+02  0.45594000000E+02  0.51100000000E-03 0. -1.
         11   -1    0    0    0    0 -0.00000000000E+00 -0.00000000000E+00 -0.45593999997E+02  0.45594000000E+02  0.51100000000E-03 0.  1.
         23    2    1    2    0    0  0.00000000000E+00  0.00000000000E+00  0.35527136788E-14  0.91188000000E+02  0.91188000000E+02 0.  0.
    9900012    2    3    3    0    0  0.18118796045E+02  0.25963704927E+02  0.18798212124E+02  0.54367115672E+02  0.40000071797E+02 0.  0.
         12    1    3    3    0    0 -0.18118796045E+02 -0.25963704927E+02 -0.18798212124E+02  0.36820884328E+02  0.00000000000E+00 0. -1.
         11    1    4    4    0    0 -0.14872473276E+01 -0.31839554718E+01  0.10982439786E+02  0.11530978318E+02  0.51100000000E-03 0. -1.
        -11    1    4    4    0    0  0.23384352050E+02  0.28281472570E+02  0.32408565132E+01  0.36839825769E+02  0.51100000000E-03 0.  1.
        -12    1    4    4    0    0 -0.37783086769E+01  0.86618782909E+00  0.45749158247E+01  0.59963115843E+01  0.00000000000E+00 0.  1.
</event>
<event>
 8    1  0.2493819E-006  0.9118800E+02  0.7816164E-02  0.1184000E+00
        -11   -1    0    0    0    0  0.00000000000E+00  0.00000000000E+00  0.45593999997E+02  0.45594000000E+02  0.51100000000E-03 0.  1.
         11   -1    0    0    0    0 -0.00000000000E+00 -0.00000000000E+00 -0.45593999997E+02  0.45594000000E+02  0.51100000000E-03 0. -1.
         23    2    1    2    0    0  0.00000000000E+00  0.00000000000E+00  0.35527136788E-14  0.91188000000E+02  0.91188000000E+02 0.  0.
    9900012    2    3    3    0    0  0.41212591621E+01  0.32016909039E+02  0.17711973823E+02  0.54367064947E+02  0.39999956160E+02 0.  0.
         12    1    3    3    0    0 -0.41212591621E+01 -0.32016909039E+02 -0.17711973823E+02  0.36820935053E+02  0.00000000000E+00 0. -1.
         11    1    4    4    0    0  0.37332760652E+01  0.48933243744E+01 -0.75912751221E+01  0.97728927065E+01  0.51100000000E-03 0. -1.
        -11    1    4    4    0    0  0.31044553102E+01 -0.41793611205E+01  0.47566327770E+01  0.70519683625E+01  0.51100000000E-03 0.  1.
        -12    1    4    4    0    0 -0.27164722132E+01  0.31302945785E+02  0.20546616168E+02  0.37542203878E+02  0.00000000000E+00 0.  1.
</event>
<event>
 8    1  0.2493819E-006  0.9118800E+02  0.7816164E-02  0.1184000E+00
        -11   -1    0    0    0    0  0.00000000000E+00  0.00000000000E+00  0.45593999997E+02  0.45594000000E+02  0.51100000000E-03 0.  1.
         11   -1    0    0    0    0 -0.00000000000E+00 -0.00000000000E+00 -0.45593999997E+02  0.45594000000E+02  0.51100000000E-03 0. -1.
         23    2    1    2    0    0  0.00000000000E+00  0.00000000000E+00  0.00000000000E+00  0.91188000000E+02  0.91188000000E+02 0.  0.
    9900012    2    3    3    0    0  0.17907527225E+02  0.18287924019E+02 -0.26469868537E+02  0.54367059808E+02  0.39999944445E+02 0.  0.
        -12    1    3    3    0    0 -0.17907527225E+02 -0.18287924019E+02  0.26469868537E+02  0.36820940192E+02  0.00000000000E+00 0.  1.
         11    1    4    4    0    0  0.20605273105E+02 -0.10300697260E+01 -0.13081515219E+02  0.24428761001E+02  0.51100000000E-03 0. -1.
        -11    1    4    4    0    0 -0.72015137759E+01  0.40522971217E+01  0.11974021316E+01  0.83496517743E+01  0.51100000000E-03 0.  1.
         12    1    4    4    0    0  0.45037678957E+01  0.15265696624E+02 -0.14585755450E+02  0.21588647033E+02  0.00000000000E+00 0. -1.
</event>
<event>
 8    1  0.2493819E-006  0.9118800E+02  0.7816164E-02  0.1184000E+00
        -11   -1    0    0    0    0  0.00000000000E+00  0.00000000000E+00  0.45593999997E+02  0.45594000000E+02  0.51100000000E-03 0. -1.
         11   -1    0    0    0    0 -0.00000000000E+00 -0.00000000000E+00 -0.45593999997E+02  0.45594000000E+02  0.51100000000E-03 0.  1.
         23    2    1    2    0    0  0.00000000000E+00  0.00000000000E+00  0.00000000000E+00  0.91188000000E+02  0.91188000000E+02 0.  0.
    9900012    2    3    3    0    0  0.21509121716E+02 -0.20795391595E+02 -0.21463687282E+02  0.54367075238E+02  0.39999979620E+02 0.  0.
         12    1    3    3    0    0 -0.21509121716E+02  0.20795391595E+02  0.21463687282E+02  0.36820924762E+02  0.00000000000E+00 0. -1.
         11    1    4    4    0    0  0.75955680867E+00  0.75932046305E+01  0.27543737970E+01  0.81129685308E+01  0.51100000000E-03 0. -1.
        -11    1    4    4    0    0 -0.33160155536E+00 -0.70326298652E+01 -0.11877816205E+02  0.13807619653E+02  0.51100000000E-03 0.  1.
        -12    1    4    4    0    0  0.21081166463E+02 -0.21355966360E+02 -0.12340244873E+02  0.32446487054E+02  0.00000000000E+00 0.  1.
</event>
<event>
 8    1  0.2493819E-006  0.9118800E+02  0.7816164E-02  0.1184000E+00
        -11   -1    0    0    0    0  0.00000000000E+00  0.00000000000E+00  0.45593999997E+02  0.45594000000E+02  0.51100000000E-03 0.  1.
         11   -1    0    0    0    0 -0.00000000000E+00 -0.00000000000E+00 -0.45593999997E+02  0.45594000000E+02  0.51100000000E-03 0. -1.
         23    2    1    2    0    0 -0.44408920985E-15 -0.35527136788E-14  0.35527136788E-14  0.91188000000E+02  0.91188000000E+02 0.  0.
    9900012    2    3    3    0    0 -0.10033754600E+01 -0.26337594658E+02 -0.25712092122E+02  0.54366982415E+02  0.39999768011E+02 0.  0.
        -12    1    3    3    0    0  0.10033754600E+01  0.26337594658E+02  0.25712092122E+02  0.36821017585E+02  0.00000000000E+00 0.  1.
         11    1    4    4    0    0  0.24896544580E+01 -0.10731991487E+01 -0.35096885491E+01  0.44348674958E+01  0.51100000000E-03 0.  1.
        -11    1    4    4    0    0 -0.31370971494E+01 -0.29534756183E+02 -0.29248849475E+02  0.41684990071E+02  0.51100000000E-03 0. -1.
        -12    1    4    4    0    0 -0.35593276858E+00  0.42703606735E+01  0.70464459021E+01  0.82471248486E+01  0.00000000000E+00 0.  1.
</event>
<event>
 8    1  0.2493819E-006  0.9118800E+02  0.7816164E-02  0.1184000E+00
        -11   -1    0    0    0    0  0.00000000000E+00  0.00000000000E+00  0.45593999997E+02  0.45594000000E+02  0.51100000000E-03 0.  1.
         11   -1    0    0    0    0 -0.00000000000E+00 -0.00000000000E+00 -0.45593999997E+02  0.45594000000E+02  0.51100000000E-03 0. -1.
         23    2    1    2    0    0  0.13322676296E-14 -0.88817841970E-15  0.71054273576E-14  0.91188000000E+02  0.91188000000E+02 0.  0.
    9900012    2    3    3    0    0 -0.13199877777E+01  0.40485771827E+01 -0.36573847188E+02  0.54367086879E+02  0.40000006158E+02 0.  0.
        -12    1    3    3    0    0  0.13199877777E+01 -0.40485771827E+01  0.36573847188E+02  0.36820913121E+02  0.00000000000E+00 0.  1.
         11    1    4    4    0    0  0.58337711056E+01  0.60672823769E+01 -0.30184170990E+02  0.31335746031E+02  0.51100000000E-03 0. -1.
        -11    1    4    4    0    0  0.60192233802E+01 -0.51609689490E+01 -0.51001262799E+01  0.94275096885E+01  0.51100000000E-03 0.  1.
         12    1    4    4    0    0 -0.13172982263E+02  0.31422637548E+01 -0.12895499184E+01  0.13603831159E+02  0.00000000000E+00 0. -1.
</event>
<event>
 8    1  0.2493819E-006  0.9118800E+02  0.7816164E-02  0.1184000E+00
        -11   -1    0    0    0    0  0.00000000000E+00  0.00000000000E+00  0.45593999997E+02  0.45594000000E+02  0.51100000000E-03 0.  1.
         11   -1    0    0    0    0 -0.00000000000E+00 -0.00000000000E+00 -0.45593999997E+02  0.45594000000E+02  0.51100000000E-03 0. -1.
         23    2    1    2    0    0  0.00000000000E+00  0.00000000000E+00  0.00000000000E+00  0.91188000000E+02  0.91188000000E+02 0.  0.
    9900012    2    3    3    0    0  0.20925651517E+02  0.25419937405E+02  0.16484090929E+02  0.54367063526E+02  0.39999952921E+02 0.  0.
         12    1    3    3    0    0 -0.20925651517E+02 -0.25419937405E+02 -0.16484090929E+02  0.36820936474E+02  0.00000000000E+00 0. -1.
         11    1    4    4    0    0  0.84437369087E+01 -0.10805793629E+01 -0.26271892111E+01  0.89087860090E+01  0.51100000000E-03 0. -1.
        -11    1    4    4    0    0  0.15438901819E+02  0.30825228706E+02  0.11749397689E+02  0.36422558401E+02  0.51100000000E-03 0.  1.
        -12    1    4    4    0    0 -0.29569872111E+01 -0.43247119388E+01  0.73618824510E+01  0.90357191160E+01  0.00000000000E+00 0.  1.
</event>
<event>
 8    1  0.2493819E-006  0.9118800E+02  0.7816164E-02  0.1184000E+00
        -11   -1    0    0    0    0  0.00000000000E+00  0.00000000000E+00  0.45593999997E+02  0.45594000000E+02  0.51100000000E-03 0. -1.
         11   -1    0    0    0    0 -0.00000000000E+00 -0.00000000000E+00 -0.45593999997E+02  0.45594000000E+02  0.51100000000E-03 0.  1.
         23    2    1    2    0    0  0.00000000000E+00  0.35527136788E-14  0.00000000000E+00  0.91188000000E+02  0.91188000000E+02 0.  0.
    9900012    2    3    3    0    0 -0.29727056978E+02  0.17720313551E+02  0.12572690930E+02  0.54367082220E+02  0.39999995537E+02 0.  0.
        -12    1    3    3    0    0  0.29727056978E+02 -0.17720313551E+02 -0.12572690930E+02  0.36820917780E+02  0.00000000000E+00 0.  1.
         11    1    4    4    0    0 -0.20623681363E+02 -0.43973633768E+01 -0.76388205235E+01  0.22428210292E+02  0.51100000000E-03 0.  1.
        -11    1    4    4    0    0 -0.12203001510E+01  0.99473833955E+01  0.10323833640E+02  0.14388228180E+02  0.51100000000E-03 0. -1.
         12    1    4    4    0    0 -0.78830754634E+01  0.12170293532E+02  0.98876778142E+01  0.17550643748E+02  0.00000000000E+00 0. -1.
</event>
<event>
 8    1  0.2493819E-006  0.9118800E+02  0.7816164E-02  0.1184000E+00
        -11   -1    0    0    0    0  0.00000000000E+00  0.00000000000E+00  0.45593999997E+02  0.45594000000E+02  0.51100000000E-03 0.  1.
         11   -1    0    0    0    0 -0.00000000000E+00 -0.00000000000E+00 -0.45593999997E+02  0.45594000000E+02  0.51100000000E-03 0. -1.
         23    2    1    2    0    0  0.35527136788E-14  0.00000000000E+00 -0.17763568394E-14  0.91188000000E+02  0.91188000000E+02 0.  0.
    9900012    2    3    3    0    0  0.31229980540E+02 -0.16951262178E+02 -0.96497548123E+01  0.54367153433E+02  0.40000157881E+02 0.  0.
        -12    1    3    3    0    0 -0.31229980540E+02  0.16951262178E+02  0.96497548123E+01  0.36820846567E+02  0.00000000000E+00 0.  1.
         11    1    4    4    0    0 -0.84311630074E-01 -0.18233678343E+01 -0.25540977517E+01  0.31392983764E+01  0.51100000000E-03 0. -1.
        -11    1    4    4    0    0  0.28759763420E+01 -0.32539088432E-01 -0.17234466099E+02  0.17472810898E+02  0.51100000000E-03 0.  1.
        -12    1    4    4    0    0  0.28438315828E+02 -0.15095355255E+02  0.10138809038E+02  0.33755044159E+02  0.00000000000E+00 0.  1.
</event>
<event>
 8    1  0.2493819E-006  0.9118800E+02  0.7816164E-02  0.1184000E+00
        -11   -1    0    0    0    0  0.00000000000E+00  0.00000000000E+00  0.45593999997E+02  0.45594000000E+02  0.51100000000E-03 0.  1.
         11   -1    0    0    0    0 -0.00000000000E+00 -0.00000000000E+00 -0.45593999997E+02  0.45594000000E+02  0.51100000000E-03 0. -1.
         23    2    1    2    0    0  0.00000000000E+00  0.00000000000E+00  0.00000000000E+00  0.91188000000E+02  0.91188000000E+02 0.  0.
    9900012    2    3    3    0    0  0.28911503057E+02 -0.22777730783E+02  0.10392619279E+01  0.54367080756E+02  0.39999992199E+02 0.  0.
         12    1    3    3    0    0 -0.28911503057E+02  0.22777730783E+02 -0.10392619279E+01  0.36820919244E+02  0.00000000000E+00 0. -1.
         11    1    4    4    0    0  0.57311980050E+01 -0.64035707107E+01 -0.14482013670E+02  0.16839865457E+02  0.51100000000E-03 0. -1.
        -11    1    4    4    0    0  0.81508922343E+01 -0.11820636772E+02  0.16401520314E+02  0.21798494599E+02  0.51100000000E-03 0.  1.
         12    1    4    4    0    0  0.15029412818E+02 -0.45535233008E+01 -0.88024471639E+00  0.15728720700E+02  0.00000000000E+00 0. -1.
</event>
<event>
 8    1  0.2493819E-006  0.9118800E+02  0.7816164E-02  0.1184000E+00
        -11   -1    0    0    0    0  0.00000000000E+00  0.00000000000E+00  0.45593999997E+02  0.45594000000E+02  0.51100000000E-03 0. -1.
         11   -1    0    0    0    0 -0.00000000000E+00 -0.00000000000E+00 -0.45593999997E+02  0.45594000000E+02  0.51100000000E-03 0.  1.
         23    2    1    2    0    0  0.44408920985E-15  0.00000000000E+00 -0.13322676296E-14  0.91188000000E+02  0.91188000000E+02 0.  0.
    9900012    2    3    3    0    0  0.19160337768E+01 -0.36738154211E+02 -0.15544539964E+01  0.54367088992E+02  0.40000010975E+02 0.  0.
        -12    1    3    3    0    0 -0.19160337768E+01  0.36738154211E+02  0.15544539964E+01  0.36820911008E+02  0.00000000000E+00 0.  1.
         11    1    4    4    0    0  0.35383509450E+01 -0.10265101920E+02 -0.11211029084E+02  0.15607031051E+02  0.51100000000E-03 0. -1.
        -11    1    4    4    0    0  0.10743029226E+02 -0.38490532592E+01  0.54130693688E+01  0.12630487251E+02  0.51100000000E-03 0.  1.
         12    1    4    4    0    0 -0.12365346395E+02 -0.22623999031E+02  0.42435057193E+01  0.26129570689E+02  0.00000000000E+00 0. -1.
</event>
<event>
 8    1  0.2493819E-006  0.9118800E+02  0.7816164E-02  0.1184000E+00
        -11   -1    0    0    0    0  0.00000000000E+00  0.00000000000E+00  0.45593999997E+02  0.45594000000E+02  0.51100000000E-03 0. -1.
         11   -1    0    0    0    0 -0.00000000000E+00 -0.00000000000E+00 -0.45593999997E+02  0.45594000000E+02  0.51100000000E-03 0.  1.
         23    2    1    2    0    0  0.00000000000E+00  0.00000000000E+00  0.00000000000E+00  0.91188000000E+02  0.91188000000E+02 0.  0.
    9900012    2    3    3    0    0  0.64023105868E+01  0.29901270220E+02  0.20510957163E+02  0.54367151214E+02  0.40000152822E+02 0.  0.
        -12    1    3    3    0    0 -0.64023105868E+01 -0.29901270220E+02 -0.20510957163E+02  0.36820848786E+02  0.00000000000E+00 0.  1.
         11    1    4    4    0    0 -0.70564548815E+01  0.55042940569E+01  0.66626252803E+01  0.11157122588E+02  0.51100000000E-03 0. -1.
        -11    1    4    4    0    0  0.16390049988E+01 -0.15290362218E+01 -0.73577111508E+01  0.76915669920E+01  0.51100000000E-03 0.  1.
         12    1    4    4    0    0  0.11819760469E+02  0.25926012384E+02  0.21206043033E+02  0.35518461634E+02  0.00000000000E+00 0. -1.
</event>
<event>
 8    1  0.2493819E-006  0.9118800E+02  0.7816164E-02  0.1184000E+00
        -11   -1    0    0    0    0  0.00000000000E+00  0.00000000000E+00  0.45593999997E+02  0.45594000000E+02  0.51100000000E-03 0.  1.
         11   -1    0    0    0    0 -0.00000000000E+00 -0.00000000000E+00 -0.45593999997E+02  0.45594000000E+02  0.51100000000E-03 0. -1.
         23    2    1    2    0    0  0.00000000000E+00  0.00000000000E+00  0.00000000000E+00  0.91188000000E+02  0.91188000000E+02 0.  0.
    9900012    2    3    3    0    0  0.71000755630E+01  0.16564914100E+02 -0.32108762423E+02  0.54367080994E+02  0.39999992741E+02 0.  0.
        -12    1    3    3    0    0 -0.71000755630E+01 -0.16564914100E+02  0.32108762423E+02  0.36820919006E+02  0.00000000000E+00 0.  1.
         11    1    4    4    0    0  0.17311944508E+02  0.87541920768E+00 -0.13968115891E+02  0.22261582227E+02  0.51100000000E-03 0. -1.
        -11    1    4    4    0    0 -0.84203960219E+00  0.26491668945E+01  0.39286836283E+01  0.48126573989E+01  0.51100000000E-03 0.  1.
         12    1    4    4    0    0 -0.93698293431E+01  0.13040327998E+02 -0.22069330160E+02  0.27292841367E+02  0.00000000000E+00 0. -1.
</event>
<event>
 8    1  0.2493819E-006  0.9118800E+02  0.7816164E-02  0.1184000E+00
        -11   -1    0    0    0    0  0.00000000000E+00  0.00000000000E+00  0.45593999997E+02  0.45594000000E+02  0.51100000000E-03 0. -1.
         11   -1    0    0    0    0 -0.00000000000E+00 -0.00000000000E+00 -0.45593999997E+02  0.45594000000E+02  0.51100000000E-03 0.  1.
         23    2    1    2    0    0  0.00000000000E+00  0.17763568394E-14  0.00000000000E+00  0.91188000000E+02  0.91188000000E+02 0.  0.
    9900012    2    3    3    0    0 -0.14511735770E+02 -0.15101426993E+02  0.30284254024E+02  0.54367087273E+02  0.40000007056E+02 0.  0.
        -12    1    3    3    0    0  0.14511735770E+02  0.15101426993E+02 -0.30284254024E+02  0.36820912727E+02  0.00000000000E+00 0.  1.
         11    1    4    4    0    0 -0.43452104571E+01 -0.64919263464E+01  0.19492750868E+02  0.20999840434E+02  0.51100000000E-03 0. -1.
        -11    1    4    4    0    0 -0.35967045195E+01 -0.13525907360E+02  0.17752898218E+02  0.22606455908E+02  0.51100000000E-03 0.  1.
        -12    1    4    4    0    0 -0.65698207930E+01  0.49164067140E+01 -0.69613950623E+01  0.10760790930E+02  0.00000000000E+00 0.  1.
</event>
<event>
 8    1  0.2493819E-006  0.9118800E+02  0.7816164E-02  0.1184000E+00
        -11   -1    0    0    0    0  0.00000000000E+00  0.00000000000E+00  0.45593999997E+02  0.45594000000E+02  0.51100000000E-03 0. -1.
         11   -1    0    0    0    0 -0.00000000000E+00 -0.00000000000E+00 -0.45593999997E+02  0.45594000000E+02  0.51100000000E-03 0.  1.
         23    2    1    2    0    0  0.35527136788E-14  0.35527136788E-14  0.00000000000E+00  0.91188000000E+02  0.91188000000E+02 0.  0.
    9900012    2    3    3    0    0  0.28415610188E+02  0.20071223029E+02 -0.12061452762E+02  0.54367088293E+02  0.40000009381E+02 0.  0.
        -12    1    3    3    0    0 -0.28415610188E+02 -0.20071223029E+02  0.12061452762E+02  0.36820911707E+02  0.00000000000E+00 0.  1.
         11    1    4    4    0    0  0.29925761017E+02 -0.57168175017E+00 -0.13238861622E+02  0.32728358495E+02  0.51100000000E-03 0. -1.
        -11    1    4    4    0    0  0.10730369761E+01  0.14795215830E+01 -0.11547327610E+01  0.21618974252E+01  0.51100000000E-03 0.  1.
         12    1    4    4    0    0 -0.25831878045E+01  0.19163383196E+02  0.23321416213E+01  0.19476832373E+02  0.00000000000E+00 0. -1.
</event>
<event>
 8    1  0.2493819E-006  0.9118800E+02  0.7816164E-02  0.1184000E+00
        -11   -1    0    0    0    0  0.00000000000E+00  0.00000000000E+00  0.45593999997E+02  0.45594000000E+02  0.51100000000E-03 0. -1.
         11   -1    0    0    0    0 -0.00000000000E+00 -0.00000000000E+00 -0.45593999997E+02  0.45594000000E+02  0.51100000000E-03 0.  1.
         23    2    1    2    0    0  0.00000000000E+00  0.35527136788E-14  0.00000000000E+00  0.91188000000E+02  0.91188000000E+02 0.  0.
    9900012    2    3    3    0    0  0.14195325751E+02 -0.16434435101E+02 -0.29735199654E+02  0.54367081642E+02  0.39999994219E+02 0.  0.
         12    1    3    3    0    0 -0.14195325751E+02  0.16434435101E+02  0.29735199654E+02  0.36820918358E+02  0.00000000000E+00 0. -1.
         11    1    4    4    0    0  0.43955545062E+00 -0.26907270743E+02 -0.16987123576E+02  0.31823840049E+02  0.51100000000E-03 0. -1.
        -11    1    4    4    0    0  0.58887815796E+01  0.46736393021E+01 -0.15430805955E+01  0.76747476053E+01  0.51100000000E-03 0.  1.
         12    1    4    4    0    0  0.78669887208E+01  0.57991963393E+01 -0.11204995482E+02  0.14868493988E+02  0.00000000000E+00 0. -1.
</event>
<event>
 8    1  0.2493819E-006  0.9118800E+02  0.7816164E-02  0.1184000E+00
        -11   -1    0    0    0    0  0.00000000000E+00  0.00000000000E+00  0.45593999997E+02  0.45594000000E+02  0.51100000000E-03 0.  1.
         11   -1    0    0    0    0 -0.00000000000E+00 -0.00000000000E+00 -0.45593999997E+02  0.45594000000E+02  0.51100000000E-03 0. -1.
         23    2    1    2    0    0  0.17763568394E-14  0.00000000000E+00 -0.71054273576E-14  0.91188000000E+02  0.91188000000E+02 0.  0.
    9900012    2    3    3    0    0 -0.15914648795E+02 -0.25089135028E+02  0.21749487150E+02  0.54367069349E+02  0.39999966195E+02 0.  0.
         12    1    3    3    0    0  0.15914648795E+02  0.25089135028E+02 -0.21749487150E+02  0.36820930651E+02  0.00000000000E+00 0. -1.
         11    1    4    4    0    0 -0.36804707700E+01 -0.63375673427E+01 -0.91780816109E+01  0.11745118443E+02  0.51100000000E-03 0. -1.
        -11    1    4    4    0    0 -0.61616696182E+01 -0.86066345176E+01  0.12286021688E+01  0.10655974557E+02  0.51100000000E-03 0.  1.
        -12    1    4    4    0    0 -0.60725084066E+01 -0.10144933168E+02  0.29698966592E+02  0.31965976350E+02  0.00000000000E+00 0.  1.
</event>
<event>
 8    1  0.2493819E-006  0.9118800E+02  0.7816164E-02  0.1184000E+00
        -11   -1    0    0    0    0  0.00000000000E+00  0.00000000000E+00  0.45593999997E+02  0.45594000000E+02  0.51100000000E-03 0.  1.
         11   -1    0    0    0    0 -0.00000000000E+00 -0.00000000000E+00 -0.45593999997E+02  0.45594000000E+02  0.51100000000E-03 0. -1.
         23    2    1    2    0    0  0.00000000000E+00  0.00000000000E+00 -0.71054273576E-14  0.91188000000E+02  0.91188000000E+02 0.  0.
    9900012    2    3    3    0    0  0.12326638274E+02 -0.20210352763E+01  0.34637398385E+02  0.54367082553E+02  0.39999996296E+02 0.  0.
         12    1    3    3    0    0 -0.12326638274E+02  0.20210352763E+01 -0.34637398385E+02  0.36820917447E+02  0.00000000000E+00 0. -1.
         11    1    4    4    0    0  0.88352322327E-01  0.36829694286E+01 -0.53061977029E+01  0.64597062060E+01  0.51100000000E-03 0. -1.
        -11    1    4    4    0    0  0.13074899054E+02 -0.27152475163E+01  0.42074368450E+02  0.44142700813E+02  0.51100000000E-03 0.  1.
        -12    1    4    4    0    0 -0.83661310239E+00 -0.29887571886E+01 -0.21307723622E+01  0.37646755338E+01  0.00000000000E+00 0.  1.
</event>
<event>
 8    1  0.2493819E-006  0.9118800E+02  0.7816164E-02  0.1184000E+00
        -11   -1    0    0    0    0  0.00000000000E+00  0.00000000000E+00  0.45593999997E+02  0.45594000000E+02  0.51100000000E-03 0. -1.
         11   -1    0    0    0    0 -0.00000000000E+00 -0.00000000000E+00 -0.45593999997E+02  0.45594000000E+02  0.51100000000E-03 0.  1.
         23    2    1    2    0    0  0.00000000000E+00  0.00000000000E+00 -0.35527136788E-14  0.91188000000E+02  0.91188000000E+02 0.  0.
    9900012    2    3    3    0    0 -0.16256766094E+02 -0.21152075532E+02 -0.25378829381E+02  0.54367112940E+02  0.40000065570E+02 0.  0.
         12    1    3    3    0    0  0.16256766094E+02  0.21152075532E+02  0.25378829381E+02  0.36820887060E+02  0.00000000000E+00 0. -1.
         11    1    4    4    0    0 -0.25853879681E+02 -0.48079141104E+01 -0.11213834676E+02  0.28588270690E+02  0.51100000000E-03 0. -1.
        -11    1    4    4    0    0  0.79807530062E+00 -0.31992580115E+01  0.14043331808E+01  0.35838984296E+01  0.51100000000E-03 0.  1.
         12    1    4    4    0    0  0.87990382863E+01 -0.13144903410E+02 -0.15569327885E+02  0.22194943821E+02  0.00000000000E+00 0. -1.
</event>
<event>
 8    1  0.2493819E-006  0.9118800E+02  0.7816164E-02  0.1184000E+00
        -11   -1    0    0    0    0  0.00000000000E+00  0.00000000000E+00  0.45593999997E+02  0.45594000000E+02  0.51100000000E-03 0. -1.
         11   -1    0    0    0    0 -0.00000000000E+00 -0.00000000000E+00 -0.45593999997E+02  0.45594000000E+02  0.51100000000E-03 0.  1.
         23    2    1    2    0    0  0.00000000000E+00  0.13322676296E-14  0.00000000000E+00  0.91188000000E+02  0.91188000000E+02 0.  0.
    9900012    2    3    3    0    0  0.20518605519E+02  0.24856299764E+01  0.30472751384E+02  0.54367080597E+02  0.39999991836E+02 0.  0.
        -12    1    3    3    0    0 -0.20518605519E+02 -0.24856299764E+01 -0.30472751384E+02  0.36820919403E+02  0.00000000000E+00 0.  1.
         11    1    4    4    0    0  0.61022372414E+01 -0.70953828035E+01 -0.67910669598E+01  0.11562886629E+02  0.51100000000E-03 0. -1.
        -11    1    4    4    0    0 -0.18431352827E+01  0.39658645087E+00  0.13284394676E+01  0.23063347900E+01  0.51100000000E-03 0.  1.
         12    1    4    4    0    0  0.16259503560E+02  0.91844263291E+01  0.35935378876E+02  0.40497859178E+02  0.00000000000E+00 0. -1.
</event>
<event>
 8    1  0.2493819E-006  0.9118800E+02  0.7816164E-02  0.1184000E+00
        -11   -1    0    0    0    0  0.00000000000E+00  0.00000000000E+00  0.45593999997E+02  0.45594000000E+02  0.51100000000E-03 0. -1.
         11   -1    0    0    0    0 -0.00000000000E+00 -0.00000000000E+00 -0.45593999997E+02  0.45594000000E+02  0.51100000000E-03 0.  1.
         23    2    1    2    0    0  0.17763568394E-14 -0.18873791419E-14  0.00000000000E+00  0.91188000000E+02  0.91188000000E+02 0.  0.
    9900012    2    3    3    0    0 -0.93636427067E+01 -0.67236868485E+00 -0.35604035499E+02  0.54367119671E+02  0.40000080914E+02 0.  0.
         12    1    3    3    0    0  0.93636427067E+01  0.67236868485E+00  0.35604035499E+02  0.36820880329E+02  0.00000000000E+00 0. -1.
         11    1    4    4    0    0 -0.15967081357E+02  0.11684987107E+02 -0.21143024482E+02  0.28957107854E+02  0.51100000000E-03 0. -1.
        -11    1    4    4    0    0  0.96688605028E+01 -0.14120446480E+02 -0.13345406755E+02  0.21701929728E+02  0.51100000000E-03 0.  1.
        -12    1    4    4    0    0 -0.30654218528E+01  0.17630906876E+01 -0.11156042613E+01  0.37080820887E+01  0.00000000000E+00 0.  1.
</event>
<event>
 8    1  0.2493819E-006  0.9118800E+02  0.7816164E-02  0.1184000E+00
        -11   -1    0    0    0    0  0.00000000000E+00  0.00000000000E+00  0.45593999997E+02  0.45594000000E+02  0.51100000000E-03 0.  1.
         11   -1    0    0    0    0 -0.00000000000E+00 -0.00000000000E+00 -0.45593999997E+02  0.45594000000E+02  0.51100000000E-03 0. -1.
         23    2    1    2    0    0  0.00000000000E+00 -0.17763568394E-14 -0.35527136788E-14  0.91188000000E+02  0.91188000000E+02 0.  0.
    9900012    2    3    3    0    0 -0.14028953758E+02  0.11850583473E+02  0.31914455610E+02  0.54367077292E+02  0.39999984302E+02 0.  0.
         12    1    3    3    0    0  0.14028953758E+02 -0.11850583473E+02 -0.31914455610E+02  0.36820922708E+02  0.00000000000E+00 0. -1.
         11    1    4    4    0    0 -0.10418221248E+02 -0.42253013554E+01  0.17264153935E+02  0.20602027009E+02  0.51100000000E-03 0. -1.
        -11    1    4    4    0    0 -0.65648105135E+01 -0.47729559953E+01  0.86676088610E+01  0.11874564819E+02  0.51100000000E-03 0.  1.
         12    1    4    4    0    0  0.29540780031E+01  0.20848840824E+02  0.59826928139E+01  0.21890485464E+02  0.00000000000E+00 0. -1.
</event>
<event>
 8    1  0.2493819E-006  0.9118800E+02  0.7816164E-02  0.1184000E+00
        -11   -1    0    0    0    0  0.00000000000E+00  0.00000000000E+00  0.45593999997E+02  0.45594000000E+02  0.51100000000E-03 0.  1.
         11   -1    0    0    0    0 -0.00000000000E+00 -0.00000000000E+00 -0.45593999997E+02  0.45594000000E+02  0.51100000000E-03 0. -1.
         23    2    1    2    0    0 -0.44408920985E-15  0.00000000000E+00  0.00000000000E+00  0.91188000000E+02  0.91188000000E+02 0.  0.
    9900012    2    3    3    0    0 -0.23954963759E+01  0.29216626263E+02 -0.22280717678E+02  0.54367081580E+02  0.39999994078E+02 0.  0.
        -12    1    3    3    0    0  0.23954963759E+01 -0.29216626263E+02  0.22280717678E+02  0.36820918420E+02  0.00000000000E+00 0.  1.
         11    1    4    4    0    0 -0.90137999143E+01 -0.49657590603E+01 -0.93607682629E+01  0.13911553999E+02  0.51100000000E-03 0. -1.
        -11    1    4    4    0    0 -0.45671667764E+01  0.45782148608E+01 -0.59750846871E+00  0.64943113805E+01  0.51100000000E-03 0.  1.
        -12    1    4    4    0    0  0.11185470315E+02  0.29604170462E+02 -0.12322440946E+02  0.33961216200E+02  0.00000000000E+00 0.  1.
</event>
<event>
 8    1  0.2493819E-006  0.9118800E+02  0.7816164E-02  0.1184000E+00
        -11   -1    0    0    0    0  0.00000000000E+00  0.00000000000E+00  0.45593999997E+02  0.45594000000E+02  0.51100000000E-03 0.  1.
         11   -1    0    0    0    0 -0.00000000000E+00 -0.00000000000E+00 -0.45593999997E+02  0.45594000000E+02  0.51100000000E-03 0. -1.
         23    2    1    2    0    0 -0.88817841970E-15  0.00000000000E+00  0.00000000000E+00  0.91188000000E+02  0.91188000000E+02 0.  0.
    9900012    2    3    3    0    0 -0.14289148756E+01  0.36383173826E+02 -0.54780766586E+01  0.54366994320E+02  0.39999795152E+02 0.  0.
         12    1    3    3    0    0  0.14289148756E+01 -0.36383173826E+02  0.54780766586E+01  0.36821005680E+02  0.00000000000E+00 0. -1.
         11    1    4    4    0    0  0.81576979127E+01 -0.40003186412E+01 -0.23825471150E+01  0.93929290151E+01  0.51100000000E-03 0. -1.
        -11    1    4    4    0    0  0.45142689767E+01  0.16734878836E+02 -0.13334843153E+01  0.17384273776E+02  0.51100000000E-03 0.  1.
         12    1    4    4    0    0 -0.14100881765E+02  0.23648613632E+02 -0.17620452283E+01  0.27589791529E+02  0.00000000000E+00 0. -1.
</event>
<event>
 8    1  0.2493819E-006  0.9118800E+02  0.7816164E-02  0.1184000E+00
        -11   -1    0    0    0    0  0.00000000000E+00  0.00000000000E+00  0.45593999997E+02  0.45594000000E+02  0.51100000000E-03 0.  1.
         11   -1    0    0    0    0 -0.00000000000E+00 -0.00000000000E+00 -0.45593999997E+02  0.45594000000E+02  0.51100000000E-03 0. -1.
         23    2    1    2    0    0  0.00000000000E+00  0.17763568394E-14 -0.17763568394E-14  0.91188000000E+02  0.91188000000E+02 0.  0.
    9900012    2    3    3    0    0  0.30365132697E+02 -0.13656834551E+02  0.15723590275E+02  0.54367058882E+02  0.39999942334E+02 0.  0.
         12    1    3    3    0    0 -0.30365132697E+02  0.13656834551E+02 -0.15723590275E+02  0.36820941118E+02  0.00000000000E+00 0. -1.
         11    1    4    4    0    0  0.75997228207E+01 -0.16024646771E+02  0.70589129732E+01  0.19088565784E+02  0.51100000000E-03 0. -1.
        -11    1    4    4    0    0 -0.38262280557E+01 -0.43391505969E+01 -0.15897504189E+01  0.59996296296E+01  0.51100000000E-03 0.  1.
        -12    1    4    4    0    0  0.26591637932E+02  0.67069628169E+01  0.10254427720E+02  0.29278863469E+02  0.00000000000E+00 0.  1.
</event>
<event>
 8    1  0.2493819E-006  0.9118800E+02  0.7816164E-02  0.1184000E+00
        -11   -1    0    0    0    0  0.00000000000E+00  0.00000000000E+00  0.45593999997E+02  0.45594000000E+02  0.51100000000E-03 0. -1.
         11   -1    0    0    0    0 -0.00000000000E+00 -0.00000000000E+00 -0.45593999997E+02  0.45594000000E+02  0.51100000000E-03 0.  1.
         23    2    1    2    0    0 -0.44408920985E-15  0.44408920985E-15  0.71054273576E-14  0.91188000000E+02  0.91188000000E+02 0.  0.
    9900012    2    3    3    0    0 -0.11151669346E+01  0.36651501262E+01 -0.36621046997E+02  0.54367109111E+02  0.40000056840E+02 0.  0.
         12    1    3    3    0    0  0.11151669346E+01 -0.36651501262E+01  0.36621046997E+02  0.36820890889E+02  0.00000000000E+00 0. -1.
         11    1    4    4    0    0  0.33447153242E+01  0.81772842129E+01 -0.12654429207E+02  0.15433394848E+02  0.51100000000E-03 0. -1.
        -11    1    4    4    0    0  0.87827089981E+00  0.12086415029E+02 -0.15135239492E+02  0.19388869559E+02  0.51100000000E-03 0.  1.
         12    1    4    4    0    0 -0.53381531587E+01 -0.16598549116E+02 -0.88313782973E+01  0.19544844705E+02  0.00000000000E+00 0. -1.
</event>
<event>
 8    1  0.2493819E-006  0.9118800E+02  0.7816164E-02  0.1184000E+00
        -11   -1    0    0    0    0  0.00000000000E+00  0.00000000000E+00  0.45593999997E+02  0.45594000000E+02  0.51100000000E-03 0. -1.
         11   -1    0    0    0    0 -0.00000000000E+00 -0.00000000000E+00 -0.45593999997E+02  0.45594000000E+02  0.51100000000E-03 0.  1.
         23    2    1    2    0    0  0.00000000000E+00  0.00000000000E+00  0.35527136788E-14  0.91188000000E+02  0.91188000000E+02 0.  0.
    9900012    2    3    3    0    0  0.19051847711E+02 -0.35887545558E+01 -0.31303809272E+02  0.54367074762E+02  0.39999978534E+02 0.  0.
         12    1    3    3    0    0 -0.19051847711E+02  0.35887545558E+01  0.31303809272E+02  0.36820925238E+02  0.00000000000E+00 0. -1.
         11    1    4    4    0    0  0.73187173368E+01  0.89746227136E+01 -0.14599650875E+02  0.18634840548E+02  0.51100000000E-03 0. -1.
        -11    1    4    4    0    0  0.11296325531E+02 -0.59641706117E+01 -0.23185883526E+02  0.26471937910E+02  0.51100000000E-03 0.  1.
        -12    1    4    4    0    0  0.43680484364E+00 -0.65992066577E+01  0.64817251289E+01  0.92602963035E+01  0.00000000000E+00 0.  1.
</event>
<event>
 8    1  0.2493819E-006  0.9118800E+02  0.7816164E-02  0.1184000E+00
        -11   -1    0    0    0    0  0.00000000000E+00  0.00000000000E+00  0.45593999997E+02  0.45594000000E+02  0.51100000000E-03 0. -1.
         11   -1    0    0    0    0 -0.00000000000E+00 -0.00000000000E+00 -0.45593999997E+02  0.45594000000E+02  0.51100000000E-03 0.  1.
         23    2    1    2    0    0  0.00000000000E+00  0.00000000000E+00  0.33306690739E-15  0.91188000000E+02  0.91188000000E+02 0.  0.
    9900012    2    3    3    0    0  0.36290270743E+02  0.61872024771E+01 -0.71667490439E+00  0.54367097675E+02  0.40000030770E+02 0.  0.
        -12    1    3    3    0    0 -0.36290270743E+02 -0.61872024771E+01  0.71667490439E+00  0.36820902325E+02  0.00000000000E+00 0.  1.
         11    1    4    4    0    0  0.22823410904E+02 -0.10568243986E+02  0.65471392979E+01  0.25989630615E+02  0.51100000000E-03 0. -1.
        -11    1    4    4    0    0 -0.36950816827E+01  0.11681159901E+01 -0.27660732625E+01  0.47612272749E+01  0.51100000000E-03 0.  1.
        -12    1    4    4    0    0  0.17161941522E+02  0.15587330473E+02 -0.44977409399E+01  0.23616239786E+02  0.00000000000E+00 0.  1.
</event>
<event>
 8    1  0.2493819E-006  0.9118800E+02  0.7816164E-02  0.1184000E+00
        -11   -1    0    0    0    0  0.00000000000E+00  0.00000000000E+00  0.45593999997E+02  0.45594000000E+02  0.51100000000E-03 0.  1.
         11   -1    0    0    0    0 -0.00000000000E+00 -0.00000000000E+00 -0.45593999997E+02  0.45594000000E+02  0.51100000000E-03 0. -1.
         23    2    1    2    0    0  0.00000000000E+00  0.00000000000E+00  0.35527136788E-14  0.91188000000E+02  0.91188000000E+02 0.  0.
    9900012    2    3    3    0    0 -0.32005603751E+02 -0.28150807551E+01  0.17986030334E+02  0.54367073365E+02  0.39999975349E+02 0.  0.
         12    1    3    3    0    0  0.32005603751E+02  0.28150807551E+01 -0.17986030334E+02  0.36820926635E+02  0.00000000000E+00 0. -1.
         11    1    4    4    0    0 -0.46813257729E+01  0.21797689181E+01  0.17175337441E+02  0.17934838165E+02  0.51100000000E-03 0. -1.
        -11    1    4    4    0    0 -0.16233048802E+01 -0.77002434636E+01  0.62180522378E+01  0.10029608269E+02  0.51100000000E-03 0.  1.
         12    1    4    4    0    0 -0.25700973098E+02  0.27053937904E+01 -0.54073593456E+01  0.26402626931E+02  0.00000000000E+00 0. -1.
</event>
<event>
 8    1  0.2493819E-006  0.9118800E+02  0.7816164E-02  0.1184000E+00
        -11   -1    0    0    0    0  0.00000000000E+00  0.00000000000E+00  0.45593999997E+02  0.45594000000E+02  0.51100000000E-03 0. -1.
         11   -1    0    0    0    0 -0.00000000000E+00 -0.00000000000E+00 -0.45593999997E+02  0.45594000000E+02  0.51100000000E-03 0.  1.
         23    2    1    2    0    0  0.00000000000E+00 -0.71054273576E-14 -0.17763568394E-14  0.91188000000E+02  0.91188000000E+02 0.  0.
    9900012    2    3    3    0    0  0.15588228879E+02  0.29477015003E+02  0.15617057605E+02  0.54367085002E+02  0.40000001879E+02 0.  0.
        -12    1    3    3    0    0 -0.15588228879E+02 -0.29477015003E+02 -0.15617057605E+02  0.36820914998E+02  0.00000000000E+00 0.  1.
         11    1    4    4    0    0 -0.19346222644E+01  0.22697695485E+01  0.51599054334E+01  0.59598021320E+01  0.51100000000E-03 0. -1.
        -11    1    4    4    0    0 -0.50521667122E+01  0.22317659834E+02  0.10807364676E+02  0.25306154596E+02  0.51100000000E-03 0.  1.
         12    1    4    4    0    0  0.22575017856E+02  0.48895856206E+01 -0.35021250511E+00  0.23101128274E+02  0.00000000000E+00 0. -1.
</event>
<event>
 8    1  0.2493819E-006  0.9118800E+02  0.7816164E-02  0.1184000E+00
        -11   -1    0    0    0    0  0.00000000000E+00  0.00000000000E+00  0.45593999997E+02  0.45594000000E+02  0.51100000000E-03 0.  1.
         11   -1    0    0    0    0 -0.00000000000E+00 -0.00000000000E+00 -0.45593999997E+02  0.45594000000E+02  0.51100000000E-03 0. -1.
         23    2    1    2    0    0  0.35527136788E-14  0.00000000000E+00  0.00000000000E+00  0.91188000000E+02  0.91188000000E+02 0.  0.
    9900012    2    3    3    0    0  0.30258438070E+02 -0.10639030025E+02  0.18083638878E+02  0.54367081633E+02  0.39999994199E+02 0.  0.
         12    1    3    3    0    0 -0.30258438070E+02  0.10639030025E+02 -0.18083638878E+02  0.36820918367E+02  0.00000000000E+00 0. -1.
         11    1    4    4    0    0  0.65627370938E+01 -0.32039232914E+01 -0.72894143439E+01  0.10318440016E+02  0.51100000000E-03 0. -1.
        -11    1    4    4    0    0  0.18089443986E+02 -0.35136918213E+01  0.69592671144E+00  0.18440670492E+02  0.51100000000E-03 0.  1.
        -12    1    4    4    0    0  0.56062569906E+01 -0.39214149124E+01  0.24677126510E+02  0.25607971125E+02  0.00000000000E+00 0.  1.
</event>
<event>
 8    1  0.2493819E-006  0.9118800E+02  0.7816164E-02  0.1184000E+00
        -11   -1    0    0    0    0  0.00000000000E+00  0.00000000000E+00  0.45593999997E+02  0.45594000000E+02  0.51100000000E-03 0. -1.
         11   -1    0    0    0    0 -0.00000000000E+00 -0.00000000000E+00 -0.45593999997E+02  0.45594000000E+02  0.51100000000E-03 0.  1.
         23    2    1    2    0    0  0.35527136788E-14  0.00000000000E+00  0.00000000000E+00  0.91188000000E+02  0.91188000000E+02 0.  0.
    9900012    2    3    3    0    0 -0.28054221391E+02  0.19558719327E+02  0.13645867024E+02  0.54366911933E+02  0.39999607332E+02 0.  0.
        -12    1    3    3    0    0  0.28054221391E+02 -0.19558719327E+02 -0.13645867024E+02  0.36821088067E+02  0.00000000000E+00 0.  1.
         11    1    4    4    0    0 -0.23933140100E+02  0.89730425000E+01  0.70881263945E+00  0.25569769306E+02  0.51100000000E-03 0. -1.
        -11    1    4    4    0    0 -0.67625416944E+01  0.56575297843E+00 -0.47602838685E+01  0.82892912466E+01  0.51100000000E-03 0.  1.
         12    1    4    4    0    0  0.26414604034E+01  0.10019923849E+02  0.17697338253E+02  0.20507851381E+02  0.00000000000E+00 0. -1.
</event>
<event>
 8    1  0.2493819E-006  0.9118800E+02  0.7816164E-02  0.1184000E+00
        -11   -1    0    0    0    0  0.00000000000E+00  0.00000000000E+00  0.45593999997E+02  0.45594000000E+02  0.51100000000E-03 0.  1.
         11   -1    0    0    0    0 -0.00000000000E+00 -0.00000000000E+00 -0.45593999997E+02  0.45594000000E+02  0.51100000000E-03 0. -1.
         23    2    1    2    0    0  0.00000000000E+00  0.35527136788E-14  0.35527136788E-14  0.91188000000E+02  0.91188000000E+02 0.  0.
    9900012    2    3    3    0    0  0.22003236020E+02 -0.19473446904E+02 -0.22190587113E+02  0.54367086295E+02  0.40000004827E+02 0.  0.
        -12    1    3    3    0    0 -0.22003236020E+02  0.19473446904E+02  0.22190587113E+02  0.36820913705E+02  0.00000000000E+00 0.  1.
         11    1    4    4    0    0  0.86756397138E+01 -0.12448105223E+02 -0.25177069562E+02  0.29395694924E+02  0.51100000000E-03 0. -1.
        -11    1    4    4    0    0 -0.10292365916E+01 -0.24951370173E+01  0.85159332848E+01  0.89334291663E+01  0.51100000000E-03 0.  1.
         12    1    4    4    0    0  0.14356832897E+02 -0.45302046638E+01 -0.55294508354E+01  0.16037962205E+02  0.00000000000E+00 0. -1.
</event>
<event>
 8    1  0.2493819E-006  0.9118800E+02  0.7816164E-02  0.1184000E+00
        -11   -1    0    0    0    0  0.00000000000E+00  0.00000000000E+00  0.45593999997E+02  0.45594000000E+02  0.51100000000E-03 0. -1.
         11   -1    0    0    0    0 -0.00000000000E+00 -0.00000000000E+00 -0.45593999997E+02  0.45594000000E+02  0.51100000000E-03 0.  1.
         23    2    1    2    0    0  0.35527136788E-14 -0.77715611724E-15  0.00000000000E+00  0.91188000000E+02  0.91188000000E+02 0.  0.
    9900012    2    3    3    0    0  0.31746988838E+02  0.74901982808E+00  0.18637196762E+02  0.54367116874E+02  0.40000074539E+02 0.  0.
        -12    1    3    3    0    0 -0.31746988838E+02 -0.74901982808E+00 -0.18637196762E+02  0.36820883126E+02  0.00000000000E+00 0.  1.
         11    1    4    4    0    0 -0.27316388548E+01  0.60682143797E+01 -0.17428609089E+01  0.68791453684E+01  0.51100000000E-03 0. -1.
        -11    1    4    4    0    0 -0.20278984832E+00  0.51633548053E+01  0.73510595616E+01  0.89855124232E+01  0.51100000000E-03 0.  1.
         12    1    4    4    0    0  0.34681417542E+02 -0.10482549357E+02  0.13028998109E+02  0.38502459083E+02  0.00000000000E+00 0. -1.
</event>
<event>
 8    1  0.2493819E-006  0.9118800E+02  0.7816164E-02  0.1184000E+00
        -11   -1    0    0    0    0  0.00000000000E+00  0.00000000000E+00  0.45593999997E+02  0.45594000000E+02  0.51100000000E-03 0. -1.
         11   -1    0    0    0    0 -0.00000000000E+00 -0.00000000000E+00 -0.45593999997E+02  0.45594000000E+02  0.51100000000E-03 0.  1.
         23    2    1    2    0    0  0.35527136788E-14  0.35527136788E-14  0.17763568394E-14  0.91188000000E+02  0.91188000000E+02 0.  0.
    9900012    2    3    3    0    0  0.26569499534E+02  0.20659664748E+02  0.14933866785E+02  0.54367076191E+02  0.39999981792E+02 0.  0.
        -12    1    3    3    0    0 -0.26569499534E+02 -0.20659664748E+02 -0.14933866785E+02  0.36820923809E+02  0.00000000000E+00 0.  1.
         11    1    4    4    0    0  0.15663851502E+02  0.16239125000E+02  0.18476939883E+02  0.29162694189E+02  0.51100000000E-03 0. -1.
        -11    1    4    4    0    0  0.13195428342E+02  0.59555528747E+01 -0.10392440982E+02  0.17821076539E+02  0.51100000000E-03 0.  1.
        -12    1    4    4    0    0 -0.22897803099E+01 -0.15350131262E+01  0.68493678836E+01  0.73833054637E+01  0.00000000000E+00 0.  1.
</event>
<event>
 8    1  0.2493819E-006  0.9118800E+02  0.7816164E-02  0.1184000E+00
        -11   -1    0    0    0    0  0.00000000000E+00  0.00000000000E+00  0.45593999997E+02  0.45594000000E+02  0.51100000000E-03 0. -1.
         11   -1    0    0    0    0 -0.00000000000E+00 -0.00000000000E+00 -0.45593999997E+02  0.45594000000E+02  0.51100000000E-03 0.  1.
         23    2    1    2    0    0  0.88817841970E-15  0.35527136788E-14  0.00000000000E+00  0.91188000000E+02  0.91188000000E+02 0.  0.
    9900012    2    3    3    0    0 -0.77093047178E+01  0.25381090897E+02  0.25537165117E+02  0.54367082622E+02  0.39999996454E+02 0.  0.
        -12    1    3    3    0    0  0.77093047178E+01 -0.25381090897E+02 -0.25537165117E+02  0.36820917378E+02  0.00000000000E+00 0.  1.
         11    1    4    4    0    0 -0.44377964727E+01  0.13344950756E+02  0.15933998887E+02  0.21252624991E+02  0.51100000000E-03 0. -1.
        -11    1    4    4    0    0  0.35768710661E+01  0.17046144459E+02 -0.32451050028E+01  0.17717103439E+02  0.51100000000E-03 0.  1.
        -12    1    4    4    0    0 -0.68483793112E+01 -0.50100043180E+01  0.12848271233E+02  0.15397354192E+02  0.00000000000E+00 0.  1.
</event>
<event>
 8    1  0.2493819E-006  0.9118800E+02  0.7816164E-02  0.1184000E+00
        -11   -1    0    0    0    0  0.00000000000E+00  0.00000000000E+00  0.45593999997E+02  0.45594000000E+02  0.51100000000E-03 0. -1.
         11   -1    0    0    0    0 -0.00000000000E+00 -0.00000000000E+00 -0.45593999997E+02  0.45594000000E+02  0.51100000000E-03 0.  1.
         23    2    1    2    0    0  0.00000000000E+00 -0.11102230246E-14  0.35527136788E-14  0.91188000000E+02  0.91188000000E+02 0.  0.
    9900012    2    3    3    0    0  0.26912792721E+02  0.11684021189E+01 -0.25102115977E+02  0.54367084719E+02  0.40000001235E+02 0.  0.
         12    1    3    3    0    0 -0.26912792721E+02 -0.11684021189E+01  0.25102115977E+02  0.36820915281E+02  0.00000000000E+00 0. -1.
         11    1    4    4    0    0  0.99816936400E+00  0.10916487112E+02 -0.11798465337E+01  0.11025337684E+02  0.51100000000E-03 0.  1.
        -11    1    4    4    0    0  0.16597134194E+02 -0.46458007510E+01 -0.27220853911E+02  0.32218367680E+02  0.51100000000E-03 0. -1.
         12    1    4    4    0    0  0.93174891634E+01 -0.51022842419E+01  0.32985844674E+01  0.11123379355E+02  0.00000000000E+00 0. -1.
</event>
<event>
 8    1  0.2493819E-006  0.9118800E+02  0.7816164E-02  0.1184000E+00
        -11   -1    0    0    0    0  0.00000000000E+00  0.00000000000E+00  0.45593999997E+02  0.45594000000E+02  0.51100000000E-03 0.  1.
         11   -1    0    0    0    0 -0.00000000000E+00 -0.00000000000E+00 -0.45593999997E+02  0.45594000000E+02  0.51100000000E-03 0. -1.
         23    2    1    2    0    0  0.00000000000E+00  0.00000000000E+00  0.00000000000E+00  0.91188000000E+02  0.91188000000E+02 0.  0.
    9900012    2    3    3    0    0 -0.23698349172E+02  0.28126978001E+02 -0.17435499590E+01  0.54367100888E+02  0.40000038094E+02 0.  0.
         12    1    3    3    0    0  0.23698349172E+02 -0.28126978001E+02  0.17435499590E+01  0.36820899112E+02  0.00000000000E+00 0. -1.
         11    1    4    4    0    0  0.71075116937E+01 -0.74212726788E+00 -0.91531281419E+00  0.72045314329E+01  0.51100000000E-03 0. -1.
        -11    1    4    4    0    0 -0.31715007117E+02  0.21347394505E+02  0.35791297659E+01  0.38397436096E+02  0.51100000000E-03 0.  1.
         12    1    4    4    0    0  0.90914625120E+00  0.75217107640E+01 -0.44073669107E+01  0.87651333595E+01  0.00000000000E+00 0. -1.
</event>
<event>
 8    1  0.2493819E-006  0.9118800E+02  0.7816164E-02  0.1184000E+00
        -11   -1    0    0    0    0  0.00000000000E+00  0.00000000000E+00  0.45593999997E+02  0.45594000000E+02  0.51100000000E-03 0.  1.
         11   -1    0    0    0    0 -0.00000000000E+00 -0.00000000000E+00 -0.45593999997E+02  0.45594000000E+02  0.51100000000E-03 0. -1.
         23    2    1    2    0    0  0.00000000000E+00  0.00000000000E+00 -0.15543122345E-14  0.91188000000E+02  0.91188000000E+02 0.  0.
    9900012    2    3    3    0    0  0.27833690127E+02  0.24102570240E+02 -0.36548549771E+00  0.54367057889E+02  0.39999940070E+02 0.  0.
        -12    1    3    3    0    0 -0.27833690127E+02 -0.24102570240E+02  0.36548549771E+00  0.36820942111E+02  0.00000000000E+00 0.  1.
         11    1    4    4    0    0  0.14134707003E+02  0.38950500206E+01 -0.13857860947E+02  0.20174282318E+02  0.51100000000E-03 0. -1.
        -11    1    4    4    0    0  0.14140509622E+02  0.38261553129E+01  0.37241693050E+01  0.15114989716E+02  0.51100000000E-03 0.  1.
        -12    1    4    4    0    0 -0.44152649800E+00  0.16381364907E+02  0.97682061447E+01  0.19077785855E+02  0.00000000000E+00 0.  1.
</event>
<event>
 8    1  0.2493819E-006  0.9118800E+02  0.7816164E-02  0.1184000E+00
        -11   -1    0    0    0    0  0.00000000000E+00  0.00000000000E+00  0.45593999997E+02  0.45594000000E+02  0.51100000000E-03 0.  1.
         11   -1    0    0    0    0 -0.00000000000E+00 -0.00000000000E+00 -0.45593999997E+02  0.45594000000E+02  0.51100000000E-03 0. -1.
         23    2    1    2    0    0  0.00000000000E+00  0.00000000000E+00  0.00000000000E+00  0.91188000000E+02  0.91188000000E+02 0.  0.
    9900012    2    3    3    0    0  0.25941679693E+02 -0.21807885377E+02 -0.14395312247E+02  0.54367087130E+02  0.40000006729E+02 0.  0.
        -12    1    3    3    0    0 -0.25941679693E+02  0.21807885377E+02  0.14395312247E+02  0.36820912870E+02  0.00000000000E+00 0.  1.
         11    1    4    4    0    0  0.25528240509E+02 -0.71216352954E+01 -0.78990710601E+01  0.27655091333E+02  0.51100000000E-03 0. -1.
        -11    1    4    4    0    0  0.61551204881E+01  0.33287664038E+01 -0.19780307353E+01  0.72717810642E+01  0.51100000000E-03 0.  1.
        -12    1    4    4    0    0 -0.57416813038E+01 -0.18015016485E+02 -0.45182104518E+01  0.19440214732E+02  0.00000000000E+00 0.  1.
</event>
<event>
 8    1  0.2493819E-006  0.9118800E+02  0.7816164E-02  0.1184000E+00
        -11   -1    0    0    0    0  0.00000000000E+00  0.00000000000E+00  0.45593999997E+02  0.45594000000E+02  0.51100000000E-03 0. -1.
         11   -1    0    0    0    0 -0.00000000000E+00 -0.00000000000E+00 -0.45593999997E+02  0.45594000000E+02  0.51100000000E-03 0.  1.
         23    2    1    2    0    0  0.35527136788E-14 -0.35527136788E-14  0.88817841970E-15  0.91188000000E+02  0.91188000000E+02 0.  0.
    9900012    2    3    3    0    0  0.25665351552E+02 -0.25667571036E+02  0.61841998431E+01  0.54367098315E+02  0.40000032230E+02 0.  0.
         12    1    3    3    0    0 -0.25665351552E+02  0.25667571036E+02 -0.61841998431E+01  0.36820901685E+02  0.00000000000E+00 0. -1.
         11    1    4    4    0    0 -0.52545942316E+01 -0.17221095760E+02  0.62236038627E+01  0.19050200656E+02  0.51100000000E-03 0. -1.
        -11    1    4    4    0    0  0.83331257579E+01 -0.95812997703E+01 -0.25084089819E+00  0.12700598868E+02  0.51100000000E-03 0.  1.
         12    1    4    4    0    0  0.22586820025E+02  0.11348244944E+01  0.21143687854E+00  0.22616298792E+02  0.00000000000E+00 0. -1.
</event>
<event>
 8    1  0.2493819E-006  0.9118800E+02  0.7816164E-02  0.1184000E+00
        -11   -1    0    0    0    0  0.00000000000E+00  0.00000000000E+00  0.45593999997E+02  0.45594000000E+02  0.51100000000E-03 0. -1.
         11   -1    0    0    0    0 -0.00000000000E+00 -0.00000000000E+00 -0.45593999997E+02  0.45594000000E+02  0.51100000000E-03 0.  1.
         23    2    1    2    0    0  0.00000000000E+00  0.17763568394E-14  0.00000000000E+00  0.91188000000E+02  0.91188000000E+02 0.  0.
    9900012    2    3    3    0    0  0.23947072830E+02 -0.11268929110E+02 -0.25599391591E+02  0.54367083251E+02  0.39999997888E+02 0.  0.
         12    1    3    3    0    0 -0.23947072830E+02  0.11268929110E+02  0.25599391591E+02  0.36820916749E+02  0.00000000000E+00 0. -1.
         11    1    4    4    0    0  0.20849350697E+02 -0.15521699647E+02 -0.21933453347E+02  0.34010218471E+02  0.51100000000E-03 0. -1.
        -11    1    4    4    0    0  0.87669944862E+01 -0.39800184289E+01 -0.38238099519E+01  0.10359645835E+02  0.51100000000E-03 0.  1.
         12    1    4    4    0    0 -0.56692723529E+01  0.82327889660E+01  0.15787170855E+00  0.99972189456E+01  0.00000000000E+00 0. -1.
</event>
<event>
 8    1  0.2493819E-006  0.9118800E+02  0.7816164E-02  0.1184000E+00
        -11   -1    0    0    0    0  0.00000000000E+00  0.00000000000E+00  0.45593999997E+02  0.45594000000E+02  0.51100000000E-03 0. -1.
         11   -1    0    0    0    0 -0.00000000000E+00 -0.00000000000E+00 -0.45593999997E+02  0.45594000000E+02  0.51100000000E-03 0.  1.
         23    2    1    2    0    0 -0.17763568394E-14  0.00000000000E+00  0.88817841970E-15  0.91188000000E+02  0.91188000000E+02 0.  0.
    9900012    2    3    3    0    0  0.13216470012E+02  0.33820646200E+02 -0.61047613266E+01  0.54367091540E+02  0.40000016783E+02 0.  0.
         12    1    3    3    0    0 -0.13216470012E+02 -0.33820646200E+02  0.61047613266E+01  0.36820908460E+02  0.00000000000E+00 0. -1.
         11    1    4    4    0    0 -0.85514167329E+01  0.72722118594E+01 -0.15636729745E+00  0.11226586501E+02  0.51100000000E-03 0. -1.
        -11    1    4    4    0    0  0.16558867925E+02  0.27466334376E+02  0.35511274235E+01  0.32267725938E+02  0.51100000000E-03 0.  1.
        -12    1    4    4    0    0  0.52090188201E+01 -0.91790003466E+00 -0.94995214527E+01  0.10872779101E+02  0.00000000000E+00 0.  1.
</event>
<event>
 8    1  0.2493819E-006  0.9118800E+02  0.7816164E-02  0.1184000E+00
        -11   -1    0    0    0    0  0.00000000000E+00  0.00000000000E+00  0.45593999997E+02  0.45594000000E+02  0.51100000000E-03 0.  1.
         11   -1    0    0    0    0 -0.00000000000E+00 -0.00000000000E+00 -0.45593999997E+02  0.45594000000E+02  0.51100000000E-03 0. -1.
         23    2    1    2    0    0  0.00000000000E+00  0.17763568394E-14  0.00000000000E+00  0.91188000000E+02  0.91188000000E+02 0.  0.
    9900012    2    3    3    0    0  0.28397743095E+02 -0.11212419442E+02 -0.20582252858E+02  0.54367091600E+02  0.40000016921E+02 0.  0.
        -12    1    3    3    0    0 -0.28397743095E+02  0.11212419442E+02  0.20582252858E+02  0.36820908400E+02  0.00000000000E+00 0.  1.
         11    1    4    4    0    0  0.10678748446E+02 -0.16417781057E+02 -0.84434690832E+01  0.21327713746E+02  0.51100000000E-03 0. -1.
        -11    1    4    4    0    0 -0.11433982687E+01  0.44532849686E+01  0.55241792586E+01  0.71871874440E+01  0.51100000000E-03 0.  1.
         12    1    4    4    0    0  0.18862392918E+02  0.75207664604E+00 -0.17662963034E+02  0.25852190410E+02  0.00000000000E+00 0. -1.
</event>
<event>
 8    1  0.2493819E-006  0.9118800E+02  0.7816164E-02  0.1184000E+00
        -11   -1    0    0    0    0  0.00000000000E+00  0.00000000000E+00  0.45593999997E+02  0.45594000000E+02  0.51100000000E-03 0.  1.
         11   -1    0    0    0    0 -0.00000000000E+00 -0.00000000000E+00 -0.45593999997E+02  0.45594000000E+02  0.51100000000E-03 0. -1.
         23    2    1    2    0    0  0.35527136788E-14 -0.83266726847E-15 -0.35527136788E-14  0.91188000000E+02  0.91188000000E+02 0.  0.
    9900012    2    3    3    0    0 -0.30449264211E+02  0.38940810126E+00  0.20699485312E+02  0.54367108894E+02  0.40000056345E+02 0.  0.
         12    1    3    3    0    0  0.30449264211E+02 -0.38940810126E+00 -0.20699485312E+02  0.36820891106E+02  0.00000000000E+00 0. -1.
         11    1    4    4    0    0 -0.21587106802E+01 -0.28133281471E+01 -0.58043264967E+01  0.68018419127E+01  0.51100000000E-03 0. -1.
        -11    1    4    4    0    0 -0.14799925718E+02  0.14773626311E+02  0.19066114064E+02  0.28298666778E+02  0.51100000000E-03 0.  1.
         12    1    4    4    0    0 -0.13490627813E+02 -0.11570890063E+02  0.74376977446E+01  0.19266600203E+02  0.00000000000E+00 0. -1.
</event>
<event>
 8    1  0.2493819E-006  0.9118800E+02  0.7816164E-02  0.1184000E+00
        -11   -1    0    0    0    0  0.00000000000E+00  0.00000000000E+00  0.45593999997E+02  0.45594000000E+02  0.51100000000E-03 0.  1.
         11   -1    0    0    0    0 -0.00000000000E+00 -0.00000000000E+00 -0.45593999997E+02  0.45594000000E+02  0.51100000000E-03 0. -1.
         23    2    1    2    0    0 -0.17763568394E-14  0.00000000000E+00 -0.17763568394E-14  0.91188000000E+02  0.91188000000E+02 0.  0.
    9900012    2    3    3    0    0  0.14000391725E+02  0.32253516557E+02 -0.10930671974E+02  0.54367083545E+02  0.39999998558E+02 0.  0.
        -12    1    3    3    0    0 -0.14000391725E+02 -0.32253516557E+02  0.10930671974E+02  0.36820916455E+02  0.00000000000E+00 0.  1.
         11    1    4    4    0    0  0.22913855098E+02  0.22619929072E+02  0.20853207104E+00  0.32198593642E+02  0.51100000000E-03 0. -1.
        -11    1    4    4    0    0 -0.49475763628E+01 -0.29183311844E+01 -0.51170450610E+01  0.76928095768E+01  0.51100000000E-03 0.  1.
         12    1    4    4    0    0 -0.39658870100E+01  0.12551918670E+02 -0.60221589845E+01  0.14475680326E+02  0.00000000000E+00 0. -1.
</event>
<event>
 8    1  0.2493819E-006  0.9118800E+02  0.7816164E-02  0.1184000E+00
        -11   -1    0    0    0    0  0.00000000000E+00  0.00000000000E+00  0.45593999997E+02  0.45594000000E+02  0.51100000000E-03 0.  1.
         11   -1    0    0    0    0 -0.00000000000E+00 -0.00000000000E+00 -0.45593999997E+02  0.45594000000E+02  0.51100000000E-03 0. -1.
         23    2    1    2    0    0  0.00000000000E+00  0.17763568394E-14  0.00000000000E+00  0.91188000000E+02  0.91188000000E+02 0.  0.
    9900012    2    3    3    0    0  0.16269870591E+01 -0.11350271558E+02 -0.34990037851E+02  0.54367102399E+02  0.40000041540E+02 0.  0.
        -12    1    3    3    0    0 -0.16269870591E+01  0.11350271558E+02  0.34990037851E+02  0.36820897601E+02  0.00000000000E+00 0.  1.
         11    1    4    4    0    0 -0.30583428685E+01  0.39938578581E+01  0.39450342100E+01  0.63927816224E+01  0.51100000000E-03 0.  1.
        -11    1    4    4    0    0  0.80947464331E+01 -0.20390175439E+02 -0.30581198906E+02  0.37636337509E+02  0.51100000000E-03 0. -1.
         12    1    4    4    0    0 -0.34094165055E+01  0.50460460233E+01 -0.83538731545E+01  0.10337983268E+02  0.00000000000E+00 0. -1.
</event>
<event>
 8    1  0.2493819E-006  0.9118800E+02  0.7816164E-02  0.1184000E+00
        -11   -1    0    0    0    0  0.00000000000E+00  0.00000000000E+00  0.45593999997E+02  0.45594000000E+02  0.51100000000E-03 0.  1.
         11   -1    0    0    0    0 -0.00000000000E+00 -0.00000000000E+00 -0.45593999997E+02  0.45594000000E+02  0.51100000000E-03 0. -1.
         23    2    1    2    0    0  0.00000000000E+00  0.22204460493E-15  0.00000000000E+00  0.91188000000E+02  0.91188000000E+02 0.  0.
    9900012    2    3    3    0    0 -0.18530765708E+01 -0.13373875535E+01 -0.36749977323E+02  0.54367036793E+02  0.39999891977E+02 0.  0.
        -12    1    3    3    0    0  0.18530765708E+01  0.13373875535E+01  0.36749977323E+02  0.36820963207E+02  0.00000000000E+00 0.  1.
         11    1    4    4    0    0  0.12862835472E+01  0.38490458958E+01 -0.39571781809E+02  0.39779336288E+02  0.51100000000E-03 0. -1.
        -11    1    4    4    0    0  0.34900031332E+01  0.14716808920E+01  0.35138812522E+01  0.51665586451E+01  0.51100000000E-03 0.  1.
         12    1    4    4    0    0 -0.66293632511E+01 -0.66581143413E+01 -0.69207676571E+00  0.94211418600E+01  0.00000000000E+00 0. -1.
</event>
<event>
 8    1  0.2493819E-006  0.9118800E+02  0.7816164E-02  0.1184000E+00
        -11   -1    0    0    0    0  0.00000000000E+00  0.00000000000E+00  0.45593999997E+02  0.45594000000E+02  0.51100000000E-03 0. -1.
         11   -1    0    0    0    0 -0.00000000000E+00 -0.00000000000E+00 -0.45593999997E+02  0.45594000000E+02  0.51100000000E-03 0.  1.
         23    2    1    2    0    0  0.00000000000E+00 -0.35527136788E-14 -0.35527136788E-14  0.91188000000E+02  0.91188000000E+02 0.  0.
    9900012    2    3    3    0    0 -0.11121891609E+02  0.23353490909E+02 -0.26204965254E+02  0.54367051960E+02  0.39999926552E+02 0.  0.
         12    1    3    3    0    0  0.11121891609E+02 -0.23353490909E+02  0.26204965254E+02  0.36820948040E+02  0.00000000000E+00 0. -1.
         11    1    4    4    0    0 -0.18527407570E+01  0.11853420047E+02  0.55671479810E+01  0.13226086043E+02  0.51100000000E-03 0. -1.
        -11    1    4    4    0    0  0.12751396948E+01 -0.45317700768E+01 -0.14775144945E+02  0.15507025172E+02  0.51100000000E-03 0.  1.
        -12    1    4    4    0    0 -0.10544290547E+02  0.16031840939E+02 -0.16996968290E+02  0.25633940744E+02  0.00000000000E+00 0.  1.
</event>
<event>
 8    1  0.2493819E-006  0.9118800E+02  0.7816164E-02  0.1184000E+00
        -11   -1    0    0    0    0  0.00000000000E+00  0.00000000000E+00  0.45593999997E+02  0.45594000000E+02  0.51100000000E-03 0.  1.
         11   -1    0    0    0    0 -0.00000000000E+00 -0.00000000000E+00 -0.45593999997E+02  0.45594000000E+02  0.51100000000E-03 0. -1.
         23    2    1    2    0    0  0.88817841970E-15  0.00000000000E+00  0.00000000000E+00  0.91188000000E+02  0.91188000000E+02 0.  0.
    9900012    2    3    3    0    0  0.12284163008E+01  0.87063928978E+01  0.35755681078E+02  0.54367095432E+02  0.40000025656E+02 0.  0.
         12    1    3    3    0    0 -0.12284163008E+01 -0.87063928978E+01 -0.35755681078E+02  0.36820904568E+02  0.00000000000E+00 0. -1.
         11    1    4    4    0    0  0.52233552413E+01 -0.17943262921E+01  0.78145400245E+01  0.95692258242E+01  0.51100000000E-03 0. -1.
        -11    1    4    4    0    0 -0.91369433074E+01  0.92879587209E+01  0.34205705183E+02  0.36603007766E+02  0.51100000000E-03 0.  1.
         12    1    4    4    0    0  0.51420043669E+01  0.12127604691E+01 -0.62645641298E+01  0.81948618415E+01  0.00000000000E+00 0. -1.
</event>
<event>
 8    1  0.2493819E-006  0.9118800E+02  0.7816164E-02  0.1184000E+00
        -11   -1    0    0    0    0  0.00000000000E+00  0.00000000000E+00  0.45593999997E+02  0.45594000000E+02  0.51100000000E-03 0.  1.
         11   -1    0    0    0    0 -0.00000000000E+00 -0.00000000000E+00 -0.45593999997E+02  0.45594000000E+02  0.51100000000E-03 0. -1.
         23    2    1    2    0    0  0.00000000000E+00 -0.35527136788E-14 -0.35527136788E-14  0.91188000000E+02  0.91188000000E+02 0.  0.
    9900012    2    3    3    0    0  0.16961097711E+02 -0.27369636691E+02 -0.17860663689E+02  0.54367093498E+02  0.40000021248E+02 0.  0.
        -12    1    3    3    0    0 -0.16961097711E+02  0.27369636691E+02  0.17860663689E+02  0.36820906502E+02  0.00000000000E+00 0.  1.
         11    1    4    4    0    0  0.92935865441E+01 -0.27291428876E+02 -0.12235681771E+02  0.31319398934E+02  0.51100000000E-03 0. -1.
        -11    1    4    4    0    0  0.13155651867E+02 -0.23287548681E+01  0.18689950214E+01  0.13490271232E+02  0.51100000000E-03 0.  1.
        -12    1    4    4    0    0 -0.54881406997E+01  0.22505470526E+01 -0.74939769395E+01  0.95574233319E+01  0.00000000000E+00 0.  1.
</event>
<event>
 8    1  0.2493819E-006  0.9118800E+02  0.7816164E-02  0.1184000E+00
        -11   -1    0    0    0    0  0.00000000000E+00  0.00000000000E+00  0.45593999997E+02  0.45594000000E+02  0.51100000000E-03 0.  1.
         11   -1    0    0    0    0 -0.00000000000E+00 -0.00000000000E+00 -0.45593999997E+02  0.45594000000E+02  0.51100000000E-03 0. -1.
         23    2    1    2    0    0  0.17763568394E-14  0.00000000000E+00  0.00000000000E+00  0.91188000000E+02  0.91188000000E+02 0.  0.
    9900012    2    3    3    0    0  0.90885611154E+01 -0.17309021854E+02 -0.31202174774E+02  0.54367083508E+02  0.39999998473E+02 0.  0.
        -12    1    3    3    0    0 -0.90885611154E+01  0.17309021854E+02  0.31202174774E+02  0.36820916492E+02  0.00000000000E+00 0.  1.
         11    1    4    4    0    0 -0.47664377018E+01  0.27620879119E+01 -0.19677045218E+02  0.20433652801E+02  0.51100000000E-03 0. -1.
        -11    1    4    4    0    0  0.13698863803E+02 -0.24859500769E+01 -0.24238036161E+01  0.14132007695E+02  0.51100000000E-03 0.  1.
        -12    1    4    4    0    0  0.15613501437E+00 -0.17585159689E+02 -0.91013259392E+01  0.19801423012E+02  0.00000000000E+00 0.  1.
</event>
<event>
 8    1  0.2493819E-006  0.9118800E+02  0.7816164E-02  0.1184000E+00
        -11   -1    0    0    0    0  0.00000000000E+00  0.00000000000E+00  0.45593999997E+02  0.45594000000E+02  0.51100000000E-03 0.  1.
         11   -1    0    0    0    0 -0.00000000000E+00 -0.00000000000E+00 -0.45593999997E+02  0.45594000000E+02  0.51100000000E-03 0. -1.
         23    2    1    2    0    0  0.17763568394E-14  0.00000000000E+00  0.00000000000E+00  0.91188000000E+02  0.91188000000E+02 0.  0.
    9900012    2    3    3    0    0  0.87355370428E+01 -0.21560784805E+02  0.28541257488E+02  0.54367076223E+02  0.39999981865E+02 0.  0.
         12    1    3    3    0    0 -0.87355370428E+01  0.21560784805E+02 -0.28541257488E+02  0.36820923777E+02  0.00000000000E+00 0. -1.
         11    1    4    4    0    0 -0.57957725843E+01  0.46966455572E+01  0.27950546772E+01  0.79662908715E+01  0.51100000000E-03 0. -1.
        -11    1    4    4    0    0  0.64571520408E+01 -0.29003787379E+02  0.17228255228E+02  0.34347158154E+02  0.51100000000E-03 0.  1.
        -12    1    4    4    0    0  0.80741575863E+01  0.27463570169E+01  0.85179475828E+01  0.12053627197E+02  0.00000000000E+00 0.  1.
</event>
<event>
 8    1  0.2493819E-006  0.9118800E+02  0.7816164E-02  0.1184000E+00
        -11   -1    0    0    0    0  0.00000000000E+00  0.00000000000E+00  0.45593999997E+02  0.45594000000E+02  0.51100000000E-03 0. -1.
         11   -1    0    0    0    0 -0.00000000000E+00 -0.00000000000E+00 -0.45593999997E+02  0.45594000000E+02  0.51100000000E-03 0.  1.
         23    2    1    2    0    0 -0.35527136788E-14  0.00000000000E+00  0.00000000000E+00  0.91188000000E+02  0.91188000000E+02 0.  0.
    9900012    2    3    3    0    0 -0.18563369002E+02  0.31623998847E+02  0.33323288179E+01  0.54367076776E+02  0.39999983125E+02 0.  0.
        -12    1    3    3    0    0  0.18563369002E+02 -0.31623998847E+02 -0.33323288179E+01  0.36820923224E+02  0.00000000000E+00 0.  1.
         11    1    4    4    0    0 -0.83490676609E+01  0.61793959515E+01  0.17455687098E+01  0.10532752514E+02  0.51100000000E-03 0. -1.
        -11    1    4    4    0    0  0.10872410683E+02  0.12965684804E+02  0.76850177668E+01  0.18584342733E+02  0.51100000000E-03 0.  1.
        -12    1    4    4    0    0 -0.21086712024E+02  0.12478918091E+02 -0.60982576587E+01  0.25249981528E+02  0.00000000000E+00 0.  1.
</event>
<event>
 8    1  0.2493819E-006  0.9118800E+02  0.7816164E-02  0.1184000E+00
        -11   -1    0    0    0    0  0.00000000000E+00  0.00000000000E+00  0.45593999997E+02  0.45594000000E+02  0.51100000000E-03 0.  1.
         11   -1    0    0    0    0 -0.00000000000E+00 -0.00000000000E+00 -0.45593999997E+02  0.45594000000E+02  0.51100000000E-03 0. -1.
         23    2    1    2    0    0  0.44408920985E-15  0.00000000000E+00  0.00000000000E+00  0.91188000000E+02  0.91188000000E+02 0.  0.
    9900012    2    3    3    0    0  0.19376225185E+01  0.12348076365E+02  0.34634527206E+02  0.54367084127E+02  0.39999999884E+02 0.  0.
         12    1    3    3    0    0 -0.19376225185E+01 -0.12348076365E+02 -0.34634527206E+02  0.36820915873E+02  0.00000000000E+00 0. -1.
         11    1    4    4    0    0  0.51637863943E+01  0.82573898510E+01 -0.66074332662E+01  0.11768914636E+02  0.51100000000E-03 0. -1.
        -11    1    4    4    0    0 -0.88051327697E+00 -0.26132452745E+01  0.20257608694E+02  0.20444438480E+02  0.51100000000E-03 0.  1.
         12    1    4    4    0    0 -0.23456505989E+01  0.67039317884E+01  0.20984351778E+02  0.22153731011E+02  0.00000000000E+00 0. -1.
</event>
<event>
 8    1  0.2493819E-006  0.9118800E+02  0.7816164E-02  0.1184000E+00
        -11   -1    0    0    0    0  0.00000000000E+00  0.00000000000E+00  0.45593999997E+02  0.45594000000E+02  0.51100000000E-03 0. -1.
         11   -1    0    0    0    0 -0.00000000000E+00 -0.00000000000E+00 -0.45593999997E+02  0.45594000000E+02  0.51100000000E-03 0.  1.
         23    2    1    2    0    0 -0.17763568394E-14  0.35527136788E-14  0.00000000000E+00  0.91188000000E+02  0.91188000000E+02 0.  0.
    9900012    2    3    3    0    0  0.13263878155E+02  0.28997676845E+02  0.18411520345E+02  0.54367084645E+02  0.40000001066E+02 0.  0.
         12    1    3    3    0    0 -0.13263878155E+02 -0.28997676845E+02 -0.18411520345E+02  0.36820915355E+02  0.00000000000E+00 0. -1.
         11    1    4    4    0    0  0.14853366708E+00 -0.44765635664E+01  0.84490773849E+01  0.95628757458E+01  0.51100000000E-03 0. -1.
        -11    1    4    4    0    0 -0.69564539997E+01  0.40212659213E+01  0.21073228543E+01  0.83068430666E+01  0.51100000000E-03 0.  1.
        -12    1    4    4    0    0  0.20071798488E+02  0.29452974490E+02  0.78551201053E+01  0.36497365833E+02  0.00000000000E+00 0.  1.
</event>
<event>
 8    1  0.2493819E-006  0.9118800E+02  0.7816164E-02  0.1184000E+00
        -11   -1    0    0    0    0  0.00000000000E+00  0.00000000000E+00  0.45593999997E+02  0.45594000000E+02  0.51100000000E-03 0.  1.
         11   -1    0    0    0    0 -0.00000000000E+00 -0.00000000000E+00 -0.45593999997E+02  0.45594000000E+02  0.51100000000E-03 0. -1.
         23    2    1    2    0    0  0.00000000000E+00  0.35527136788E-14  0.00000000000E+00  0.91188000000E+02  0.91188000000E+02 0.  0.
    9900012    2    3    3    0    0 -0.89390953857E+01 -0.16889994106E+02  0.31473524174E+02  0.54367325765E+02  0.40000550742E+02 0.  0.
         12    1    3    3    0    0  0.89390953857E+01  0.16889994106E+02 -0.31473524174E+02  0.36820674235E+02  0.00000000000E+00 0. -1.
         11    1    4    4    0    0 -0.64690959435E+00 -0.21187208277E+02  0.24117240548E+02  0.32108528128E+02  0.51100000000E-03 0. -1.
        -11    1    4    4    0    0 -0.35550873138E+01 -0.15198022308E+01  0.12551613479E+02  0.13133599881E+02  0.51100000000E-03 0.  1.
         12    1    4    4    0    0 -0.47370984775E+01  0.58170164020E+01 -0.51953298534E+01  0.91251977564E+01  0.00000000000E+00 0. -1.
</event>
<event>
 8    1  0.2493819E-006  0.9118800E+02  0.7816164E-02  0.1184000E+00
        -11   -1    0    0    0    0  0.00000000000E+00  0.00000000000E+00  0.45593999997E+02  0.45594000000E+02  0.51100000000E-03 0.  1.
         11   -1    0    0    0    0 -0.00000000000E+00 -0.00000000000E+00 -0.45593999997E+02  0.45594000000E+02  0.51100000000E-03 0. -1.
         23    2    1    2    0    0  0.00000000000E+00  0.00000000000E+00  0.00000000000E+00  0.91188000000E+02  0.91188000000E+02 0.  0.
    9900012    2    3    3    0    0  0.13226947248E+02  0.18168509313E+02  0.29167331782E+02  0.54367080573E+02  0.39999991781E+02 0.  0.
         12    1    3    3    0    0 -0.13226947248E+02 -0.18168509313E+02 -0.29167331782E+02  0.36820919427E+02  0.00000000000E+00 0. -1.
         11    1    4    4    0    0 -0.63587859885E+01  0.16205994890E+02  0.26972861335E+02  0.32103016657E+02  0.51100000000E-03 0. -1.
        -11    1    4    4    0    0  0.26123200419E+00  0.19935373874E-01  0.28199564874E+01  0.28321007099E+01  0.51100000000E-03 0.  1.
         12    1    4    4    0    0  0.19324501232E+02  0.19425790496E+01 -0.62548603990E+00  0.19431963206E+02  0.00000000000E+00 0. -1.
</event>
<event>
 8    1  0.2493819E-006  0.9118800E+02  0.7816164E-02  0.1184000E+00
        -11   -1    0    0    0    0  0.00000000000E+00  0.00000000000E+00  0.45593999997E+02  0.45594000000E+02  0.51100000000E-03 0. -1.
         11   -1    0    0    0    0 -0.00000000000E+00 -0.00000000000E+00 -0.45593999997E+02  0.45594000000E+02  0.51100000000E-03 0.  1.
         23    2    1    2    0    0  0.35527136788E-14 -0.49960036108E-15  0.00000000000E+00  0.91188000000E+02  0.91188000000E+02 0.  0.
    9900012    2    3    3    0    0  0.17386542446E+02  0.31740480658E+00 -0.32455932883E+02  0.54367079542E+02  0.39999989433E+02 0.  0.
         12    1    3    3    0    0 -0.17386542446E+02 -0.31740480658E+00  0.32455932883E+02  0.36820920458E+02  0.00000000000E+00 0. -1.
         11    1    4    4    0    0  0.24990350865E+02  0.57983742835E+01 -0.99909877017E+01  0.27531048222E+02  0.51100000000E-03 0.  1.
        -11    1    4    4    0    0 -0.27931801721E+01 -0.68033347200E+01 -0.55862850645E+01  0.92354642476E+01  0.51100000000E-03 0. -1.
        -12    1    4    4    0    0 -0.48106282465E+01  0.13223652431E+01 -0.16878660117E+02  0.17600567073E+02  0.00000000000E+00 0.  1.
</event>
<event>
 8    1  0.2493819E-006  0.9118800E+02  0.7816164E-02  0.1184000E+00
        -11   -1    0    0    0    0  0.00000000000E+00  0.00000000000E+00  0.45593999997E+02  0.45594000000E+02  0.51100000000E-03 0.  1.
         11   -1    0    0    0    0 -0.00000000000E+00 -0.00000000000E+00 -0.45593999997E+02  0.45594000000E+02  0.51100000000E-03 0. -1.
         23    2    1    2    0    0  0.00000000000E+00 -0.22204460493E-15 -0.71054273576E-14  0.91188000000E+02  0.91188000000E+02 0.  0.
    9900012    2    3    3    0    0 -0.54752524610E+01 -0.17653366220E+01 -0.36368759951E+02  0.54367061618E+02  0.39999948571E+02 0.  0.
        -12    1    3    3    0    0  0.54752524610E+01  0.17653366220E+01  0.36368759951E+02  0.36820938382E+02  0.00000000000E+00 0.  1.
         11    1    4    4    0    0  0.60944469288E+01  0.11862020620E+02 -0.12628499980E+02  0.18366513783E+02  0.51100000000E-03 0. -1.
        -11    1    4    4    0    0 -0.45659782795E+01  0.47772012190E+01 -0.10008941131E+02  0.11993694675E+02  0.51100000000E-03 0.  1.
        -12    1    4    4    0    0 -0.70037211103E+01 -0.18404558461E+02 -0.13731318840E+02  0.24006853159E+02  0.00000000000E+00 0.  1.
</event>
<event>
 8    1  0.2493819E-006  0.9118800E+02  0.7816164E-02  0.1184000E+00
        -11   -1    0    0    0    0  0.00000000000E+00  0.00000000000E+00  0.45593999997E+02  0.45594000000E+02  0.51100000000E-03 0.  1.
         11   -1    0    0    0    0 -0.00000000000E+00 -0.00000000000E+00 -0.45593999997E+02  0.45594000000E+02  0.51100000000E-03 0. -1.
         23    2    1    2    0    0  0.00000000000E+00  0.35527136788E-14  0.17763568394E-14  0.91188000000E+02  0.91188000000E+02 0.  0.
    9900012    2    3    3    0    0  0.27169985316E+02 -0.20379883489E+02 -0.14220853811E+02  0.54367076109E+02  0.39999981606E+02 0.  0.
        -12    1    3    3    0    0 -0.27169985316E+02  0.20379883489E+02  0.14220853811E+02  0.36820923891E+02  0.00000000000E+00 0.  1.
         11    1    4    4    0    0  0.10142313785E+02 -0.29056476111E+02 -0.63382780480E+01  0.31421634295E+02  0.51100000000E-03 0.  1.
        -11    1    4    4    0    0  0.15107577392E+02  0.29727288636E+01 -0.44988360782E+01  0.16041057879E+02  0.51100000000E-03 0. -1.
        -12    1    4    4    0    0  0.19200941387E+01  0.57038637586E+01 -0.33837396845E+01  0.69043839357E+01  0.00000000000E+00 0.  1.
</event>
<event>
 8    1  0.2493819E-006  0.9118800E+02  0.7816164E-02  0.1184000E+00
        -11   -1    0    0    0    0  0.00000000000E+00  0.00000000000E+00  0.45593999997E+02  0.45594000000E+02  0.51100000000E-03 0.  1.
         11   -1    0    0    0    0 -0.00000000000E+00 -0.00000000000E+00 -0.45593999997E+02  0.45594000000E+02  0.51100000000E-03 0. -1.
         23    2    1    2    0    0  0.35527136788E-14  0.71054273576E-14 -0.17763568394E-14  0.91188000000E+02  0.91188000000E+02 0.  0.
    9900012    2    3    3    0    0 -0.25233337614E+02  0.25084846408E+02 -0.94767947358E+01  0.54367075447E+02  0.39999980097E+02 0.  0.
        -12    1    3    3    0    0  0.25233337614E+02 -0.25084846408E+02  0.94767947358E+01  0.36820924553E+02  0.00000000000E+00 0.  1.
         11    1    4    4    0    0 -0.27092027490E+01  0.26049350743E+02 -0.10687021919E+02  0.28286408246E+02  0.51100000000E-03 0.  1.
        -11    1    4    4    0    0 -0.74158606218E+01 -0.64607360071E+01 -0.85060852470E+00  0.98721645873E+01  0.51100000000E-03 0. -1.
        -12    1    4    4    0    0 -0.15108274243E+02  0.54962316721E+01  0.20608357075E+01  0.16208502614E+02  0.00000000000E+00 0.  1.
</event>
<event>
 8    1  0.2493819E-006  0.9118800E+02  0.7816164E-02  0.1184000E+00
        -11   -1    0    0    0    0  0.00000000000E+00  0.00000000000E+00  0.45593999997E+02  0.45594000000E+02  0.51100000000E-03 0. -1.
         11   -1    0    0    0    0 -0.00000000000E+00 -0.00000000000E+00 -0.45593999997E+02  0.45594000000E+02  0.51100000000E-03 0.  1.
         23    2    1    2    0    0  0.00000000000E+00 -0.88817841970E-15 -0.35527136788E-14  0.91188000000E+02  0.91188000000E+02 0.  0.
    9900012    2    3    3    0    0 -0.28003120659E+02  0.46167141823E+01 -0.23458293518E+02  0.54367077263E+02  0.39999984236E+02 0.  0.
         12    1    3    3    0    0  0.28003120659E+02 -0.46167141823E+01  0.23458293518E+02  0.36820922737E+02  0.00000000000E+00 0. -1.
         11    1    4    4    0    0 -0.12551417659E+02  0.14620564063E+01 -0.57954630135E+01  0.13901909436E+02  0.51100000000E-03 0. -1.
        -11    1    4    4    0    0 -0.74224343535E+01 -0.13967162379E+02 -0.14166752034E+02  0.21233723651E+02  0.51100000000E-03 0.  1.
        -12    1    4    4    0    0 -0.80292686465E+01  0.17121820154E+02 -0.34960784702E+01  0.19231444175E+02  0.00000000000E+00 0.  1.
</event>
<event>
 8    1  0.2493819E-006  0.9118800E+02  0.7816164E-02  0.1184000E+00
        -11   -1    0    0    0    0  0.00000000000E+00  0.00000000000E+00  0.45593999997E+02  0.45594000000E+02  0.51100000000E-03 0.  1.
         11   -1    0    0    0    0 -0.00000000000E+00 -0.00000000000E+00 -0.45593999997E+02  0.45594000000E+02  0.51100000000E-03 0. -1.
         23    2    1    2    0    0  0.35527136788E-14  0.17763568394E-14 -0.35527136788E-14  0.91188000000E+02  0.91188000000E+02 0.  0.
    9900012    2    3    3    0    0 -0.24892241281E+02  0.13878957540E+02 -0.23313695961E+02  0.54367115196E+02  0.40000070713E+02 0.  0.
        -12    1    3    3    0    0  0.24892241281E+02 -0.13878957540E+02  0.23313695961E+02  0.36820884804E+02  0.00000000000E+00 0.  1.
         11    1    4    4    0    0  0.42706642323E+01  0.24617951801E+01 -0.12754802926E+01  0.50917441738E+01  0.51100000000E-03 0. -1.
        -11    1    4    4    0    0 -0.32642641506E+01  0.75134782694E+01  0.65608927460E+01  0.10495384225E+02  0.51100000000E-03 0.  1.
         12    1    4    4    0    0 -0.25898641362E+02  0.39036840910E+01 -0.28599108414E+02  0.38779986797E+02  0.00000000000E+00 0. -1.
</event>
<event>
 8    1  0.2493819E-006  0.9118800E+02  0.7816164E-02  0.1184000E+00
        -11   -1    0    0    0    0  0.00000000000E+00  0.00000000000E+00  0.45593999997E+02  0.45594000000E+02  0.51100000000E-03 0.  1.
         11   -1    0    0    0    0 -0.00000000000E+00 -0.00000000000E+00 -0.45593999997E+02  0.45594000000E+02  0.51100000000E-03 0. -1.
         23    2    1    2    0    0  0.00000000000E+00 -0.35527136788E-14  0.12143064332E-14  0.91188000000E+02  0.91188000000E+02 0.  0.
    9900012    2    3    3    0    0 -0.25298440195E+02 -0.26753855900E+02 -0.73231682200E-02  0.54367082909E+02  0.39999997107E+02 0.  0.
        -12    1    3    3    0    0  0.25298440195E+02  0.26753855900E+02  0.73231682200E-02  0.36820917091E+02  0.00000000000E+00 0.  1.
         11    1    4    4    0    0 -0.54928865048E+01 -0.13036527288E+02  0.12001591046E+02  0.18551577663E+02  0.51100000000E-03 0. -1.
        -11    1    4    4    0    0  0.51127212670E+01  0.10128087709E+00 -0.30148602735E+01  0.59362917128E+01  0.51100000000E-03 0.  1.
         12    1    4    4    0    0 -0.24918274957E+02 -0.13818609488E+02 -0.89940539410E+01  0.29879213533E+02  0.00000000000E+00 0. -1.
</event>
<event>
 8    1  0.2493819E-006  0.9118800E+02  0.7816164E-02  0.1184000E+00
        -11   -1    0    0    0    0  0.00000000000E+00  0.00000000000E+00  0.45593999997E+02  0.45594000000E+02  0.51100000000E-03 0.  1.
         11   -1    0    0    0    0 -0.00000000000E+00 -0.00000000000E+00 -0.45593999997E+02  0.45594000000E+02  0.51100000000E-03 0. -1.
         23    2    1    2    0    0  0.00000000000E+00  0.00000000000E+00 -0.35527136788E-14  0.91188000000E+02  0.91188000000E+02 0.  0.
    9900012    2    3    3    0    0 -0.16670316303E+02 -0.27943232652E+02 -0.17235445437E+02  0.54367023966E+02  0.39999862735E+02 0.  0.
         12    1    3    3    0    0  0.16670316303E+02  0.27943232652E+02  0.17235445437E+02  0.36820976034E+02  0.00000000000E+00 0. -1.
         11    1    4    4    0    0 -0.14826028099E+02 -0.64900691459E+01  0.34316891747E+01  0.16544140884E+02  0.51100000000E-03 0. -1.
        -11    1    4    4    0    0 -0.11475178378E+02 -0.48331586704E+01 -0.87326607485E+01  0.15208501095E+02  0.51100000000E-03 0.  1.
         12    1    4    4    0    0  0.96308901744E+01 -0.16620004836E+02 -0.11934473863E+02  0.22614381987E+02  0.00000000000E+00 0. -1.
</event>
<event>
 8    1  0.2493819E-006  0.9118800E+02  0.7816164E-02  0.1184000E+00
        -11   -1    0    0    0    0  0.00000000000E+00  0.00000000000E+00  0.45593999997E+02  0.45594000000E+02  0.51100000000E-03 0.  1.
         11   -1    0    0    0    0 -0.00000000000E+00 -0.00000000000E+00 -0.45593999997E+02  0.45594000000E+02  0.51100000000E-03 0. -1.
         23    2    1    2    0    0  0.35527136788E-14  0.00000000000E+00  0.00000000000E+00  0.91188000000E+02  0.91188000000E+02 0.  0.
    9900012    2    3    3    0    0  0.28856608713E+02 -0.88194476922E+01 -0.21101949640E+02  0.54367098292E+02  0.40000032176E+02 0.  0.
        -12    1    3    3    0    0 -0.28856608713E+02  0.88194476922E+01  0.21101949640E+02  0.36820901708E+02  0.00000000000E+00 0.  1.
         11    1    4    4    0    0  0.69271242148E+01  0.60353389214E+01 -0.87289684155E+01  0.12673012887E+02  0.51100000000E-03 0. -1.
        -11    1    4    4    0    0 -0.51476293501E+01 -0.85339790943E+01  0.23384997580E+01  0.10236965785E+02  0.51100000000E-03 0.  1.
         12    1    4    4    0    0  0.27077113848E+02 -0.63208075193E+01 -0.14711480982E+02  0.31457119619E+02  0.00000000000E+00 0. -1.
</event>
<event>
 8    1  0.2493819E-006  0.9118800E+02  0.7816164E-02  0.1184000E+00
        -11   -1    0    0    0    0  0.00000000000E+00  0.00000000000E+00  0.45593999997E+02  0.45594000000E+02  0.51100000000E-03 0.  1.
         11   -1    0    0    0    0 -0.00000000000E+00 -0.00000000000E+00 -0.45593999997E+02  0.45594000000E+02  0.51100000000E-03 0. -1.
         23    2    1    2    0    0  0.00000000000E+00  0.00000000000E+00  0.17763568394E-14  0.91188000000E+02  0.91188000000E+02 0.  0.
    9900012    2    3    3    0    0 -0.29708747154E+02 -0.18286893490E+02  0.11779625344E+02  0.54367086048E+02  0.40000004264E+02 0.  0.
        -12    1    3    3    0    0  0.29708747154E+02  0.18286893490E+02 -0.11779625344E+02  0.36820913952E+02  0.00000000000E+00 0.  1.
         11    1    4    4    0    0 -0.93137117197E+01 -0.74175441987E+01 -0.63112355017E+01  0.13475788725E+02  0.51100000000E-03 0. -1.
        -11    1    4    4    0    0 -0.14245542539E+01 -0.31617455776E+01 -0.74132835007E+01  0.81842997527E+01  0.51100000000E-03 0.  1.
        -12    1    4    4    0    0 -0.18970481181E+02 -0.77076037140E+01  0.25504144347E+02  0.32706997571E+02  0.00000000000E+00 0.  1.
</event>
<event>
 8    1  0.2493819E-006  0.9118800E+02  0.7816164E-02  0.1184000E+00
        -11   -1    0    0    0    0  0.00000000000E+00  0.00000000000E+00  0.45593999997E+02  0.45594000000E+02  0.51100000000E-03 0.  1.
         11   -1    0    0    0    0 -0.00000000000E+00 -0.00000000000E+00 -0.45593999997E+02  0.45594000000E+02  0.51100000000E-03 0. -1.
         23    2    1    2    0    0  0.00000000000E+00  0.88817841970E-15  0.00000000000E+00  0.91188000000E+02  0.91188000000E+02 0.  0.
    9900012    2    3    3    0    0  0.32509922898E+02 -0.21171623377E+01  0.17158157407E+02  0.54367084357E+02  0.40000000408E+02 0.  0.
         12    1    3    3    0    0 -0.32509922898E+02  0.21171623377E+01 -0.17158157407E+02  0.36820915643E+02  0.00000000000E+00 0. -1.
         11    1    4    4    0    0  0.15880384874E+02  0.73748878622E+01 -0.83660979605E+01  0.19405339216E+02  0.51100000000E-03 0. -1.
        -11    1    4    4    0    0  0.11769895426E+02 -0.10414258754E+02  0.99021098797E+01  0.18575225546E+02  0.51100000000E-03 0.  1.
        -12    1    4    4    0    0  0.48596425979E+01  0.92220855427E+00  0.15622145488E+02  0.16386519595E+02  0.00000000000E+00 0.  1.
</event>
<event>
 8    1  0.2493819E-006  0.9118800E+02  0.7816164E-02  0.1184000E+00
        -11   -1    0    0    0    0  0.00000000000E+00  0.00000000000E+00  0.45593999997E+02  0.45594000000E+02  0.51100000000E-03 0.  1.
         11   -1    0    0    0    0 -0.00000000000E+00 -0.00000000000E+00 -0.45593999997E+02  0.45594000000E+02  0.51100000000E-03 0. -1.
         23    2    1    2    0    0  0.00000000000E+00  0.35527136788E-14 -0.71054273576E-14  0.91188000000E+02  0.91188000000E+02 0.  0.
    9900012    2    3    3    0    0 -0.13789161726E+02 -0.73593869113E+01  0.33338857139E+02  0.54367069102E+02  0.39999965632E+02 0.  0.
         12    1    3    3    0    0  0.13789161726E+02  0.73593869113E+01 -0.33338857139E+02  0.36820930898E+02  0.00000000000E+00 0. -1.
         11    1    4    4    0    0 -0.55559328666E+00 -0.16166383644E+02  0.88023284197E+01  0.18415798378E+02  0.51100000000E-03 0. -1.
        -11    1    4    4    0    0 -0.12844267749E+00 -0.59133422468E+01  0.93777546530E+01  0.11087217714E+02  0.51100000000E-03 0.  1.
        -12    1    4    4    0    0 -0.13105125762E+02  0.14720338979E+02  0.15158774067E+02  0.24864053010E+02  0.00000000000E+00 0.  1.
</event>
<event>
 8    1  0.2493819E-006  0.9118800E+02  0.7816164E-02  0.1184000E+00
        -11   -1    0    0    0    0  0.00000000000E+00  0.00000000000E+00  0.45593999997E+02  0.45594000000E+02  0.51100000000E-03 0. -1.
         11   -1    0    0    0    0 -0.00000000000E+00 -0.00000000000E+00 -0.45593999997E+02  0.45594000000E+02  0.51100000000E-03 0.  1.
         23    2    1    2    0    0  0.00000000000E+00 -0.71054273576E-14  0.00000000000E+00  0.91188000000E+02  0.91188000000E+02 0.  0.
    9900012    2    3    3    0    0 -0.13328730335E+02 -0.33835631278E+02  0.57684616387E+01  0.54367080049E+02  0.39999990588E+02 0.  0.
         12    1    3    3    0    0  0.13328730335E+02  0.33835631278E+02 -0.57684616387E+01  0.36820919951E+02  0.00000000000E+00 0. -1.
         11    1    4    4    0    0 -0.16693998406E+02  0.34900769706E+00  0.96064088565E+01  0.19263812720E+02  0.51100000000E-03 0. -1.
        -11    1    4    4    0    0  0.24339158327E+01 -0.11367902060E+02  0.12959431557E+01  0.11697547283E+02  0.51100000000E-03 0.  1.
         12    1    4    4    0    0  0.93135223764E+00 -0.22816736916E+02 -0.51338903734E+01  0.23405720045E+02  0.00000000000E+00 0. -1.
</event>
<event>
 8    1  0.2493819E-006  0.9118800E+02  0.7816164E-02  0.1184000E+00
        -11   -1    0    0    0    0  0.00000000000E+00  0.00000000000E+00  0.45593999997E+02  0.45594000000E+02  0.51100000000E-03 0. -1.
         11   -1    0    0    0    0 -0.00000000000E+00 -0.00000000000E+00 -0.45593999997E+02  0.45594000000E+02  0.51100000000E-03 0.  1.
         23    2    1    2    0    0  0.00000000000E+00 -0.71054273576E-14  0.42188474936E-14  0.91188000000E+02  0.91188000000E+02 0.  0.
    9900012    2    3    3    0    0 -0.12321127694E+02 -0.34649009303E+02 -0.18486317496E+01  0.54367062034E+02  0.39999949519E+02 0.  0.
        -12    1    3    3    0    0  0.12321127694E+02  0.34649009303E+02  0.18486317496E+01  0.36820937966E+02  0.00000000000E+00 0.  1.
         11    1    4    4    0    0 -0.14777776658E+02 -0.21430502948E+02 -0.19075441119E+02  0.32272613679E+02  0.51100000000E-03 0. -1.
        -11    1    4    4    0    0  0.98572896613E+00 -0.73206790887E+01  0.11931147712E+02  0.14032686482E+02  0.51100000000E-03 0.  1.
         12    1    4    4    0    0  0.14709199982E+01 -0.58978272667E+01  0.52956616578E+01  0.80617618734E+01  0.00000000000E+00 0. -1.
</event>
<event>
 8    1  0.2493819E-006  0.9118800E+02  0.7816164E-02  0.1184000E+00
        -11   -1    0    0    0    0  0.00000000000E+00  0.00000000000E+00  0.45593999997E+02  0.45594000000E+02  0.51100000000E-03 0. -1.
         11   -1    0    0    0    0 -0.00000000000E+00 -0.00000000000E+00 -0.45593999997E+02  0.45594000000E+02  0.51100000000E-03 0.  1.
         23    2    1    2    0    0  0.00000000000E+00 -0.71054273576E-14 -0.17763568394E-14  0.91188000000E+02  0.91188000000E+02 0.  0.
    9900012    2    3    3    0    0 -0.16586837563E+02 -0.31155843323E+02 -0.10486690993E+02  0.54367076037E+02  0.39999981441E+02 0.  0.
         12    1    3    3    0    0  0.16586837563E+02  0.31155843323E+02  0.10486690993E+02  0.36820923963E+02  0.00000000000E+00 0. -1.
         11    1    4    4    0    0  0.26547913442E+01 -0.30031874621E+01  0.74868003862E+01  0.84923042985E+01  0.51100000000E-03 0. -1.
        -11    1    4    4    0    0 -0.70459917201E+01 -0.28337871824E+02 -0.84459081304E+01  0.30397604235E+02  0.51100000000E-03 0.  1.
        -12    1    4    4    0    0 -0.12195637188E+02  0.18521596254E+00 -0.95275832487E+01  0.15477167503E+02  0.00000000000E+00 0.  1.
</event>
<event>
 8    1  0.2493819E-006  0.9118800E+02  0.7816164E-02  0.1184000E+00
        -11   -1    0    0    0    0  0.00000000000E+00  0.00000000000E+00  0.45593999997E+02  0.45594000000E+02  0.51100000000E-03 0.  1.
         11   -1    0    0    0    0 -0.00000000000E+00 -0.00000000000E+00 -0.45593999997E+02  0.45594000000E+02  0.51100000000E-03 0. -1.
         23    2    1    2    0    0  0.88817841970E-15  0.00000000000E+00  0.00000000000E+00  0.91188000000E+02  0.91188000000E+02 0.  0.
    9900012    2    3    3    0    0 -0.59970092046E+01 -0.70951031364E+00 -0.36322350532E+02  0.54367072901E+02  0.39999974292E+02 0.  0.
        -12    1    3    3    0    0  0.59970092046E+01  0.70951031364E+00  0.36322350532E+02  0.36820927099E+02  0.00000000000E+00 0.  1.
         11    1    4    4    0    0  0.44826792300E+01  0.69967955139E+01 -0.55462466511E+01  0.99905161387E+01  0.51100000000E-03 0. -1.
        -11    1    4    4    0    0 -0.45684532491E+01  0.15714905739E+01 -0.32831686498E+02  0.33185237475E+02  0.51100000000E-03 0.  1.
        -12    1    4    4    0    0 -0.59112351854E+01 -0.92777964015E+01  0.20555826177E+01  0.11191319287E+02  0.00000000000E+00 0.  1.
</event>
<event>
 8    1  0.2493819E-006  0.9118800E+02  0.7816164E-02  0.1184000E+00
        -11   -1    0    0    0    0  0.00000000000E+00  0.00000000000E+00  0.45593999997E+02  0.45594000000E+02  0.51100000000E-03 0. -1.
         11   -1    0    0    0    0 -0.00000000000E+00 -0.00000000000E+00 -0.45593999997E+02  0.45594000000E+02  0.51100000000E-03 0.  1.
         23    2    1    2    0    0  0.35527136788E-14 -0.17763568394E-14  0.00000000000E+00  0.91188000000E+02  0.91188000000E+02 0.  0.
    9900012    2    3    3    0    0 -0.12700732634E+02 -0.74942317531E+01 -0.33738812638E+02  0.54367087501E+02  0.40000007577E+02 0.  0.
         12    1    3    3    0    0  0.12700732634E+02  0.74942317531E+01  0.33738812638E+02  0.36820912499E+02  0.00000000000E+00 0. -1.
         11    1    4    4    0    0 -0.29528202215E+01  0.92649657443E+01 -0.17621598730E+02  0.20126586386E+02  0.51100000000E-03 0. -1.
        -11    1    4    4    0    0  0.13613381292E+01 -0.52899945859E+01  0.52432928013E+01  0.75716183133E+01  0.51100000000E-03 0.  1.
        -12    1    4    4    0    0 -0.11109250541E+02 -0.11469202912E+02 -0.21360506709E+02  0.26668882802E+02  0.00000000000E+00 0.  1.
</event>
<event>
 8    1  0.2493819E-006  0.9118800E+02  0.7816164E-02  0.1184000E+00
        -11   -1    0    0    0    0  0.00000000000E+00  0.00000000000E+00  0.45593999997E+02  0.45594000000E+02  0.51100000000E-03 0.  1.
         11   -1    0    0    0    0 -0.00000000000E+00 -0.00000000000E+00 -0.45593999997E+02  0.45594000000E+02  0.51100000000E-03 0. -1.
         23    2    1    2    0    0  0.71054273576E-14 -0.17763568394E-14  0.22204460493E-15  0.91188000000E+02  0.91188000000E+02 0.  0.
    9900012    2    3    3    0    0  0.34840578709E+02  0.11818332940E+02  0.14973671972E+01  0.54367068089E+02  0.39999963323E+02 0.  0.
         12    1    3    3    0    0 -0.34840578709E+02 -0.11818332940E+02 -0.14973671972E+01  0.36820931911E+02  0.00000000000E+00 0. -1.
         11    1    4    4    0    0  0.61559080959E+01 -0.27826805769E+01  0.12495480280E+01  0.68702173338E+01  0.51100000000E-03 0. -1.
        -11    1    4    4    0    0  0.25228084783E+02 -0.40373567830E+01 -0.80739050175E+01  0.26794485517E+02  0.51100000000E-03 0.  1.
         12    1    4    4    0    0  0.34565858300E+01  0.18638370300E+02  0.83217241867E+01  0.20702365239E+02  0.00000000000E+00 0. -1.
</event>
<event>
 8    1  0.2493819E-006  0.9118800E+02  0.7816164E-02  0.1184000E+00
        -11   -1    0    0    0    0  0.00000000000E+00  0.00000000000E+00  0.45593999997E+02  0.45594000000E+02  0.51100000000E-03 0. -1.
         11   -1    0    0    0    0 -0.00000000000E+00 -0.00000000000E+00 -0.45593999997E+02  0.45594000000E+02  0.51100000000E-03 0.  1.
         23    2    1    2    0    0  0.00000000000E+00  0.00000000000E+00  0.00000000000E+00  0.91188000000E+02  0.91188000000E+02 0.  0.
    9900012    2    3    3    0    0  0.84420734968E+01  0.27753898093E+02 -0.22676689365E+02  0.54367086041E+02  0.40000004247E+02 0.  0.
         12    1    3    3    0    0 -0.84420734968E+01 -0.27753898093E+02  0.22676689365E+02  0.36820913959E+02  0.00000000000E+00 0. -1.
         11    1    4    4    0    0 -0.29961762836E+01  0.18398039473E+02 -0.25269790405E+02  0.31401070621E+02  0.51100000000E-03 0. -1.
        -11    1    4    4    0    0  0.16065920418E+02  0.63699401694E+01  0.14678194242E+01  0.17344867562E+02  0.51100000000E-03 0.  1.
         12    1    4    4    0    0 -0.46276706373E+01  0.29859184506E+01  0.11252816161E+01  0.56211478576E+01  0.00000000000E+00 0. -1.
</event>
<event>
 8    1  0.2493819E-006  0.9118800E+02  0.7816164E-02  0.1184000E+00
        -11   -1    0    0    0    0  0.00000000000E+00  0.00000000000E+00  0.45593999997E+02  0.45594000000E+02  0.51100000000E-03 0. -1.
         11   -1    0    0    0    0 -0.00000000000E+00 -0.00000000000E+00 -0.45593999997E+02  0.45594000000E+02  0.51100000000E-03 0.  1.
         23    2    1    2    0    0  0.00000000000E+00  0.00000000000E+00  0.00000000000E+00  0.91188000000E+02  0.91188000000E+02 0.  0.
    9900012    2    3    3    0    0 -0.26854781840E+02 -0.24490031672E+02  0.59026617706E+01  0.54367049782E+02  0.39999921588E+02 0.  0.
        -12    1    3    3    0    0  0.26854781840E+02  0.24490031672E+02 -0.59026617706E+01  0.36820950218E+02  0.00000000000E+00 0.  1.
         11    1    4    4    0    0  0.15496033080E+01  0.21689906221E+01  0.16294216915E+01  0.31242288713E+01  0.51100000000E-03 0. -1.
        -11    1    4    4    0    0  0.40186099990E+01  0.45436875073E+01  0.53291393290E+00  0.60891969922E+01  0.51100000000E-03 0.  1.
         12    1    4    4    0    0 -0.32422995147E+02 -0.31202709801E+02  0.37403261461E+01  0.45153623918E+02  0.00000000000E+00 0. -1.
</event>
<event>
 8    1  0.2493819E-006  0.9118800E+02  0.7816164E-02  0.1184000E+00
        -11   -1    0    0    0    0  0.00000000000E+00  0.00000000000E+00  0.45593999997E+02  0.45594000000E+02  0.51100000000E-03 0.  1.
         11   -1    0    0    0    0 -0.00000000000E+00 -0.00000000000E+00 -0.45593999997E+02  0.45594000000E+02  0.51100000000E-03 0. -1.
         23    2    1    2    0    0 -0.35527136788E-14  0.71054273576E-14  0.35527136788E-14  0.91188000000E+02  0.91188000000E+02 0.  0.
    9900012    2    3    3    0    0  0.19910604493E+02 -0.22914954719E+02 -0.20838791623E+02  0.54367047305E+02  0.39999915942E+02 0.  0.
        -12    1    3    3    0    0 -0.19910604493E+02  0.22914954719E+02  0.20838791623E+02  0.36820952695E+02  0.00000000000E+00 0.  1.
         11    1    4    4    0    0  0.66781680559E+00  0.29548471485E+00 -0.62080253582E+01  0.62508295139E+01  0.51100000000E-03 0. -1.
        -11    1    4    4    0    0  0.50677363242E+00  0.93064330435E+00  0.92641156106E+01  0.93245243729E+01  0.51100000000E-03 0.  1.
         12    1    4    4    0    0  0.18736014055E+02 -0.24141082738E+02 -0.23894881876E+02  0.38791693418E+02  0.00000000000E+00 0. -1.
</event>
<event>
 8    1  0.2493819E-006  0.9118800E+02  0.7816164E-02  0.1184000E+00
        -11   -1    0    0    0    0  0.00000000000E+00  0.00000000000E+00  0.45593999997E+02  0.45594000000E+02  0.51100000000E-03 0. -1.
         11   -1    0    0    0    0 -0.00000000000E+00 -0.00000000000E+00 -0.45593999997E+02  0.45594000000E+02  0.51100000000E-03 0.  1.
         23    2    1    2    0    0  0.00000000000E+00  0.00000000000E+00  0.00000000000E+00  0.91188000000E+02  0.91188000000E+02 0.  0.
    9900012    2    3    3    0    0 -0.18135952587E+02  0.32031993339E+02  0.90438096840E+00  0.54367091830E+02  0.40000017446E+02 0.  0.
        -12    1    3    3    0    0  0.18135952587E+02 -0.32031993339E+02 -0.90438096840E+00  0.36820908170E+02  0.00000000000E+00 0.  1.
         11    1    4    4    0    0 -0.64871140202E+01  0.84591393242E+01  0.16101256705E+01  0.10781103439E+02  0.51100000000E-03 0. -1.
        -11    1    4    4    0    0 -0.84149647527E+01 -0.80784832755E+01 -0.14925043925E+01  0.11760148530E+02  0.51100000000E-03 0.  1.
        -12    1    4    4    0    0 -0.32338738138E+01  0.31651337290E+02  0.78675969043E+00  0.31825839862E+02  0.00000000000E+00 0.  1.
</event>
<event>
 8    1  0.2493819E-006  0.9118800E+02  0.7816164E-02  0.1184000E+00
        -11   -1    0    0    0    0  0.00000000000E+00  0.00000000000E+00  0.45593999997E+02  0.45594000000E+02  0.51100000000E-03 0. -1.
         11   -1    0    0    0    0 -0.00000000000E+00 -0.00000000000E+00 -0.45593999997E+02  0.45594000000E+02  0.51100000000E-03 0.  1.
         23    2    1    2    0    0 -0.88817841970E-15 -0.35527136788E-14  0.00000000000E+00  0.91188000000E+02  0.91188000000E+02 0.  0.
    9900012    2    3    3    0    0 -0.37087512990E+01 -0.18216047026E+02  0.31783664607E+02  0.54367074682E+02  0.39999978352E+02 0.  0.
        -12    1    3    3    0    0  0.37087512990E+01  0.18216047026E+02 -0.31783664607E+02  0.36820925318E+02  0.00000000000E+00 0.  1.
         11    1    4    4    0    0  0.69622878055E+01 -0.72539413123E+01 -0.20250034843E+01  0.10256400705E+02  0.51100000000E-03 0. -1.
        -11    1    4    4    0    0  0.18537520720E+01  0.62118656848E+01  0.44415615056E+01  0.78581894161E+01  0.51100000000E-03 0.  1.
         12    1    4    4    0    0 -0.12524791177E+02 -0.17173971398E+02  0.29367106586E+02  0.36252484561E+02  0.00000000000E+00 0. -1.
</event>
<event>
 8    1  0.2493819E-006  0.9118800E+02  0.7816164E-02  0.1184000E+00
        -11   -1    0    0    0    0  0.00000000000E+00  0.00000000000E+00  0.45593999997E+02  0.45594000000E+02  0.51100000000E-03 0.  1.
         11   -1    0    0    0    0 -0.00000000000E+00 -0.00000000000E+00 -0.45593999997E+02  0.45594000000E+02  0.51100000000E-03 0. -1.
         23    2    1    2    0    0 -0.35527136788E-14  0.00000000000E+00 -0.35527136788E-14  0.91188000000E+02  0.91188000000E+02 0.  0.
    9900012    2    3    3    0    0 -0.26342212467E+02  0.55755945097E+01 -0.25115360183E+02  0.54367072134E+02  0.39999972543E+02 0.  0.
        -12    1    3    3    0    0  0.26342212467E+02 -0.55755945097E+01  0.25115360183E+02  0.36820927866E+02  0.00000000000E+00 0.  1.
         11    1    4    4    0    0  0.45971940942E+01  0.32893844539E+00  0.12729397550E+01  0.47815028936E+01  0.51100000000E-03 0. -1.
        -11    1    4    4    0    0 -0.14458000908E+02 -0.57728244089E+01 -0.25329820609E+02  0.29731449750E+02  0.51100000000E-03 0.  1.
        -12    1    4    4    0    0 -0.16481405654E+02  0.11019480473E+02 -0.10584793291E+01  0.19854119490E+02  0.00000000000E+00 0.  1.
</event>
<event>
 8    1  0.2493819E-006  0.9118800E+02  0.7816164E-02  0.1184000E+00
        -11   -1    0    0    0    0  0.00000000000E+00  0.00000000000E+00  0.45593999997E+02  0.45594000000E+02  0.51100000000E-03 0. -1.
         11   -1    0    0    0    0 -0.00000000000E+00 -0.00000000000E+00 -0.45593999997E+02  0.45594000000E+02  0.51100000000E-03 0.  1.
         23    2    1    2    0    0  0.00000000000E+00  0.00000000000E+00 -0.88817841970E-15  0.91188000000E+02  0.91188000000E+02 0.  0.
    9900012    2    3    3    0    0 -0.29646424146E+02  0.20332977776E+02 -0.79647280537E+01  0.54367118114E+02  0.40000077365E+02 0.  0.
         12    1    3    3    0    0  0.29646424146E+02 -0.20332977776E+02  0.79647280537E+01  0.36820881886E+02  0.00000000000E+00 0. -1.
         11    1    4    4    0    0 -0.12738035471E+02 -0.62860165887E+01  0.60534031008E+01  0.15440700812E+02  0.51100000000E-03 0. -1.
        -11    1    4    4    0    0 -0.15104553890E+02  0.15262243961E+02 -0.91397850257E+00  0.21492300852E+02  0.51100000000E-03 0.  1.
        -12    1    4    4    0    0 -0.18038347851E+01  0.11356750404E+02 -0.13104152652E+02  0.17434116450E+02  0.00000000000E+00 0.  1.
</event>
<event>
 8    1  0.2493819E-006  0.9118800E+02  0.7816164E-02  0.1184000E+00
        -11   -1    0    0    0    0  0.00000000000E+00  0.00000000000E+00  0.45593999997E+02  0.45594000000E+02  0.51100000000E-03 0. -1.
         11   -1    0    0    0    0 -0.00000000000E+00 -0.00000000000E+00 -0.45593999997E+02  0.45594000000E+02  0.51100000000E-03 0.  1.
         23    2    1    2    0    0  0.00000000000E+00  0.35527136788E-14  0.00000000000E+00  0.91188000000E+02  0.91188000000E+02 0.  0.
    9900012    2    3    3    0    0 -0.23797668219E+02 -0.26951542447E+02 -0.79414082212E+01  0.54367073647E+02  0.39999975993E+02 0.  0.
         12    1    3    3    0    0  0.23797668219E+02  0.26951542447E+02  0.79414082212E+01  0.36820926353E+02  0.00000000000E+00 0. -1.
         11    1    4    4    0    0  0.38294315124E+01  0.49286810160E+01  0.65841758029E+01  0.90723653768E+01  0.51100000000E-03 0. -1.
        -11    1    4    4    0    0 -0.80998746026E+01 -0.48495651548E+01 -0.46061387242E+01  0.10504416451E+02  0.51100000000E-03 0.  1.
         12    1    4    4    0    0 -0.19527225129E+02 -0.27030658308E+02 -0.99194452999E+01  0.34790291819E+02  0.00000000000E+00 0. -1.
</event>
<event>
 8    1  0.2493819E-006  0.9118800E+02  0.7816164E-02  0.1184000E+00
        -11   -1    0    0    0    0  0.00000000000E+00  0.00000000000E+00  0.45593999997E+02  0.45594000000E+02  0.51100000000E-03 0. -1.
         11   -1    0    0    0    0 -0.00000000000E+00 -0.00000000000E+00 -0.45593999997E+02  0.45594000000E+02  0.51100000000E-03 0.  1.
         23    2    1    2    0    0  0.00000000000E+00  0.17763568394E-14  0.00000000000E+00  0.91188000000E+02  0.91188000000E+02 0.  0.
    9900012    2    3    3    0    0 -0.27939505231E+02 -0.15755181541E+02  0.18081433966E+02  0.54367082681E+02  0.39999996589E+02 0.  0.
        -12    1    3    3    0    0  0.27939505231E+02  0.15755181541E+02 -0.18081433966E+02  0.36820917319E+02  0.00000000000E+00 0.  1.
         11    1    4    4    0    0 -0.98352062591E+01 -0.15799290345E+02  0.23525940686E+02  0.29996978898E+02  0.51100000000E-03 0. -1.
        -11    1    4    4    0    0  0.10625076525E+01 -0.14897368289E+01 -0.47936427618E+01  0.51310086260E+01  0.51100000000E-03 0.  1.
         12    1    4    4    0    0 -0.19166806624E+02  0.15338456334E+01 -0.65086395846E+00  0.19239095158E+02  0.00000000000E+00 0. -1.
</event>
<event>
 8    1  0.2493819E-006  0.9118800E+02  0.7816164E-02  0.1184000E+00
        -11   -1    0    0    0    0  0.00000000000E+00  0.00000000000E+00  0.45593999997E+02  0.45594000000E+02  0.51100000000E-03 0.  1.
         11   -1    0    0    0    0 -0.00000000000E+00 -0.00000000000E+00 -0.45593999997E+02  0.45594000000E+02  0.51100000000E-03 0. -1.
         23    2    1    2    0    0  0.00000000000E+00  0.00000000000E+00 -0.44408920985E-15  0.91188000000E+02  0.91188000000E+02 0.  0.
    9900012    2    3    3    0    0 -0.14986294052E+02 -0.33617457121E+02 -0.10282702124E+01  0.54367085123E+02  0.40000002156E+02 0.  0.
         12    1    3    3    0    0  0.14986294052E+02  0.33617457121E+02  0.10282702124E+01  0.36820914877E+02  0.00000000000E+00 0. -1.
         11    1    4    4    0    0  0.16853629280E+01  0.30663194303E+01  0.86977129726E+00  0.36054494059E+01  0.51100000000E-03 0. -1.
        -11    1    4    4    0    0 -0.84028433045E+01  0.61697283109E+00 -0.85237518412E+01  0.11985106457E+02  0.51100000000E-03 0.  1.
        -12    1    4    4    0    0 -0.82688136759E+01 -0.37300749382E+02  0.66257103315E+01  0.38776529261E+02  0.00000000000E+00 0.  1.
</event>
<event>
 8    1  0.2493819E-006  0.9118800E+02  0.7816164E-02  0.1184000E+00
        -11   -1    0    0    0    0  0.00000000000E+00  0.00000000000E+00  0.45593999997E+02  0.45594000000E+02  0.51100000000E-03 0.  1.
         11   -1    0    0    0    0 -0.00000000000E+00 -0.00000000000E+00 -0.45593999997E+02  0.45594000000E+02  0.51100000000E-03 0. -1.
         23    2    1    2    0    0 -0.17763568394E-14  0.00000000000E+00  0.00000000000E+00  0.91188000000E+02  0.91188000000E+02 0.  0.
    9900012    2    3    3    0    0  0.12797568606E+02  0.33138482801E+02 -0.96872182902E+01  0.54367095574E+02  0.40000025979E+02 0.  0.
         12    1    3    3    0    0 -0.12797568606E+02 -0.33138482801E+02  0.96872182902E+01  0.36820904426E+02  0.00000000000E+00 0. -1.
         11    1    4    4    0    0  0.21033759770E+02  0.16106477407E+02  0.41862317740E+01  0.26820928419E+02  0.51100000000E-03 0. -1.
        -11    1    4    4    0    0 -0.89709423136E+00  0.28994328188E+01  0.30538846444E+01  0.43055429870E+01  0.51100000000E-03 0.  1.
         12    1    4    4    0    0 -0.73390969325E+01  0.14132572575E+02 -0.16927334709E+02  0.23240624168E+02  0.00000000000E+00 0. -1.
</event>
<event>
 8    1  0.2493819E-006  0.9118800E+02  0.7816164E-02  0.1184000E+00
        -11   -1    0    0    0    0  0.00000000000E+00  0.00000000000E+00  0.45593999997E+02  0.45594000000E+02  0.51100000000E-03 0.  1.
         11   -1    0    0    0    0 -0.00000000000E+00 -0.00000000000E+00 -0.45593999997E+02  0.45594000000E+02  0.51100000000E-03 0. -1.
         23    2    1    2    0    0  0.00000000000E+00  0.00000000000E+00  0.31086244690E-14  0.91188000000E+02  0.91188000000E+02 0.  0.
    9900012    2    3    3    0    0  0.78774759471E+01 -0.35819666546E+02  0.32674994500E+01  0.54367086222E+02  0.40000004661E+02 0.  0.
        -12    1    3    3    0    0 -0.78774759471E+01  0.35819666546E+02 -0.32674994500E+01  0.36820913778E+02  0.00000000000E+00 0.  1.
         11    1    4    4    0    0  0.11240894219E+02 -0.32671703944E+02  0.15359983557E+02  0.37811731468E+02  0.51100000000E-03 0. -1.
        -11    1    4    4    0    0  0.23519527326E+01 -0.74502551695E+00 -0.95343369471E+01  0.98483666645E+01  0.51100000000E-03 0.  1.
        -12    1    4    4    0    0 -0.57153710044E+01 -0.24029370848E+01 -0.25581471598E+01  0.67069880903E+01  0.00000000000E+00 0.  1.
</event>
<event>
 8    1  0.2493819E-006  0.9118800E+02  0.7816164E-02  0.1184000E+00
        -11   -1    0    0    0    0  0.00000000000E+00  0.00000000000E+00  0.45593999997E+02  0.45594000000E+02  0.51100000000E-03 0.  1.
         11   -1    0    0    0    0 -0.00000000000E+00 -0.00000000000E+00 -0.45593999997E+02  0.45594000000E+02  0.51100000000E-03 0. -1.
         23    2    1    2    0    0  0.00000000000E+00  0.00000000000E+00  0.66613381478E-15  0.91188000000E+02  0.91188000000E+02 0.  0.
    9900012    2    3    3    0    0 -0.17285411067E+02  0.32507069405E+02  0.53369926828E+00  0.54367084314E+02  0.40000000312E+02 0.  0.
        -12    1    3    3    0    0  0.17285411067E+02 -0.32507069405E+02 -0.53369926828E+00  0.36820915686E+02  0.00000000000E+00 0.  1.
         11    1    4    4    0    0  0.14491868748E+01  0.19677481541E+02  0.69205641870E+01  0.20909271420E+02  0.51100000000E-03 0. -1.
        -11    1    4    4    0    0 -0.24398779986E+02  0.11671590858E+02 -0.48819501438E+01  0.27483812243E+02  0.51100000000E-03 0.  1.
        -12    1    4    4    0    0  0.56641820446E+01  0.11579970061E+01 -0.15049147749E+01  0.59740006512E+01  0.00000000000E+00 0.  1.
</event>
<event>
 8    1  0.2493819E-006  0.9118800E+02  0.7816164E-02  0.1184000E+00
        -11   -1    0    0    0    0  0.00000000000E+00  0.00000000000E+00  0.45593999997E+02  0.45594000000E+02  0.51100000000E-03 0.  1.
         11   -1    0    0    0    0 -0.00000000000E+00 -0.00000000000E+00 -0.45593999997E+02  0.45594000000E+02  0.51100000000E-03 0. -1.
         23    2    1    2    0    0  0.00000000000E+00 -0.17763568394E-14 -0.88817841970E-15  0.91188000000E+02  0.91188000000E+02 0.  0.
    9900012    2    3    3    0    0  0.35733574786E+02 -0.62275689089E+01  0.63331350821E+01  0.54367087716E+02  0.40000008065E+02 0.  0.
         12    1    3    3    0    0 -0.35733574786E+02  0.62275689089E+01 -0.63331350821E+01  0.36820912284E+02  0.00000000000E+00 0. -1.
         11    1    4    4    0    0  0.16185284297E+02 -0.21191242318E+01 -0.10248259953E+02  0.19273841018E+02  0.51100000000E-03 0. -1.
        -11    1    4    4    0    0  0.18901565823E+02  0.41691131281E+01  0.36062015591E+01  0.19688966067E+02  0.51100000000E-03 0.  1.
         12    1    4    4    0    0  0.64672466595E+00 -0.82775578052E+01  0.12975193475E+02  0.15404280630E+02  0.00000000000E+00 0. -1.
</event>
<event>
 8    1  0.2493819E-006  0.9118800E+02  0.7816164E-02  0.1184000E+00
        -11   -1    0    0    0    0  0.00000000000E+00  0.00000000000E+00  0.45593999997E+02  0.45594000000E+02  0.51100000000E-03 0.  1.
         11   -1    0    0    0    0 -0.00000000000E+00 -0.00000000000E+00 -0.45593999997E+02  0.45594000000E+02  0.51100000000E-03 0. -1.
         23    2    1    2    0    0  0.00000000000E+00  0.13322676296E-14  0.00000000000E+00  0.91188000000E+02  0.91188000000E+02 0.  0.
    9900012    2    3    3    0    0  0.33873610088E+02 -0.30597197468E+01  0.14106603749E+02  0.54367087265E+02  0.40000007037E+02 0.  0.
         12    1    3    3    0    0 -0.33873610088E+02  0.30597197468E+01 -0.14106603749E+02  0.36820912735E+02  0.00000000000E+00 0. -1.
         11    1    4    4    0    0  0.10448117459E+02 -0.11322961272E+02  0.22683187547E+01  0.15572985605E+02  0.51100000000E-03 0. -1.
        -11    1    4    4    0    0  0.24922310575E+02 -0.21301749281E+01  0.32397214184E+01  0.25222113408E+02  0.51100000000E-03 0.  1.
         12    1    4    4    0    0 -0.14968179460E+01  0.10393416454E+02  0.85985635759E+01  0.13571988252E+02  0.00000000000E+00 0. -1.
</event>
<event>
 8    1  0.2493819E-006  0.9118800E+02  0.7816164E-02  0.1184000E+00
        -11   -1    0    0    0    0  0.00000000000E+00  0.00000000000E+00  0.45593999997E+02  0.45594000000E+02  0.51100000000E-03 0.  1.
         11   -1    0    0    0    0 -0.00000000000E+00 -0.00000000000E+00 -0.45593999997E+02  0.45594000000E+02  0.51100000000E-03 0. -1.
         23    2    1    2    0    0  0.88817841970E-15 -0.41633363423E-15 -0.71054273576E-14  0.91188000000E+02  0.91188000000E+02 0.  0.
    9900012    2    3    3    0    0 -0.55309468455E+01 -0.44431238120E-01  0.36403091400E+02  0.54367103615E+02  0.40000044310E+02 0.  0.
         12    1    3    3    0    0  0.55309468455E+01  0.44431238120E-01 -0.36403091400E+02  0.36820896385E+02  0.00000000000E+00 0. -1.
         11    1    4    4    0    0  0.12640742011E+02 -0.48878137014E+01  0.22911457495E+02  0.26619804023E+02  0.51100000000E-03 0.  1.
        -11    1    4    4    0    0 -0.26068846570E+01 -0.47446524243E+01  0.75297612891E+00  0.54657613883E+01  0.51100000000E-03 0. -1.
        -12    1    4    4    0    0 -0.15564804200E+02  0.95880348876E+01  0.12738657776E+02  0.22281538204E+02  0.00000000000E+00 0.  1.
</event>
<event>
 8    1  0.2493819E-006  0.9118800E+02  0.7816164E-02  0.1184000E+00
        -11   -1    0    0    0    0  0.00000000000E+00  0.00000000000E+00  0.45593999997E+02  0.45594000000E+02  0.51100000000E-03 0. -1.
         11   -1    0    0    0    0 -0.00000000000E+00 -0.00000000000E+00 -0.45593999997E+02  0.45594000000E+02  0.51100000000E-03 0.  1.
         23    2    1    2    0    0 -0.88817841970E-15  0.00000000000E+00  0.35527136788E-14  0.91188000000E+02  0.91188000000E+02 0.  0.
    9900012    2    3    3    0    0  0.58583228854E+01  0.34558499376E+02  0.11277006087E+02  0.54367072629E+02  0.39999973672E+02 0.  0.
        -12    1    3    3    0    0 -0.58583228854E+01 -0.34558499376E+02 -0.11277006087E+02  0.36820927371E+02  0.00000000000E+00 0.  1.
         11    1    4    4    0    0  0.28751813437E+01  0.13927192274E+02  0.19330626967E+02  0.23998051829E+02  0.51100000000E-03 0. -1.
        -11    1    4    4    0    0 -0.38567310440E+01  0.83382629988E+01  0.56046048470E+01  0.10761626268E+02  0.51100000000E-03 0.  1.
        -12    1    4    4    0    0  0.68398725857E+01  0.12293044103E+02 -0.13658225727E+02  0.19607394532E+02  0.00000000000E+00 0.  1.
</event>
<event>
 8    1  0.2493819E-006  0.9118800E+02  0.7816164E-02  0.1184000E+00
        -11   -1    0    0    0    0  0.00000000000E+00  0.00000000000E+00  0.45593999997E+02  0.45594000000E+02  0.51100000000E-03 0. -1.
         11   -1    0    0    0    0 -0.00000000000E+00 -0.00000000000E+00 -0.45593999997E+02  0.45594000000E+02  0.51100000000E-03 0.  1.
         23    2    1    2    0    0  0.71054273576E-14  0.35527136788E-14  0.00000000000E+00  0.91188000000E+02  0.91188000000E+02 0.  0.
    9900012    2    3    3    0    0 -0.27048033669E+02 -0.14153548554E+02  0.20587938326E+02  0.54367051254E+02  0.39999924944E+02 0.  0.
         12    1    3    3    0    0  0.27048033669E+02  0.14153548554E+02 -0.20587938326E+02  0.36820948746E+02  0.00000000000E+00 0. -1.
         11    1    4    4    0    0 -0.16409499278E+02 -0.35600003656E+01  0.20858303726E+02  0.26777119034E+02  0.51100000000E-03 0. -1.
        -11    1    4    4    0    0 -0.31280501028E+01 -0.41923632091E+01  0.11258560101E+02  0.12414337780E+02  0.51100000000E-03 0.  1.
        -12    1    4    4    0    0 -0.75104842879E+01 -0.64011849792E+01 -0.11528925501E+02  0.15175594440E+02  0.00000000000E+00 0.  1.
</event>
<event>
 8    1  0.2493819E-006  0.9118800E+02  0.7816164E-02  0.1184000E+00
        -11   -1    0    0    0    0  0.00000000000E+00  0.00000000000E+00  0.45593999997E+02  0.45594000000E+02  0.51100000000E-03 0. -1.
         11   -1    0    0    0    0 -0.00000000000E+00 -0.00000000000E+00 -0.45593999997E+02  0.45594000000E+02  0.51100000000E-03 0.  1.
         23    2    1    2    0    0 -0.17763568394E-14  0.00000000000E+00  0.00000000000E+00  0.91188000000E+02  0.91188000000E+02 0.  0.
    9900012    2    3    3    0    0 -0.10975913084E+02 -0.81578898517E+01  0.34187331419E+02  0.54366872038E+02  0.39999516381E+02 0.  0.
        -12    1    3    3    0    0  0.10975913084E+02  0.81578898517E+01 -0.34187331419E+02  0.36821127962E+02  0.00000000000E+00 0.  1.
         11    1    4    4    0    0  0.55828641386E+01 -0.44351724915E+01  0.26467950384E+02  0.27411521753E+02  0.51100000000E-03 0. -1.
        -11    1    4    4    0    0  0.15996656031E+01  0.42205447939E+01  0.53419803303E+01  0.69934742803E+01  0.51100000000E-03 0.  1.
         12    1    4    4    0    0 -0.18158442826E+02 -0.79432621540E+01  0.23774007051E+01  0.19961876004E+02  0.00000000000E+00 0. -1.
</event>
<event>
 8    1  0.2493819E-006  0.9118800E+02  0.7816164E-02  0.1184000E+00
        -11   -1    0    0    0    0  0.00000000000E+00  0.00000000000E+00  0.45593999997E+02  0.45594000000E+02  0.51100000000E-03 0.  1.
         11   -1    0    0    0    0 -0.00000000000E+00 -0.00000000000E+00 -0.45593999997E+02  0.45594000000E+02  0.51100000000E-03 0. -1.
         23    2    1    2    0    0  0.00000000000E+00  0.00000000000E+00  0.35527136788E-14  0.91188000000E+02  0.91188000000E+02 0.  0.
    9900012    2    3    3    0    0  0.20908076479E+02 -0.72494775433E+01 -0.29429180904E+02  0.54367091872E+02  0.40000017540E+02 0.  0.
        -12    1    3    3    0    0 -0.20908076479E+02  0.72494775433E+01  0.29429180904E+02  0.36820908128E+02  0.00000000000E+00 0.  1.
         11    1    4    4    0    0  0.26627655087E+02 -0.67081746373E+01 -0.20354932742E+02  0.34181206965E+02  0.51100000000E-03 0. -1.
        -11    1    4    4    0    0  0.30686590951E+01 -0.52956650826E+01 -0.80918227139E+01  0.10145852966E+02  0.51100000000E-03 0.  1.
        -12    1    4    4    0    0 -0.87882377024E+01  0.47543621766E+01 -0.98242544853E+00  0.10040031941E+02  0.00000000000E+00 0.  1.
</event>
<event>
 8    1  0.2493819E-006  0.9118800E+02  0.7816164E-02  0.1184000E+00
        -11   -1    0    0    0    0  0.00000000000E+00  0.00000000000E+00  0.45593999997E+02  0.45594000000E+02  0.51100000000E-03 0.  1.
         11   -1    0    0    0    0 -0.00000000000E+00 -0.00000000000E+00 -0.45593999997E+02  0.45594000000E+02  0.51100000000E-03 0. -1.
         23    2    1    2    0    0 -0.35527136788E-14 -0.17763568394E-14  0.00000000000E+00  0.91188000000E+02  0.91188000000E+02 0.  0.
    9900012    2    3    3    0    0 -0.30581893459E+02 -0.15751334447E+02  0.13130974089E+02  0.54367092557E+02  0.40000019103E+02 0.  0.
         12    1    3    3    0    0  0.30581893459E+02  0.15751334447E+02 -0.13130974089E+02  0.36820907443E+02  0.00000000000E+00 0. -1.
         11    1    4    4    0    0 -0.71820317801E+01 -0.21911303476E+02  0.18105142065E+02  0.29316939983E+02  0.51100000000E-03 0. -1.
        -11    1    4    4    0    0 -0.47396155978E+01  0.92328785905E+00  0.64328077718E+00  0.48713680733E+01  0.51100000000E-03 0.  1.
        -12    1    4    4    0    0 -0.18660246081E+02  0.52366811696E+01 -0.56174487532E+01  0.20178784502E+02  0.00000000000E+00 0.  1.
</event>
<event>
 8    1  0.2493819E-006  0.9118800E+02  0.7816164E-02  0.1184000E+00
        -11   -1    0    0    0    0  0.00000000000E+00  0.00000000000E+00  0.45593999997E+02  0.45594000000E+02  0.51100000000E-03 0.  1.
         11   -1    0    0    0    0 -0.00000000000E+00 -0.00000000000E+00 -0.45593999997E+02  0.45594000000E+02  0.51100000000E-03 0. -1.
         23    2    1    2    0    0  0.35527136788E-14  0.71054273576E-14  0.35527136788E-14  0.91188000000E+02  0.91188000000E+02 0.  0.
    9900012    2    3    3    0    0  0.13750107057E+02  0.21788257182E+02  0.26305681207E+02  0.54367048643E+02  0.39999918990E+02 0.  0.
         12    1    3    3    0    0 -0.13750107057E+02 -0.21788257182E+02 -0.26305681207E+02  0.36820951357E+02  0.00000000000E+00 0. -1.
         11    1    4    4    0    0  0.46238404667E+01 -0.40301793957E+01 -0.72165015321E+01  0.94710158508E+01  0.51100000000E-03 0. -1.
        -11    1    4    4    0    0  0.25756627188E+01  0.15152136454E+02  0.26253312310E+02  0.30421336017E+02  0.51100000000E-03 0.  1.
         12    1    4    4    0    0  0.65506038717E+01  0.10666300123E+02  0.72688704294E+01  0.14474696775E+02  0.00000000000E+00 0. -1.
</event>
<event>
 8    1  0.2493819E-006  0.9118800E+02  0.7816164E-02  0.1184000E+00
        -11   -1    0    0    0    0  0.00000000000E+00  0.00000000000E+00  0.45593999997E+02  0.45594000000E+02  0.51100000000E-03 0.  1.
         11   -1    0    0    0    0 -0.00000000000E+00 -0.00000000000E+00 -0.45593999997E+02  0.45594000000E+02  0.51100000000E-03 0. -1.
         23    2    1    2    0    0  0.00000000000E+00  0.17763568394E-14 -0.17763568394E-14  0.91188000000E+02  0.91188000000E+02 0.  0.
    9900012    2    3    3    0    0  0.32401283919E+02  0.88797102803E+01 -0.15069364884E+02  0.54367106308E+02  0.40000050451E+02 0.  0.
        -12    1    3    3    0    0 -0.32401283919E+02 -0.88797102803E+01  0.15069364884E+02  0.36820893692E+02  0.00000000000E+00 0.  1.
         11    1    4    4    0    0 -0.30593585018E+01 -0.72275511579E+01  0.39551318889E+01  0.87886425972E+01  0.51100000000E-03 0. -1.
        -11    1    4    4    0    0  0.13895932766E+02  0.13577465239E+02 -0.11621372482E+02  0.22638480700E+02  0.51100000000E-03 0.  1.
        -12    1    4    4    0    0  0.21564709655E+02  0.25297961988E+01 -0.74031242904E+01  0.22939983011E+02  0.00000000000E+00 0.  1.
</event>
<event>
 8    1  0.2493819E-006  0.9118800E+02  0.7816164E-02  0.1184000E+00
        -11   -1    0    0    0    0  0.00000000000E+00  0.00000000000E+00  0.45593999997E+02  0.45594000000E+02  0.51100000000E-03 0.  1.
         11   -1    0    0    0    0 -0.00000000000E+00 -0.00000000000E+00 -0.45593999997E+02  0.45594000000E+02  0.51100000000E-03 0. -1.
         23    2    1    2    0    0  0.00000000000E+00  0.00000000000E+00  0.00000000000E+00  0.91188000000E+02  0.91188000000E+02 0.  0.
    9900012    2    3    3    0    0 -0.15023947898E+02 -0.11207732152E+02  0.31693051364E+02  0.54367057927E+02  0.39999940155E+02 0.  0.
         12    1    3    3    0    0  0.15023947898E+02  0.11207732152E+02 -0.31693051364E+02  0.36820942073E+02  0.00000000000E+00 0. -1.
         11    1    4    4    0    0 -0.11092043662E+02 -0.13043628885E+02  0.88538970751E+01  0.19275922306E+02  0.51100000000E-03 0. -1.
        -11    1    4    4    0    0 -0.10744451059E+02  0.87454494368E+01  0.21087434873E+02  0.25231052776E+02  0.51100000000E-03 0.  1.
         12    1    4    4    0    0  0.68125468227E+01 -0.69095527043E+01  0.17517194154E+01  0.98600828443E+01  0.00000000000E+00 0. -1.
</event>
<event>
 8    1  0.2493819E-006  0.9118800E+02  0.7816164E-02  0.1184000E+00
        -11   -1    0    0    0    0  0.00000000000E+00  0.00000000000E+00  0.45593999997E+02  0.45594000000E+02  0.51100000000E-03 0.  1.
         11   -1    0    0    0    0 -0.00000000000E+00 -0.00000000000E+00 -0.45593999997E+02  0.45594000000E+02  0.51100000000E-03 0. -1.
         23    2    1    2    0    0 -0.35527136788E-14  0.00000000000E+00 -0.26645352591E-14  0.91188000000E+02  0.91188000000E+02 0.  0.
    9900012    2    3    3    0    0  0.26761587839E+02 -0.24428420246E+02  0.65459672151E+01  0.54367082220E+02  0.39999995536E+02 0.  0.
         12    1    3    3    0    0 -0.26761587839E+02  0.24428420246E+02 -0.65459672151E+01  0.36820917780E+02  0.00000000000E+00 0. -1.
         11    1    4    4    0    0 -0.62136218881E+01  0.38103157172E+01 -0.14397791814E+01  0.74297084186E+01  0.51100000000E-03 0. -1.
        -11    1    4    4    0    0  0.27014534420E+02 -0.20119106340E+02 -0.62015937768E+00  0.33688990899E+02  0.51100000000E-03 0.  1.
        -12    1    4    4    0    0  0.59606753074E+01 -0.81196296232E+01  0.86059057742E+01  0.13248382903E+02  0.00000000000E+00 0.  1.
</event>
<event>
 8    1  0.2493819E-006  0.9118800E+02  0.7816164E-02  0.1184000E+00
        -11   -1    0    0    0    0  0.00000000000E+00  0.00000000000E+00  0.45593999997E+02  0.45594000000E+02  0.51100000000E-03 0.  1.
         11   -1    0    0    0    0 -0.00000000000E+00 -0.00000000000E+00 -0.45593999997E+02  0.45594000000E+02  0.51100000000E-03 0. -1.
         23    2    1    2    0    0  0.17763568394E-14 -0.17763568394E-14  0.00000000000E+00  0.91188000000E+02  0.91188000000E+02 0.  0.
    9900012    2    3    3    0    0  0.14118533475E+02 -0.10562034450E+02  0.32324765173E+02  0.54367081995E+02  0.39999995024E+02 0.  0.
         12    1    3    3    0    0 -0.14118533475E+02  0.10562034450E+02 -0.32324765173E+02  0.36820918005E+02  0.00000000000E+00 0. -1.
         11    1    4    4    0    0  0.10735806330E+02  0.35471284762E+01  0.29430087340E+02  0.31527284994E+02  0.51100000000E-03 0. -1.
        -11    1    4    4    0    0 -0.19266189259E+01  0.28644236486E+01  0.36698571980E+01  0.50383167268E+01  0.51100000000E-03 0.  1.
         12    1    4    4    0    0  0.53093460704E+01 -0.16973586575E+02 -0.77517936459E+00  0.17801480274E+02  0.00000000000E+00 0. -1.
</event>
<event>
 8    1  0.2493819E-006  0.9118800E+02  0.7816164E-02  0.1184000E+00
        -11   -1    0    0    0    0  0.00000000000E+00  0.00000000000E+00  0.45593999997E+02  0.45594000000E+02  0.51100000000E-03 0.  1.
         11   -1    0    0    0    0 -0.00000000000E+00 -0.00000000000E+00 -0.45593999997E+02  0.45594000000E+02  0.51100000000E-03 0. -1.
         23    2    1    2    0    0 -0.35527136788E-14 -0.17763568394E-14  0.00000000000E+00  0.91188000000E+02  0.91188000000E+02 0.  0.
    9900012    2    3    3    0    0 -0.24691785506E+02 -0.10624593611E+02  0.25163815802E+02  0.54367029255E+02  0.39999874793E+02 0.  0.
         12    1    3    3    0    0  0.24691785506E+02  0.10624593611E+02 -0.25163815802E+02  0.36820970745E+02  0.00000000000E+00 0. -1.
         11    1    4    4    0    0 -0.94331100805E+01 -0.89580375197E+01 -0.23802631555E+01  0.13224812095E+02  0.51100000000E-03 0. -1.
        -11    1    4    4    0    0 -0.22141252164E+02 -0.49076147186E+01  0.22899336647E+02  0.32228858942E+02  0.51100000000E-03 0.  1.
        -12    1    4    4    0    0  0.68825767386E+01  0.32410586274E+01  0.46447423112E+01  0.89133582182E+01  0.00000000000E+00 0.  1.
</event>
<event>
 8    1  0.2493819E-006  0.9118800E+02  0.7816164E-02  0.1184000E+00
        -11   -1    0    0    0    0  0.00000000000E+00  0.00000000000E+00  0.45593999997E+02  0.45594000000E+02  0.51100000000E-03 0. -1.
         11   -1    0    0    0    0 -0.00000000000E+00 -0.00000000000E+00 -0.45593999997E+02  0.45594000000E+02  0.51100000000E-03 0.  1.
         23    2    1    2    0    0  0.00000000000E+00 -0.88817841970E-15  0.00000000000E+00  0.91188000000E+02  0.91188000000E+02 0.  0.
    9900012    2    3    3    0    0 -0.58116803320E+01 -0.33410424166E+01  0.36205543312E+02  0.54367088017E+02  0.40000008753E+02 0.  0.
        -12    1    3    3    0    0  0.58116803320E+01  0.33410424166E+01 -0.36205543312E+02  0.36820911983E+02  0.00000000000E+00 0.  1.
         11    1    4    4    0    0  0.25134314875E+00 -0.15067612468E+02  0.18957466334E+02  0.24217383197E+02  0.51100000000E-03 0. -1.
        -11    1    4    4    0    0  0.70375292749E+01  0.69258967057E+01  0.11233320479E+02  0.14956013931E+02  0.51100000000E-03 0.  1.
         12    1    4    4    0    0 -0.13100552756E+02  0.48006733458E+01  0.60147564996E+01  0.15193690889E+02  0.00000000000E+00 0. -1.
</event>
<event>
 8    1  0.2493819E-006  0.9118800E+02  0.7816164E-02  0.1184000E+00
        -11   -1    0    0    0    0  0.00000000000E+00  0.00000000000E+00  0.45593999997E+02  0.45594000000E+02  0.51100000000E-03 0.  1.
         11   -1    0    0    0    0 -0.00000000000E+00 -0.00000000000E+00 -0.45593999997E+02  0.45594000000E+02  0.51100000000E-03 0. -1.
         23    2    1    2    0    0 -0.35527136788E-14  0.00000000000E+00 -0.35527136788E-14  0.91188000000E+02  0.91188000000E+02 0.  0.
    9900012    2    3    3    0    0 -0.26668028053E+02 -0.11485491463E+02 -0.22642443234E+02  0.54367075650E+02  0.39999980558E+02 0.  0.
        -12    1    3    3    0    0  0.26668028053E+02  0.11485491463E+02  0.22642443234E+02  0.36820924350E+02  0.00000000000E+00 0.  1.
         11    1    4    4    0    0 -0.99210682963E+01 -0.87305049176E+01 -0.43979589446E+01  0.13928077951E+02  0.51100000000E-03 0. -1.
        -11    1    4    4    0    0 -0.38809427756E+00 -0.15104295864E+02 -0.45172617120E+01  0.15770099059E+02  0.51100000000E-03 0.  1.
         12    1    4    4    0    0 -0.16358865480E+02  0.12349309318E+02 -0.13727222577E+02  0.24668898640E+02  0.00000000000E+00 0. -1.
</event>
<event>
 8    1  0.2493819E-006  0.9118800E+02  0.7816164E-02  0.1184000E+00
        -11   -1    0    0    0    0  0.00000000000E+00  0.00000000000E+00  0.45593999997E+02  0.45594000000E+02  0.51100000000E-03 0. -1.
         11   -1    0    0    0    0 -0.00000000000E+00 -0.00000000000E+00 -0.45593999997E+02  0.45594000000E+02  0.51100000000E-03 0.  1.
         23    2    1    2    0    0  0.00000000000E+00  0.00000000000E+00  0.17763568394E-14  0.91188000000E+02  0.91188000000E+02 0.  0.
    9900012    2    3    3    0    0  0.33254051376E+02  0.12310945474E+02  0.99191184138E+01  0.54367079025E+02  0.39999988252E+02 0.  0.
        -12    1    3    3    0    0 -0.33254051376E+02 -0.12310945474E+02 -0.99191184138E+01  0.36820920975E+02  0.00000000000E+00 0.  1.
         11    1    4    4    0    0  0.39032834779E+01  0.27105682251E+01  0.12572352383E+02  0.13440492800E+02  0.51100000000E-03 0. -1.
        -11    1    4    4    0    0  0.16832351048E+02  0.15960113345E+02  0.65925727287E+01  0.24114627827E+02  0.51100000000E-03 0.  1.
        -12    1    4    4    0    0  0.12518416850E+02 -0.63597360965E+01 -0.92458066980E+01  0.16811958397E+02  0.00000000000E+00 0.  1.
</event>
<event>
 8    1  0.2493819E-006  0.9118800E+02  0.7816164E-02  0.1184000E+00
        -11   -1    0    0    0    0  0.00000000000E+00  0.00000000000E+00  0.45593999997E+02  0.45594000000E+02  0.51100000000E-03 0.  1.
         11   -1    0    0    0    0 -0.00000000000E+00 -0.00000000000E+00 -0.45593999997E+02  0.45594000000E+02  0.51100000000E-03 0. -1.
         23    2    1    2    0    0  0.35527136788E-14  0.00000000000E+00  0.00000000000E+00  0.91188000000E+02  0.91188000000E+02 0.  0.
    9900012    2    3    3    0    0  0.21008656360E+02 -0.29546816303E+02 -0.64345514001E+01  0.54367062377E+02  0.39999950302E+02 0.  0.
        -12    1    3    3    0    0 -0.21008656360E+02  0.29546816303E+02  0.64345514001E+01  0.36820937623E+02  0.00000000000E+00 0.  1.
         11    1    4    4    0    0  0.29415793322E+02 -0.26621985978E+02  0.32105545572E+01  0.39803601533E+02  0.51100000000E-03 0. -1.
        -11    1    4    4    0    0 -0.26229042885E+01  0.13561618087E+01 -0.61396336999E+00  0.30159166167E+01  0.51100000000E-03 0.  1.
         12    1    4    4    0    0 -0.57842326731E+01 -0.42809921340E+01 -0.90311425874E+01  0.11547544228E+02  0.00000000000E+00 0. -1.
</event>
<event>
 8    1  0.2493819E-006  0.9118800E+02  0.7816164E-02  0.1184000E+00
        -11   -1    0    0    0    0  0.00000000000E+00  0.00000000000E+00  0.45593999997E+02  0.45594000000E+02  0.51100000000E-03 0.  1.
         11   -1    0    0    0    0 -0.00000000000E+00 -0.00000000000E+00 -0.45593999997E+02  0.45594000000E+02  0.51100000000E-03 0. -1.
         23    2    1    2    0    0 -0.71054273576E-14 -0.88817841970E-15 -0.88817841970E-15  0.91188000000E+02  0.91188000000E+02 0.  0.
    9900012    2    3    3    0    0 -0.35480966269E+02 -0.64850249335E+01  0.74043854659E+01  0.54367089637E+02  0.40000012446E+02 0.  0.
         12    1    3    3    0    0  0.35480966269E+02  0.64850249335E+01 -0.74043854659E+01  0.36820910363E+02  0.00000000000E+00 0. -1.
         11    1    4    4    0    0  0.73555535145E+00  0.10054237010E+02  0.89298802391E+01  0.13467423097E+02  0.51100000000E-03 0. -1.
        -11    1    4    4    0    0 -0.18410295127E+02 -0.58891988063E+01 -0.47450973542E+01  0.19903205230E+02  0.51100000000E-03 0.  1.
        -12    1    4    4    0    0 -0.17806226494E+02 -0.10650063138E+02  0.32196025810E+01  0.20996461310E+02  0.00000000000E+00 0.  1.
</event>
<event>
 8    1  0.2493819E-006  0.9118800E+02  0.7816164E-02  0.1184000E+00
        -11   -1    0    0    0    0  0.00000000000E+00  0.00000000000E+00  0.45593999997E+02  0.45594000000E+02  0.51100000000E-03 0. -1.
         11   -1    0    0    0    0 -0.00000000000E+00 -0.00000000000E+00 -0.45593999997E+02  0.45594000000E+02  0.51100000000E-03 0.  1.
         23    2    1    2    0    0  0.00000000000E+00  0.00000000000E+00  0.14432899320E-14  0.91188000000E+02  0.91188000000E+02 0.  0.
    9900012    2    3    3    0    0  0.33972516001E+02  0.14189626843E+02  0.55069082412E+00  0.54367073698E+02  0.39999976109E+02 0.  0.
        -12    1    3    3    0    0 -0.33972516001E+02 -0.14189626843E+02 -0.55069082412E+00  0.36820926302E+02  0.00000000000E+00 0.  1.
         11    1    4    4    0    0  0.81499401659E+01  0.45433629677E+01  0.10227990313E+02  0.13844690602E+02  0.51100000000E-03 0. -1.
        -11    1    4    4    0    0  0.31730705600E+01  0.12031708705E+02  0.50194089357E+01  0.13417334216E+02  0.51100000000E-03 0.  1.
         12    1    4    4    0    0  0.22649505275E+02 -0.23854448299E+01 -0.14696708425E+02  0.27105048879E+02  0.00000000000E+00 0. -1.
</event>
<event>
 8    1  0.2493819E-006  0.9118800E+02  0.7816164E-02  0.1184000E+00
        -11   -1    0    0    0    0  0.00000000000E+00  0.00000000000E+00  0.45593999997E+02  0.45594000000E+02  0.51100000000E-03 0.  1.
         11   -1    0    0    0    0 -0.00000000000E+00 -0.00000000000E+00 -0.45593999997E+02  0.45594000000E+02  0.51100000000E-03 0. -1.
         23    2    1    2    0    0 -0.35527136788E-14  0.88817841970E-15  0.00000000000E+00  0.91188000000E+02  0.91188000000E+02 0.  0.
    9900012    2    3    3    0    0 -0.31604371970E+02  0.50714843270E+01  0.18199515125E+02  0.54367100612E+02  0.40000037466E+02 0.  0.
         12    1    3    3    0    0  0.31604371970E+02 -0.50714843270E+01 -0.18199515125E+02  0.36820899388E+02  0.00000000000E+00 0. -1.
         11    1    4    4    0    0 -0.24545477044E+02  0.19321975007E+02  0.65124887639E+01  0.31909742582E+02  0.51100000000E-03 0. -1.
        -11    1    4    4    0    0 -0.35347148669E+01 -0.95664179878E+01  0.12927214771E+02  0.16465826560E+02  0.51100000000E-03 0.  1.
         12    1    4    4    0    0 -0.35241800600E+01 -0.46840726920E+01 -0.12401884097E+01  0.59915314712E+01  0.00000000000E+00 0. -1.
</event>
<event>
 8    1  0.2493819E-006  0.9118800E+02  0.7816164E-02  0.1184000E+00
        -11   -1    0    0    0    0  0.00000000000E+00  0.00000000000E+00  0.45593999997E+02  0.45594000000E+02  0.51100000000E-03 0.  1.
         11   -1    0    0    0    0 -0.00000000000E+00 -0.00000000000E+00 -0.45593999997E+02  0.45594000000E+02  0.51100000000E-03 0. -1.
         23    2    1    2    0    0 -0.35527136788E-14  0.00000000000E+00  0.00000000000E+00  0.91188000000E+02  0.91188000000E+02 0.  0.
    9900012    2    3    3    0    0  0.21526718435E+02 -0.26236094592E+02 -0.14284460834E+02  0.54367108005E+02  0.40000054319E+02 0.  0.
         12    1    3    3    0    0 -0.21526718435E+02  0.26236094592E+02  0.14284460834E+02  0.36820891995E+02  0.00000000000E+00 0. -1.
         11    1    4    4    0    0 -0.24472132833E+01  0.15645913289E-01 -0.18333716813E+01  0.30578341406E+01  0.51100000000E-03 0.  1.
        -11    1    4    4    0    0  0.21360414845E+02 -0.19189271747E+02 -0.24066815696E+02  0.37466079199E+02  0.51100000000E-03 0. -1.
        -12    1    4    4    0    0  0.26135168727E+01 -0.70624687582E+01  0.11615726544E+02  0.13843194665E+02  0.00000000000E+00 0.  1.
</event>
<event>
 8    1  0.2493819E-006  0.9118800E+02  0.7816164E-02  0.1184000E+00
        -11   -1    0    0    0    0  0.00000000000E+00  0.00000000000E+00  0.45593999997E+02  0.45594000000E+02  0.51100000000E-03 0.  1.
         11   -1    0    0    0    0 -0.00000000000E+00 -0.00000000000E+00 -0.45593999997E+02  0.45594000000E+02  0.51100000000E-03 0. -1.
         23    2    1    2    0    0  0.00000000000E+00  0.71054273576E-14 -0.17763568394E-14  0.91188000000E+02  0.91188000000E+02 0.  0.
    9900012    2    3    3    0    0  0.16420522264E+02  0.29313804000E+02 -0.15061350308E+02  0.54367123727E+02  0.40000090161E+02 0.  0.
        -12    1    3    3    0    0 -0.16420522264E+02 -0.29313804000E+02  0.15061350308E+02  0.36820876273E+02  0.00000000000E+00 0.  1.
         11    1    4    4    0    0  0.66395856466E+01 -0.55415076434E+01 -0.12167431899E+01  0.87334339621E+01  0.51100000000E-03 0. -1.
        -11    1    4    4    0    0  0.75064466305E+01  0.30505729056E+02 -0.50505609158E+00  0.31419760155E+02  0.51100000000E-03 0.  1.
         12    1    4    4    0    0  0.22744899871E+01  0.43495825873E+01 -0.13339551027E+02  0.14213929611E+02  0.00000000000E+00 0. -1.
</event>
<event>
 8    1  0.2493819E-006  0.9118800E+02  0.7816164E-02  0.1184000E+00
        -11   -1    0    0    0    0  0.00000000000E+00  0.00000000000E+00  0.45593999997E+02  0.45594000000E+02  0.51100000000E-03 0. -1.
         11   -1    0    0    0    0 -0.00000000000E+00 -0.00000000000E+00 -0.45593999997E+02  0.45594000000E+02  0.51100000000E-03 0.  1.
         23    2    1    2    0    0  0.00000000000E+00  0.44408920985E-15 -0.17763568394E-14  0.91188000000E+02  0.91188000000E+02 0.  0.
    9900012    2    3    3    0    0 -0.33740324451E+02 -0.14872117987E+01  0.14668314440E+02  0.54367071964E+02  0.39999972155E+02 0.  0.
        -12    1    3    3    0    0  0.33740324451E+02  0.14872117987E+01 -0.14668314440E+02  0.36820928036E+02  0.00000000000E+00 0.  1.
         11    1    4    4    0    0 -0.14040347505E+02 -0.14711202758E+02  0.14912606075E+02  0.25217784694E+02  0.51100000000E-03 0. -1.
        -11    1    4    4    0    0 -0.11980181534E+02 -0.11525528607E-01 -0.51792989027E+01  0.13051820555E+02  0.51100000000E-03 0.  1.
        -12    1    4    4    0    0 -0.77197954115E+01  0.13235516488E+02  0.49350072677E+01  0.16097466715E+02  0.00000000000E+00 0.  1.
</event>
<event>
 8    1  0.2493819E-006  0.9118800E+02  0.7816164E-02  0.1184000E+00
        -11   -1    0    0    0    0  0.00000000000E+00  0.00000000000E+00  0.45593999997E+02  0.45594000000E+02  0.51100000000E-03 0.  1.
         11   -1    0    0    0    0 -0.00000000000E+00 -0.00000000000E+00 -0.45593999997E+02  0.45594000000E+02  0.51100000000E-03 0. -1.
         23    2    1    2    0    0  0.00000000000E+00  0.00000000000E+00  0.00000000000E+00  0.91188000000E+02  0.91188000000E+02 0.  0.
    9900012    2    3    3    0    0 -0.27210227551E+02  0.16797036327E+02  0.18254967644E+02  0.54367071760E+02  0.39999971692E+02 0.  0.
         12    1    3    3    0    0  0.27210227551E+02 -0.16797036327E+02 -0.18254967644E+02  0.36820928240E+02  0.00000000000E+00 0. -1.
         11    1    4    4    0    0  0.52073642729E+01 -0.90212903957E+00  0.94502288416E+01  0.10827617692E+02  0.51100000000E-03 0. -1.
        -11    1    4    4    0    0 -0.25083479204E+02  0.21828997644E+02  0.10663251249E+02  0.34919779418E+02  0.51100000000E-03 0.  1.
         12    1    4    4    0    0 -0.73341126197E+01 -0.41298322774E+01 -0.18585124467E+01  0.86196746501E+01  0.00000000000E+00 0. -1.
</event>
<event>
 8    1  0.2493819E-006  0.9118800E+02  0.7816164E-02  0.1184000E+00
        -11   -1    0    0    0    0  0.00000000000E+00  0.00000000000E+00  0.45593999997E+02  0.45594000000E+02  0.51100000000E-03 0.  1.
         11   -1    0    0    0    0 -0.00000000000E+00 -0.00000000000E+00 -0.45593999997E+02  0.45594000000E+02  0.51100000000E-03 0. -1.
         23    2    1    2    0    0 -0.17763568394E-14  0.00000000000E+00  0.35527136788E-14  0.91188000000E+02  0.91188000000E+02 0.  0.
    9900012    2    3    3    0    0  0.12256823834E+02  0.20044248318E+02  0.28350952729E+02  0.54367107266E+02  0.40000052633E+02 0.  0.
         12    1    3    3    0    0 -0.12256823834E+02 -0.20044248318E+02 -0.28350952729E+02  0.36820892734E+02  0.00000000000E+00 0. -1.
         11    1    4    4    0    0  0.14468206582E+01  0.39686141219E+01  0.11638911327E+02  0.12381738375E+02  0.51100000000E-03 0. -1.
        -11    1    4    4    0    0 -0.10896259350E+02  0.38335921362E+01 -0.71956326777E+00  0.11573360275E+02  0.51100000000E-03 0.  1.
        -12    1    4    4    0    0  0.21706262526E+02  0.12242042059E+02  0.17431604670E+02  0.30412008615E+02  0.00000000000E+00 0.  1.
</event>
<event>
 8    1  0.2493819E-006  0.9118800E+02  0.7816164E-02  0.1184000E+00
        -11   -1    0    0    0    0  0.00000000000E+00  0.00000000000E+00  0.45593999997E+02  0.45594000000E+02  0.51100000000E-03 0.  1.
         11   -1    0    0    0    0 -0.00000000000E+00 -0.00000000000E+00 -0.45593999997E+02  0.45594000000E+02  0.51100000000E-03 0. -1.
         23    2    1    2    0    0  0.00000000000E+00  0.00000000000E+00  0.00000000000E+00  0.91188000000E+02  0.91188000000E+02 0.  0.
    9900012    2    3    3    0    0  0.12797402930E+02  0.32886680285E+02 -0.10510572943E+02  0.54367090104E+02  0.40000013511E+02 0.  0.
        -12    1    3    3    0    0 -0.12797402930E+02 -0.32886680285E+02  0.10510572943E+02  0.36820909896E+02  0.00000000000E+00 0.  1.
         11    1    4    4    0    0  0.15239489067E+02  0.12821848007E+02  0.26336353448E+01  0.20089247092E+02  0.51100000000E-03 0. -1.
        -11    1    4    4    0    0  0.24798736206E+01  0.51594270492E+01  0.68055749965E+01  0.88929922942E+01  0.51100000000E-03 0.  1.
         12    1    4    4    0    0 -0.49219597575E+01  0.14905405229E+02 -0.19949783284E+02  0.25384850718E+02  0.00000000000E+00 0. -1.
</event>
<event>
 8    1  0.2493819E-006  0.9118800E+02  0.7816164E-02  0.1184000E+00
        -11   -1    0    0    0    0  0.00000000000E+00  0.00000000000E+00  0.45593999997E+02  0.45594000000E+02  0.51100000000E-03 0.  1.
         11   -1    0    0    0    0 -0.00000000000E+00 -0.00000000000E+00 -0.45593999997E+02  0.45594000000E+02  0.51100000000E-03 0. -1.
         23    2    1    2    0    0  0.71054273576E-14  0.88817841970E-15  0.88817841970E-15  0.91188000000E+02  0.91188000000E+02 0.  0.
    9900012    2    3    3    0    0  0.35832123658E+02 -0.70180498315E+01 -0.47522870509E+01  0.54367104553E+02  0.40000046450E+02 0.  0.
        -12    1    3    3    0    0 -0.35832123658E+02  0.70180498315E+01  0.47522870509E+01  0.36820895447E+02  0.00000000000E+00 0.  1.
         11    1    4    4    0    0  0.83515482862E+01 -0.90885279359E+01 -0.16657861348E+02  0.20732439407E+02  0.51100000000E-03 0. -1.
        -11    1    4    4    0    0 -0.17660759950E-01  0.38883772476E+01  0.11902469593E+01  0.40665068065E+01  0.51100000000E-03 0.  1.
        -12    1    4    4    0    0  0.27498236132E+02 -0.18178991431E+01  0.10715327338E+02  0.29568158340E+02  0.00000000000E+00 0.  1.
</event>
<event>
 8    1  0.2493819E-006  0.9118800E+02  0.7816164E-02  0.1184000E+00
        -11   -1    0    0    0    0  0.00000000000E+00  0.00000000000E+00  0.45593999997E+02  0.45594000000E+02  0.51100000000E-03 0.  1.
         11   -1    0    0    0    0 -0.00000000000E+00 -0.00000000000E+00 -0.45593999997E+02  0.45594000000E+02  0.51100000000E-03 0. -1.
         23    2    1    2    0    0  0.00000000000E+00  0.00000000000E+00  0.00000000000E+00  0.91188000000E+02  0.91188000000E+02 0.  0.
    9900012    2    3    3    0    0 -0.10982870486E+02  0.28991640445E+02 -0.19865590784E+02  0.54367077184E+02  0.39999984056E+02 0.  0.
        -12    1    3    3    0    0  0.10982870486E+02 -0.28991640445E+02  0.19865590784E+02  0.36820922816E+02  0.00000000000E+00 0.  1.
         11    1    4    4    0    0  0.25451541071E+01 -0.31381064431E+01  0.22294960379E+01  0.46147778193E+01  0.51100000000E-03 0. -1.
        -11    1    4    4    0    0 -0.18308308177E+01  0.13033111664E+02  0.54565582949E+01  0.14247384666E+02  0.51100000000E-03 0.  1.
         12    1    4    4    0    0 -0.11697193775E+02  0.19096635224E+02 -0.27551645117E+02  0.35504914698E+02  0.00000000000E+00 0. -1.
</event>
<event>
 8    1  0.2493819E-006  0.9118800E+02  0.7816164E-02  0.1184000E+00
        -11   -1    0    0    0    0  0.00000000000E+00  0.00000000000E+00  0.45593999997E+02  0.45594000000E+02  0.51100000000E-03 0. -1.
         11   -1    0    0    0    0 -0.00000000000E+00 -0.00000000000E+00 -0.45593999997E+02  0.45594000000E+02  0.51100000000E-03 0.  1.
         23    2    1    2    0    0  0.00000000000E+00  0.00000000000E+00  0.35527136788E-14  0.91188000000E+02  0.91188000000E+02 0.  0.
    9900012    2    3    3    0    0 -0.24999303312E+02  0.19114215744E+02  0.19117035291E+02  0.54367089529E+02  0.40000012198E+02 0.  0.
        -12    1    3    3    0    0  0.24999303312E+02 -0.19114215744E+02 -0.19117035291E+02  0.36820910471E+02  0.00000000000E+00 0.  1.
         11    1    4    4    0    0 -0.19431903126E+02  0.18578816098E+02  0.17692652178E+02  0.32183865648E+02  0.51100000000E-03 0. -1.
        -11    1    4    4    0    0  0.72644144433E+01 -0.30719582715E+01  0.36131919223E+01  0.86754712238E+01  0.51100000000E-03 0.  1.
         12    1    4    4    0    0 -0.12831814630E+02  0.36073579175E+01 -0.21888088089E+01  0.13507752657E+02  0.00000000000E+00 0. -1.
</event>
<event>
 8    1  0.2493819E-006  0.9118800E+02  0.7816164E-02  0.1184000E+00
        -11   -1    0    0    0    0  0.00000000000E+00  0.00000000000E+00  0.45593999997E+02  0.45594000000E+02  0.51100000000E-03 0.  1.
         11   -1    0    0    0    0 -0.00000000000E+00 -0.00000000000E+00 -0.45593999997E+02  0.45594000000E+02  0.51100000000E-03 0. -1.
         23    2    1    2    0    0 -0.71054273576E-14  0.17763568394E-14  0.35527136788E-14  0.91188000000E+02  0.91188000000E+02 0.  0.
    9900012    2    3    3    0    0 -0.18990624223E+02  0.73983113849E+01  0.30665958723E+02  0.54367084149E+02  0.39999999935E+02 0.  0.
         12    1    3    3    0    0  0.18990624223E+02 -0.73983113849E+01 -0.30665958723E+02  0.36820915851E+02  0.00000000000E+00 0. -1.
         11    1    4    4    0    0 -0.23349271031E+02  0.15775574990E+02  0.14428233802E+02  0.31658034602E+02  0.51100000000E-03 0. -1.
        -11    1    4    4    0    0  0.57528842534E+01  0.84997972190E+00  0.97182771628E+01  0.11325327988E+02  0.51100000000E-03 0.  1.
        -12    1    4    4    0    0 -0.13942374452E+01 -0.92272433272E+01  0.65194477578E+01  0.11383721559E+02  0.00000000000E+00 0.  1.
</event>
<event>
 8    1  0.2493819E-006  0.9118800E+02  0.7816164E-02  0.1184000E+00
        -11   -1    0    0    0    0  0.00000000000E+00  0.00000000000E+00  0.45593999997E+02  0.45594000000E+02  0.51100000000E-03 0.  1.
         11   -1    0    0    0    0 -0.00000000000E+00 -0.00000000000E+00 -0.45593999997E+02  0.45594000000E+02  0.51100000000E-03 0. -1.
         23    2    1    2    0    0  0.00000000000E+00  0.00000000000E+00  0.35527136788E-14  0.91188000000E+02  0.91188000000E+02 0.  0.
    9900012    2    3    3    0    0  0.23451526989E+02 -0.51329568034E+01 -0.27918725739E+02  0.54367128058E+02  0.40000100034E+02 0.  0.
        -12    1    3    3    0    0 -0.23451526989E+02  0.51329568034E+01  0.27918725739E+02  0.36820871942E+02  0.00000000000E+00 0.  1.
         11    1    4    4    0    0 -0.67948595247E+01 -0.24289701596E+01  0.46637712950E+01  0.85919017074E+01  0.51100000000E-03 0. -1.
        -11    1    4    4    0    0  0.11224739608E+02 -0.61100064021E+01 -0.11757637070E+02  0.17365741771E+02  0.51100000000E-03 0.  1.
         12    1    4    4    0    0  0.19021646906E+02  0.34060197583E+01 -0.20824859964E+02  0.28409484580E+02  0.00000000000E+00 0. -1.
</event>
<event>
 8    1  0.2493819E-006  0.9118800E+02  0.7816164E-02  0.1184000E+00
        -11   -1    0    0    0    0  0.00000000000E+00  0.00000000000E+00  0.45593999997E+02  0.45594000000E+02  0.51100000000E-03 0. -1.
         11   -1    0    0    0    0 -0.00000000000E+00 -0.00000000000E+00 -0.45593999997E+02  0.45594000000E+02  0.51100000000E-03 0.  1.
         23    2    1    2    0    0  0.88817841970E-15  0.00000000000E+00  0.00000000000E+00  0.91188000000E+02  0.91188000000E+02 0.  0.
    9900012    2    3    3    0    0 -0.61554700392E+01 -0.53569613977E+01 -0.35905383823E+02  0.54367035397E+02  0.39999888795E+02 0.  0.
         12    1    3    3    0    0  0.61554700392E+01  0.53569613977E+01  0.35905383823E+02  0.36820964603E+02  0.00000000000E+00 0. -1.
         11    1    4    4    0    0  0.52014804061E+01  0.42813738819E+01  0.36742850582E+01  0.76737169404E+01  0.51100000000E-03 0. -1.
        -11    1    4    4    0    0  0.18297170733E+01 -0.75154090274E+01 -0.27893710549E+02  0.28946300729E+02  0.51100000000E-03 0.  1.
        -12    1    4    4    0    0 -0.13186667519E+02 -0.21229262521E+01 -0.11685958332E+02  0.17747017728E+02  0.00000000000E+00 0.  1.
</event>
<event>
 8    1  0.2493819E-006  0.9118800E+02  0.7816164E-02  0.1184000E+00
        -11   -1    0    0    0    0  0.00000000000E+00  0.00000000000E+00  0.45593999997E+02  0.45594000000E+02  0.51100000000E-03 0.  1.
         11   -1    0    0    0    0 -0.00000000000E+00 -0.00000000000E+00 -0.45593999997E+02  0.45594000000E+02  0.51100000000E-03 0. -1.
         23    2    1    2    0    0  0.00000000000E+00  0.00000000000E+00  0.00000000000E+00  0.91188000000E+02  0.91188000000E+02 0.  0.
    9900012    2    3    3    0    0  0.28039245157E+02  0.60301204105E+01  0.23091539252E+02  0.54367071085E+02  0.39999970153E+02 0.  0.
         12    1    3    3    0    0 -0.28039245157E+02 -0.60301204105E+01 -0.23091539252E+02  0.36820928915E+02  0.00000000000E+00 0. -1.
         11    1    4    4    0    0 -0.68761530720E+01  0.14414569616E+01  0.40470872917E+01  0.81079094130E+01  0.51100000000E-03 0.  1.
        -11    1    4    4    0    0  0.56792380753E+01 -0.25195702666E+01 -0.48140487068E+01  0.78598374446E+01  0.51100000000E-03 0. -1.
         12    1    4    4    0    0  0.29236160153E+02  0.71082337155E+01  0.23858500667E+02  0.38399324228E+02  0.00000000000E+00 0. -1.
</event>
<event>
 8    1  0.2493819E-006  0.9118800E+02  0.7816164E-02  0.1184000E+00
        -11   -1    0    0    0    0  0.00000000000E+00  0.00000000000E+00  0.45593999997E+02  0.45594000000E+02  0.51100000000E-03 0. -1.
         11   -1    0    0    0    0 -0.00000000000E+00 -0.00000000000E+00 -0.45593999997E+02  0.45594000000E+02  0.51100000000E-03 0.  1.
         23    2    1    2    0    0  0.10658141036E-13 -0.71054273576E-14  0.35527136788E-14  0.91188000000E+02  0.91188000000E+02 0.  0.
    9900012    2    3    3    0    0  0.20635759598E+02 -0.24451991243E+02  0.18222092181E+02  0.54367094344E+02  0.40000023175E+02 0.  0.
         12    1    3    3    0    0 -0.20635759598E+02  0.24451991243E+02 -0.18222092181E+02  0.36820905656E+02  0.00000000000E+00 0. -1.
         11    1    4    4    0    0  0.29393540444E+01 -0.14148153696E+01  0.62913812706E+01  0.70868175708E+01  0.51100000000E-03 0. -1.
        -11    1    4    4    0    0 -0.10620017162E+02 -0.97131936219E+01  0.49227670957E+01  0.15210671616E+02  0.51100000000E-03 0.  1.
         12    1    4    4    0    0  0.28316422716E+02 -0.13323982251E+02  0.70079438143E+01  0.32069605157E+02  0.00000000000E+00 0. -1.
</event>
<event>
 8    1  0.2493819E-006  0.9118800E+02  0.7816164E-02  0.1184000E+00
        -11   -1    0    0    0    0  0.00000000000E+00  0.00000000000E+00  0.45593999997E+02  0.45594000000E+02  0.51100000000E-03 0.  1.
         11   -1    0    0    0    0 -0.00000000000E+00 -0.00000000000E+00 -0.45593999997E+02  0.45594000000E+02  0.51100000000E-03 0. -1.
         23    2    1    2    0    0  0.00000000000E+00  0.11102230246E-15 -0.35527136788E-14  0.91188000000E+02  0.91188000000E+02 0.  0.
    9900012    2    3    3    0    0 -0.30593882955E+02  0.41496043478E+00 -0.20484658539E+02  0.54367094228E+02  0.40000022912E+02 0.  0.
        -12    1    3    3    0    0  0.30593882955E+02 -0.41496043478E+00  0.20484658539E+02  0.36820905772E+02  0.00000000000E+00 0.  1.
         11    1    4    4    0    0 -0.60931869164E+00 -0.66341469397E+01  0.48848042830E+00  0.66799542120E+01  0.51100000000E-03 0. -1.
        -11    1    4    4    0    0 -0.53874106016E+01  0.89822242063E+01  0.52205116665E+01  0.11702917884E+02  0.51100000000E-03 0.  1.
         12    1    4    4    0    0 -0.24597153662E+02 -0.19331168319E+01 -0.26193650633E+02  0.35984222132E+02  0.00000000000E+00 0. -1.
</event>
<event>
 8    1  0.2493819E-006  0.9118800E+02  0.7816164E-02  0.1184000E+00
        -11   -1    0    0    0    0  0.00000000000E+00  0.00000000000E+00  0.45593999997E+02  0.45594000000E+02  0.51100000000E-03 0. -1.
         11   -1    0    0    0    0 -0.00000000000E+00 -0.00000000000E+00 -0.45593999997E+02  0.45594000000E+02  0.51100000000E-03 0.  1.
         23    2    1    2    0    0  0.35527136788E-14 -0.17763568394E-14  0.00000000000E+00  0.91188000000E+02  0.91188000000E+02 0.  0.
    9900012    2    3    3    0    0 -0.31062425437E+02 -0.11099984094E+02  0.16361534709E+02  0.54367031260E+02  0.39999879364E+02 0.  0.
        -12    1    3    3    0    0  0.31062425437E+02  0.11099984094E+02 -0.16361534709E+02  0.36820968740E+02  0.00000000000E+00 0.  1.
         11    1    4    4    0    0 -0.16690021478E+00 -0.14365867495E+02 -0.70826883525E+00  0.14384284813E+02  0.51100000000E-03 0. -1.
        -11    1    4    4    0    0 -0.38325474452E+01  0.38190438921E+01 -0.30909788463E+01  0.62311850124E+01  0.51100000000E-03 0.  1.
         12    1    4    4    0    0 -0.27062977777E+02 -0.55316049041E+00  0.20160782391E+02  0.33751561435E+02  0.00000000000E+00 0. -1.
</event>
<event>
 8    1  0.2493819E-006  0.9118800E+02  0.7816164E-02  0.1184000E+00
        -11   -1    0    0    0    0  0.00000000000E+00  0.00000000000E+00  0.45593999997E+02  0.45594000000E+02  0.51100000000E-03 0.  1.
         11   -1    0    0    0    0 -0.00000000000E+00 -0.00000000000E+00 -0.45593999997E+02  0.45594000000E+02  0.51100000000E-03 0. -1.
         23    2    1    2    0    0  0.00000000000E+00  0.35527136788E-14  0.00000000000E+00  0.91188000000E+02  0.91188000000E+02 0.  0.
    9900012    2    3    3    0    0 -0.41380055821E+01  0.20998883758E+02  0.29961704020E+02  0.54367083158E+02  0.39999997676E+02 0.  0.
         12    1    3    3    0    0  0.41380055821E+01 -0.20998883758E+02 -0.29961704020E+02  0.36820916842E+02  0.00000000000E+00 0. -1.
         11    1    4    4    0    0 -0.11232070402E+01  0.14617480465E+01 -0.70838478103E+01  0.73197815177E+01  0.51100000000E-03 0. -1.
        -11    1    4    4    0    0 -0.96313060325E+01  0.19952750828E+02  0.30786075787E+02  0.37929629369E+02  0.51100000000E-03 0.  1.
         12    1    4    4    0    0  0.66165074906E+01 -0.41561511717E+00  0.62594760439E+01  0.91176722711E+01  0.00000000000E+00 0. -1.
</event>
<event>
 8    1  0.2493819E-006  0.9118800E+02  0.7816164E-02  0.1184000E+00
        -11   -1    0    0    0    0  0.00000000000E+00  0.00000000000E+00  0.45593999997E+02  0.45594000000E+02  0.51100000000E-03 0.  1.
         11   -1    0    0    0    0 -0.00000000000E+00 -0.00000000000E+00 -0.45593999997E+02  0.45594000000E+02  0.51100000000E-03 0. -1.
         23    2    1    2    0    0 -0.86042284408E-15 -0.17763568394E-14  0.71054273576E-14  0.91188000000E+02  0.91188000000E+02 0.  0.
    9900012    2    3    3    0    0 -0.68672208474E-01 -0.41781234087E+01  0.36583010816E+02  0.54367107677E+02  0.40000053571E+02 0.  0.
         12    1    3    3    0    0  0.68672208474E-01  0.41781234087E+01 -0.36583010816E+02  0.36820892323E+02  0.00000000000E+00 0. -1.
         11    1    4    4    0    0  0.22694832162E+01 -0.66611789246E+01  0.39134442109E+01  0.80521366473E+01  0.51100000000E-03 0. -1.
        -11    1    4    4    0    0 -0.12315982983E+02 -0.10389838099E+02  0.19982196171E+02  0.25669443637E+02  0.51100000000E-03 0.  1.
         12    1    4    4    0    0  0.99778275579E+01  0.12872893615E+02  0.12687370434E+02  0.20645527393E+02  0.00000000000E+00 0. -1.
</event>
<event>
 8    1  0.2493819E-006  0.9118800E+02  0.7816164E-02  0.1184000E+00
        -11   -1    0    0    0    0  0.00000000000E+00  0.00000000000E+00  0.45593999997E+02  0.45594000000E+02  0.51100000000E-03 0. -1.
         11   -1    0    0    0    0 -0.00000000000E+00 -0.00000000000E+00 -0.45593999997E+02  0.45594000000E+02  0.51100000000E-03 0.  1.
         23    2    1    2    0    0 -0.71054273576E-14  0.88817841970E-15 -0.17763568394E-14  0.91188000000E+02  0.91188000000E+02 0.  0.
    9900012    2    3    3    0    0 -0.34306734103E+02  0.25988517355E+01  0.13117718567E+02  0.54367074216E+02  0.39999977291E+02 0.  0.
        -12    1    3    3    0    0  0.34306734103E+02 -0.25988517355E+01 -0.13117718567E+02  0.36820925784E+02  0.00000000000E+00 0.  1.
         11    1    4    4    0    0 -0.52187270973E+01 -0.44681472598E+01  0.18839405732E+02  0.20052996311E+02  0.51100000000E-03 0. -1.
        -11    1    4    4    0    0 -0.62937377972E+01  0.89279135365E+01 -0.26347742530E+01  0.11236583609E+02  0.51100000000E-03 0.  1.
        -12    1    4    4    0    0 -0.22794269209E+02 -0.18609145411E+01 -0.30869129119E+01  0.23077494297E+02  0.00000000000E+00 0.  1.
</event>
<event>
 8    1  0.2493819E-006  0.9118800E+02  0.7816164E-02  0.1184000E+00
        -11   -1    0    0    0    0  0.00000000000E+00  0.00000000000E+00  0.45593999997E+02  0.45594000000E+02  0.51100000000E-03 0. -1.
         11   -1    0    0    0    0 -0.00000000000E+00 -0.00000000000E+00 -0.45593999997E+02  0.45594000000E+02  0.51100000000E-03 0.  1.
         23    2    1    2    0    0  0.00000000000E+00  0.00000000000E+00  0.00000000000E+00  0.91188000000E+02  0.91188000000E+02 0.  0.
    9900012    2    3    3    0    0 -0.23534049130E+02 -0.15670887102E+02  0.23587100247E+02  0.54367089241E+02  0.40000011544E+02 0.  0.
        -12    1    3    3    0    0  0.23534049130E+02  0.15670887102E+02 -0.23587100247E+02  0.36820910759E+02  0.00000000000E+00 0.  1.
         11    1    4    4    0    0 -0.16995585616E+02 -0.77903440963E+01  0.11286342794E+02  0.21838519307E+02  0.51100000000E-03 0. -1.
        -11    1    4    4    0    0 -0.26395422862E+01  0.10588408164E+02  0.22444177213E+01  0.11140869899E+02  0.51100000000E-03 0.  1.
        -12    1    4    4    0    0 -0.38989212280E+01 -0.18468951169E+02  0.10056339732E+02  0.21387700036E+02  0.00000000000E+00 0.  1.
</event>
<event>
 8    1  0.2493819E-006  0.9118800E+02  0.7816164E-02  0.1184000E+00
        -11   -1    0    0    0    0  0.00000000000E+00  0.00000000000E+00  0.45593999997E+02  0.45594000000E+02  0.51100000000E-03 0. -1.
         11   -1    0    0    0    0 -0.00000000000E+00 -0.00000000000E+00 -0.45593999997E+02  0.45594000000E+02  0.51100000000E-03 0.  1.
         23    2    1    2    0    0  0.00000000000E+00  0.00000000000E+00  0.17763568394E-14  0.91188000000E+02  0.91188000000E+02 0.  0.
    9900012    2    3    3    0    0  0.32432457372E+02 -0.12997562282E+02 -0.11618079175E+02  0.54367072796E+02  0.39999974052E+02 0.  0.
        -12    1    3    3    0    0 -0.32432457372E+02  0.12997562282E+02  0.11618079175E+02  0.36820927204E+02  0.00000000000E+00 0.  1.
         11    1    4    4    0    0  0.92541372512E+01 -0.91769182513E+01 -0.84626525477E+01  0.15539349190E+02  0.51100000000E-03 0. -1.
        -11    1    4    4    0    0 -0.64947982992E+01 -0.61314206091E+01 -0.97958862484E+00  0.89853390458E+01  0.51100000000E-03 0.  1.
        -12    1    4    4    0    0  0.29673118420E+02  0.23107765785E+01 -0.21758380020E+01  0.29842384560E+02  0.00000000000E+00 0.  1.
</event>
<event>
 8    1  0.2493819E-006  0.9118800E+02  0.7816164E-02  0.1184000E+00
        -11   -1    0    0    0    0  0.00000000000E+00  0.00000000000E+00  0.45593999997E+02  0.45594000000E+02  0.51100000000E-03 0.  1.
         11   -1    0    0    0    0 -0.00000000000E+00 -0.00000000000E+00 -0.45593999997E+02  0.45594000000E+02  0.51100000000E-03 0. -1.
         23    2    1    2    0    0  0.35527136788E-14  0.00000000000E+00 -0.26645352591E-14  0.91188000000E+02  0.91188000000E+02 0.  0.
    9900012    2    3    3    0    0 -0.25193136776E+02  0.26224127403E+02  0.57775065876E+01  0.54367101300E+02  0.40000039035E+02 0.  0.
        -12    1    3    3    0    0  0.25193136776E+02 -0.26224127403E+02 -0.57775065876E+01  0.36820898700E+02  0.00000000000E+00 0.  1.
         11    1    4    4    0    0 -0.30323414184E+01  0.12878223217E+02  0.62885267185E+01  0.14648866722E+02  0.51100000000E-03 0. -1.
        -11    1    4    4    0    0 -0.68863343011E+00 -0.26584218137E+01  0.10432657520E+02  0.10788038086E+02  0.51100000000E-03 0.  1.
         12    1    4    4    0    0 -0.21472161927E+02  0.16004326000E+02 -0.10943677651E+02  0.28930196492E+02  0.00000000000E+00 0. -1.
</event>
<event>
 8    1  0.2493819E-006  0.9118800E+02  0.7816164E-02  0.1184000E+00
        -11   -1    0    0    0    0  0.00000000000E+00  0.00000000000E+00  0.45593999997E+02  0.45594000000E+02  0.51100000000E-03 0.  1.
         11   -1    0    0    0    0 -0.00000000000E+00 -0.00000000000E+00 -0.45593999997E+02  0.45594000000E+02  0.51100000000E-03 0. -1.
         23    2    1    2    0    0  0.35527136788E-14  0.00000000000E+00  0.17763568394E-14  0.91188000000E+02  0.91188000000E+02 0.  0.
    9900012    2    3    3    0    0 -0.29895298474E+02 -0.18701279375E+02  0.10597799462E+02  0.54367081020E+02  0.39999992801E+02 0.  0.
        -12    1    3    3    0    0  0.29895298474E+02  0.18701279375E+02 -0.10597799462E+02  0.36820918980E+02  0.00000000000E+00 0.  1.
         11    1    4    4    0    0 -0.14241128516E+02 -0.56879657868E+01 -0.29762264802E+01  0.15621159384E+02  0.51100000000E-03 0. -1.
        -11    1    4    4    0    0 -0.18718424602E+02 -0.16772705420E+02  0.18971131968E+02  0.31489790648E+02  0.51100000000E-03 0.  1.
        -12    1    4    4    0    0  0.30642546435E+01  0.37593918312E+01 -0.53971060255E+01  0.72561309877E+01  0.00000000000E+00 0.  1.
</event>
<event>
 8    1  0.2493819E-006  0.9118800E+02  0.7816164E-02  0.1184000E+00
        -11   -1    0    0    0    0  0.00000000000E+00  0.00000000000E+00  0.45593999997E+02  0.45594000000E+02  0.51100000000E-03 0.  1.
         11   -1    0    0    0    0 -0.00000000000E+00 -0.00000000000E+00 -0.45593999997E+02  0.45594000000E+02  0.51100000000E-03 0. -1.
         23    2    1    2    0    0  0.00000000000E+00 -0.35527136788E-14 -0.88817841970E-15  0.91188000000E+02  0.91188000000E+02 0.  0.
    9900012    2    3    3    0    0 -0.32580586464E+02  0.16313711563E+02 -0.53055305289E+01  0.54367075874E+02  0.39999981071E+02 0.  0.
        -12    1    3    3    0    0  0.32580586464E+02 -0.16313711563E+02  0.53055305289E+01  0.36820924126E+02  0.00000000000E+00 0.  1.
         11    1    4    4    0    0  0.86722678493E+00  0.24863472927E+01 -0.53008440753E+01  0.59188641924E+01  0.51100000000E-03 0. -1.
        -11    1    4    4    0    0 -0.24146909161E+02 -0.74137031496E+01 -0.13200970680E+00  0.25259723736E+02  0.51100000000E-03 0.  1.
        -12    1    4    4    0    0 -0.93009040878E+01  0.21241067420E+02  0.12732325325E+00  0.23188487946E+02  0.00000000000E+00 0.  1.
</event>
<event>
 8    1  0.2493819E-006  0.9118800E+02  0.7816164E-02  0.1184000E+00
        -11   -1    0    0    0    0  0.00000000000E+00  0.00000000000E+00  0.45593999997E+02  0.45594000000E+02  0.51100000000E-03 0.  1.
         11   -1    0    0    0    0 -0.00000000000E+00 -0.00000000000E+00 -0.45593999997E+02  0.45594000000E+02  0.51100000000E-03 0. -1.
         23    2    1    2    0    0  0.00000000000E+00 -0.17763568394E-14 -0.35527136788E-14  0.91188000000E+02  0.91188000000E+02 0.  0.
    9900012    2    3    3    0    0  0.24321238571E+02  0.66919283834E+01 -0.26823068361E+02  0.54367061020E+02  0.39999947207E+02 0.  0.
        -12    1    3    3    0    0 -0.24321238571E+02 -0.66919283834E+01  0.26823068361E+02  0.36820938980E+02  0.00000000000E+00 0.  1.
         11    1    4    4    0    0 -0.44885466421E+01  0.46887225956E+01 -0.11852412511E+02  0.13513358321E+02  0.51100000000E-03 0. -1.
        -11    1    4    4    0    0  0.30905263013E+02 -0.42935000372E+01 -0.10812704116E+02  0.33022477119E+02  0.51100000000E-03 0.  1.
        -12    1    4    4    0    0 -0.20954778009E+01  0.62967058250E+01 -0.41579517342E+01  0.78312255800E+01  0.00000000000E+00 0.  1.
</event>
<event>
 8    1  0.2493819E-006  0.9118800E+02  0.7816164E-02  0.1184000E+00
        -11   -1    0    0    0    0  0.00000000000E+00  0.00000000000E+00  0.45593999997E+02  0.45594000000E+02  0.51100000000E-03 0.  1.
         11   -1    0    0    0    0 -0.00000000000E+00 -0.00000000000E+00 -0.45593999997E+02  0.45594000000E+02  0.51100000000E-03 0. -1.
         23    2    1    2    0    0  0.00000000000E+00  0.00000000000E+00  0.00000000000E+00  0.91188000000E+02  0.91188000000E+02 0.  0.
    9900012    2    3    3    0    0  0.93145594277E+01  0.74103041846E+01  0.34844028210E+02  0.54367083019E+02  0.39999997358E+02 0.  0.
         12    1    3    3    0    0 -0.93145594277E+01 -0.74103041846E+01 -0.34844028210E+02  0.36820916981E+02  0.00000000000E+00 0. -1.
         11    1    4    4    0    0  0.81900758038E+01  0.38015125896E+01  0.99452636517E+01  0.13432688078E+02  0.51100000000E-03 0. -1.
        -11    1    4    4    0    0  0.87483541780E+01  0.14725062097E+02  0.20590923331E+02  0.26783339569E+02  0.51100000000E-03 0.  1.
         12    1    4    4    0    0 -0.76238705541E+01 -0.11116270502E+02  0.43078412272E+01  0.14151055372E+02  0.00000000000E+00 0. -1.
</event>
<event>
 8    1  0.2493819E-006  0.9118800E+02  0.7816164E-02  0.1184000E+00
        -11   -1    0    0    0    0  0.00000000000E+00  0.00000000000E+00  0.45593999997E+02  0.45594000000E+02  0.51100000000E-03 0. -1.
         11   -1    0    0    0    0 -0.00000000000E+00 -0.00000000000E+00 -0.45593999997E+02  0.45594000000E+02  0.51100000000E-03 0.  1.
         23    2    1    2    0    0  0.88817841970E-15  0.00000000000E+00 -0.17763568394E-14  0.91188000000E+02  0.91188000000E+02 0.  0.
    9900012    2    3    3    0    0 -0.63703802929E+01 -0.32851542737E+02  0.15361434096E+02  0.54367092043E+02  0.40000017931E+02 0.  0.
        -12    1    3    3    0    0  0.63703802929E+01  0.32851542737E+02 -0.15361434096E+02  0.36820907957E+02  0.00000000000E+00 0.  1.
         11    1    4    4    0    0 -0.20371516674E+01 -0.48849919303E+01  0.10793383635E+02  0.12021242184E+02  0.51100000000E-03 0. -1.
        -11    1    4    4    0    0 -0.40628643222E+01 -0.15796013060E+02  0.17951271411E+02  0.24254258196E+02  0.51100000000E-03 0.  1.
        -12    1    4    4    0    0 -0.27036430328E+00 -0.12170537747E+02 -0.13383220951E+02  0.18091591664E+02  0.00000000000E+00 0.  1.
</event>
<event>
 8    1  0.2493819E-006  0.9118800E+02  0.7816164E-02  0.1184000E+00
        -11   -1    0    0    0    0  0.00000000000E+00  0.00000000000E+00  0.45593999997E+02  0.45594000000E+02  0.51100000000E-03 0.  1.
         11   -1    0    0    0    0 -0.00000000000E+00 -0.00000000000E+00 -0.45593999997E+02  0.45594000000E+02  0.51100000000E-03 0. -1.
         23    2    1    2    0    0  0.00000000000E+00  0.00000000000E+00 -0.44408920985E-15  0.91188000000E+02  0.91188000000E+02 0.  0.
    9900012    2    3    3    0    0 -0.32007849367E+02 -0.17978650104E+02  0.28377573847E+01  0.54366984973E+02  0.39999773843E+02 0.  0.
        -12    1    3    3    0    0  0.32007849367E+02  0.17978650104E+02 -0.28377573847E+01  0.36821015027E+02  0.00000000000E+00 0.  1.
         11    1    4    4    0    0 -0.10575902122E+02 -0.12160097665E+02 -0.16279897945E+02  0.22907482583E+02  0.51100000000E-03 0. -1.
        -11    1    4    4    0    0 -0.76957144635E+01 -0.12388310775E+01  0.41359401758E+00  0.78057532510E+01  0.51100000000E-03 0.  1.
         12    1    4    4    0    0 -0.13736232781E+02 -0.45797213611E+01  0.18704061312E+02  0.23653749139E+02  0.00000000000E+00 0. -1.
</event>
<event>
 8    1  0.2493819E-006  0.9118800E+02  0.7816164E-02  0.1184000E+00
        -11   -1    0    0    0    0  0.00000000000E+00  0.00000000000E+00  0.45593999997E+02  0.45594000000E+02  0.51100000000E-03 0.  1.
         11   -1    0    0    0    0 -0.00000000000E+00 -0.00000000000E+00 -0.45593999997E+02  0.45594000000E+02  0.51100000000E-03 0. -1.
         23    2    1    2    0    0  0.00000000000E+00  0.00000000000E+00  0.00000000000E+00  0.91188000000E+02  0.91188000000E+02 0.  0.
    9900012    2    3    3    0    0 -0.17689941689E+02 -0.93836685116E+01 -0.30899747197E+02  0.54367059646E+02  0.39999944075E+02 0.  0.
        -12    1    3    3    0    0  0.17689941689E+02  0.93836685116E+01  0.30899747197E+02  0.36820940354E+02  0.00000000000E+00 0.  1.
         11    1    4    4    0    0 -0.72682773130E+01 -0.88495172754E+01 -0.30325921239E+02  0.32416096471E+02  0.51100000000E-03 0. -1.
        -11    1    4    4    0    0 -0.15044870914E+02 -0.44545583820E+01  0.88780983825E+00  0.15715579460E+02  0.51100000000E-03 0.  1.
         12    1    4    4    0    0  0.46232065378E+01  0.39204071457E+01 -0.14616357961E+01  0.62353837155E+01  0.00000000000E+00 0. -1.
</event>
<event>
 8    1  0.2493819E-006  0.9118800E+02  0.7816164E-02  0.1184000E+00
        -11   -1    0    0    0    0  0.00000000000E+00  0.00000000000E+00  0.45593999997E+02  0.45594000000E+02  0.51100000000E-03 0. -1.
         11   -1    0    0    0    0 -0.00000000000E+00 -0.00000000000E+00 -0.45593999997E+02  0.45594000000E+02  0.51100000000E-03 0.  1.
         23    2    1    2    0    0  0.35527136788E-14  0.00000000000E+00  0.35527136788E-14  0.91188000000E+02  0.91188000000E+02 0.  0.
    9900012    2    3    3    0    0 -0.27594561492E+02  0.12217659014E+02 -0.21096123667E+02  0.54367116666E+02  0.40000074064E+02 0.  0.
         12    1    3    3    0    0  0.27594561492E+02 -0.12217659014E+02  0.21096123667E+02  0.36820883334E+02  0.00000000000E+00 0. -1.
         11    1    4    4    0    0 -0.19431725539E+02  0.71207289428E+01  0.42410929187E+01  0.21125425617E+02  0.51100000000E-03 0. -1.
        -11    1    4    4    0    0 -0.11934693081E+02  0.22196214574E+01 -0.25761842499E+02  0.28478696380E+02  0.51100000000E-03 0.  1.
         12    1    4    4    0    0  0.37718571272E+01  0.28773086140E+01  0.42462591329E+00  0.47629946688E+01  0.00000000000E+00 0. -1.
</event>
<event>
 8    1  0.2493819E-006  0.9118800E+02  0.7816164E-02  0.1184000E+00
        -11   -1    0    0    0    0  0.00000000000E+00  0.00000000000E+00  0.45593999997E+02  0.45594000000E+02  0.51100000000E-03 0. -1.
         11   -1    0    0    0    0 -0.00000000000E+00 -0.00000000000E+00 -0.45593999997E+02  0.45594000000E+02  0.51100000000E-03 0.  1.
         23    2    1    2    0    0  0.00000000000E+00  0.00000000000E+00  0.00000000000E+00  0.91188000000E+02  0.91188000000E+02 0.  0.
    9900012    2    3    3    0    0 -0.31190891217E+02 -0.18691289311E+01  0.19478556884E+02  0.54367088602E+02  0.40000010086E+02 0.  0.
        -12    1    3    3    0    0  0.31190891217E+02  0.18691289311E+01 -0.19478556884E+02  0.36820911398E+02  0.00000000000E+00 0.  1.
         11    1    4    4    0    0 -0.61631117956E+01  0.92892377380E+01  0.58139032222E+01  0.12572802221E+02  0.51100000000E-03 0.  1.
        -11    1    4    4    0    0 -0.21304185263E+02  0.57275948174E+01  0.58782848974E+01  0.22830415802E+02  0.51100000000E-03 0. -1.
        -12    1    4    4    0    0 -0.37235941592E+01 -0.16885961487E+02  0.77863687643E+01  0.18963870579E+02  0.00000000000E+00 0.  1.
</event>
<event>
 8    1  0.2493819E-006  0.9118800E+02  0.7816164E-02  0.1184000E+00
        -11   -1    0    0    0    0  0.00000000000E+00  0.00000000000E+00  0.45593999997E+02  0.45594000000E+02  0.51100000000E-03 0.  1.
         11   -1    0    0    0    0 -0.00000000000E+00 -0.00000000000E+00 -0.45593999997E+02  0.45594000000E+02  0.51100000000E-03 0. -1.
         23    2    1    2    0    0  0.00000000000E+00 -0.35527136788E-14  0.88817841970E-15  0.91188000000E+02  0.91188000000E+02 0.  0.
    9900012    2    3    3    0    0 -0.20925974882E+02  0.29341039863E+02 -0.75490829053E+01  0.54367058978E+02  0.39999942553E+02 0.  0.
        -12    1    3    3    0    0  0.20925974882E+02 -0.29341039863E+02  0.75490829053E+01  0.36820941022E+02  0.00000000000E+00 0.  1.
         11    1    4    4    0    0 -0.13451891290E+02  0.78518605573E+01 -0.13500922447E+02  0.20612617511E+02  0.51100000000E-03 0. -1.
        -11    1    4    4    0    0 -0.14808144482E+01  0.15209739240E+02 -0.80559862652E+01  0.17275065677E+02  0.51100000000E-03 0.  1.
        -12    1    4    4    0    0 -0.59932691443E+01  0.62794400655E+01  0.14007825807E+02  0.16479375790E+02  0.00000000000E+00 0.  1.
</event>
<event>
 8    1  0.2493819E-006  0.9118800E+02  0.7816164E-02  0.1184000E+00
        -11   -1    0    0    0    0  0.00000000000E+00  0.00000000000E+00  0.45593999997E+02  0.45594000000E+02  0.51100000000E-03 0.  1.
         11   -1    0    0    0    0 -0.00000000000E+00 -0.00000000000E+00 -0.45593999997E+02  0.45594000000E+02  0.51100000000E-03 0. -1.
         23    2    1    2    0    0  0.00000000000E+00  0.00000000000E+00  0.00000000000E+00  0.91188000000E+02  0.91188000000E+02 0.  0.
    9900012    2    3    3    0    0  0.10515321583E+02  0.25004483469E+02 -0.24899442187E+02  0.54367103721E+02  0.40000044554E+02 0.  0.
        -12    1    3    3    0    0 -0.10515321583E+02 -0.25004483469E+02  0.24899442187E+02  0.36820896279E+02  0.00000000000E+00 0.  1.
         11    1    4    4    0    0 -0.92967466107E+01  0.14899287606E+02 -0.20058498316E+02  0.26660112972E+02  0.51100000000E-03 0. -1.
        -11    1    4    4    0    0  0.11014613689E+02 -0.26745460003E+01 -0.44794735002E+01  0.12187723091E+02  0.51100000000E-03 0.  1.
        -12    1    4    4    0    0  0.87974545041E+01  0.12779741863E+02 -0.36147037078E+00  0.15519267659E+02  0.00000000000E+00 0.  1.
</event>
<event>
 8    1  0.2493819E-006  0.9118800E+02  0.7816164E-02  0.1184000E+00
        -11   -1    0    0    0    0  0.00000000000E+00  0.00000000000E+00  0.45593999997E+02  0.45594000000E+02  0.51100000000E-03 0. -1.
         11   -1    0    0    0    0 -0.00000000000E+00 -0.00000000000E+00 -0.45593999997E+02  0.45594000000E+02  0.51100000000E-03 0.  1.
         23    2    1    2    0    0 -0.35527136788E-14  0.00000000000E+00 -0.71054273576E-14  0.91188000000E+02  0.91188000000E+02 0.  0.
    9900012    2    3    3    0    0  0.18634403043E+02 -0.16436256051E+02 -0.27173306645E+02  0.54367080894E+02  0.39999992515E+02 0.  0.
         12    1    3    3    0    0 -0.18634403043E+02  0.16436256051E+02  0.27173306645E+02  0.36820919106E+02  0.00000000000E+00 0. -1.
         11    1    4    4    0    0  0.13747712132E+02 -0.54911824741E+01  0.73065854760E+01  0.16508751176E+02  0.51100000000E-03 0. -1.
        -11    1    4    4    0    0 -0.20417597746E+01 -0.57600801601E+01 -0.20728598240E+02  0.21610693919E+02  0.51100000000E-03 0.  1.
         12    1    4    4    0    0  0.69284506854E+01 -0.51849934170E+01 -0.13751293882E+02  0.16247635799E+02  0.00000000000E+00 0. -1.
</event>
<event>
 8    1  0.2493819E-006  0.9118800E+02  0.7816164E-02  0.1184000E+00
        -11   -1    0    0    0    0  0.00000000000E+00  0.00000000000E+00  0.45593999997E+02  0.45594000000E+02  0.51100000000E-03 0.  1.
         11   -1    0    0    0    0 -0.00000000000E+00 -0.00000000000E+00 -0.45593999997E+02  0.45594000000E+02  0.51100000000E-03 0. -1.
         23    2    1    2    0    0 -0.35527136788E-14  0.00000000000E+00 -0.17763568394E-14  0.91188000000E+02  0.91188000000E+02 0.  0.
    9900012    2    3    3    0    0 -0.21746869230E+02  0.25345759226E+02 -0.15506347360E+02  0.54367073335E+02  0.39999975281E+02 0.  0.
        -12    1    3    3    0    0  0.21746869230E+02 -0.25345759226E+02  0.15506347360E+02  0.36820926665E+02  0.00000000000E+00 0.  1.
         11    1    4    4    0    0 -0.24887215777E+02  0.55940543608E+01 -0.19294258543E+01  0.25581040591E+02  0.51100000000E-03 0. -1.
        -11    1    4    4    0    0 -0.48615659986E+01  0.10806402067E+02 -0.18264749528E+01  0.11989543803E+02  0.51100000000E-03 0.  1.
        -12    1    4    4    0    0  0.80019125463E+01  0.89453027990E+01 -0.11750446552E+02  0.16796488941E+02  0.00000000000E+00 0.  1.
</event>
<event>
 8    1  0.2493819E-006  0.9118800E+02  0.7816164E-02  0.1184000E+00
        -11   -1    0    0    0    0  0.00000000000E+00  0.00000000000E+00  0.45593999997E+02  0.45594000000E+02  0.51100000000E-03 0.  1.
         11   -1    0    0    0    0 -0.00000000000E+00 -0.00000000000E+00 -0.45593999997E+02  0.45594000000E+02  0.51100000000E-03 0. -1.
         23    2    1    2    0    0  0.00000000000E+00  0.00000000000E+00  0.00000000000E+00  0.91188000000E+02  0.91188000000E+02 0.  0.
    9900012    2    3    3    0    0  0.87913295833E+00  0.19308534172E+02  0.31339873876E+02  0.54367081201E+02  0.39999993214E+02 0.  0.
         12    1    3    3    0    0 -0.87913295833E+00 -0.19308534172E+02 -0.31339873876E+02  0.36820918799E+02  0.00000000000E+00 0. -1.
         11    1    4    4    0    0  0.86338406964E+00 -0.11800497772E+02  0.13616356697E+02  0.18038912098E+02  0.51100000000E-03 0. -1.
        -11    1    4    4    0    0  0.23675197937E+01  0.13989500787E+02  0.10236467809E+02  0.17495615328E+02  0.51100000000E-03 0.  1.
         12    1    4    4    0    0 -0.23517709050E+01  0.17119531156E+02  0.74870493705E+01  0.18832553775E+02  0.00000000000E+00 0. -1.
</event>
<event>
 8    1  0.2493819E-006  0.9118800E+02  0.7816164E-02  0.1184000E+00
        -11   -1    0    0    0    0  0.00000000000E+00  0.00000000000E+00  0.45593999997E+02  0.45594000000E+02  0.51100000000E-03 0.  1.
         11   -1    0    0    0    0 -0.00000000000E+00 -0.00000000000E+00 -0.45593999997E+02  0.45594000000E+02  0.51100000000E-03 0. -1.
         23    2    1    2    0    0 -0.35527136788E-14  0.00000000000E+00  0.33306690739E-15  0.91188000000E+02  0.91188000000E+02 0.  0.
    9900012    2    3    3    0    0  0.24869418431E+02 -0.27139207168E+02 -0.86872225038E+00  0.54367092663E+02  0.40000019343E+02 0.  0.
         12    1    3    3    0    0 -0.24869418431E+02  0.27139207168E+02  0.86872225038E+00  0.36820907337E+02  0.00000000000E+00 0. -1.
         11    1    4    4    0    0  0.68226445115E+01 -0.18160717392E+02  0.18793419013E+01  0.19490819905E+02  0.51100000000E-03 0. -1.
        -11    1    4    4    0    0  0.12849050723E+02 -0.18919015100E+02 -0.50605241919E+01  0.23422983204E+02  0.51100000000E-03 0.  1.
         12    1    4    4    0    0  0.51977231962E+01  0.99405253243E+01  0.23124600402E+01  0.11453289553E+02  0.00000000000E+00 0. -1.
</event>
<event>
 8    1  0.2493819E-006  0.9118800E+02  0.7816164E-02  0.1184000E+00
        -11   -1    0    0    0    0  0.00000000000E+00  0.00000000000E+00  0.45593999997E+02  0.45594000000E+02  0.51100000000E-03 0.  1.
         11   -1    0    0    0    0 -0.00000000000E+00 -0.00000000000E+00 -0.45593999997E+02  0.45594000000E+02  0.51100000000E-03 0. -1.
         23    2    1    2    0    0 -0.88817841970E-15 -0.35527136788E-14 -0.35527136788E-14  0.91188000000E+02  0.91188000000E+02 0.  0.
    9900012    2    3    3    0    0 -0.47462821089E+01 -0.25861558842E+02  0.25776589109E+02  0.54367082498E+02  0.39999996170E+02 0.  0.
         12    1    3    3    0    0  0.47462821089E+01  0.25861558842E+02 -0.25776589109E+02  0.36820917502E+02  0.00000000000E+00 0. -1.
         11    1    4    4    0    0  0.44652571224E+01 -0.19083212701E+02  0.53786591514E+01  0.20323324106E+02  0.51100000000E-03 0. -1.
        -11    1    4    4    0    0 -0.11127692734E+02  0.68561283303E+01  0.69748186426E+01  0.14814862019E+02  0.51100000000E-03 0.  1.
        -12    1    4    4    0    0  0.19161535032E+01 -0.13634474471E+02  0.13423111315E+02  0.19228896373E+02  0.00000000000E+00 0.  1.
</event>
<event>
 8    1  0.2493819E-006  0.9118800E+02  0.7816164E-02  0.1184000E+00
        -11   -1    0    0    0    0  0.00000000000E+00  0.00000000000E+00  0.45593999997E+02  0.45594000000E+02  0.51100000000E-03 0.  1.
         11   -1    0    0    0    0 -0.00000000000E+00 -0.00000000000E+00 -0.45593999997E+02  0.45594000000E+02  0.51100000000E-03 0. -1.
         23    2    1    2    0    0  0.00000000000E+00  0.00000000000E+00  0.35527136788E-14  0.91188000000E+02  0.91188000000E+02 0.  0.
    9900012    2    3    3    0    0  0.18330688538E+02  0.99575787731E+01  0.30341574655E+02  0.54367100095E+02  0.40000036286E+02 0.  0.
         12    1    3    3    0    0 -0.18330688538E+02 -0.99575787731E+01 -0.30341574655E+02  0.36820899905E+02  0.00000000000E+00 0. -1.
         11    1    4    4    0    0  0.34676724817E+01  0.17383516524E+02  0.13894781708E+02  0.22522796410E+02  0.51100000000E-03 0. -1.
        -11    1    4    4    0    0  0.10235084360E+02 -0.48666238347E+01  0.21642690147E+02  0.24430452646E+02  0.51100000000E-03 0.  1.
        -12    1    4    4    0    0  0.46279316958E+01 -0.25593139159E+01 -0.51958972004E+01  0.74138510383E+01  0.00000000000E+00 0.  1.
</event>
<event>
 8    1  0.2493819E-006  0.9118800E+02  0.7816164E-02  0.1184000E+00
        -11   -1    0    0    0    0  0.00000000000E+00  0.00000000000E+00  0.45593999997E+02  0.45594000000E+02  0.51100000000E-03 0.  1.
         11   -1    0    0    0    0 -0.00000000000E+00 -0.00000000000E+00 -0.45593999997E+02  0.45594000000E+02  0.51100000000E-03 0. -1.
         23    2    1    2    0    0  0.00000000000E+00 -0.17763568394E-14  0.00000000000E+00  0.91188000000E+02  0.91188000000E+02 0.  0.
    9900012    2    3    3    0    0 -0.80554939807E+01 -0.15720859007E+02 -0.32307019222E+02  0.54367083632E+02  0.39999998756E+02 0.  0.
        -12    1    3    3    0    0  0.80554939807E+01  0.15720859007E+02  0.32307019222E+02  0.36820916368E+02  0.00000000000E+00 0.  1.
         11    1    4    4    0    0  0.13625346995E+01 -0.14619279952E+02 -0.17255481812E+01  0.14783685735E+02  0.51100000000E-03 0. -1.
        -11    1    4    4    0    0 -0.15766880341E+00 -0.11320019386E+02 -0.14588405895E+02  0.18465895189E+02  0.51100000000E-03 0.  1.
         12    1    4    4    0    0 -0.92603598768E+01  0.10218440331E+02 -0.15993065146E+02  0.21117502708E+02  0.00000000000E+00 0. -1.
</event>
<event>
 8    1  0.2493819E-006  0.9118800E+02  0.7816164E-02  0.1184000E+00
        -11   -1    0    0    0    0  0.00000000000E+00  0.00000000000E+00  0.45593999997E+02  0.45594000000E+02  0.51100000000E-03 0.  1.
         11   -1    0    0    0    0 -0.00000000000E+00 -0.00000000000E+00 -0.45593999997E+02  0.45594000000E+02  0.51100000000E-03 0. -1.
         23    2    1    2    0    0  0.00000000000E+00  0.00000000000E+00  0.35527136788E-14  0.91188000000E+02  0.91188000000E+02 0.  0.
    9900012    2    3    3    0    0  0.18481679005E+02 -0.87650826365E+01  0.30616674864E+02  0.54367083224E+02  0.39999997826E+02 0.  0.
         12    1    3    3    0    0 -0.18481679005E+02  0.87650826365E+01 -0.30616674864E+02  0.36820916776E+02  0.00000000000E+00 0. -1.
         11    1    4    4    0    0 -0.45458583964E+01 -0.71314906592E+01 -0.17227660246E+01  0.86308117010E+01  0.51100000000E-03 0. -1.
        -11    1    4    4    0    0  0.80931912645E+01  0.94367174739E+01  0.19563814584E+02  0.23179607910E+02  0.51100000000E-03 0.  1.
        -12    1    4    4    0    0  0.14934346137E+02 -0.11070309451E+02  0.12775626305E+02  0.22556663614E+02  0.00000000000E+00 0.  1.
</event>
<event>
 8    1  0.2493819E-006  0.9118800E+02  0.7816164E-02  0.1184000E+00
        -11   -1    0    0    0    0  0.00000000000E+00  0.00000000000E+00  0.45593999997E+02  0.45594000000E+02  0.51100000000E-03 0.  1.
         11   -1    0    0    0    0 -0.00000000000E+00 -0.00000000000E+00 -0.45593999997E+02  0.45594000000E+02  0.51100000000E-03 0. -1.
         23    2    1    2    0    0  0.00000000000E+00  0.22204460493E-15  0.35527136788E-14  0.91188000000E+02  0.91188000000E+02 0.  0.
    9900012    2    3    3    0    0  0.27121667597E+02  0.83072705817E+00 -0.24889856436E+02  0.54367083199E+02  0.39999997769E+02 0.  0.
        -12    1    3    3    0    0 -0.27121667597E+02 -0.83072705817E+00  0.24889856436E+02  0.36820916801E+02  0.00000000000E+00 0.  1.
         11    1    4    4    0    0 -0.27864131798E+01  0.10137763841E+02 -0.13510771247E+02  0.17119558816E+02  0.51100000000E-03 0. -1.
        -11    1    4    4    0    0  0.13669114906E+02 -0.12887462773E+02 -0.50352355311E+01  0.19449550024E+02  0.51100000000E-03 0.  1.
        -12    1    4    4    0    0  0.16238965870E+02  0.35804259897E+01 -0.63438496578E+01  0.17797974359E+02  0.00000000000E+00 0.  1.
</event>
<event>
 8    1  0.2493819E-006  0.9118800E+02  0.7816164E-02  0.1184000E+00
        -11   -1    0    0    0    0  0.00000000000E+00  0.00000000000E+00  0.45593999997E+02  0.45594000000E+02  0.51100000000E-03 0. -1.
         11   -1    0    0    0    0 -0.00000000000E+00 -0.00000000000E+00 -0.45593999997E+02  0.45594000000E+02  0.51100000000E-03 0.  1.
         23    2    1    2    0    0 -0.66613381478E-15  0.00000000000E+00  0.00000000000E+00  0.91188000000E+02  0.91188000000E+02 0.  0.
    9900012    2    3    3    0    0 -0.85249265141E+00 -0.34939442145E+02 -0.11588312049E+02  0.54367077452E+02  0.39999984668E+02 0.  0.
        -12    1    3    3    0    0  0.85249265141E+00  0.34939442145E+02  0.11588312049E+02  0.36820922548E+02  0.00000000000E+00 0.  1.
         11    1    4    4    0    0 -0.62302159132E+01 -0.71171347632E-01 -0.62624279134E+01  0.88339492481E+01  0.51100000000E-03 0.  1.
        -11    1    4    4    0    0  0.93243616527E+01 -0.86563139818E+01  0.88259005908E+01  0.15484573403E+02  0.51100000000E-03 0. -1.
         12    1    4    4    0    0 -0.39466383910E+01 -0.26211956816E+02 -0.14151784726E+02  0.30048554801E+02  0.00000000000E+00 0. -1.
</event>
<event>
 8    1  0.2493819E-006  0.9118800E+02  0.7816164E-02  0.1184000E+00
        -11   -1    0    0    0    0  0.00000000000E+00  0.00000000000E+00  0.45593999997E+02  0.45594000000E+02  0.51100000000E-03 0. -1.
         11   -1    0    0    0    0 -0.00000000000E+00 -0.00000000000E+00 -0.45593999997E+02  0.45594000000E+02  0.51100000000E-03 0.  1.
         23    2    1    2    0    0  0.00000000000E+00  0.00000000000E+00  0.35527136788E-14  0.91188000000E+02  0.91188000000E+02 0.  0.
    9900012    2    3    3    0    0  0.14686604978E+02  0.19957127468E+02 -0.27235862652E+02  0.54367142909E+02  0.40000133889E+02 0.  0.
         12    1    3    3    0    0 -0.14686604978E+02 -0.19957127468E+02  0.27235862652E+02  0.36820857091E+02  0.00000000000E+00 0. -1.
         11    1    4    4    0    0 -0.67517182240E+01 -0.19454148348E+01 -0.79162419651E+01  0.10584763813E+02  0.51100000000E-03 0. -1.
        -11    1    4    4    0    0 -0.36626307995E+01  0.30348497825E+01 -0.99247046120E+01  0.11005677602E+02  0.51100000000E-03 0.  1.
        -12    1    4    4    0    0  0.25100954002E+02  0.18867692520E+02 -0.93949160745E+01  0.32776701495E+02  0.00000000000E+00 0.  1.
</event>
<event>
 8    1  0.2493819E-006  0.9118800E+02  0.7816164E-02  0.1184000E+00
        -11   -1    0    0    0    0  0.00000000000E+00  0.00000000000E+00  0.45593999997E+02  0.45594000000E+02  0.51100000000E-03 0. -1.
         11   -1    0    0    0    0 -0.00000000000E+00 -0.00000000000E+00 -0.45593999997E+02  0.45594000000E+02  0.51100000000E-03 0.  1.
         23    2    1    2    0    0  0.88817841970E-15  0.00000000000E+00  0.00000000000E+00  0.91188000000E+02  0.91188000000E+02 0.  0.
    9900012    2    3    3    0    0 -0.49686020609E+01 -0.47587783674E+01 -0.36172451596E+02  0.54367092455E+02  0.40000018869E+02 0.  0.
         12    1    3    3    0    0  0.49686020609E+01  0.47587783674E+01  0.36172451596E+02  0.36820907545E+02  0.00000000000E+00 0. -1.
         11    1    4    4    0    0 -0.15344565310E+02 -0.84535016678E+01 -0.15904076043E+02  0.23661297725E+02  0.51100000000E-03 0. -1.
        -11    1    4    4    0    0  0.56931370820E+01 -0.76227092950E+01 -0.14053879082E+02  0.16971417865E+02  0.51100000000E-03 0.  1.
        -12    1    4    4    0    0  0.46828261672E+01  0.11317432595E+02 -0.62144964713E+01  0.13734376864E+02  0.00000000000E+00 0.  1.
</event>
<event>
 8    1  0.2493819E-006  0.9118800E+02  0.7816164E-02  0.1184000E+00
        -11   -1    0    0    0    0  0.00000000000E+00  0.00000000000E+00  0.45593999997E+02  0.45594000000E+02  0.51100000000E-03 0. -1.
         11   -1    0    0    0    0 -0.00000000000E+00 -0.00000000000E+00 -0.45593999997E+02  0.45594000000E+02  0.51100000000E-03 0.  1.
         23    2    1    2    0    0  0.00000000000E+00  0.00000000000E+00 -0.35527136788E-14  0.91188000000E+02  0.91188000000E+02 0.  0.
    9900012    2    3    3    0    0  0.24625011541E+02 -0.80780104059E+01 -0.26155973939E+02  0.54367076354E+02  0.39999982163E+02 0.  0.
         12    1    3    3    0    0 -0.24625011541E+02  0.80780104059E+01  0.26155973939E+02  0.36820923646E+02  0.00000000000E+00 0. -1.
         11    1    4    4    0    0  0.13011210493E-01 -0.20960127948E+01  0.18803771036E+01  0.28158936842E+01  0.51100000000E-03 0. -1.
        -11    1    4    4    0    0  0.21379832811E+02 -0.33513852155E+01 -0.36319901642E+02  0.42278413989E+02  0.51100000000E-03 0.  1.
        -12    1    4    4    0    0  0.32321675192E+01 -0.26306123956E+01  0.82835506000E+01  0.92727686799E+01  0.00000000000E+00 0.  1.
</event>
<event>
 8    1  0.2493819E-006  0.9118800E+02  0.7816164E-02  0.1184000E+00
        -11   -1    0    0    0    0  0.00000000000E+00  0.00000000000E+00  0.45593999997E+02  0.45594000000E+02  0.51100000000E-03 0. -1.
         11   -1    0    0    0    0 -0.00000000000E+00 -0.00000000000E+00 -0.45593999997E+02  0.45594000000E+02  0.51100000000E-03 0.  1.
         23    2    1    2    0    0  0.77715611724E-15  0.00000000000E+00  0.00000000000E+00  0.91188000000E+02  0.91188000000E+02 0.  0.
    9900012    2    3    3    0    0 -0.93643452807E+00  0.22646551860E+02 -0.29017862948E+02  0.54367087588E+02  0.40000007774E+02 0.  0.
         12    1    3    3    0    0  0.93643452807E+00 -0.22646551860E+02  0.29017862948E+02  0.36820912412E+02  0.00000000000E+00 0. -1.
         11    1    4    4    0    0 -0.13837226753E+02  0.92550199747E+01  0.56665220423E+00  0.16656690366E+02  0.51100000000E-03 0. -1.
        -11    1    4    4    0    0  0.15014431266E+01  0.11775641883E+02 -0.15079803696E+02  0.19191679265E+02  0.51100000000E-03 0.  1.
         12    1    4    4    0    0  0.11399349099E+02  0.16158900018E+01 -0.14504711456E+02  0.18518717958E+02  0.00000000000E+00 0. -1.
</event>
<event>
 8    1  0.2493819E-006  0.9118800E+02  0.7816164E-02  0.1184000E+00
        -11   -1    0    0    0    0  0.00000000000E+00  0.00000000000E+00  0.45593999997E+02  0.45594000000E+02  0.51100000000E-03 0.  1.
         11   -1    0    0    0    0 -0.00000000000E+00 -0.00000000000E+00 -0.45593999997E+02  0.45594000000E+02  0.51100000000E-03 0. -1.
         23    2    1    2    0    0  0.00000000000E+00  0.00000000000E+00  0.00000000000E+00  0.91188000000E+02  0.91188000000E+02 0.  0.
    9900012    2    3    3    0    0 -0.22912531751E+02 -0.22593165376E+02 -0.17898244623E+02  0.54367049530E+02  0.39999921013E+02 0.  0.
         12    1    3    3    0    0  0.22912531751E+02  0.22593165376E+02  0.17898244623E+02  0.36820950470E+02  0.00000000000E+00 0. -1.
         11    1    4    4    0    0 -0.25533446716E+02  0.11567947104E+01 -0.10370210652E+02  0.27583262034E+02  0.51100000000E-03 0. -1.
        -11    1    4    4    0    0 -0.33763735430E+01 -0.66647113745E+01 -0.10101078725E+01  0.75391374959E+01  0.51100000000E-03 0.  1.
         12    1    4    4    0    0  0.59972885077E+01 -0.17085248712E+02 -0.65179260986E+01  0.19244650000E+02  0.00000000000E+00 0. -1.
</event>
<event>
 8    1  0.2493819E-006  0.9118800E+02  0.7816164E-02  0.1184000E+00
        -11   -1    0    0    0    0  0.00000000000E+00  0.00000000000E+00  0.45593999997E+02  0.45594000000E+02  0.51100000000E-03 0.  1.
         11   -1    0    0    0    0 -0.00000000000E+00 -0.00000000000E+00 -0.45593999997E+02  0.45594000000E+02  0.51100000000E-03 0. -1.
         23    2    1    2    0    0  0.00000000000E+00  0.00000000000E+00  0.00000000000E+00  0.91188000000E+02  0.91188000000E+02 0.  0.
    9900012    2    3    3    0    0  0.20710085566E+02 -0.25409182666E+02  0.16770380907E+02  0.54367083612E+02  0.39999998711E+02 0.  0.
         12    1    3    3    0    0 -0.20710085566E+02  0.25409182666E+02 -0.16770380907E+02  0.36820916388E+02  0.00000000000E+00 0. -1.
         11    1    4    4    0    0  0.54972622987E+01 -0.16604059237E+02 -0.29621689074E+01  0.17739479158E+02  0.51100000000E-03 0. -1.
        -11    1    4    4    0    0 -0.53940906935E+00  0.37350728916E+01  0.15630607083E+02  0.16079726668E+02  0.51100000000E-03 0.  1.
        -12    1    4    4    0    0  0.15752232337E+02 -0.12540196321E+02  0.41019427308E+01  0.20547877786E+02  0.00000000000E+00 0.  1.
</event>
<event>
 8    1  0.2493819E-006  0.9118800E+02  0.7816164E-02  0.1184000E+00
        -11   -1    0    0    0    0  0.00000000000E+00  0.00000000000E+00  0.45593999997E+02  0.45594000000E+02  0.51100000000E-03 0.  1.
         11   -1    0    0    0    0 -0.00000000000E+00 -0.00000000000E+00 -0.45593999997E+02  0.45594000000E+02  0.51100000000E-03 0. -1.
         23    2    1    2    0    0  0.00000000000E+00 -0.44408920985E-15 -0.35527136788E-14  0.91188000000E+02  0.91188000000E+02 0.  0.
    9900012    2    3    3    0    0  0.19446960938E+02  0.10126660501E+01  0.31250122558E+02  0.54367082818E+02  0.39999996900E+02 0.  0.
         12    1    3    3    0    0 -0.19446960938E+02 -0.10126660501E+01 -0.31250122558E+02  0.36820917182E+02  0.00000000000E+00 0. -1.
         11    1    4    4    0    0  0.21826607593E+01  0.31327619258E+01  0.22249272075E+02  0.22574505829E+02  0.51100000000E-03 0. -1.
        -11    1    4    4    0    0  0.12782406241E+02 -0.30450665464E+01  0.17651866024E+02  0.22005697307E+02  0.51100000000E-03 0.  1.
         12    1    4    4    0    0  0.44818939381E+01  0.92497067069E+00 -0.86510155418E+01  0.97868796824E+01  0.00000000000E+00 0. -1.
</event>
<event>
 8    1  0.2493819E-006  0.9118800E+02  0.7816164E-02  0.1184000E+00
        -11   -1    0    0    0    0  0.00000000000E+00  0.00000000000E+00  0.45593999997E+02  0.45594000000E+02  0.51100000000E-03 0. -1.
         11   -1    0    0    0    0 -0.00000000000E+00 -0.00000000000E+00 -0.45593999997E+02  0.45594000000E+02  0.51100000000E-03 0.  1.
         23    2    1    2    0    0 -0.44408920985E-15  0.35527136788E-14  0.00000000000E+00  0.91188000000E+02  0.91188000000E+02 0.  0.
    9900012    2    3    3    0    0  0.37885461212E+01 -0.27953249887E+02 -0.23665226779E+02  0.54367079052E+02  0.39999988315E+02 0.  0.
         12    1    3    3    0    0 -0.37885461212E+01  0.27953249887E+02  0.23665226779E+02  0.36820920948E+02  0.00000000000E+00 0. -1.
         11    1    4    4    0    0 -0.13413425456E+01  0.80275838730E+00 -0.31917632684E+01  0.35540081423E+01  0.51100000000E-03 0. -1.
        -11    1    4    4    0    0 -0.86528991206E+01 -0.29193711776E+02 -0.21040864442E+02  0.37011666366E+02  0.51100000000E-03 0.  1.
         12    1    4    4    0    0  0.13782787787E+02  0.43770350223E+00  0.56740093162E+00  0.13801404543E+02  0.00000000000E+00 0. -1.
</event>
<event>
 8    1  0.2493819E-006  0.9118800E+02  0.7816164E-02  0.1184000E+00
        -11   -1    0    0    0    0  0.00000000000E+00  0.00000000000E+00  0.45593999997E+02  0.45594000000E+02  0.51100000000E-03 0.  1.
         11   -1    0    0    0    0 -0.00000000000E+00 -0.00000000000E+00 -0.45593999997E+02  0.45594000000E+02  0.51100000000E-03 0. -1.
         23    2    1    2    0    0  0.00000000000E+00  0.17763568394E-14 -0.71054273576E-14  0.91188000000E+02  0.91188000000E+02 0.  0.
    9900012    2    3    3    0    0 -0.19601729142E+02  0.15476457359E+02  0.27056052708E+02  0.54367102321E+02  0.40000041361E+02 0.  0.
        -12    1    3    3    0    0  0.19601729142E+02 -0.15476457359E+02 -0.27056052708E+02  0.36820897679E+02  0.00000000000E+00 0.  1.
         11    1    4    4    0    0 -0.11564799756E+02  0.15531941329E+02 -0.45379049406E+01  0.19889152228E+02  0.51100000000E-03 0. -1.
        -11    1    4    4    0    0 -0.36834555468E+01 -0.60845645660E+00  0.14322741870E+01  0.39986839876E+01  0.51100000000E-03 0.  1.
         12    1    4    4    0    0 -0.43534738396E+01  0.55297248633E+00  0.30161683462E+02  0.30479266105E+02  0.00000000000E+00 0. -1.
</event>
<event>
 8    1  0.2493819E-006  0.9118800E+02  0.7816164E-02  0.1184000E+00
        -11   -1    0    0    0    0  0.00000000000E+00  0.00000000000E+00  0.45593999997E+02  0.45594000000E+02  0.51100000000E-03 0. -1.
         11   -1    0    0    0    0 -0.00000000000E+00 -0.00000000000E+00 -0.45593999997E+02  0.45594000000E+02  0.51100000000E-03 0.  1.
         23    2    1    2    0    0  0.44408920985E-15  0.00000000000E+00  0.00000000000E+00  0.91188000000E+02  0.91188000000E+02 0.  0.
    9900012    2    3    3    0    0 -0.26239910146E+01  0.99132638520E+01  0.35364090367E+02  0.54367122545E+02  0.40000087466E+02 0.  0.
        -12    1    3    3    0    0  0.26239910146E+01 -0.99132638520E+01 -0.35364090367E+02  0.36820877455E+02  0.00000000000E+00 0.  1.
         11    1    4    4    0    0  0.94763363790E+00 -0.96415249722E+01  0.13010707840E+02  0.16221452834E+02  0.51100000000E-03 0. -1.
        -11    1    4    4    0    0 -0.41729853642E+01 -0.37344304466E+01 -0.35641970999E+00  0.56113111552E+01  0.51100000000E-03 0.  1.
         12    1    4    4    0    0  0.60136071171E+00  0.23289219271E+02  0.22709802238E+02  0.32534358556E+02  0.00000000000E+00 0. -1.
</event>
<event>
 8    1  0.2493819E-006  0.9118800E+02  0.7816164E-02  0.1184000E+00
        -11   -1    0    0    0    0  0.00000000000E+00  0.00000000000E+00  0.45593999997E+02  0.45594000000E+02  0.51100000000E-03 0.  1.
         11   -1    0    0    0    0 -0.00000000000E+00 -0.00000000000E+00 -0.45593999997E+02  0.45594000000E+02  0.51100000000E-03 0. -1.
         23    2    1    2    0    0 -0.17763568394E-14  0.88817841970E-15  0.00000000000E+00  0.91188000000E+02  0.91188000000E+02 0.  0.
    9900012    2    3    3    0    0  0.11060151379E+02  0.71616202468E+01 -0.34382561746E+02  0.54367132204E+02  0.40000109485E+02 0.  0.
        -12    1    3    3    0    0 -0.11060151379E+02 -0.71616202468E+01  0.34382561746E+02  0.36820867796E+02  0.00000000000E+00 0.  1.
         11    1    4    4    0    0  0.43692343542E+01  0.15445623911E+01  0.62493970187E+01  0.77801571437E+01  0.51100000000E-03 0. -1.
        -11    1    4    4    0    0 -0.24546425111E+01  0.57451174496E+01 -0.15335683565E+01  0.64329990310E+01  0.51100000000E-03 0.  1.
         12    1    4    4    0    0  0.91455595356E+01 -0.12805959401E+00 -0.39098390408E+02  0.40153976029E+02  0.00000000000E+00 0. -1.
</event>
<event>
 8    1  0.2493819E-006  0.9118800E+02  0.7816164E-02  0.1184000E+00
        -11   -1    0    0    0    0  0.00000000000E+00  0.00000000000E+00  0.45593999997E+02  0.45594000000E+02  0.51100000000E-03 0. -1.
         11   -1    0    0    0    0 -0.00000000000E+00 -0.00000000000E+00 -0.45593999997E+02  0.45594000000E+02  0.51100000000E-03 0.  1.
         23    2    1    2    0    0 -0.44408920985E-15 -0.26645352591E-14  0.00000000000E+00  0.91188000000E+02  0.91188000000E+02 0.  0.
    9900012    2    3    3    0    0 -0.22662771438E+01 -0.41090701154E+01 -0.36520681883E+02  0.54367072873E+02  0.39999974229E+02 0.  0.
         12    1    3    3    0    0  0.22662771438E+01  0.41090701154E+01  0.36520681883E+02  0.36820927127E+02  0.00000000000E+00 0. -1.
         11    1    4    4    0    0 -0.12718577195E+02  0.84077628701E+01 -0.20221440412E+02  0.25325073247E+02  0.51100000000E-03 0. -1.
        -11    1    4    4    0    0  0.28271050054E+01  0.18076017805E+01 -0.11705225574E+02  0.12176709445E+02  0.51100000000E-03 0.  1.
         12    1    4    4    0    0  0.76251950457E+01 -0.14324434766E+02 -0.45940158966E+01  0.16865290182E+02  0.00000000000E+00 0. -1.
</event>
<event>
 8    1  0.2493819E-006  0.9118800E+02  0.7816164E-02  0.1184000E+00
        -11   -1    0    0    0    0  0.00000000000E+00  0.00000000000E+00  0.45593999997E+02  0.45594000000E+02  0.51100000000E-03 0.  1.
         11   -1    0    0    0    0 -0.00000000000E+00 -0.00000000000E+00 -0.45593999997E+02  0.45594000000E+02  0.51100000000E-03 0. -1.
         23    2    1    2    0    0  0.35527136788E-14 -0.71054273576E-14  0.00000000000E+00  0.91188000000E+02  0.91188000000E+02 0.  0.
    9900012    2    3    3    0    0  0.18646765303E+02 -0.27381133363E+02  0.16073320214E+02  0.54367082803E+02  0.39999996866E+02 0.  0.
         12    1    3    3    0    0 -0.18646765303E+02  0.27381133363E+02 -0.16073320214E+02  0.36820917197E+02  0.00000000000E+00 0. -1.
         11    1    4    4    0    0  0.61616770394E+01 -0.11228291793E+02  0.92735149319E+01  0.15812617746E+02  0.51100000000E-03 0.  1.
        -11    1    4    4    0    0 -0.41093250813E+01 -0.19205514887E+02  0.88789631012E+01  0.21553986655E+02  0.51100000000E-03 0. -1.
         12    1    4    4    0    0  0.16594413345E+02  0.30526733173E+01 -0.20791578193E+01  0.17000478402E+02  0.00000000000E+00 0. -1.
</event>
<event>
 8    1  0.2493819E-006  0.9118800E+02  0.7816164E-02  0.1184000E+00
        -11   -1    0    0    0    0  0.00000000000E+00  0.00000000000E+00  0.45593999997E+02  0.45594000000E+02  0.51100000000E-03 0. -1.
         11   -1    0    0    0    0 -0.00000000000E+00 -0.00000000000E+00 -0.45593999997E+02  0.45594000000E+02  0.51100000000E-03 0.  1.
         23    2    1    2    0    0  0.00000000000E+00  0.17763568394E-14  0.35527136788E-14  0.91188000000E+02  0.91188000000E+02 0.  0.
    9900012    2    3    3    0    0  0.25271263568E+02  0.12157311044E+02  0.23860921024E+02  0.54367074886E+02  0.39999978818E+02 0.  0.
        -12    1    3    3    0    0 -0.25271263568E+02 -0.12157311044E+02 -0.23860921024E+02  0.36820925114E+02  0.00000000000E+00 0.  1.
         11    1    4    4    0    0  0.14127557913E+02 -0.77957498432E+01  0.86407124495E+01  0.18303647727E+02  0.51100000000E-03 0. -1.
        -11    1    4    4    0    0 -0.11071089659E+01 -0.48486883126E+01  0.15627588107E+01  0.52132220341E+01  0.51100000000E-03 0.  1.
         12    1    4    4    0    0  0.12250814621E+02  0.24801749200E+02  0.13657449763E+02  0.30850205126E+02  0.00000000000E+00 0. -1.
</event>
<event>
 8    1  0.2493819E-006  0.9118800E+02  0.7816164E-02  0.1184000E+00
        -11   -1    0    0    0    0  0.00000000000E+00  0.00000000000E+00  0.45593999997E+02  0.45594000000E+02  0.51100000000E-03 0. -1.
         11   -1    0    0    0    0 -0.00000000000E+00 -0.00000000000E+00 -0.45593999997E+02  0.45594000000E+02  0.51100000000E-03 0.  1.
         23    2    1    2    0    0  0.00000000000E+00  0.00000000000E+00  0.00000000000E+00  0.91188000000E+02  0.91188000000E+02 0.  0.
    9900012    2    3    3    0    0 -0.19370232007E+02 -0.20374440577E+02 -0.23779343437E+02  0.54367069931E+02  0.39999967522E+02 0.  0.
         12    1    3    3    0    0  0.19370232007E+02  0.20374440577E+02  0.23779343437E+02  0.36820930069E+02  0.00000000000E+00 0. -1.
         11    1    4    4    0    0 -0.81922162035E+01 -0.27892802945E+02 -0.16980516851E+02  0.33666880093E+02  0.51100000000E-03 0. -1.
        -11    1    4    4    0    0 -0.14063245239E+02  0.46850250988E+01 -0.74734393182E+01  0.16600500665E+02  0.51100000000E-03 0.  1.
        -12    1    4    4    0    0  0.28852294353E+01  0.28333372691E+01  0.67461273211E+00  0.40996891727E+01  0.00000000000E+00 0.  1.
</event>
<event>
 8    1  0.2493819E-006  0.9118800E+02  0.7816164E-02  0.1184000E+00
        -11   -1    0    0    0    0  0.00000000000E+00  0.00000000000E+00  0.45593999997E+02  0.45594000000E+02  0.51100000000E-03 0.  1.
         11   -1    0    0    0    0 -0.00000000000E+00 -0.00000000000E+00 -0.45593999997E+02  0.45594000000E+02  0.51100000000E-03 0. -1.
         23    2    1    2    0    0  0.00000000000E+00  0.00000000000E+00  0.00000000000E+00  0.91188000000E+02  0.91188000000E+02 0.  0.
    9900012    2    3    3    0    0  0.97605468997E+01 -0.20961724414E+02  0.28655368610E+02  0.54366914786E+02  0.39999613836E+02 0.  0.
         12    1    3    3    0    0 -0.97605468997E+01  0.20961724414E+02 -0.28655368610E+02  0.36821085214E+02  0.00000000000E+00 0. -1.
         11    1    4    4    0    0  0.71331357096E+01  0.21414315171E+01 -0.14403657325E+00  0.74490335473E+01  0.51100000000E-03 0. -1.
        -11    1    4    4    0    0  0.15593556645E+02 -0.96708443826E+01  0.13494291355E+02  0.22776745583E+02  0.51100000000E-03 0.  1.
        -12    1    4    4    0    0 -0.12966145455E+02 -0.13432311548E+02  0.15305113828E+02  0.24141135656E+02  0.00000000000E+00 0.  1.
</event>
<event>
 8    1  0.2493819E-006  0.9118800E+02  0.7816164E-02  0.1184000E+00
        -11   -1    0    0    0    0  0.00000000000E+00  0.00000000000E+00  0.45593999997E+02  0.45594000000E+02  0.51100000000E-03 0. -1.
         11   -1    0    0    0    0 -0.00000000000E+00 -0.00000000000E+00 -0.45593999997E+02  0.45594000000E+02  0.51100000000E-03 0.  1.
         23    2    1    2    0    0  0.17763568394E-14  0.71054273576E-14 -0.17763568394E-14  0.91188000000E+02  0.91188000000E+02 0.  0.
    9900012    2    3    3    0    0  0.15877807345E+02  0.30417714747E+02 -0.13358096193E+02  0.54367070213E+02  0.39999968164E+02 0.  0.
         12    1    3    3    0    0 -0.15877807345E+02 -0.30417714747E+02  0.13358096193E+02  0.36820929787E+02  0.00000000000E+00 0. -1.
         11    1    4    4    0    0  0.27283428350E+01  0.21732230721E+02  0.48443614661E+01  0.22432154266E+02  0.51100000000E-03 0. -1.
        -11    1    4    4    0    0 -0.17316072360E+01  0.29969388067E+01  0.35594219098E+01  0.49648353874E+01  0.51100000000E-03 0.  1.
         12    1    4    4    0    0  0.14881071746E+02  0.56885452197E+01 -0.21761879569E+02  0.26970080560E+02  0.00000000000E+00 0. -1.
</event>
<event>
 8    1  0.2493819E-006  0.9118800E+02  0.7816164E-02  0.1184000E+00
        -11   -1    0    0    0    0  0.00000000000E+00  0.00000000000E+00  0.45593999997E+02  0.45594000000E+02  0.51100000000E-03 0.  1.
         11   -1    0    0    0    0 -0.00000000000E+00 -0.00000000000E+00 -0.45593999997E+02  0.45594000000E+02  0.51100000000E-03 0. -1.
         23    2    1    2    0    0  0.00000000000E+00  0.00000000000E+00 -0.35527136788E-14  0.91188000000E+02  0.91188000000E+02 0.  0.
    9900012    2    3    3    0    0  0.17396443620E+02 -0.22110699987E+02 -0.23754150356E+02  0.54367096105E+02  0.40000027190E+02 0.  0.
        -12    1    3    3    0    0 -0.17396443620E+02  0.22110699987E+02  0.23754150356E+02  0.36820903895E+02  0.00000000000E+00 0.  1.
         11    1    4    4    0    0  0.22351524736E+00 -0.10939186232E+02  0.59878914321E+01  0.12472794336E+02  0.51100000000E-03 0. -1.
        -11    1    4    4    0    0 -0.19455492216E+01 -0.73980714423E+01 -0.18519494894E+01  0.78705997237E+01  0.51100000000E-03 0.  1.
         12    1    4    4    0    0  0.19118477594E+02 -0.37734423126E+01 -0.27890092299E+02  0.34023702045E+02  0.00000000000E+00 0. -1.
</event>
<event>
 8    1  0.2493819E-006  0.9118800E+02  0.7816164E-02  0.1184000E+00
        -11   -1    0    0    0    0  0.00000000000E+00  0.00000000000E+00  0.45593999997E+02  0.45594000000E+02  0.51100000000E-03 0.  1.
         11   -1    0    0    0    0 -0.00000000000E+00 -0.00000000000E+00 -0.45593999997E+02  0.45594000000E+02  0.51100000000E-03 0. -1.
         23    2    1    2    0    0  0.00000000000E+00  0.35527136788E-14  0.00000000000E+00  0.91188000000E+02  0.91188000000E+02 0.  0.
    9900012    2    3    3    0    0 -0.24949273202E+02  0.25302633368E+02 -0.96483117044E+01  0.54367090079E+02  0.40000013452E+02 0.  0.
         12    1    3    3    0    0  0.24949273202E+02 -0.25302633368E+02  0.96483117044E+01  0.36820909921E+02  0.00000000000E+00 0. -1.
         11    1    4    4    0    0  0.64649184240E+01 -0.17077582843E+01  0.70103645295E+01  0.96879729399E+01  0.51100000000E-03 0. -1.
        -11    1    4    4    0    0 -0.21633007721E+02  0.19510897424E+02 -0.11770464011E+02  0.31419833938E+02  0.51100000000E-03 0.  1.
         12    1    4    4    0    0 -0.97811839055E+01  0.74994942282E+01 -0.48882122226E+01  0.13259283201E+02  0.00000000000E+00 0. -1.
</event>
<event>
 8    1  0.2493819E-006  0.9118800E+02  0.7816164E-02  0.1184000E+00
        -11   -1    0    0    0    0  0.00000000000E+00  0.00000000000E+00  0.45593999997E+02  0.45594000000E+02  0.51100000000E-03 0.  1.
         11   -1    0    0    0    0 -0.00000000000E+00 -0.00000000000E+00 -0.45593999997E+02  0.45594000000E+02  0.51100000000E-03 0. -1.
         23    2    1    2    0    0  0.71054273576E-14  0.00000000000E+00  0.88817841970E-15  0.91188000000E+02  0.91188000000E+02 0.  0.
    9900012    2    3    3    0    0  0.34059890304E+02 -0.13026441623E+02  0.51006525837E+01  0.54367068919E+02  0.39999965216E+02 0.  0.
        -12    1    3    3    0    0 -0.34059890304E+02  0.13026441623E+02 -0.51006525837E+01  0.36820931081E+02  0.00000000000E+00 0.  1.
         11    1    4    4    0    0  0.18677302224E+01  0.96504516277E+00 -0.59212450676E+01  0.62833805998E+01  0.51100000000E-03 0. -1.
        -11    1    4    4    0    0  0.37864277260E+02 -0.10612346772E+02  0.12604912615E+02  0.41294178993E+02  0.51100000000E-03 0.  1.
        -12    1    4    4    0    0 -0.56721171784E+01 -0.33791400135E+01 -0.15830149641E+01  0.67895093264E+01  0.00000000000E+00 0.  1.
</event>
<event>
 8    1  0.2493819E-006  0.9118800E+02  0.7816164E-02  0.1184000E+00
        -11   -1    0    0    0    0  0.00000000000E+00  0.00000000000E+00  0.45593999997E+02  0.45594000000E+02  0.51100000000E-03 0.  1.
         11   -1    0    0    0    0 -0.00000000000E+00 -0.00000000000E+00 -0.45593999997E+02  0.45594000000E+02  0.51100000000E-03 0. -1.
         23    2    1    2    0    0 -0.17763568394E-14  0.00000000000E+00 -0.35527136788E-14  0.91188000000E+02  0.91188000000E+02 0.  0.
    9900012    2    3    3    0    0 -0.10527101474E+02  0.16278211260E+02  0.31304582453E+02  0.54367123994E+02  0.40000090768E+02 0.  0.
         12    1    3    3    0    0  0.10527101474E+02 -0.16278211260E+02 -0.31304582453E+02  0.36820876006E+02  0.00000000000E+00 0. -1.
         11    1    4    4    0    0  0.32827558030E+01 -0.52121477421E+01 -0.25027742227E+01  0.66488231153E+01  0.51100000000E-03 0. -1.
        -11    1    4    4    0    0 -0.37284974318E+01  0.22611458361E+02  0.18994465498E+02  0.29765239158E+02  0.51100000000E-03 0.  1.
         12    1    4    4    0    0 -0.10081359845E+02 -0.11210993582E+01  0.14812891178E+02  0.17953061721E+02  0.00000000000E+00 0. -1.
</event>
<event>
 8    1  0.2493819E-006  0.9118800E+02  0.7816164E-02  0.1184000E+00
        -11   -1    0    0    0    0  0.00000000000E+00  0.00000000000E+00  0.45593999997E+02  0.45594000000E+02  0.51100000000E-03 0.  1.
         11   -1    0    0    0    0 -0.00000000000E+00 -0.00000000000E+00 -0.45593999997E+02  0.45594000000E+02  0.51100000000E-03 0. -1.
         23    2    1    2    0    0  0.88817841970E-15  0.00000000000E+00  0.00000000000E+00  0.91188000000E+02  0.91188000000E+02 0.  0.
    9900012    2    3    3    0    0 -0.33334032475E+01 -0.18930471800E+02 -0.31405507308E+02  0.54367078922E+02  0.39999988019E+02 0.  0.
        -12    1    3    3    0    0  0.33334032475E+01  0.18930471800E+02  0.31405507308E+02  0.36820921078E+02  0.00000000000E+00 0.  1.
         11    1    4    4    0    0  0.13345785603E+01  0.21620446413E+01 -0.12118480510E+02  0.12381967013E+02  0.51100000000E-03 0. -1.
        -11    1    4    4    0    0 -0.39363440495E+01  0.25534434680E+01  0.58283155244E+01  0.74822550166E+01  0.51100000000E-03 0.  1.
         12    1    4    4    0    0 -0.73163775828E+00 -0.23645959909E+02 -0.25115342322E+02  0.34502856893E+02  0.00000000000E+00 0. -1.
</event>
<event>
 8    1  0.2493819E-006  0.9118800E+02  0.7816164E-02  0.1184000E+00
        -11   -1    0    0    0    0  0.00000000000E+00  0.00000000000E+00  0.45593999997E+02  0.45594000000E+02  0.51100000000E-03 0. -1.
         11   -1    0    0    0    0 -0.00000000000E+00 -0.00000000000E+00 -0.45593999997E+02  0.45594000000E+02  0.51100000000E-03 0.  1.
         23    2    1    2    0    0 -0.14210854715E-13 -0.55511151231E-15 -0.44408920985E-15  0.91188000000E+02  0.91188000000E+02 0.  0.
    9900012    2    3    3    0    0 -0.36704688596E+02 -0.96246020811E+00 -0.27602712061E+01  0.54367087576E+02  0.40000007747E+02 0.  0.
         12    1    3    3    0    0  0.36704688596E+02  0.96246020811E+00  0.27602712061E+01  0.36820912424E+02  0.00000000000E+00 0. -1.
         11    1    4    4    0    0 -0.17513707827E+01  0.60808746700E+01 -0.33381362341E+01  0.71545433222E+01  0.51100000000E-03 0. -1.
        -11    1    4    4    0    0 -0.98420658552E+00  0.89234057131E+01 -0.31014802302E+01  0.94981583480E+01  0.51100000000E-03 0.  1.
         12    1    4    4    0    0 -0.33969111228E+02 -0.15966740591E+02  0.36793452582E+01  0.37714385906E+02  0.00000000000E+00 0. -1.
</event>
<event>
 8    1  0.2493819E-006  0.9118800E+02  0.7816164E-02  0.1184000E+00
        -11   -1    0    0    0    0  0.00000000000E+00  0.00000000000E+00  0.45593999997E+02  0.45594000000E+02  0.51100000000E-03 0.  1.
         11   -1    0    0    0    0 -0.00000000000E+00 -0.00000000000E+00 -0.45593999997E+02  0.45594000000E+02  0.51100000000E-03 0. -1.
         23    2    1    2    0    0 -0.17763568394E-14  0.00000000000E+00  0.00000000000E+00  0.91188000000E+02  0.91188000000E+02 0.  0.
    9900012    2    3    3    0    0 -0.15343534835E+02  0.19923293007E+02 -0.26896459895E+02  0.54367065460E+02  0.39999957330E+02 0.  0.
        -12    1    3    3    0    0  0.15343534835E+02 -0.19923293007E+02  0.26896459895E+02  0.36820934540E+02  0.00000000000E+00 0.  1.
         11    1    4    4    0    0  0.47349351372E+01  0.11674642323E+02 -0.18086200509E+02  0.22041495713E+02  0.51100000000E-03 0. -1.
        -11    1    4    4    0    0  0.20202309052E+01  0.51095122054E+01 -0.83558069684E+01  0.10000397904E+02  0.51100000000E-03 0.  1.
        -12    1    4    4    0    0 -0.22098700877E+02  0.31391384789E+01 -0.45445241744E+00  0.22325171844E+02  0.00000000000E+00 0.  1.
</event>
<event>
 8    1  0.2493819E-006  0.9118800E+02  0.7816164E-02  0.1184000E+00
        -11   -1    0    0    0    0  0.00000000000E+00  0.00000000000E+00  0.45593999997E+02  0.45594000000E+02  0.51100000000E-03 0. -1.
         11   -1    0    0    0    0 -0.00000000000E+00 -0.00000000000E+00 -0.45593999997E+02  0.45594000000E+02  0.51100000000E-03 0.  1.
         23    2    1    2    0    0  0.00000000000E+00 -0.88817841970E-15  0.00000000000E+00  0.91188000000E+02  0.91188000000E+02 0.  0.
    9900012    2    3    3    0    0 -0.19447257226E+02  0.66069665869E+01  0.30560298810E+02  0.54367086317E+02  0.40000004876E+02 0.  0.
        -12    1    3    3    0    0  0.19447257226E+02 -0.66069665869E+01 -0.30560298810E+02  0.36820913683E+02  0.00000000000E+00 0.  1.
         11    1    4    4    0    0 -0.25161397197E+00 -0.48445192181E+01  0.25546954787E+02  0.26003453140E+02  0.51100000000E-03 0. -1.
        -11    1    4    4    0    0 -0.27626619230E+01 -0.36199106678E+01 -0.20218504965E+01  0.49823622746E+01  0.51100000000E-03 0.  1.
         12    1    4    4    0    0 -0.16432981331E+02  0.15071396473E+02  0.70351945197E+01  0.23381270902E+02  0.00000000000E+00 0. -1.
</event>
<event>
 8    1  0.2493819E-006  0.9118800E+02  0.7816164E-02  0.1184000E+00
        -11   -1    0    0    0    0  0.00000000000E+00  0.00000000000E+00  0.45593999997E+02  0.45594000000E+02  0.51100000000E-03 0.  1.
         11   -1    0    0    0    0 -0.00000000000E+00 -0.00000000000E+00 -0.45593999997E+02  0.45594000000E+02  0.51100000000E-03 0. -1.
         23    2    1    2    0    0  0.00000000000E+00  0.00000000000E+00  0.71054273576E-14  0.91188000000E+02  0.91188000000E+02 0.  0.
    9900012    2    3    3    0    0 -0.54377523145E+01  0.96365910150E+01 -0.35119131127E+02  0.54366995020E+02  0.39999796746E+02 0.  0.
        -12    1    3    3    0    0  0.54377523145E+01 -0.96365910150E+01  0.35119131127E+02  0.36821004980E+02  0.00000000000E+00 0.  1.
         11    1    4    4    0    0 -0.12502316138E+02  0.11400931357E+02 -0.19038452297E+02  0.25470606799E+02  0.51100000000E-03 0. -1.
        -11    1    4    4    0    0  0.80147803819E+00 -0.81668086062E+01 -0.17959101532E+02  0.19745086932E+02  0.51100000000E-03 0.  1.
         12    1    4    4    0    0  0.62630857849E+01  0.64024682640E+01  0.18784227015E+01  0.91513012882E+01  0.00000000000E+00 0. -1.
</event>
<event>
 8    1  0.2493819E-006  0.9118800E+02  0.7816164E-02  0.1184000E+00
        -11   -1    0    0    0    0  0.00000000000E+00  0.00000000000E+00  0.45593999997E+02  0.45594000000E+02  0.51100000000E-03 0.  1.
         11   -1    0    0    0    0 -0.00000000000E+00 -0.00000000000E+00 -0.45593999997E+02  0.45594000000E+02  0.51100000000E-03 0. -1.
         23    2    1    2    0    0  0.00000000000E+00 -0.17763568394E-14 -0.88817841970E-15  0.91188000000E+02  0.91188000000E+02 0.  0.
    9900012    2    3    3    0    0 -0.35458143099E+02 -0.97723653932E+01  0.17321719858E+01  0.54367089403E+02  0.40000011911E+02 0.  0.
         12    1    3    3    0    0  0.35458143099E+02  0.97723653932E+01 -0.17321719858E+01  0.36820910597E+02  0.00000000000E+00 0. -1.
         11    1    4    4    0    0 -0.43199507191E+01  0.69858321203E+01 -0.88184089792E+01  0.12051064758E+02  0.51100000000E-03 0. -1.
        -11    1    4    4    0    0 -0.35375307473E+01 -0.12123912493E+02  0.59215630675E+01  0.13948773686E+02  0.51100000000E-03 0.  1.
        -12    1    4    4    0    0 -0.27600661633E+02 -0.46342850207E+01  0.46290178975E+01  0.28367250958E+02  0.00000000000E+00 0.  1.
</event>
<event>
 8    1  0.2493819E-006  0.9118800E+02  0.7816164E-02  0.1184000E+00
        -11   -1    0    0    0    0  0.00000000000E+00  0.00000000000E+00  0.45593999997E+02  0.45594000000E+02  0.51100000000E-03 0. -1.
         11   -1    0    0    0    0 -0.00000000000E+00 -0.00000000000E+00 -0.45593999997E+02  0.45594000000E+02  0.51100000000E-03 0.  1.
         23    2    1    2    0    0  0.00000000000E+00 -0.55511151231E-16  0.00000000000E+00  0.91188000000E+02  0.91188000000E+02 0.  0.
    9900012    2    3    3    0    0 -0.36293738835E+02 -0.42879091028E+00 -0.61936439441E+01  0.54367074352E+02  0.39999977601E+02 0.  0.
         12    1    3    3    0    0  0.36293738835E+02  0.42879091028E+00  0.61936439441E+01  0.36820925648E+02  0.00000000000E+00 0. -1.
         11    1    4    4    0    0  0.47843934313E+01  0.71299976582E+01 -0.28418461926E+00  0.85911610548E+01  0.51100000000E-03 0. -1.
        -11    1    4    4    0    0 -0.17387649680E+02 -0.92196644948E+01 -0.93333526033E+01  0.21781736521E+02  0.51100000000E-03 0.  1.
         12    1    4    4    0    0 -0.23690482586E+02  0.16608759264E+01  0.34238932784E+01  0.23994176777E+02  0.00000000000E+00 0. -1.
</event>
<event>
 8    1  0.2493819E-006  0.9118800E+02  0.7816164E-02  0.1184000E+00
        -11   -1    0    0    0    0  0.00000000000E+00  0.00000000000E+00  0.45593999997E+02  0.45594000000E+02  0.51100000000E-03 0.  1.
         11   -1    0    0    0    0 -0.00000000000E+00 -0.00000000000E+00 -0.45593999997E+02  0.45594000000E+02  0.51100000000E-03 0. -1.
         23    2    1    2    0    0  0.35527136788E-14  0.00000000000E+00  0.00000000000E+00  0.91188000000E+02  0.91188000000E+02 0.  0.
    9900012    2    3    3    0    0 -0.24036940927E+02 -0.74986505418E+01 -0.26865874956E+02  0.54367088466E+02  0.40000009776E+02 0.  0.
         12    1    3    3    0    0  0.24036940927E+02  0.74986505418E+01  0.26865874956E+02  0.36820911534E+02  0.00000000000E+00 0. -1.
         11    1    4    4    0    0 -0.20070568370E+02 -0.84252497107E+01 -0.19829389243E+02  0.29445156230E+02  0.51100000000E-03 0. -1.
        -11    1    4    4    0    0 -0.11529897416E+02 -0.14686547733E+01  0.31195116597E+01  0.12034402125E+02  0.51100000000E-03 0.  1.
        -12    1    4    4    0    0  0.75635248588E+01  0.23952539421E+01 -0.10155997372E+02  0.12887530111E+02  0.00000000000E+00 0.  1.
</event>
<event>
 8    1  0.2493819E-006  0.9118800E+02  0.7816164E-02  0.1184000E+00
        -11   -1    0    0    0    0  0.00000000000E+00  0.00000000000E+00  0.45593999997E+02  0.45594000000E+02  0.51100000000E-03 0.  1.
         11   -1    0    0    0    0 -0.00000000000E+00 -0.00000000000E+00 -0.45593999997E+02  0.45594000000E+02  0.51100000000E-03 0. -1.
         23    2    1    2    0    0  0.00000000000E+00  0.00000000000E+00  0.17763568394E-14  0.91188000000E+02  0.91188000000E+02 0.  0.
    9900012    2    3    3    0    0 -0.33416477560E+02  0.12217012355E+02 -0.94796007804E+01  0.54367092972E+02  0.40000020048E+02 0.  0.
        -12    1    3    3    0    0  0.33416477560E+02 -0.12217012355E+02  0.94796007804E+01  0.36820907028E+02  0.00000000000E+00 0.  1.
         11    1    4    4    0    0 -0.27594026822E+02  0.16125421564E+02 -0.11628829526E+02  0.34010133979E+02  0.51100000000E-03 0. -1.
        -11    1    4    4    0    0 -0.15373630787E+01  0.76708159559E+01 -0.73148912987E-02  0.78233596641E+01  0.51100000000E-03 0.  1.
         12    1    4    4    0    0 -0.42850876602E+01 -0.11579225165E+02  0.21565436369E+01  0.12533599329E+02  0.00000000000E+00 0. -1.
</event>
<event>
 8    1  0.2493819E-006  0.9118800E+02  0.7816164E-02  0.1184000E+00
        -11   -1    0    0    0    0  0.00000000000E+00  0.00000000000E+00  0.45593999997E+02  0.45594000000E+02  0.51100000000E-03 0.  1.
         11   -1    0    0    0    0 -0.00000000000E+00 -0.00000000000E+00 -0.45593999997E+02  0.45594000000E+02  0.51100000000E-03 0. -1.
         23    2    1    2    0    0 -0.35527136788E-14  0.00000000000E+00  0.17763568394E-14  0.91188000000E+02  0.91188000000E+02 0.  0.
    9900012    2    3    3    0    0  0.30495896905E+02 -0.17062086031E+02 -0.11604563364E+02  0.54367076618E+02  0.39999982767E+02 0.  0.
        -12    1    3    3    0    0 -0.30495896905E+02  0.17062086031E+02  0.11604563364E+02  0.36820923382E+02  0.00000000000E+00 0.  1.
         11    1    4    4    0    0  0.27368218379E+02 -0.46484239902E+00  0.51355943637E+01  0.27849771730E+02  0.51100000000E-03 0. -1.
        -11    1    4    4    0    0  0.74431934169E+00 -0.32163787309E+01  0.16171223070E+01  0.36761648821E+01  0.51100000000E-03 0.  1.
         12    1    4    4    0    0  0.23833591851E+01 -0.13380864901E+02 -0.18357280035E+02  0.22841140006E+02  0.00000000000E+00 0. -1.
</event>
<event>
 8    1  0.2493819E-006  0.9118800E+02  0.7816164E-02  0.1184000E+00
        -11   -1    0    0    0    0  0.00000000000E+00  0.00000000000E+00  0.45593999997E+02  0.45594000000E+02  0.51100000000E-03 0.  1.
         11   -1    0    0    0    0 -0.00000000000E+00 -0.00000000000E+00 -0.45593999997E+02  0.45594000000E+02  0.51100000000E-03 0. -1.
         23    2    1    2    0    0  0.35527136788E-14 -0.55511151231E-16  0.00000000000E+00  0.91188000000E+02  0.91188000000E+02 0.  0.
    9900012    2    3    3    0    0 -0.24493335281E+02  0.26056807257E+00 -0.27491626166E+02  0.54367070108E+02  0.39999967924E+02 0.  0.
        -12    1    3    3    0    0  0.24493335281E+02 -0.26056807257E+00  0.27491626166E+02  0.36820929892E+02  0.00000000000E+00 0.  1.
         11    1    4    4    0    0 -0.20818606494E+02 -0.34802627518E+01 -0.27879610552E+02  0.34968547152E+02  0.51100000000E-03 0. -1.
        -11    1    4    4    0    0  0.53879116388E+01  0.77273470854E+01  0.10335780490E+01  0.94768016045E+01  0.51100000000E-03 0.  1.
         12    1    4    4    0    0 -0.90626404257E+01 -0.39865162610E+01 -0.64559366300E+00  0.99217213508E+01  0.00000000000E+00 0. -1.
</event>
<event>
 8    1  0.2493819E-006  0.9118800E+02  0.7816164E-02  0.1184000E+00
        -11   -1    0    0    0    0  0.00000000000E+00  0.00000000000E+00  0.45593999997E+02  0.45594000000E+02  0.51100000000E-03 0.  1.
         11   -1    0    0    0    0 -0.00000000000E+00 -0.00000000000E+00 -0.45593999997E+02  0.45594000000E+02  0.51100000000E-03 0. -1.
         23    2    1    2    0    0  0.00000000000E+00  0.00000000000E+00  0.35527136788E-14  0.91188000000E+02  0.91188000000E+02 0.  0.
    9900012    2    3    3    0    0 -0.12456805955E+02 -0.30426272053E+02 -0.16578349218E+02  0.54367194625E+02  0.40000251786E+02 0.  0.
        -12    1    3    3    0    0  0.12456805955E+02  0.30426272053E+02  0.16578349218E+02  0.36820805375E+02  0.00000000000E+00 0.  1.
         11    1    4    4    0    0 -0.15118576815E+02 -0.17739285739E+02  0.11122754928E+01  0.23334326227E+02  0.51100000000E-03 0. -1.
        -11    1    4    4    0    0 -0.19319983156E+00  0.42996743449E+01 -0.12226689117E+02  0.12962116057E+02  0.51100000000E-03 0.  1.
         12    1    4    4    0    0  0.28549706921E+01 -0.16986660659E+02 -0.54639355941E+01  0.18070752341E+02  0.00000000000E+00 0. -1.
</event>
<event>
 8    1  0.2493819E-006  0.9118800E+02  0.7816164E-02  0.1184000E+00
        -11   -1    0    0    0    0  0.00000000000E+00  0.00000000000E+00  0.45593999997E+02  0.45594000000E+02  0.51100000000E-03 0.  1.
         11   -1    0    0    0    0 -0.00000000000E+00 -0.00000000000E+00 -0.45593999997E+02  0.45594000000E+02  0.51100000000E-03 0. -1.
         23    2    1    2    0    0  0.00000000000E+00  0.00000000000E+00  0.35527136788E-14  0.91188000000E+02  0.91188000000E+02 0.  0.
    9900012    2    3    3    0    0 -0.67967049110E+01 -0.19963137057E+02 -0.30183742829E+02  0.54367077008E+02  0.39999983655E+02 0.  0.
        -12    1    3    3    0    0  0.67967049110E+01  0.19963137057E+02  0.30183742829E+02  0.36820922992E+02  0.00000000000E+00 0.  1.
         11    1    4    4    0    0 -0.74047146572E+01 -0.20653937916E+02 -0.81163699705E+01  0.23394238871E+02  0.51100000000E-03 0. -1.
        -11    1    4    4    0    0 -0.54635600672E+01 -0.82793435578E+01 -0.59925894310E+01  0.11589182314E+02  0.51100000000E-03 0.  1.
         12    1    4    4    0    0  0.60715698134E+01  0.89701444163E+01 -0.16074783427E+02  0.19383655824E+02  0.00000000000E+00 0. -1.
</event>
<event>
 8    1  0.2493819E-006  0.9118800E+02  0.7816164E-02  0.1184000E+00
        -11   -1    0    0    0    0  0.00000000000E+00  0.00000000000E+00  0.45593999997E+02  0.45594000000E+02  0.51100000000E-03 0.  1.
         11   -1    0    0    0    0 -0.00000000000E+00 -0.00000000000E+00 -0.45593999997E+02  0.45594000000E+02  0.51100000000E-03 0. -1.
         23    2    1    2    0    0  0.00000000000E+00  0.00000000000E+00 -0.26645352591E-14  0.91188000000E+02  0.91188000000E+02 0.  0.
    9900012    2    3    3    0    0 -0.21580958225E+02  0.28923854231E+02  0.73111608186E+01  0.54367079669E+02  0.39999989722E+02 0.  0.
         12    1    3    3    0    0  0.21580958225E+02 -0.28923854231E+02 -0.73111608186E+01  0.36820920331E+02  0.00000000000E+00 0. -1.
         11    1    4    4    0    0 -0.66736921008E+01  0.20999555360E+01 -0.15404711782E+01  0.71638698496E+01  0.51100000000E-03 0. -1.
        -11    1    4    4    0    0 -0.20425700525E+02  0.26156733579E+02 -0.37809094761E+01  0.33401784836E+02  0.51100000000E-03 0.  1.
        -12    1    4    4    0    0  0.55184344007E+01  0.66716511556E+00  0.12632541473E+02  0.13801424984E+02  0.00000000000E+00 0.  1.
</event>
<event>
 8    1  0.2493819E-006  0.9118800E+02  0.7816164E-02  0.1184000E+00
        -11   -1    0    0    0    0  0.00000000000E+00  0.00000000000E+00  0.45593999997E+02  0.45594000000E+02  0.51100000000E-03 0. -1.
         11   -1    0    0    0    0 -0.00000000000E+00 -0.00000000000E+00 -0.45593999997E+02  0.45594000000E+02  0.51100000000E-03 0.  1.
         23    2    1    2    0    0  0.00000000000E+00  0.00000000000E+00  0.71054273576E-14  0.91188000000E+02  0.91188000000E+02 0.  0.
    9900012    2    3    3    0    0  0.28067727122E+01 -0.72616287224E+01 -0.35988481046E+02  0.54367082130E+02  0.39999995333E+02 0.  0.
         12    1    3    3    0    0 -0.28067727122E+01  0.72616287224E+01  0.35988481046E+02  0.36820917870E+02  0.00000000000E+00 0. -1.
         11    1    4    4    0    0  0.66091484681E+01 -0.14972808998E+02 -0.23824666460E+01  0.16539105186E+02  0.51100000000E-03 0. -1.
        -11    1    4    4    0    0 -0.19670755163E+01  0.11326749165E+02 -0.30857603631E+02  0.32929566272E+02  0.51100000000E-03 0.  1.
         12    1    4    4    0    0 -0.18353002396E+01 -0.36155688892E+01 -0.27484107690E+01  0.48984106726E+01  0.00000000000E+00 0. -1.
</event>
<event>
 8    1  0.2493819E-006  0.9118800E+02  0.7816164E-02  0.1184000E+00
        -11   -1    0    0    0    0  0.00000000000E+00  0.00000000000E+00  0.45593999997E+02  0.45594000000E+02  0.51100000000E-03 0.  1.
         11   -1    0    0    0    0 -0.00000000000E+00 -0.00000000000E+00 -0.45593999997E+02  0.45594000000E+02  0.51100000000E-03 0. -1.
         23    2    1    2    0    0  0.35527136788E-14  0.00000000000E+00  0.00000000000E+00  0.91188000000E+02  0.91188000000E+02 0.  0.
    9900012    2    3    3    0    0 -0.25241515801E+02 -0.36040737551E+01 -0.26564160920E+02  0.54367107657E+02  0.40000053525E+02 0.  0.
        -12    1    3    3    0    0  0.25241515801E+02  0.36040737551E+01  0.26564160920E+02  0.36820892343E+02  0.00000000000E+00 0.  1.
         11    1    4    4    0    0 -0.63757354513E+01  0.47867733382E+01  0.46914346308E+01  0.92505546154E+01  0.51100000000E-03 0. -1.
        -11    1    4    4    0    0  0.30699299085E+01 -0.21677160229E+01  0.24038489407E+01  0.44611604308E+01  0.51100000000E-03 0.  1.
         12    1    4    4    0    0 -0.21935710258E+02 -0.62231310704E+01 -0.33659444492E+02  0.40655392611E+02  0.00000000000E+00 0. -1.
</event>
<event>
 8    1  0.2493819E-006  0.9118800E+02  0.7816164E-02  0.1184000E+00
        -11   -1    0    0    0    0  0.00000000000E+00  0.00000000000E+00  0.45593999997E+02  0.45594000000E+02  0.51100000000E-03 0.  1.
         11   -1    0    0    0    0 -0.00000000000E+00 -0.00000000000E+00 -0.45593999997E+02  0.45594000000E+02  0.51100000000E-03 0. -1.
         23    2    1    2    0    0  0.19984014443E-14  0.00000000000E+00 -0.17763568394E-14  0.91188000000E+02  0.91188000000E+02 0.  0.
    9900012    2    3    3    0    0  0.14182748484E+01 -0.35996824966E+02 -0.76152996589E+01  0.54367140422E+02  0.40000128220E+02 0.  0.
        -12    1    3    3    0    0 -0.14182748484E+01  0.35996824966E+02  0.76152996589E+01  0.36820859578E+02  0.00000000000E+00 0.  1.
         11    1    4    4    0    0 -0.48569505252E+01 -0.25402987206E+02  0.76701313119E+01  0.26976520198E+02  0.51100000000E-03 0. -1.
        -11    1    4    4    0    0 -0.47881056614E+01  0.13910552166E+01  0.73737404978E-01  0.49866249013E+01  0.51100000000E-03 0.  1.
         12    1    4    4    0    0  0.11063331035E+02 -0.11984892976E+02 -0.15359168376E+02  0.22403995323E+02  0.00000000000E+00 0. -1.
</event>
<event>
 8    1  0.2493819E-006  0.9118800E+02  0.7816164E-02  0.1184000E+00
        -11   -1    0    0    0    0  0.00000000000E+00  0.00000000000E+00  0.45593999997E+02  0.45594000000E+02  0.51100000000E-03 0.  1.
         11   -1    0    0    0    0 -0.00000000000E+00 -0.00000000000E+00 -0.45593999997E+02  0.45594000000E+02  0.51100000000E-03 0. -1.
         23    2    1    2    0    0  0.44408920985E-15  0.00000000000E+00  0.00000000000E+00  0.91188000000E+02  0.91188000000E+02 0.  0.
    9900012    2    3    3    0    0  0.32606980493E+01  0.27477121994E+02  0.24293096095E+02  0.54367096933E+02  0.40000029077E+02 0.  0.
         12    1    3    3    0    0 -0.32606980493E+01 -0.27477121994E+02 -0.24293096095E+02  0.36820903067E+02  0.00000000000E+00 0. -1.
         11    1    4    4    0    0  0.48570913905E+01  0.29009697174E+02  0.91930410057E+01  0.30816649235E+02  0.51100000000E-03 0. -1.
        -11    1    4    4    0    0 -0.48604611560E+01 -0.81412097747E+01  0.41486204263E+01  0.10349610183E+02  0.51100000000E-03 0.  1.
        -12    1    4    4    0    0  0.32640678148E+01  0.66086345947E+01  0.10951434663E+02  0.13200837514E+02  0.00000000000E+00 0.  1.
</event>
<event>
 8    1  0.2493819E-006  0.9118800E+02  0.7816164E-02  0.1184000E+00
        -11   -1    0    0    0    0  0.00000000000E+00  0.00000000000E+00  0.45593999997E+02  0.45594000000E+02  0.51100000000E-03 0. -1.
         11   -1    0    0    0    0 -0.00000000000E+00 -0.00000000000E+00 -0.45593999997E+02  0.45594000000E+02  0.51100000000E-03 0.  1.
         23    2    1    2    0    0 -0.88817841970E-15  0.00000000000E+00  0.35527136788E-14  0.91188000000E+02  0.91188000000E+02 0.  0.
    9900012    2    3    3    0    0  0.68760254216E+01  0.28240644098E+02  0.22604551429E+02  0.54367089501E+02  0.40000012135E+02 0.  0.
        -12    1    3    3    0    0 -0.68760254216E+01 -0.28240644098E+02 -0.22604551429E+02  0.36820910499E+02  0.00000000000E+00 0.  1.
         11    1    4    4    0    0  0.15960043885E+02  0.23582252680E+02  0.17981523624E+02  0.33677601375E+02  0.51100000000E-03 0. -1.
        -11    1    4    4    0    0 -0.11507606657E+02  0.89078088706E+01  0.97125206035E+00  0.14584834612E+02  0.51100000000E-03 0.  1.
         12    1    4    4    0    0  0.24235881934E+01 -0.42494174529E+01  0.36517757453E+01  0.61046535130E+01  0.00000000000E+00 0. -1.
</event>
<event>
 8    1  0.2493819E-006  0.9118800E+02  0.7816164E-02  0.1184000E+00
        -11   -1    0    0    0    0  0.00000000000E+00  0.00000000000E+00  0.45593999997E+02  0.45594000000E+02  0.51100000000E-03 0.  1.
         11   -1    0    0    0    0 -0.00000000000E+00 -0.00000000000E+00 -0.45593999997E+02  0.45594000000E+02  0.51100000000E-03 0. -1.
         23    2    1    2    0    0  0.00000000000E+00  0.00000000000E+00  0.44408920985E-15  0.91188000000E+02  0.91188000000E+02 0.  0.
    9900012    2    3    3    0    0 -0.35720198565E+02  0.83092923007E+01 -0.32867873318E+01  0.54367083457E+02  0.39999998357E+02 0.  0.
         12    1    3    3    0    0  0.35720198565E+02 -0.83092923007E+01  0.32867873318E+01  0.36820916543E+02  0.00000000000E+00 0. -1.
         11    1    4    4    0    0  0.46187878978E+01 -0.77081277225E+01  0.16060429929E+01  0.91284067058E+01  0.51100000000E-03 0. -1.
        -11    1    4    4    0    0 -0.34654624976E+02  0.91420133918E+01 -0.56618458860E+01  0.36284651578E+02  0.51100000000E-03 0.  1.
        -12    1    4    4    0    0 -0.56843614876E+01  0.68754066313E+01  0.76901556133E+00  0.89540251731E+01  0.00000000000E+00 0.  1.
</event>
<event>
 8    1  0.2493819E-006  0.9118800E+02  0.7816164E-02  0.1184000E+00
        -11   -1    0    0    0    0  0.00000000000E+00  0.00000000000E+00  0.45593999997E+02  0.45594000000E+02  0.51100000000E-03 0.  1.
         11   -1    0    0    0    0 -0.00000000000E+00 -0.00000000000E+00 -0.45593999997E+02  0.45594000000E+02  0.51100000000E-03 0. -1.
         23    2    1    2    0    0  0.00000000000E+00  0.35527136788E-14  0.00000000000E+00  0.91188000000E+02  0.91188000000E+02 0.  0.
    9900012    2    3    3    0    0  0.16020200436E+02  0.24714956594E+02 -0.22097600022E+02  0.54367084365E+02  0.40000000428E+02 0.  0.
        -12    1    3    3    0    0 -0.16020200436E+02 -0.24714956594E+02  0.22097600022E+02  0.36820915635E+02  0.00000000000E+00 0.  1.
         11    1    4    4    0    0 -0.46327697829E+01  0.16791063649E+02 -0.77677293547E+00  0.17435760689E+02  0.51100000000E-03 0. -1.
        -11    1    4    4    0    0  0.79692675839E+01  0.13651800421E+02 -0.82157540885E+01  0.17815147938E+02  0.51100000000E-03 0.  1.
        -12    1    4    4    0    0  0.12683702635E+02 -0.57279074764E+01 -0.13105072998E+02  0.19116175738E+02  0.00000000000E+00 0.  1.
</event>
<event>
 8    1  0.2493819E-006  0.9118800E+02  0.7816164E-02  0.1184000E+00
        -11   -1    0    0    0    0  0.00000000000E+00  0.00000000000E+00  0.45593999997E+02  0.45594000000E+02  0.51100000000E-03 0. -1.
         11   -1    0    0    0    0 -0.00000000000E+00 -0.00000000000E+00 -0.45593999997E+02  0.45594000000E+02  0.51100000000E-03 0.  1.
         23    2    1    2    0    0 -0.17763568394E-14 -0.71054273576E-14  0.17763568394E-14  0.91188000000E+02  0.91188000000E+02 0.  0.
    9900012    2    3    3    0    0 -0.91745879659E+01 -0.32204119874E+02  0.15313498261E+02  0.54367059896E+02  0.39999944645E+02 0.  0.
         12    1    3    3    0    0  0.91745879659E+01  0.32204119874E+02 -0.15313498261E+02  0.36820940104E+02  0.00000000000E+00 0. -1.
         11    1    4    4    0    0  0.52898266859E+00 -0.19207149922E+01  0.10206926296E+01  0.22384777083E+01  0.51100000000E-03 0. -1.
        -11    1    4    4    0    0 -0.21775034318E+02 -0.80583893185E+01  0.29186181284E+00  0.23220140859E+02  0.51100000000E-03 0.  1.
        -12    1    4    4    0    0  0.12071463683E+02 -0.22225015563E+02  0.14000943818E+02  0.28908441328E+02  0.00000000000E+00 0.  1.
</event>
<event>
 8    1  0.2493819E-006  0.9118800E+02  0.7816164E-02  0.1184000E+00
        -11   -1    0    0    0    0  0.00000000000E+00  0.00000000000E+00  0.45593999997E+02  0.45594000000E+02  0.51100000000E-03 0. -1.
         11   -1    0    0    0    0 -0.00000000000E+00 -0.00000000000E+00 -0.45593999997E+02  0.45594000000E+02  0.51100000000E-03 0.  1.
         23    2    1    2    0    0  0.00000000000E+00  0.00000000000E+00 -0.35527136788E-14  0.91188000000E+02  0.91188000000E+02 0.  0.
    9900012    2    3    3    0    0 -0.17242482622E+02  0.26918464405E+02  0.18272138547E+02  0.54367109462E+02  0.40000057641E+02 0.  0.
        -12    1    3    3    0    0  0.17242482622E+02 -0.26918464405E+02 -0.18272138547E+02  0.36820890538E+02  0.00000000000E+00 0.  1.
         11    1    4    4    0    0 -0.40558076878E+01  0.11970240944E+02  0.18545660545E+02  0.22442766531E+02  0.51100000000E-03 0. -1.
        -11    1    4    4    0    0  0.62435543002E+01  0.55498359096E+01 -0.51270560884E+01  0.98014975038E+01  0.51100000000E-03 0.  1.
         12    1    4    4    0    0 -0.19430229234E+02  0.93983875514E+01  0.48535340910E+01  0.22122845428E+02  0.00000000000E+00 0. -1.
</event>
<event>
 8    1  0.2493819E-006  0.9118800E+02  0.7816164E-02  0.1184000E+00
        -11   -1    0    0    0    0  0.00000000000E+00  0.00000000000E+00  0.45593999997E+02  0.45594000000E+02  0.51100000000E-03 0. -1.
         11   -1    0    0    0    0 -0.00000000000E+00 -0.00000000000E+00 -0.45593999997E+02  0.45594000000E+02  0.51100000000E-03 0.  1.
         23    2    1    2    0    0  0.00000000000E+00  0.00000000000E+00  0.35527136788E-14  0.91188000000E+02  0.91188000000E+02 0.  0.
    9900012    2    3    3    0    0 -0.22949936032E+02 -0.53512582190E+01 -0.28292153088E+02  0.54367062277E+02  0.39999950074E+02 0.  0.
         12    1    3    3    0    0  0.22949936032E+02  0.53512582190E+01  0.28292153088E+02  0.36820937723E+02  0.00000000000E+00 0. -1.
         11    1    4    4    0    0 -0.12729568426E+02 -0.13052823661E+02 -0.30247253361E+02  0.35317339283E+02  0.51100000000E-03 0. -1.
        -11    1    4    4    0    0 -0.83248973381E+01  0.62779250308E+01 -0.50998878154E+01  0.11607114817E+02  0.51100000000E-03 0.  1.
         12    1    4    4    0    0 -0.18954702675E+01  0.14236404113E+01  0.70549880885E+01  0.74426081775E+01  0.00000000000E+00 0. -1.
</event>
<event>
 8    1  0.2493819E-006  0.9118800E+02  0.7816164E-02  0.1184000E+00
        -11   -1    0    0    0    0  0.00000000000E+00  0.00000000000E+00  0.45593999997E+02  0.45594000000E+02  0.51100000000E-03 0.  1.
         11   -1    0    0    0    0 -0.00000000000E+00 -0.00000000000E+00 -0.45593999997E+02  0.45594000000E+02  0.51100000000E-03 0. -1.
         23    2    1    2    0    0  0.00000000000E+00  0.00000000000E+00  0.00000000000E+00  0.91188000000E+02  0.91188000000E+02 0.  0.
    9900012    2    3    3    0    0 -0.30094005234E+01  0.35398115586E+02  0.96796713045E+01  0.54367094048E+02  0.40000022501E+02 0.  0.
        -12    1    3    3    0    0  0.30094005234E+01 -0.35398115586E+02 -0.96796713045E+01  0.36820905952E+02  0.00000000000E+00 0.  1.
         11    1    4    4    0    0 -0.70392188111E+01  0.11911981783E+02 -0.99730041058E+01  0.17055987882E+02  0.51100000000E-03 0. -1.
        -11    1    4    4    0    0  0.67518567388E+01  0.64553904346E+00 -0.40126803424E+00  0.67945056019E+01  0.51100000000E-03 0.  1.
         12    1    4    4    0    0 -0.27220384510E+01  0.22840594760E+02  0.20053943445E+02  0.30516600564E+02  0.00000000000E+00 0. -1.
</event>
<event>
 8    1  0.2493819E-006  0.9118800E+02  0.7816164E-02  0.1184000E+00
        -11   -1    0    0    0    0  0.00000000000E+00  0.00000000000E+00  0.45593999997E+02  0.45594000000E+02  0.51100000000E-03 0.  1.
         11   -1    0    0    0    0 -0.00000000000E+00 -0.00000000000E+00 -0.45593999997E+02  0.45594000000E+02  0.51100000000E-03 0. -1.
         23    2    1    2    0    0  0.00000000000E+00  0.35527136788E-14  0.00000000000E+00  0.91188000000E+02  0.91188000000E+02 0.  0.
    9900012    2    3    3    0    0 -0.14035907106E+02 -0.22650335106E+02 -0.25411326247E+02  0.54367083793E+02  0.39999999123E+02 0.  0.
        -12    1    3    3    0    0  0.14035907106E+02  0.22650335106E+02  0.25411326247E+02  0.36820916207E+02  0.00000000000E+00 0.  1.
         11    1    4    4    0    0 -0.99204467290E+01 -0.11477584945E+02 -0.19788137175E+02  0.24934325590E+02  0.51100000000E-03 0. -1.
        -11    1    4    4    0    0  0.81454477292E+01 -0.32802898807E+01 -0.10836140465E+02  0.13947421298E+02  0.51100000000E-03 0.  1.
        -12    1    4    4    0    0 -0.12260908106E+02 -0.78924602800E+01  0.52129513935E+01  0.15485336906E+02  0.00000000000E+00 0.  1.
</event>
<event>
 8    1  0.2493819E-006  0.9118800E+02  0.7816164E-02  0.1184000E+00
        -11   -1    0    0    0    0  0.00000000000E+00  0.00000000000E+00  0.45593999997E+02  0.45594000000E+02  0.51100000000E-03 0.  1.
         11   -1    0    0    0    0 -0.00000000000E+00 -0.00000000000E+00 -0.45593999997E+02  0.45594000000E+02  0.51100000000E-03 0. -1.
         23    2    1    2    0    0 -0.17763568394E-14  0.00000000000E+00  0.00000000000E+00  0.91188000000E+02  0.91188000000E+02 0.  0.
    9900012    2    3    3    0    0  0.59707777894E+01  0.32158428597E+02  0.16910463635E+02  0.54367102434E+02  0.40000041618E+02 0.  0.
         12    1    3    3    0    0 -0.59707777894E+01 -0.32158428597E+02 -0.16910463635E+02  0.36820897566E+02  0.00000000000E+00 0. -1.
         11    1    4    4    0    0 -0.10187271063E+02  0.11007111134E+02  0.93513034418E+01  0.17674384390E+02  0.51100000000E-03 0. -1.
        -11    1    4    4    0    0 -0.37169452615E+01  0.27957100767E+01 -0.50316412536E+01  0.68519406649E+01  0.51100000000E-03 0.  1.
        -12    1    4    4    0    0  0.19874994114E+02  0.18355607386E+02  0.12590801447E+02  0.29840777379E+02  0.00000000000E+00 0.  1.
</event>
<event>
 8    1  0.2493819E-006  0.9118800E+02  0.7816164E-02  0.1184000E+00
        -11   -1    0    0    0    0  0.00000000000E+00  0.00000000000E+00  0.45593999997E+02  0.45594000000E+02  0.51100000000E-03 0.  1.
         11   -1    0    0    0    0 -0.00000000000E+00 -0.00000000000E+00 -0.45593999997E+02  0.45594000000E+02  0.51100000000E-03 0. -1.
         23    2    1    2    0    0  0.00000000000E+00  0.00000000000E+00 -0.53290705182E-14  0.91188000000E+02  0.91188000000E+02 0.  0.
    9900012    2    3    3    0    0 -0.78659935162E+01  0.33626965037E+02  0.12772494051E+02  0.54367038091E+02  0.39999894936E+02 0.  0.
        -12    1    3    3    0    0  0.78659935162E+01 -0.33626965037E+02 -0.12772494051E+02  0.36820961909E+02  0.00000000000E+00 0.  1.
         11    1    4    4    0    0 -0.10208910764E+02  0.10464746731E+02  0.10987131511E+02  0.18287969877E+02  0.51100000000E-03 0. -1.
        -11    1    4    4    0    0  0.70735928782E+00  0.25234733901E+02 -0.75724796476E+01  0.26355921545E+02  0.51100000000E-03 0.  1.
        -12    1    4    4    0    0  0.16355579599E+01 -0.20725155948E+01  0.93578421881E+01  0.97231466690E+01  0.00000000000E+00 0.  1.
</event>
<event>
 8    1  0.2493819E-006  0.9118800E+02  0.7816164E-02  0.1184000E+00
        -11   -1    0    0    0    0  0.00000000000E+00  0.00000000000E+00  0.45593999997E+02  0.45594000000E+02  0.51100000000E-03 0.  1.
         11   -1    0    0    0    0 -0.00000000000E+00 -0.00000000000E+00 -0.45593999997E+02  0.45594000000E+02  0.51100000000E-03 0. -1.
         23    2    1    2    0    0 -0.17763568394E-14  0.88817841970E-15 -0.71054273576E-14  0.91188000000E+02  0.91188000000E+02 0.  0.
    9900012    2    3    3    0    0  0.84206223453E+01 -0.64448287969E+01  0.35260988727E+02  0.54367081694E+02  0.39999994337E+02 0.  0.
         12    1    3    3    0    0 -0.84206223453E+01  0.64448287969E+01 -0.35260988727E+02  0.36820918306E+02  0.00000000000E+00 0. -1.
         11    1    4    4    0    0 -0.50262313932E+00 -0.73969546522E+01  0.68358783938E+01  0.10084483220E+02  0.51100000000E-03 0. -1.
        -11    1    4    4    0    0  0.13505067947E+02 -0.13281888796E+02  0.17187007279E+02  0.25577111833E+02  0.51100000000E-03 0.  1.
         12    1    4    4    0    0 -0.45818224623E+01  0.14234014652E+02  0.11238103054E+02  0.18705486640E+02  0.00000000000E+00 0. -1.
</event>
<event>
 8    1  0.2493819E-006  0.9118800E+02  0.7816164E-02  0.1184000E+00
        -11   -1    0    0    0    0  0.00000000000E+00  0.00000000000E+00  0.45593999997E+02  0.45594000000E+02  0.51100000000E-03 0.  1.
         11   -1    0    0    0    0 -0.00000000000E+00 -0.00000000000E+00 -0.45593999997E+02  0.45594000000E+02  0.51100000000E-03 0. -1.
         23    2    1    2    0    0 -0.44408920985E-15 -0.17763568394E-14  0.00000000000E+00  0.91188000000E+02  0.91188000000E+02 0.  0.
    9900012    2    3    3    0    0 -0.53440777921E+00 -0.58965787396E+01 -0.36341853202E+02  0.54367006984E+02  0.39999824021E+02 0.  0.
        -12    1    3    3    0    0  0.53440777921E+00  0.58965787396E+01  0.36341853202E+02  0.36820993016E+02  0.00000000000E+00 0.  1.
         11    1    4    4    0    0 -0.33599962674E+01  0.50945130065E+01 -0.15399710651E+02  0.16564864204E+02  0.51100000000E-03 0. -1.
        -11    1    4    4    0    0  0.66933477792E+01 -0.45853768709E+01  0.58385103743E+01  0.99957385517E+01  0.51100000000E-03 0.  1.
         12    1    4    4    0    0 -0.38677592910E+01 -0.64057148751E+01 -0.26780652926E+02  0.27806404229E+02  0.00000000000E+00 0. -1.
</event>
<event>
 8    1  0.2493819E-006  0.9118800E+02  0.7816164E-02  0.1184000E+00
        -11   -1    0    0    0    0  0.00000000000E+00  0.00000000000E+00  0.45593999997E+02  0.45594000000E+02  0.51100000000E-03 0.  1.
         11   -1    0    0    0    0 -0.00000000000E+00 -0.00000000000E+00 -0.45593999997E+02  0.45594000000E+02  0.51100000000E-03 0. -1.
         23    2    1    2    0    0  0.35527136788E-14  0.00000000000E+00  0.00000000000E+00  0.91188000000E+02  0.91188000000E+02 0.  0.
    9900012    2    3    3    0    0  0.31159254934E+02  0.17636298461E+02 -0.85931275768E+01  0.54367081584E+02  0.39999994087E+02 0.  0.
         12    1    3    3    0    0 -0.31159254934E+02 -0.17636298461E+02  0.85931275768E+01  0.36820918416E+02  0.00000000000E+00 0. -1.
         11    1    4    4    0    0  0.22760828965E+01  0.33159264943E+01 -0.79013984026E+01  0.88661163338E+01  0.51100000000E-03 0. -1.
        -11    1    4    4    0    0  0.49322888198E-01 -0.74573769739E+01 -0.51933915795E+01  0.90876961017E+01  0.51100000000E-03 0.  1.
        -12    1    4    4    0    0  0.28833849149E+02  0.21777748940E+02  0.45016624053E+01  0.36413269149E+02  0.00000000000E+00 0.  1.
</event>
<event>
 8    1  0.2493819E-006  0.9118800E+02  0.7816164E-02  0.1184000E+00
        -11   -1    0    0    0    0  0.00000000000E+00  0.00000000000E+00  0.45593999997E+02  0.45594000000E+02  0.51100000000E-03 0. -1.
         11   -1    0    0    0    0 -0.00000000000E+00 -0.00000000000E+00 -0.45593999997E+02  0.45594000000E+02  0.51100000000E-03 0.  1.
         23    2    1    2    0    0 -0.88817841970E-15  0.88817841970E-15  0.00000000000E+00  0.91188000000E+02  0.91188000000E+02 0.  0.
    9900012    2    3    3    0    0  0.31785844126E+01 -0.61991842355E+01  0.36155872332E+02  0.54367076762E+02  0.39999983093E+02 0.  0.
        -12    1    3    3    0    0 -0.31785844126E+01  0.61991842355E+01 -0.36155872332E+02  0.36820923238E+02  0.00000000000E+00 0.  1.
         11    1    4    4    0    0 -0.43460074120E+01  0.33673069165E+01  0.38755440160E+02  0.39143462782E+02  0.51100000000E-03 0. -1.
        -11    1    4    4    0    0  0.18578200792E+01  0.95823972654E+00 -0.25145608942E+01  0.32699748580E+01  0.51100000000E-03 0.  1.
        -12    1    4    4    0    0  0.56667717454E+01 -0.10524730878E+02 -0.85006933765E-01  0.11953639122E+02  0.00000000000E+00 0.  1.
</event>
<event>
 8    1  0.2493819E-006  0.9118800E+02  0.7816164E-02  0.1184000E+00
        -11   -1    0    0    0    0  0.00000000000E+00  0.00000000000E+00  0.45593999997E+02  0.45594000000E+02  0.51100000000E-03 0.  1.
         11   -1    0    0    0    0 -0.00000000000E+00 -0.00000000000E+00 -0.45593999997E+02  0.45594000000E+02  0.51100000000E-03 0. -1.
         23    2    1    2    0    0  0.00000000000E+00 -0.35527136788E-14 -0.17763568394E-14  0.91188000000E+02  0.91188000000E+02 0.  0.
    9900012    2    3    3    0    0  0.17766790840E+02 -0.28287767876E+02 -0.15489451999E+02  0.54367084864E+02  0.40000001565E+02 0.  0.
        -12    1    3    3    0    0 -0.17766790840E+02  0.28287767876E+02  0.15489451999E+02  0.36820915136E+02  0.00000000000E+00 0.  1.
         11    1    4    4    0    0 -0.46520590777E+01  0.37095444223E+00 -0.41892614114E+01  0.62712974969E+01  0.51100000000E-03 0. -1.
        -11    1    4    4    0    0  0.19286634780E+02 -0.24792289075E+01 -0.90372152967E-01  0.19445539964E+02  0.51100000000E-03 0.  1.
        -12    1    4    4    0    0  0.31322151383E+01 -0.26179493411E+02 -0.11209818435E+02  0.28650247403E+02  0.00000000000E+00 0.  1.
</event>
<event>
 8    1  0.2493819E-006  0.9118800E+02  0.7816164E-02  0.1184000E+00
        -11   -1    0    0    0    0  0.00000000000E+00  0.00000000000E+00  0.45593999997E+02  0.45594000000E+02  0.51100000000E-03 0. -1.
         11   -1    0    0    0    0 -0.00000000000E+00 -0.00000000000E+00 -0.45593999997E+02  0.45594000000E+02  0.51100000000E-03 0.  1.
         23    2    1    2    0    0 -0.35527136788E-14  0.00000000000E+00  0.00000000000E+00  0.91188000000E+02  0.91188000000E+02 0.  0.
    9900012    2    3    3    0    0  0.19414016776E+02  0.38565017297E+01 -0.31048422885E+02  0.54367065512E+02  0.39999957447E+02 0.  0.
         12    1    3    3    0    0 -0.19414016776E+02 -0.38565017297E+01  0.31048422885E+02  0.36820934488E+02  0.00000000000E+00 0. -1.
         11    1    4    4    0    0  0.21631025507E+01 -0.22834755998E+00 -0.63270064884E+01  0.66904533940E+01  0.51100000000E-03 0. -1.
        -11    1    4    4    0    0  0.26963445427E+02  0.35195195617E+01 -0.26288845896E+02  0.37822186955E+02  0.51100000000E-03 0.  1.
         12    1    4    4    0    0 -0.97125312022E+01  0.56532972801E+00  0.15674294999E+01  0.98544251629E+01  0.00000000000E+00 0. -1.
</event>
<event>
 8    1  0.2493819E-006  0.9118800E+02  0.7816164E-02  0.1184000E+00
        -11   -1    0    0    0    0  0.00000000000E+00  0.00000000000E+00  0.45593999997E+02  0.45594000000E+02  0.51100000000E-03 0. -1.
         11   -1    0    0    0    0 -0.00000000000E+00 -0.00000000000E+00 -0.45593999997E+02  0.45594000000E+02  0.51100000000E-03 0.  1.
         23    2    1    2    0    0  0.00000000000E+00  0.00000000000E+00 -0.22204460493E-15  0.91188000000E+02  0.91188000000E+02 0.  0.
    9900012    2    3    3    0    0 -0.34513148729E+02 -0.12820656558E+02  0.50361796757E+00  0.54367077947E+02  0.39999985795E+02 0.  0.
         12    1    3    3    0    0  0.34513148729E+02  0.12820656558E+02 -0.50361796757E+00  0.36820922053E+02  0.00000000000E+00 0. -1.
         11    1    4    4    0    0 -0.21508364942E+02 -0.11293858313E+02  0.18565484211E+02  0.30575123914E+02  0.51100000000E-03 0. -1.
        -11    1    4    4    0    0 -0.83306712948E+01 -0.49261452392E+01 -0.11999917870E+02  0.15416388043E+02  0.51100000000E-03 0.  1.
        -12    1    4    4    0    0 -0.46741124921E+01  0.33993469937E+01 -0.60619483736E+01  0.83755659902E+01  0.00000000000E+00 0.  1.
</event>
<event>
 8    1  0.2493819E-006  0.9118800E+02  0.7816164E-02  0.1184000E+00
        -11   -1    0    0    0    0  0.00000000000E+00  0.00000000000E+00  0.45593999997E+02  0.45594000000E+02  0.51100000000E-03 0.  1.
         11   -1    0    0    0    0 -0.00000000000E+00 -0.00000000000E+00 -0.45593999997E+02  0.45594000000E+02  0.51100000000E-03 0. -1.
         23    2    1    2    0    0  0.17763568394E-14  0.33306690739E-15  0.00000000000E+00  0.91188000000E+02  0.91188000000E+02 0.  0.
    9900012    2    3    3    0    0  0.15691802398E+02  0.97966935367E+00 -0.33295449708E+02  0.54367090372E+02  0.40000014122E+02 0.  0.
        -12    1    3    3    0    0 -0.15691802398E+02 -0.97966935367E+00  0.33295449708E+02  0.36820909628E+02  0.00000000000E+00 0.  1.
         11    1    4    4    0    0  0.96370720112E+01  0.81605182024E+01 -0.20852987973E+02  0.24378562754E+02  0.51100000000E-03 0. -1.
        -11    1    4    4    0    0  0.11464819536E+02  0.59100316633E+01 -0.78426873696E+01  0.15095638664E+02  0.51100000000E-03 0.  1.
        -12    1    4    4    0    0 -0.54100891493E+01 -0.13090880512E+02 -0.45997743655E+01  0.14892888954E+02  0.00000000000E+00 0.  1.
</event>
<event>
 8    1  0.2493819E-006  0.9118800E+02  0.7816164E-02  0.1184000E+00
        -11   -1    0    0    0    0  0.00000000000E+00  0.00000000000E+00  0.45593999997E+02  0.45594000000E+02  0.51100000000E-03 0. -1.
         11   -1    0    0    0    0 -0.00000000000E+00 -0.00000000000E+00 -0.45593999997E+02  0.45594000000E+02  0.51100000000E-03 0.  1.
         23    2    1    2    0    0  0.00000000000E+00  0.25535129566E-14  0.35527136788E-14  0.91188000000E+02  0.91188000000E+02 0.  0.
    9900012    2    3    3    0    0 -0.28654800640E+02 -0.98679373921E+00  0.23102140207E+02  0.54367078722E+02  0.39999987562E+02 0.  0.
        -12    1    3    3    0    0  0.28654800640E+02  0.98679373921E+00 -0.23102140207E+02  0.36820921278E+02  0.00000000000E+00 0.  1.
         11    1    4    4    0    0 -0.11533845947E+02  0.11800995093E+01  0.25821508636E+02  0.28304991533E+02  0.51100000000E-03 0. -1.
        -11    1    4    4    0    0 -0.98882394436E+01 -0.10809310303E+02 -0.14670799188E+01  0.14723137990E+02  0.51100000000E-03 0.  1.
        -12    1    4    4    0    0 -0.72327152502E+01  0.86424170546E+01 -0.12522885100E+01  0.11338949199E+02  0.00000000000E+00 0.  1.
</event>
<event>
 8    1  0.2493819E-006  0.9118800E+02  0.7816164E-02  0.1184000E+00
        -11   -1    0    0    0    0  0.00000000000E+00  0.00000000000E+00  0.45593999997E+02  0.45594000000E+02  0.51100000000E-03 0.  1.
         11   -1    0    0    0    0 -0.00000000000E+00 -0.00000000000E+00 -0.45593999997E+02  0.45594000000E+02  0.51100000000E-03 0. -1.
         23    2    1    2    0    0  0.00000000000E+00  0.00000000000E+00  0.00000000000E+00  0.91188000000E+02  0.91188000000E+02 0.  0.
    9900012    2    3    3    0    0  0.12496050656E+02 -0.10453118122E+02 -0.33020611218E+02  0.54367085757E+02  0.40000003600E+02 0.  0.
        -12    1    3    3    0    0 -0.12496050656E+02  0.10453118122E+02  0.33020611218E+02  0.36820914243E+02  0.00000000000E+00 0.  1.
         11    1    4    4    0    0  0.18879265406E+02 -0.13958087978E+02 -0.82945458058E+01  0.24900891001E+02  0.51100000000E-03 0. -1.
        -11    1    4    4    0    0 -0.64737030949E+01  0.47953547221E+01 -0.45572885480E+01  0.92559784919E+01  0.51100000000E-03 0.  1.
         12    1    4    4    0    0  0.90488345631E-01 -0.12903848668E+01 -0.20168776864E+02  0.20210216264E+02  0.00000000000E+00 0. -1.
</event>
<event>
 8    1  0.2493819E-006  0.9118800E+02  0.7816164E-02  0.1184000E+00
        -11   -1    0    0    0    0  0.00000000000E+00  0.00000000000E+00  0.45593999997E+02  0.45594000000E+02  0.51100000000E-03 0.  1.
         11   -1    0    0    0    0 -0.00000000000E+00 -0.00000000000E+00 -0.45593999997E+02  0.45594000000E+02  0.51100000000E-03 0. -1.
         23    2    1    2    0    0  0.17763568394E-14 -0.35527136788E-14 -0.35527136788E-14  0.91188000000E+02  0.91188000000E+02 0.  0.
    9900012    2    3    3    0    0  0.15815990463E+02 -0.26319142919E+02  0.20320861844E+02  0.54367078442E+02  0.39999986924E+02 0.  0.
         12    1    3    3    0    0 -0.15815990463E+02  0.26319142919E+02 -0.20320861844E+02  0.36820921558E+02  0.00000000000E+00 0. -1.
         11    1    4    4    0    0  0.15279675584E+02 -0.10300300276E+02 -0.76362489816E+01  0.19946853649E+02  0.51100000000E-03 0. -1.
        -11    1    4    4    0    0  0.13678594814E+01 -0.15311526613E+02  0.29055561985E+02  0.32871561711E+02  0.51100000000E-03 0.  1.
        -12    1    4    4    0    0 -0.83154460187E+00 -0.70731603010E+00 -0.10984511598E+01  0.15486630821E+01  0.00000000000E+00 0.  1.
</event>
<event>
 8    1  0.2493819E-006  0.9118800E+02  0.7816164E-02  0.1184000E+00
        -11   -1    0    0    0    0  0.00000000000E+00  0.00000000000E+00  0.45593999997E+02  0.45594000000E+02  0.51100000000E-03 0. -1.
         11   -1    0    0    0    0 -0.00000000000E+00 -0.00000000000E+00 -0.45593999997E+02  0.45594000000E+02  0.51100000000E-03 0.  1.
         23    2    1    2    0    0  0.00000000000E+00 -0.71054273576E-14  0.88817841970E-15  0.91188000000E+02  0.91188000000E+02 0.  0.
    9900012    2    3    3    0    0  0.13194663403E+02 -0.33621970144E+02  0.71581431539E+01  0.54367149492E+02  0.40000148898E+02 0.  0.
        -12    1    3    3    0    0 -0.13194663403E+02  0.33621970144E+02 -0.71581431539E+01  0.36820850508E+02  0.00000000000E+00 0.  1.
         11    1    4    4    0    0  0.79335893556E+01 -0.42241055188E+02  0.50573834857E+01  0.43276156385E+02  0.51100000000E-03 0. -1.
        -11    1    4    4    0    0  0.30239812256E+01  0.79423861689E+01  0.20983097212E+01  0.87537914332E+01  0.51100000000E-03 0.  1.
         12    1    4    4    0    0  0.22370928221E+01  0.67669887556E+00  0.24499469871E-02  0.23372016741E+01  0.00000000000E+00 0. -1.
</event>
<event>
 8    1  0.2493819E-006  0.9118800E+02  0.7816164E-02  0.1184000E+00
        -11   -1    0    0    0    0  0.00000000000E+00  0.00000000000E+00  0.45593999997E+02  0.45594000000E+02  0.51100000000E-03 0. -1.
         11   -1    0    0    0    0 -0.00000000000E+00 -0.00000000000E+00 -0.45593999997E+02  0.45594000000E+02  0.51100000000E-03 0.  1.
         23    2    1    2    0    0  0.88817841970E-15  0.00000000000E+00  0.00000000000E+00  0.91188000000E+02  0.91188000000E+02 0.  0.
    9900012    2    3    3    0    0 -0.42270384320E+01 -0.24501551116E+02 -0.27158505229E+02  0.54367105561E+02  0.40000048748E+02 0.  0.
         12    1    3    3    0    0  0.42270384320E+01  0.24501551116E+02  0.27158505229E+02  0.36820894439E+02  0.00000000000E+00 0. -1.
         11    1    4    4    0    0  0.11662124711E+02 -0.16373958083E+02 -0.74461480838E+01  0.21437275425E+02  0.51100000000E-03 0. -1.
        -11    1    4    4    0    0 -0.57967843039E+01 -0.18276632043E+01  0.33786932325E+01  0.69540369049E+01  0.51100000000E-03 0.  1.
        -12    1    4    4    0    0 -0.10092378839E+02 -0.62999298286E+01 -0.23091050378E+02  0.25975793232E+02  0.00000000000E+00 0.  1.
</event>
<event>
 8    1  0.2493819E-006  0.9118800E+02  0.7816164E-02  0.1184000E+00
        -11   -1    0    0    0    0  0.00000000000E+00  0.00000000000E+00  0.45593999997E+02  0.45594000000E+02  0.51100000000E-03 0.  1.
         11   -1    0    0    0    0 -0.00000000000E+00 -0.00000000000E+00 -0.45593999997E+02  0.45594000000E+02  0.51100000000E-03 0. -1.
         23    2    1    2    0    0  0.88817841970E-15  0.00000000000E+00  0.00000000000E+00  0.91188000000E+02  0.91188000000E+02 0.  0.
    9900012    2    3    3    0    0 -0.31775515172E+01  0.24448832726E+02 -0.27348444258E+02  0.54367086667E+02  0.40000005676E+02 0.  0.
        -12    1    3    3    0    0  0.31775515172E+01 -0.24448832726E+02  0.27348444258E+02  0.36820913333E+02  0.00000000000E+00 0.  1.
         11    1    4    4    0    0  0.76451280757E+00  0.77969479066E+01 -0.95626379918E+01  0.12362075963E+02  0.51100000000E-03 0. -1.
        -11    1    4    4    0    0  0.85423806944E+01  0.11840017423E+02 -0.23330310868E+02  0.27522021836E+02  0.51100000000E-03 0.  1.
        -12    1    4    4    0    0 -0.12484445019E+02  0.48118673967E+01  0.55445046016E+01  0.14482988868E+02  0.00000000000E+00 0.  1.
</event>
<event>
 8    1  0.2493819E-006  0.9118800E+02  0.7816164E-02  0.1184000E+00
        -11   -1    0    0    0    0  0.00000000000E+00  0.00000000000E+00  0.45593999997E+02  0.45594000000E+02  0.51100000000E-03 0. -1.
         11   -1    0    0    0    0 -0.00000000000E+00 -0.00000000000E+00 -0.45593999997E+02  0.45594000000E+02  0.51100000000E-03 0.  1.
         23    2    1    2    0    0  0.00000000000E+00 -0.35527136788E-14 -0.35527136788E-14  0.91188000000E+02  0.91188000000E+02 0.  0.
    9900012    2    3    3    0    0 -0.12168260347E+02  0.26650548188E+02  0.22303856460E+02  0.54367078073E+02  0.39999986083E+02 0.  0.
        -12    1    3    3    0    0  0.12168260347E+02 -0.26650548188E+02 -0.22303856460E+02  0.36820921927E+02  0.00000000000E+00 0.  1.
         11    1    4    4    0    0 -0.47664895876E+01  0.24674994092E+02  0.12926004192E+02  0.28260508507E+02  0.51100000000E-03 0. -1.
        -11    1    4    4    0    0 -0.15517174459E+00 -0.85042389023E+01 -0.23129685362E+01  0.88145323919E+01  0.51100000000E-03 0.  1.
        -12    1    4    4    0    0 -0.72465990145E+01  0.10479792998E+02  0.11690820804E+02  0.17292037174E+02  0.00000000000E+00 0.  1.
</event>
<event>
 8    1  0.2493819E-006  0.9118800E+02  0.7816164E-02  0.1184000E+00
        -11   -1    0    0    0    0  0.00000000000E+00  0.00000000000E+00  0.45593999997E+02  0.45594000000E+02  0.51100000000E-03 0. -1.
         11   -1    0    0    0    0 -0.00000000000E+00 -0.00000000000E+00 -0.45593999997E+02  0.45594000000E+02  0.51100000000E-03 0.  1.
         23    2    1    2    0    0 -0.17763568394E-14  0.00000000000E+00  0.35527136788E-14  0.91188000000E+02  0.91188000000E+02 0.  0.
    9900012    2    3    3    0    0  0.10550118050E+02  0.18311552999E+02 -0.30152319446E+02  0.54367077522E+02  0.39999984828E+02 0.  0.
         12    1    3    3    0    0 -0.10550118050E+02 -0.18311552999E+02  0.30152319446E+02  0.36820922478E+02  0.00000000000E+00 0. -1.
         11    1    4    4    0    0  0.14108016522E+02  0.14665682915E+02 -0.27820326097E+00  0.20351800482E+02  0.51100000000E-03 0. -1.
        -11    1    4    4    0    0 -0.73539628725E+01 -0.24352350703E+01 -0.86430355845E+01  0.11606601749E+02  0.51100000000E-03 0.  1.
         12    1    4    4    0    0  0.37960644003E+01  0.60811051539E+01 -0.21231080601E+02  0.22408675291E+02  0.00000000000E+00 0. -1.
</event>
<event>
 8    1  0.2493819E-006  0.9118800E+02  0.7816164E-02  0.1184000E+00
        -11   -1    0    0    0    0  0.00000000000E+00  0.00000000000E+00  0.45593999997E+02  0.45594000000E+02  0.51100000000E-03 0.  1.
         11   -1    0    0    0    0 -0.00000000000E+00 -0.00000000000E+00 -0.45593999997E+02  0.45594000000E+02  0.51100000000E-03 0. -1.
         23    2    1    2    0    0  0.00000000000E+00 -0.53290705182E-14  0.17763568394E-14  0.91188000000E+02  0.91188000000E+02 0.  0.
    9900012    2    3    3    0    0 -0.31288620751E+02  0.14659690667E+02  0.12723814969E+02  0.54367084934E+02  0.40000001724E+02 0.  0.
        -12    1    3    3    0    0  0.31288620751E+02 -0.14659690667E+02 -0.12723814969E+02  0.36820915066E+02  0.00000000000E+00 0.  1.
         11    1    4    4    0    0  0.25129487466E+01  0.24545214718E+01 -0.11912997554E+01  0.37092832767E+01  0.51100000000E-03 0. -1.
        -11    1    4    4    0    0  0.20388731505E+01 -0.71550258617E+01 -0.47652183918E+00  0.74550970570E+01  0.51100000000E-03 0.  1.
        -12    1    4    4    0    0 -0.35840442648E+02  0.19360195057E+02  0.14391636563E+02  0.43202704600E+02  0.00000000000E+00 0.  1.
</event>
<event>
 8    1  0.2493819E-006  0.9118800E+02  0.7816164E-02  0.1184000E+00
        -11   -1    0    0    0    0  0.00000000000E+00  0.00000000000E+00  0.45593999997E+02  0.45594000000E+02  0.51100000000E-03 0. -1.
         11   -1    0    0    0    0 -0.00000000000E+00 -0.00000000000E+00 -0.45593999997E+02  0.45594000000E+02  0.51100000000E-03 0.  1.
         23    2    1    2    0    0 -0.35527136788E-14  0.00000000000E+00  0.00000000000E+00  0.91188000000E+02  0.91188000000E+02 0.  0.
    9900012    2    3    3    0    0 -0.17387134848E+02 -0.21756704287E+02 -0.24085521641E+02  0.54367095715E+02  0.40000026301E+02 0.  0.
         12    1    3    3    0    0  0.17387134848E+02  0.21756704287E+02  0.24085521641E+02  0.36820904285E+02  0.00000000000E+00 0. -1.
         11    1    4    4    0    0 -0.89012677572E+01  0.71809969068E+00 -0.51608257952E+01  0.10314182372E+02  0.51100000000E-03 0.  1.
        -11    1    4    4    0    0 -0.15456350766E+02 -0.22772622529E+02 -0.43095831350E+01  0.27857918496E+02  0.51100000000E-03 0. -1.
        -12    1    4    4    0    0  0.69704836747E+01  0.29781855187E+00 -0.14615112711E+02  0.16194994847E+02  0.00000000000E+00 0.  1.
</event>
<event>
 8    1  0.2493819E-006  0.9118800E+02  0.7816164E-02  0.1184000E+00
        -11   -1    0    0    0    0  0.00000000000E+00  0.00000000000E+00  0.45593999997E+02  0.45594000000E+02  0.51100000000E-03 0.  1.
         11   -1    0    0    0    0 -0.00000000000E+00 -0.00000000000E+00 -0.45593999997E+02  0.45594000000E+02  0.51100000000E-03 0. -1.
         23    2    1    2    0    0  0.17763568394E-14 -0.71054273576E-14 -0.55511151231E-15  0.91188000000E+02  0.91188000000E+02 0.  0.
    9900012    2    3    3    0    0 -0.13159685602E+02  0.34383713991E+02  0.60270309651E+00  0.54367077090E+02  0.39999983842E+02 0.  0.
         12    1    3    3    0    0  0.13159685602E+02 -0.34383713991E+02 -0.60270309651E+00  0.36820922910E+02  0.00000000000E+00 0. -1.
         11    1    4    4    0    0  0.10632540318E+02  0.15680485012E+02 -0.38547151261E+01  0.19333580961E+02  0.51100000000E-03 0. -1.
        -11    1    4    4    0    0 -0.11032570794E+02  0.92763920147E+01 -0.64395632322E+01  0.15787243015E+02  0.51100000000E-03 0.  1.
        -12    1    4    4    0    0 -0.12759655125E+02  0.94268369640E+01  0.10896981455E+02  0.19246253113E+02  0.00000000000E+00 0.  1.
</event>
<event>
 8    1  0.2493819E-006  0.9118800E+02  0.7816164E-02  0.1184000E+00
        -11   -1    0    0    0    0  0.00000000000E+00  0.00000000000E+00  0.45593999997E+02  0.45594000000E+02  0.51100000000E-03 0.  1.
         11   -1    0    0    0    0 -0.00000000000E+00 -0.00000000000E+00 -0.45593999997E+02  0.45594000000E+02  0.51100000000E-03 0. -1.
         23    2    1    2    0    0 -0.17763568394E-14 -0.35527136788E-14 -0.17763568394E-14  0.91188000000E+02  0.91188000000E+02 0.  0.
    9900012    2    3    3    0    0  0.15184169384E+02  0.29537684083E+02 -0.15897992095E+02  0.54367082935E+02  0.39999997166E+02 0.  0.
        -12    1    3    3    0    0 -0.15184169384E+02 -0.29537684083E+02  0.15897992095E+02  0.36820917065E+02  0.00000000000E+00 0.  1.
         11    1    4    4    0    0  0.21441612613E+02  0.92362505297E+01 -0.14627055667E+02  0.27549987896E+02  0.51100000000E-03 0. -1.
        -11    1    4    4    0    0  0.23206709359E+00 -0.96286248811E+00 -0.42698788862E+01  0.43832436929E+01  0.51100000000E-03 0.  1.
        -12    1    4    4    0    0 -0.64895103231E+01  0.21264296041E+02  0.29989424575E+01  0.22433851346E+02  0.00000000000E+00 0.  1.
</event>
<event>
 8    1  0.2493819E-006  0.9118800E+02  0.7816164E-02  0.1184000E+00
        -11   -1    0    0    0    0  0.00000000000E+00  0.00000000000E+00  0.45593999997E+02  0.45594000000E+02  0.51100000000E-03 0.  1.
         11   -1    0    0    0    0 -0.00000000000E+00 -0.00000000000E+00 -0.45593999997E+02  0.45594000000E+02  0.51100000000E-03 0. -1.
         23    2    1    2    0    0  0.35527136788E-14  0.35527136788E-14  0.00000000000E+00  0.91188000000E+02  0.91188000000E+02 0.  0.
    9900012    2    3    3    0    0 -0.21532035343E+02 -0.14180989600E+02  0.26287892716E+02  0.54367050590E+02  0.39999923429E+02 0.  0.
         12    1    3    3    0    0  0.21532035343E+02  0.14180989600E+02 -0.26287892716E+02  0.36820949410E+02  0.00000000000E+00 0. -1.
         11    1    4    4    0    0 -0.12792516247E+02 -0.19520668362E+02 -0.72886961398E+00  0.23350293711E+02  0.51100000000E-03 0. -1.
        -11    1    4    4    0    0  0.12806064996E+01  0.47648570604E+01  0.11778649662E+02  0.12770293807E+02  0.51100000000E-03 0.  1.
         12    1    4    4    0    0 -0.10020125596E+02  0.57482170078E+00  0.15238112668E+02  0.18246463071E+02  0.00000000000E+00 0. -1.
</event>
<event>
 8    1  0.2493819E-006  0.9118800E+02  0.7816164E-02  0.1184000E+00
        -11   -1    0    0    0    0  0.00000000000E+00  0.00000000000E+00  0.45593999997E+02  0.45594000000E+02  0.51100000000E-03 0.  1.
         11   -1    0    0    0    0 -0.00000000000E+00 -0.00000000000E+00 -0.45593999997E+02  0.45594000000E+02  0.51100000000E-03 0. -1.
         23    2    1    2    0    0  0.00000000000E+00  0.88817841970E-15  0.00000000000E+00  0.91188000000E+02  0.91188000000E+02 0.  0.
    9900012    2    3    3    0    0 -0.20838251621E+02 -0.43742687690E+01 -0.30040178812E+02  0.54367091525E+02  0.40000016749E+02 0.  0.
        -12    1    3    3    0    0  0.20838251621E+02  0.43742687690E+01  0.30040178812E+02  0.36820908475E+02  0.00000000000E+00 0.  1.
         11    1    4    4    0    0 -0.19077720492E+02 -0.99745986725E+01 -0.16337047747E+02  0.27025010032E+02  0.51100000000E-03 0. -1.
        -11    1    4    4    0    0 -0.18545502276E+01  0.38905602438E+01 -0.20183886805E+02  0.20638922026E+02  0.51100000000E-03 0.  1.
         12    1    4    4    0    0  0.94019098743E-01  0.17097696598E+01  0.64807557404E+01  0.67031594675E+01  0.00000000000E+00 0. -1.
</event>
<event>
 8    1  0.2493819E-006  0.9118800E+02  0.7816164E-02  0.1184000E+00
        -11   -1    0    0    0    0  0.00000000000E+00  0.00000000000E+00  0.45593999997E+02  0.45594000000E+02  0.51100000000E-03 0.  1.
         11   -1    0    0    0    0 -0.00000000000E+00 -0.00000000000E+00 -0.45593999997E+02  0.45594000000E+02  0.51100000000E-03 0. -1.
         23    2    1    2    0    0 -0.44408920985E-15  0.00000000000E+00 -0.88817841970E-15  0.91188000000E+02  0.91188000000E+02 0.  0.
    9900012    2    3    3    0    0  0.19847382089E+01  0.36039678206E+02 -0.72786661491E+01  0.54367128583E+02  0.40000101231E+02 0.  0.
        -12    1    3    3    0    0 -0.19847382089E+01 -0.36039678206E+02  0.72786661491E+01  0.36820871417E+02  0.00000000000E+00 0.  1.
         11    1    4    4    0    0 -0.68456070219E+01  0.21076927969E+02 -0.21726432704E+02  0.31034450316E+02  0.51100000000E-03 0. -1.
        -11    1    4    4    0    0  0.90646410793E+00  0.31318944936E+01  0.58550025707E+01  0.67016039619E+01  0.51100000000E-03 0.  1.
         12    1    4    4    0    0  0.79238811228E+01  0.11830855744E+02  0.85927639839E+01  0.16631074306E+02  0.00000000000E+00 0. -1.
</event>
<event>
 8    1  0.2493819E-006  0.9118800E+02  0.7816164E-02  0.1184000E+00
        -11   -1    0    0    0    0  0.00000000000E+00  0.00000000000E+00  0.45593999997E+02  0.45594000000E+02  0.51100000000E-03 0.  1.
         11   -1    0    0    0    0 -0.00000000000E+00 -0.00000000000E+00 -0.45593999997E+02  0.45594000000E+02  0.51100000000E-03 0. -1.
         23    2    1    2    0    0 -0.35527136788E-14  0.00000000000E+00  0.00000000000E+00  0.91188000000E+02  0.91188000000E+02 0.  0.
    9900012    2    3    3    0    0 -0.25370091516E+02  0.84551576081E+01 -0.25311036970E+02  0.54367084392E+02  0.40000000488E+02 0.  0.
        -12    1    3    3    0    0  0.25370091516E+02 -0.84551576081E+01  0.25311036970E+02  0.36820915608E+02  0.00000000000E+00 0.  1.
         11    1    4    4    0    0 -0.19285862886E+02 -0.37146923499E+01 -0.31944004341E+02  0.37498838117E+02  0.51100000000E-03 0. -1.
        -11    1    4    4    0    0  0.16443978257E+01  0.12258773478E+01  0.39220678820E+00  0.20882159627E+01  0.51100000000E-03 0.  1.
        -12    1    4    4    0    0 -0.77286264561E+01  0.10943972610E+02  0.62407605825E+01  0.14780030313E+02  0.00000000000E+00 0.  1.
</event>
<event>
 8    1  0.2493819E-006  0.9118800E+02  0.7816164E-02  0.1184000E+00
        -11   -1    0    0    0    0  0.00000000000E+00  0.00000000000E+00  0.45593999997E+02  0.45594000000E+02  0.51100000000E-03 0. -1.
         11   -1    0    0    0    0 -0.00000000000E+00 -0.00000000000E+00 -0.45593999997E+02  0.45594000000E+02  0.51100000000E-03 0.  1.
         23    2    1    2    0    0  0.00000000000E+00  0.00000000000E+00  0.00000000000E+00  0.91188000000E+02  0.91188000000E+02 0.  0.
    9900012    2    3    3    0    0  0.15454013735E+02  0.33112762420E+02 -0.45278221742E+01  0.54367044700E+02  0.39999910002E+02 0.  0.
         12    1    3    3    0    0 -0.15454013735E+02 -0.33112762420E+02  0.45278221742E+01  0.36820955300E+02  0.00000000000E+00 0. -1.
         11    1    4    4    0    0 -0.66279629187E+01  0.11084692502E+02 -0.16352025476E+01  0.13018225222E+02  0.51100000000E-03 0. -1.
        -11    1    4    4    0    0  0.20217876565E+02  0.28254076032E+02 -0.26877830093E+01  0.34846513785E+02  0.51100000000E-03 0.  1.
         12    1    4    4    0    0  0.18641000890E+01 -0.62260061140E+01 -0.20483661732E+00  0.65023056921E+01  0.00000000000E+00 0. -1.
</event>
<event>
 8    1  0.2493819E-006  0.9118800E+02  0.7816164E-02  0.1184000E+00
        -11   -1    0    0    0    0  0.00000000000E+00  0.00000000000E+00  0.45593999997E+02  0.45594000000E+02  0.51100000000E-03 0. -1.
         11   -1    0    0    0    0 -0.00000000000E+00 -0.00000000000E+00 -0.45593999997E+02  0.45594000000E+02  0.51100000000E-03 0.  1.
         23    2    1    2    0    0 -0.35527136788E-14  0.17763568394E-14 -0.35527136788E-14  0.91188000000E+02  0.91188000000E+02 0.  0.
    9900012    2    3    3    0    0  0.26485536272E+02 -0.14445468219E+02  0.21109849768E+02  0.54367069255E+02  0.39999965981E+02 0.  0.
        -12    1    3    3    0    0 -0.26485536272E+02  0.14445468219E+02 -0.21109849768E+02  0.36820930745E+02  0.00000000000E+00 0.  1.
         11    1    4    4    0    0  0.85202062899E+01  0.19720060347E+01  0.76769599237E+01  0.11636942767E+02  0.51100000000E-03 0. -1.
        -11    1    4    4    0    0  0.11639498007E+02 -0.24417839872E+02  0.16972902114E+02  0.31934123197E+02  0.51100000000E-03 0.  1.
        -12    1    4    4    0    0  0.63258319750E+01  0.80003656184E+01 -0.35400122698E+01  0.10796003292E+02  0.00000000000E+00 0.  1.
</event>
<event>
 8    1  0.2493819E-006  0.9118800E+02  0.7816164E-02  0.1184000E+00
        -11   -1    0    0    0    0  0.00000000000E+00  0.00000000000E+00  0.45593999997E+02  0.45594000000E+02  0.51100000000E-03 0. -1.
         11   -1    0    0    0    0 -0.00000000000E+00 -0.00000000000E+00 -0.45593999997E+02  0.45594000000E+02  0.51100000000E-03 0.  1.
         23    2    1    2    0    0  0.00000000000E+00  0.00000000000E+00 -0.71054273576E-14  0.91188000000E+02  0.91188000000E+02 0.  0.
    9900012    2    3    3    0    0  0.26396701255E+02 -0.20641494583E+02  0.15261278976E+02  0.54367302400E+02  0.40000497479E+02 0.  0.
        -12    1    3    3    0    0 -0.26396701255E+02  0.20641494583E+02 -0.15261278976E+02  0.36820697600E+02  0.00000000000E+00 0.  1.
         11    1    4    4    0    0 -0.39817147804E+01 -0.10540835322E+02 -0.18091459374E+01  0.11412110723E+02  0.51100000000E-03 0. -1.
        -11    1    4    4    0    0  0.10922337490E+02 -0.12183385140E+02 -0.90108121978E+00  0.16387320627E+02  0.51100000000E-03 0.  1.
         12    1    4    4    0    0  0.19456078546E+02  0.20827258792E+01  0.17971506133E+02  0.26567871050E+02  0.00000000000E+00 0. -1.
</event>
<event>
 8    1  0.2493819E-006  0.9118800E+02  0.7816164E-02  0.1184000E+00
        -11   -1    0    0    0    0  0.00000000000E+00  0.00000000000E+00  0.45593999997E+02  0.45594000000E+02  0.51100000000E-03 0.  1.
         11   -1    0    0    0    0 -0.00000000000E+00 -0.00000000000E+00 -0.45593999997E+02  0.45594000000E+02  0.51100000000E-03 0. -1.
         23    2    1    2    0    0  0.35527136788E-14  0.35527136788E-14 -0.35527136788E-14  0.91188000000E+02  0.91188000000E+02 0.  0.
    9900012    2    3    3    0    0  0.18931245214E+02  0.27349256179E+02 -0.15792549448E+02  0.54367102713E+02  0.40000042255E+02 0.  0.
        -12    1    3    3    0    0 -0.18931245214E+02 -0.27349256179E+02  0.15792549448E+02  0.36820897287E+02  0.00000000000E+00 0.  1.
         11    1    4    4    0    0  0.11352711664E+00  0.14180070147E+02  0.53073147604E+01  0.15141164685E+02  0.51100000000E-03 0.  1.
        -11    1    4    4    0    0  0.50544387275E+01  0.63590582863E+01 -0.22387921837E+02  0.23816045381E+02  0.51100000000E-03 0. -1.
        -12    1    4    4    0    0  0.13763279370E+02  0.68101277459E+01  0.12880576288E+01  0.15409892647E+02  0.00000000000E+00 0.  1.
</event>
<event>
 8    1  0.2493819E-006  0.9118800E+02  0.7816164E-02  0.1184000E+00
        -11   -1    0    0    0    0  0.00000000000E+00  0.00000000000E+00  0.45593999997E+02  0.45594000000E+02  0.51100000000E-03 0. -1.
         11   -1    0    0    0    0 -0.00000000000E+00 -0.00000000000E+00 -0.45593999997E+02  0.45594000000E+02  0.51100000000E-03 0.  1.
         23    2    1    2    0    0  0.00000000000E+00 -0.35527136788E-14 -0.17763568394E-14  0.91188000000E+02  0.91188000000E+02 0.  0.
    9900012    2    3    3    0    0  0.30369992771E+02  0.17274610218E+02 -0.11620272503E+02  0.54367090830E+02  0.40000015165E+02 0.  0.
        -12    1    3    3    0    0 -0.30369992771E+02 -0.17274610218E+02  0.11620272503E+02  0.36820909170E+02  0.00000000000E+00 0.  1.
         11    1    4    4    0    0  0.23492873431E+02  0.23672322708E+01 -0.15398383966E+02  0.28189166708E+02  0.51100000000E-03 0. -1.
        -11    1    4    4    0    0 -0.22223442349E-01  0.14348317213E+01 -0.72878800670E+01  0.74278147581E+01  0.51100000000E-03 0.  1.
         12    1    4    4    0    0  0.68993427819E+01  0.13472546226E+02  0.11065991529E+02  0.18750109364E+02  0.00000000000E+00 0. -1.
</event>
<event>
 8    1  0.2493819E-006  0.9118800E+02  0.7816164E-02  0.1184000E+00
        -11   -1    0    0    0    0  0.00000000000E+00  0.00000000000E+00  0.45593999997E+02  0.45594000000E+02  0.51100000000E-03 0.  1.
         11   -1    0    0    0    0 -0.00000000000E+00 -0.00000000000E+00 -0.45593999997E+02  0.45594000000E+02  0.51100000000E-03 0. -1.
         23    2    1    2    0    0  0.00000000000E+00 -0.35527136788E-14  0.35527136788E-14  0.91188000000E+02  0.91188000000E+02 0.  0.
    9900012    2    3    3    0    0 -0.23294660699E+02 -0.11992874209E+02  0.25871008736E+02  0.54367090969E+02  0.40000015481E+02 0.  0.
         12    1    3    3    0    0  0.23294660699E+02  0.11992874209E+02 -0.25871008736E+02  0.36820909031E+02  0.00000000000E+00 0. -1.
         11    1    4    4    0    0 -0.10006009411E+02 -0.12862921607E+02 -0.16961821687E+01  0.16384505205E+02  0.51100000000E-03 0. -1.
        -11    1    4    4    0    0  0.44529418324E+01  0.50884020482E+01  0.12958466481E+02  0.14616510533E+02  0.51100000000E-03 0.  1.
        -12    1    4    4    0    0 -0.17741593120E+02 -0.42183546506E+01  0.14608724423E+02  0.23366075231E+02  0.00000000000E+00 0.  1.
</event>
<event>
 8    1  0.2493819E-006  0.9118800E+02  0.7816164E-02  0.1184000E+00
        -11   -1    0    0    0    0  0.00000000000E+00  0.00000000000E+00  0.45593999997E+02  0.45594000000E+02  0.51100000000E-03 0. -1.
         11   -1    0    0    0    0 -0.00000000000E+00 -0.00000000000E+00 -0.45593999997E+02  0.45594000000E+02  0.51100000000E-03 0.  1.
         23    2    1    2    0    0  0.00000000000E+00  0.00000000000E+00  0.17763568394E-14  0.91188000000E+02  0.91188000000E+02 0.  0.
    9900012    2    3    3    0    0  0.37204143222E+01 -0.35499645762E+02  0.90396374728E+01  0.54367063325E+02  0.39999952463E+02 0.  0.
        -12    1    3    3    0    0 -0.37204143222E+01  0.35499645762E+02 -0.90396374728E+01  0.36820936675E+02  0.00000000000E+00 0.  1.
         11    1    4    4    0    0  0.75758616789E+01 -0.19881428578E+02 -0.39543333825E+01  0.21640278077E+02  0.51100000000E-03 0. -1.
        -11    1    4    4    0    0 -0.11404539021E+02 -0.13639450154E+02  0.24735904392E+00  0.17780868863E+02  0.51100000000E-03 0.  1.
         12    1    4    4    0    0  0.75490916643E+01 -0.19787670300E+01  0.12746611811E+02  0.14945916385E+02  0.00000000000E+00 0. -1.
</event>
<event>
 8    1  0.2493819E-006  0.9118800E+02  0.7816164E-02  0.1184000E+00
        -11   -1    0    0    0    0  0.00000000000E+00  0.00000000000E+00  0.45593999997E+02  0.45594000000E+02  0.51100000000E-03 0. -1.
         11   -1    0    0    0    0 -0.00000000000E+00 -0.00000000000E+00 -0.45593999997E+02  0.45594000000E+02  0.51100000000E-03 0.  1.
         23    2    1    2    0    0  0.35527136788E-14  0.35527136788E-14 -0.17763568394E-14  0.91188000000E+02  0.91188000000E+02 0.  0.
    9900012    2    3    3    0    0  0.26840953816E+02  0.23786920229E+02 -0.83384903975E+01  0.54367016881E+02  0.39999846584E+02 0.  0.
        -12    1    3    3    0    0 -0.26840953816E+02 -0.23786920229E+02  0.83384903975E+01  0.36820983119E+02  0.00000000000E+00 0.  1.
         11    1    4    4    0    0  0.11745751122E+02 -0.88896176712E+00 -0.54260550197E+01  0.12969001341E+02  0.51100000000E-03 0. -1.
        -11    1    4    4    0    0 -0.22834615265E+01  0.12353916590E+02 -0.12779119390E+02  0.17920361165E+02  0.51100000000E-03 0.  1.
         12    1    4    4    0    0  0.17378664220E+02  0.12321965407E+02  0.98666840124E+01  0.23477654375E+02  0.00000000000E+00 0. -1.
</event>
<event>
 8    1  0.2493819E-006  0.9118800E+02  0.7816164E-02  0.1184000E+00
        -11   -1    0    0    0    0  0.00000000000E+00  0.00000000000E+00  0.45593999997E+02  0.45594000000E+02  0.51100000000E-03 0. -1.
         11   -1    0    0    0    0 -0.00000000000E+00 -0.00000000000E+00 -0.45593999997E+02  0.45594000000E+02  0.51100000000E-03 0.  1.
         23    2    1    2    0    0  0.88817841970E-15  0.00000000000E+00  0.00000000000E+00  0.91188000000E+02  0.91188000000E+02 0.  0.
    9900012    2    3    3    0    0 -0.72064203821E+01 -0.35663580882E+02 -0.56526198659E+01  0.54367141681E+02  0.40000131089E+02 0.  0.
        -12    1    3    3    0    0  0.72064203821E+01  0.35663580882E+02  0.56526198659E+01  0.36820858319E+02  0.00000000000E+00 0.  1.
         11    1    4    4    0    0  0.20945972115E+01  0.42254213070E+01  0.73945755538E+01  0.87704772152E+01  0.51100000000E-03 0. -1.
        -11    1    4    4    0    0 -0.11275783257E+02 -0.32809233993E+02 -0.15289086249E+02  0.37912336803E+02  0.51100000000E-03 0.  1.
        -12    1    4    4    0    0  0.19747656633E+01 -0.70797681957E+01  0.22418908296E+01  0.76843276623E+01  0.00000000000E+00 0.  1.
</event>
<event>
 8    1  0.2493819E-006  0.9118800E+02  0.7816164E-02  0.1184000E+00
        -11   -1    0    0    0    0  0.00000000000E+00  0.00000000000E+00  0.45593999997E+02  0.45594000000E+02  0.51100000000E-03 0.  1.
         11   -1    0    0    0    0 -0.00000000000E+00 -0.00000000000E+00 -0.45593999997E+02  0.45594000000E+02  0.51100000000E-03 0. -1.
         23    2    1    2    0    0  0.00000000000E+00  0.00000000000E+00  0.00000000000E+00  0.91188000000E+02  0.91188000000E+02 0.  0.
    9900012    2    3    3    0    0  0.22107186371E+02 -0.18118487750E+02  0.23211462196E+02  0.54367092015E+02  0.40000017866E+02 0.  0.
         12    1    3    3    0    0 -0.22107186371E+02  0.18118487750E+02 -0.23211462196E+02  0.36820907985E+02  0.00000000000E+00 0. -1.
         11    1    4    4    0    0 -0.66872998781E+01 -0.75646482756E+01  0.59407351732E+01  0.11714786291E+02  0.51100000000E-03 0. -1.
        -11    1    4    4    0    0  0.19533527798E+02 -0.11140579965E+02  0.22657730077E+02  0.31922467991E+02  0.51100000000E-03 0.  1.
         12    1    4    4    0    0  0.92609584519E+01  0.58674049084E+00 -0.53870030538E+01  0.10729837732E+02  0.00000000000E+00 0. -1.
</event>
<event>
 8    1  0.2493819E-006  0.9118800E+02  0.7816164E-02  0.1184000E+00
        -11   -1    0    0    0    0  0.00000000000E+00  0.00000000000E+00  0.45593999997E+02  0.45594000000E+02  0.51100000000E-03 0. -1.
         11   -1    0    0    0    0 -0.00000000000E+00 -0.00000000000E+00 -0.45593999997E+02  0.45594000000E+02  0.51100000000E-03 0.  1.
         23    2    1    2    0    0 -0.44408920985E-15 -0.35527136788E-14 -0.35527136788E-14  0.91188000000E+02  0.91188000000E+02 0.  0.
    9900012    2    3    3    0    0 -0.23352001149E+01  0.22620688100E+02  0.28959121114E+02  0.54367090378E+02  0.40000014136E+02 0.  0.
        -12    1    3    3    0    0  0.23352001149E+01 -0.22620688100E+02 -0.28959121114E+02  0.36820909622E+02  0.00000000000E+00 0.  1.
         11    1    4    4    0    0  0.48590862338E+01  0.23559719755E+02  0.23305385508E+02  0.33493463660E+02  0.51100000000E-03 0. -1.
        -11    1    4    4    0    0  0.15582243535E+01 -0.65662931261E+01 -0.29564083611E+01  0.73678096618E+01  0.51100000000E-03 0.  1.
        -12    1    4    4    0    0 -0.87525107022E+01  0.56272614709E+01  0.86101439665E+01  0.13505817057E+02  0.00000000000E+00 0.  1.
</event>
<event>
 8    1  0.2493819E-006  0.9118800E+02  0.7816164E-02  0.1184000E+00
        -11   -1    0    0    0    0  0.00000000000E+00  0.00000000000E+00  0.45593999997E+02  0.45594000000E+02  0.51100000000E-03 0. -1.
         11   -1    0    0    0    0 -0.00000000000E+00 -0.00000000000E+00 -0.45593999997E+02  0.45594000000E+02  0.51100000000E-03 0.  1.
         23    2    1    2    0    0  0.00000000000E+00  0.35527136788E-14 -0.35527136788E-14  0.91188000000E+02  0.91188000000E+02 0.  0.
    9900012    2    3    3    0    0 -0.18291435264E+02  0.24835913545E+02 -0.20109234657E+02  0.54367074915E+02  0.39999978883E+02 0.  0.
        -12    1    3    3    0    0  0.18291435264E+02 -0.24835913545E+02  0.20109234657E+02  0.36820925085E+02  0.00000000000E+00 0.  1.
         11    1    4    4    0    0 -0.15729138429E+02  0.22948191084E+02 -0.13089012309E+02  0.30746504081E+02  0.51100000000E-03 0. -1.
        -11    1    4    4    0    0  0.62189530058E+01  0.74857698854E+01  0.18914715238E+01  0.99141208411E+01  0.51100000000E-03 0.  1.
        -12    1    4    4    0    0 -0.87812498406E+01 -0.55980474240E+01 -0.89116938720E+01  0.13706449992E+02  0.00000000000E+00 0.  1.
</event>
<event>
 8    1  0.2493819E-006  0.9118800E+02  0.7816164E-02  0.1184000E+00
        -11   -1    0    0    0    0  0.00000000000E+00  0.00000000000E+00  0.45593999997E+02  0.45594000000E+02  0.51100000000E-03 0. -1.
         11   -1    0    0    0    0 -0.00000000000E+00 -0.00000000000E+00 -0.45593999997E+02  0.45594000000E+02  0.51100000000E-03 0.  1.
         23    2    1    2    0    0  0.00000000000E+00  0.00000000000E+00 -0.35527136788E-14  0.91188000000E+02  0.91188000000E+02 0.  0.
    9900012    2    3    3    0    0 -0.65212832934E+01 -0.22313916596E+02 -0.28554162140E+02  0.54367106676E+02  0.40000051290E+02 0.  0.
         12    1    3    3    0    0  0.65212832934E+01  0.22313916596E+02  0.28554162140E+02  0.36820893324E+02  0.00000000000E+00 0. -1.
         11    1    4    4    0    0 -0.21988538980E+01  0.16752121971E+01 -0.42585723430E+01  0.50770791831E+01  0.51100000000E-03 0. -1.
        -11    1    4    4    0    0 -0.11526247272E+01  0.48839959608E+01 -0.19143190511E+02  0.19789989983E+02  0.51100000000E-03 0.  1.
         12    1    4    4    0    0 -0.31698046682E+01 -0.28873124754E+02 -0.51523992856E+01  0.29500037510E+02  0.00000000000E+00 0. -1.
</event>
<event>
 8    1  0.2493819E-006  0.9118800E+02  0.7816164E-02  0.1184000E+00
        -11   -1    0    0    0    0  0.00000000000E+00  0.00000000000E+00  0.45593999997E+02  0.45594000000E+02  0.51100000000E-03 0. -1.
         11   -1    0    0    0    0 -0.00000000000E+00 -0.00000000000E+00 -0.45593999997E+02  0.45594000000E+02  0.51100000000E-03 0.  1.
         23    2    1    2    0    0 -0.17763568394E-14  0.00000000000E+00  0.00000000000E+00  0.91188000000E+02  0.91188000000E+02 0.  0.
    9900012    2    3    3    0    0  0.87153684240E+01 -0.35553213805E+02  0.39737400957E+01  0.54367091959E+02  0.40000017738E+02 0.  0.
        -12    1    3    3    0    0 -0.87153684240E+01  0.35553213805E+02 -0.39737400957E+01  0.36820908041E+02  0.00000000000E+00 0.  1.
         11    1    4    4    0    0 -0.46865701350E+01 -0.26338445215E+01  0.26605631059E+01  0.59983058354E+01  0.51100000000E-03 0. -1.
        -11    1    4    4    0    0 -0.19376079307E+01 -0.14999324595E+00  0.10792189738E+02  0.10965773209E+02  0.51100000000E-03 0.  1.
         12    1    4    4    0    0  0.15339546490E+02 -0.32769376038E+02 -0.94790127479E+01  0.37403012915E+02  0.00000000000E+00 0. -1.
</event>
<event>
 8    1  0.2493819E-006  0.9118800E+02  0.7816164E-02  0.1184000E+00
        -11   -1    0    0    0    0  0.00000000000E+00  0.00000000000E+00  0.45593999997E+02  0.45594000000E+02  0.51100000000E-03 0.  1.
         11   -1    0    0    0    0 -0.00000000000E+00 -0.00000000000E+00 -0.45593999997E+02  0.45594000000E+02  0.51100000000E-03 0. -1.
         23    2    1    2    0    0 -0.35527136788E-14 -0.88817841970E-15  0.71054273576E-14  0.91188000000E+02  0.91188000000E+02 0.  0.
    9900012    2    3    3    0    0 -0.16818574474E+02  0.67393804802E+01  0.32054587469E+02  0.54367078306E+02  0.39999986613E+02 0.  0.
         12    1    3    3    0    0  0.16818574474E+02 -0.67393804802E+01 -0.32054587469E+02  0.36820921694E+02  0.00000000000E+00 0. -1.
         11    1    4    4    0    0 -0.17121639580E+02 -0.72562636026E+01  0.31279044453E+01  0.18857032902E+02  0.51100000000E-03 0.  1.
        -11    1    4    4    0    0 -0.43878550121E+01  0.50000308597E+01  0.23374053416E+01  0.70510314279E+01  0.51100000000E-03 0. -1.
        -12    1    4    4    0    0  0.46909201177E+01  0.89956132232E+01  0.26589277682E+02  0.28459013976E+02  0.00000000000E+00 0.  1.
</event>
<event>
 8    1  0.2493819E-006  0.9118800E+02  0.7816164E-02  0.1184000E+00
        -11   -1    0    0    0    0  0.00000000000E+00  0.00000000000E+00  0.45593999997E+02  0.45594000000E+02  0.51100000000E-03 0.  1.
         11   -1    0    0    0    0 -0.00000000000E+00 -0.00000000000E+00 -0.45593999997E+02  0.45594000000E+02  0.51100000000E-03 0. -1.
         23    2    1    2    0    0  0.00000000000E+00  0.88817841970E-15  0.17763568394E-14  0.91188000000E+02  0.91188000000E+02 0.  0.
    9900012    2    3    3    0    0  0.35078826936E+02  0.63348057972E+01 -0.92263797604E+01  0.54367082749E+02  0.39999996744E+02 0.  0.
         12    1    3    3    0    0 -0.35078826936E+02 -0.63348057972E+01  0.92263797604E+01  0.36820917251E+02  0.00000000000E+00 0. -1.
         11    1    4    4    0    0  0.19338542547E+02  0.17386597875E+02 -0.16474170865E+02  0.30784270650E+02  0.51100000000E-03 0. -1.
        -11    1    4    4    0    0  0.21044349770E+01  0.12628205195E+01  0.43326445161E+01  0.49794749724E+01  0.51100000000E-03 0.  1.
         12    1    4    4    0    0  0.13635849412E+02 -0.12314612597E+02  0.29151465888E+01  0.18603337127E+02  0.00000000000E+00 0. -1.
</event>
<event>
 8    1  0.2493819E-006  0.9118800E+02  0.7816164E-02  0.1184000E+00
        -11   -1    0    0    0    0  0.00000000000E+00  0.00000000000E+00  0.45593999997E+02  0.45594000000E+02  0.51100000000E-03 0. -1.
         11   -1    0    0    0    0 -0.00000000000E+00 -0.00000000000E+00 -0.45593999997E+02  0.45594000000E+02  0.51100000000E-03 0.  1.
         23    2    1    2    0    0  0.00000000000E+00  0.00000000000E+00  0.17763568394E-14  0.91188000000E+02  0.91188000000E+02 0.  0.
    9900012    2    3    3    0    0  0.26546534392E+02 -0.22302927797E+02 -0.12395162249E+02  0.54367093931E+02  0.40000022234E+02 0.  0.
         12    1    3    3    0    0 -0.26546534392E+02  0.22302927797E+02  0.12395162249E+02  0.36820906069E+02  0.00000000000E+00 0. -1.
         11    1    4    4    0    0  0.12518097757E+02 -0.89019045272E+00  0.76868334089E+01  0.14716746197E+02  0.51100000000E-03 0. -1.
        -11    1    4    4    0    0  0.19824498680E+02 -0.17763437522E+02 -0.12420878636E+02  0.29373945715E+02  0.51100000000E-03 0.  1.
        -12    1    4    4    0    0 -0.57960620452E+01 -0.36492998220E+01 -0.76611170227E+01  0.10276402019E+02  0.00000000000E+00 0.  1.
</event>
<event>
 8    1  0.2493819E-006  0.9118800E+02  0.7816164E-02  0.1184000E+00
        -11   -1    0    0    0    0  0.00000000000E+00  0.00000000000E+00  0.45593999997E+02  0.45594000000E+02  0.51100000000E-03 0. -1.
         11   -1    0    0    0    0 -0.00000000000E+00 -0.00000000000E+00 -0.45593999997E+02  0.45594000000E+02  0.51100000000E-03 0.  1.
         23    2    1    2    0    0  0.00000000000E+00  0.17763568394E-14  0.00000000000E+00  0.91188000000E+02  0.91188000000E+02 0.  0.
    9900012    2    3    3    0    0 -0.86806284392E+01 -0.10187709371E+02  0.34302151563E+02  0.54367077494E+02  0.39999984764E+02 0.  0.
        -12    1    3    3    0    0  0.86806284392E+01  0.10187709371E+02 -0.34302151563E+02  0.36820922506E+02  0.00000000000E+00 0.  1.
         11    1    4    4    0    0 -0.65029219131E+01  0.46608645577E+01  0.12788067892E+02  0.15084638958E+02  0.51100000000E-03 0. -1.
        -11    1    4    4    0    0 -0.10437800091E+01  0.34983154756E+01 -0.55036809338E+01  0.66044070102E+01  0.51100000000E-03 0.  1.
        -12    1    4    4    0    0 -0.11339265170E+01 -0.18346889404E+02  0.27017764605E+02  0.32678031526E+02  0.00000000000E+00 0.  1.
</event>
<event>
 8    1  0.2493819E-006  0.9118800E+02  0.7816164E-02  0.1184000E+00
        -11   -1    0    0    0    0  0.00000000000E+00  0.00000000000E+00  0.45593999997E+02  0.45594000000E+02  0.51100000000E-03 0. -1.
         11   -1    0    0    0    0 -0.00000000000E+00 -0.00000000000E+00 -0.45593999997E+02  0.45594000000E+02  0.51100000000E-03 0.  1.
         23    2    1    2    0    0  0.00000000000E+00 -0.88817841970E-15 -0.88817841970E-15  0.91188000000E+02  0.91188000000E+02 0.  0.
    9900012    2    3    3    0    0 -0.36412240491E+02 -0.19704116049E+01  0.51025354138E+01  0.54367222617E+02  0.40000315598E+02 0.  0.
        -12    1    3    3    0    0  0.36412240491E+02  0.19704116049E+01 -0.51025354138E+01  0.36820777383E+02  0.00000000000E+00 0.  1.
         11    1    4    4    0    0 -0.16899794719E+02  0.29631387537E+01  0.13294850831E+02  0.21705674643E+02  0.51100000000E-03 0. -1.
        -11    1    4    4    0    0 -0.13601848498E+02  0.49894688604E+01  0.48141736770E+01  0.15267002015E+02  0.51100000000E-03 0.  1.
        -12    1    4    4    0    0 -0.59105972737E+01 -0.99230192190E+01 -0.13006489094E+02  0.17394545959E+02  0.00000000000E+00 0.  1.
</event>
<event>
 8    1  0.2493819E-006  0.9118800E+02  0.7816164E-02  0.1184000E+00
        -11   -1    0    0    0    0  0.00000000000E+00  0.00000000000E+00  0.45593999997E+02  0.45594000000E+02  0.51100000000E-03 0.  1.
         11   -1    0    0    0    0 -0.00000000000E+00 -0.00000000000E+00 -0.45593999997E+02  0.45594000000E+02  0.51100000000E-03 0. -1.
         23    2    1    2    0    0  0.00000000000E+00  0.00000000000E+00  0.17763568394E-14  0.91188000000E+02  0.91188000000E+02 0.  0.
    9900012    2    3    3    0    0  0.13980402941E+02  0.30768499873E+02 -0.14616001284E+02  0.54367085504E+02  0.40000003023E+02 0.  0.
        -12    1    3    3    0    0 -0.13980402941E+02 -0.30768499873E+02  0.14616001284E+02  0.36820914496E+02  0.00000000000E+00 0.  1.
         11    1    4    4    0    0  0.63681485706E+01  0.35274910452E+02 -0.68764800068E+01  0.36498747940E+02  0.51100000000E-03 0. -1.
        -11    1    4    4    0    0  0.71073460900E+01  0.24193500520E+01 -0.50873922612E-01  0.75080098251E+01  0.51100000000E-03 0.  1.
         12    1    4    4    0    0  0.50490828089E+00 -0.69257606319E+01 -0.76886473549E+01  0.10360327739E+02  0.00000000000E+00 0. -1.
</event>
<event>
 8    1  0.2493819E-006  0.9118800E+02  0.7816164E-02  0.1184000E+00
        -11   -1    0    0    0    0  0.00000000000E+00  0.00000000000E+00  0.45593999997E+02  0.45594000000E+02  0.51100000000E-03 0.  1.
         11   -1    0    0    0    0 -0.00000000000E+00 -0.00000000000E+00 -0.45593999997E+02  0.45594000000E+02  0.51100000000E-03 0. -1.
         23    2    1    2    0    0 -0.35527136788E-14 -0.17763568394E-14 -0.35527136788E-14  0.91188000000E+02  0.91188000000E+02 0.  0.
    9900012    2    3    3    0    0 -0.11838430595E+02  0.15262528518E+02  0.31347831614E+02  0.54367085256E+02  0.40000002457E+02 0.  0.
         12    1    3    3    0    0  0.11838430595E+02 -0.15262528518E+02 -0.31347831614E+02  0.36820914744E+02  0.00000000000E+00 0. -1.
         11    1    4    4    0    0 -0.16092913225E+02  0.21323886438E+01  0.13506204694E+02  0.21117445463E+02  0.51100000000E-03 0. -1.
        -11    1    4    4    0    0 -0.26576912542E+01  0.18578522479E+02  0.91474585642E+01  0.20878237923E+02  0.51100000000E-03 0.  1.
         12    1    4    4    0    0  0.69121738842E+01 -0.54483826052E+01  0.86941683560E+01  0.12371401870E+02  0.00000000000E+00 0. -1.
</event>
<event>
 8    1  0.2493819E-006  0.9118800E+02  0.7816164E-02  0.1184000E+00
        -11   -1    0    0    0    0  0.00000000000E+00  0.00000000000E+00  0.45593999997E+02  0.45594000000E+02  0.51100000000E-03 0. -1.
         11   -1    0    0    0    0 -0.00000000000E+00 -0.00000000000E+00 -0.45593999997E+02  0.45594000000E+02  0.51100000000E-03 0.  1.
         23    2    1    2    0    0 -0.44408920985E-15  0.00000000000E+00 -0.17763568394E-14  0.91188000000E+02  0.91188000000E+02 0.  0.
    9900012    2    3    3    0    0  0.39189880141E+01  0.36095986561E+02 -0.61239760365E+01  0.54367057653E+02  0.39999939531E+02 0.  0.
        -12    1    3    3    0    0 -0.39189880141E+01 -0.36095986561E+02  0.61239760365E+01  0.36820942347E+02  0.00000000000E+00 0.  1.
         11    1    4    4    0    0  0.30053877356E+01  0.18533266178E+01  0.44207397684E+01  0.56577482584E+01  0.51100000000E-03 0. -1.
        -11    1    4    4    0    0 -0.38431805421E+01  0.24886755889E+02 -0.21809085485E+02  0.33313013453E+02  0.51100000000E-03 0.  1.
        -12    1    4    4    0    0  0.47567808206E+01  0.93559040534E+01  0.11264369680E+02  0.15396295941E+02  0.00000000000E+00 0.  1.
</event>
<event>
 8    1  0.2493819E-006  0.9118800E+02  0.7816164E-02  0.1184000E+00
        -11   -1    0    0    0    0  0.00000000000E+00  0.00000000000E+00  0.45593999997E+02  0.45594000000E+02  0.51100000000E-03 0.  1.
         11   -1    0    0    0    0 -0.00000000000E+00 -0.00000000000E+00 -0.45593999997E+02  0.45594000000E+02  0.51100000000E-03 0. -1.
         23    2    1    2    0    0  0.35527136788E-14  0.00000000000E+00  0.35527136788E-14  0.91188000000E+02  0.91188000000E+02 0.  0.
    9900012    2    3    3    0    0 -0.25546130557E+02  0.10517251170E+02 -0.24342618000E+02  0.54367076469E+02  0.39999982426E+02 0.  0.
        -12    1    3    3    0    0  0.25546130557E+02 -0.10517251170E+02  0.24342618000E+02  0.36820923531E+02  0.00000000000E+00 0.  1.
         11    1    4    4    0    0 -0.11949001802E+02 -0.66904283569E+01 -0.13216200695E+00  0.13695179543E+02  0.51100000000E-03 0.  1.
        -11    1    4    4    0    0  0.11158654549E+01  0.15974925548E+02 -0.57083979518E+01  0.17000859079E+02  0.51100000000E-03 0. -1.
         12    1    4    4    0    0 -0.14712994210E+02  0.12327539793E+01 -0.18502058041E+02  0.23671037847E+02  0.00000000000E+00 0. -1.
</event>
<event>
 8    1  0.2493819E-006  0.9118800E+02  0.7816164E-02  0.1184000E+00
        -11   -1    0    0    0    0  0.00000000000E+00  0.00000000000E+00  0.45593999997E+02  0.45594000000E+02  0.51100000000E-03 0.  1.
         11   -1    0    0    0    0 -0.00000000000E+00 -0.00000000000E+00 -0.45593999997E+02  0.45594000000E+02  0.51100000000E-03 0. -1.
         23    2    1    2    0    0  0.00000000000E+00  0.00000000000E+00  0.39968028887E-14  0.91188000000E+02  0.91188000000E+02 0.  0.
    9900012    2    3    3    0    0 -0.14493651761E+02 -0.33823749429E+02 -0.12917270043E+01  0.54367074897E+02  0.39999978842E+02 0.  0.
        -12    1    3    3    0    0  0.14493651761E+02  0.33823749429E+02  0.12917270043E+01  0.36820925103E+02  0.00000000000E+00 0.  1.
         11    1    4    4    0    0 -0.47296765941E+01 -0.36581222719E+01 -0.36838175820E+01  0.70229773942E+01  0.51100000000E-03 0. -1.
        -11    1    4    4    0    0 -0.47834994703E+01 -0.31705600000E+02  0.13718292142E+02  0.34875757742E+02  0.51100000000E-03 0.  1.
        -12    1    4    4    0    0 -0.49804756968E+01  0.15399728426E+01 -0.11326201564E+02  0.12468339761E+02  0.00000000000E+00 0.  1.
</event>
<event>
 8    1  0.2493819E-006  0.9118800E+02  0.7816164E-02  0.1184000E+00
        -11   -1    0    0    0    0  0.00000000000E+00  0.00000000000E+00  0.45593999997E+02  0.45594000000E+02  0.51100000000E-03 0. -1.
         11   -1    0    0    0    0 -0.00000000000E+00 -0.00000000000E+00 -0.45593999997E+02  0.45594000000E+02  0.51100000000E-03 0.  1.
         23    2    1    2    0    0  0.35527136788E-14 -0.35527136788E-14  0.35527136788E-14  0.91188000000E+02  0.91188000000E+02 0.  0.
    9900012    2    3    3    0    0  0.11231444616E+02  0.30577406405E+02  0.17165569871E+02  0.54367083123E+02  0.39999997596E+02 0.  0.
        -12    1    3    3    0    0 -0.11231444616E+02 -0.30577406405E+02 -0.17165569871E+02  0.36820916877E+02  0.00000000000E+00 0.  1.
         11    1    4    4    0    0  0.99319050367E+01  0.20779323795E+02  0.13578804776E+02  0.26735874297E+02  0.51100000000E-03 0. -1.
        -11    1    4    4    0    0 -0.31106084265E+01 -0.79170676781E+01  0.39344013504E+01  0.93720520512E+01  0.51100000000E-03 0.  1.
        -12    1    4    4    0    0  0.44101480062E+01  0.17715150288E+02 -0.34763625505E+00  0.18259156775E+02  0.00000000000E+00 0.  1.
</event>
<event>
 8    1  0.2493819E-006  0.9118800E+02  0.7816164E-02  0.1184000E+00
        -11   -1    0    0    0    0  0.00000000000E+00  0.00000000000E+00  0.45593999997E+02  0.45594000000E+02  0.51100000000E-03 0.  1.
         11   -1    0    0    0    0 -0.00000000000E+00 -0.00000000000E+00 -0.45593999997E+02  0.45594000000E+02  0.51100000000E-03 0. -1.
         23    2    1    2    0    0  0.00000000000E+00  0.00000000000E+00  0.71054273576E-14  0.91188000000E+02  0.91188000000E+02 0.  0.
    9900012    2    3    3    0    0 -0.20284442280E+02  0.24906709884E+02  0.17999376832E+02  0.54367077114E+02  0.39999983897E+02 0.  0.
         12    1    3    3    0    0  0.20284442280E+02 -0.24906709884E+02 -0.17999376832E+02  0.36820922886E+02  0.00000000000E+00 0. -1.
         11    1    4    4    0    0 -0.11415994436E+02 -0.62653424677E+00 -0.91078650335E+01  0.14617478574E+02  0.51100000000E-03 0. -1.
        -11    1    4    4    0    0 -0.80428913155E+01  0.25292510376E+02  0.21722822484E+02  0.34296941536E+02  0.51100000000E-03 0.  1.
         12    1    4    4    0    0 -0.82555652833E+00  0.24073375459E+00  0.53844193821E+01  0.54526570041E+01  0.00000000000E+00 0. -1.
</event>
<event>
 8    1  0.2493819E-006  0.9118800E+02  0.7816164E-02  0.1184000E+00
        -11   -1    0    0    0    0  0.00000000000E+00  0.00000000000E+00  0.45593999997E+02  0.45594000000E+02  0.51100000000E-03 0.  1.
         11   -1    0    0    0    0 -0.00000000000E+00 -0.00000000000E+00 -0.45593999997E+02  0.45594000000E+02  0.51100000000E-03 0. -1.
         23    2    1    2    0    0  0.88817841970E-15  0.00000000000E+00 -0.35527136788E-14  0.91188000000E+02  0.91188000000E+02 0.  0.
    9900012    2    3    3    0    0 -0.76513230511E+01 -0.19346762793E+02 -0.30379908152E+02  0.54367098405E+02  0.40000032433E+02 0.  0.
        -12    1    3    3    0    0  0.76513230511E+01  0.19346762793E+02  0.30379908152E+02  0.36820901595E+02  0.00000000000E+00 0.  1.
         11    1    4    4    0    0  0.48740946397E+01 -0.16591750615E+02 -0.11719428997E+02  0.20889901946E+02  0.51100000000E-03 0. -1.
        -11    1    4    4    0    0 -0.15254757654E+02 -0.15450344487E+01 -0.23340361248E+02  0.27926102950E+02  0.51100000000E-03 0.  1.
        -12    1    4    4    0    0  0.27293399635E+01 -0.12099777291E+01  0.46798820929E+01  0.55510935089E+01  0.00000000000E+00 0.  1.
</event>
<event>
 8    1  0.2493819E-006  0.9118800E+02  0.7816164E-02  0.1184000E+00
        -11   -1    0    0    0    0  0.00000000000E+00  0.00000000000E+00  0.45593999997E+02  0.45594000000E+02  0.51100000000E-03 0.  1.
         11   -1    0    0    0    0 -0.00000000000E+00 -0.00000000000E+00 -0.45593999997E+02  0.45594000000E+02  0.51100000000E-03 0. -1.
         23    2    1    2    0    0  0.00000000000E+00 -0.17763568394E-14  0.44408920985E-15  0.91188000000E+02  0.91188000000E+02 0.  0.
    9900012    2    3    3    0    0 -0.35186508744E+02 -0.10472961767E+02  0.28286327065E+01  0.54367156871E+02  0.40000165718E+02 0.  0.
        -12    1    3    3    0    0  0.35186508744E+02  0.10472961767E+02 -0.28286327065E+01  0.36820843129E+02  0.00000000000E+00 0.  1.
         11    1    4    4    0    0 -0.80742282830E+01 -0.20687598938E+01 -0.92743876580E+01  0.12469450531E+02  0.51100000000E-03 0. -1.
        -11    1    4    4    0    0  0.40779590104E+01  0.29928785085E+01  0.64754085448E+01  0.82169329765E+01  0.51100000000E-03 0.  1.
        -12    1    4    4    0    0 -0.31190239471E+02 -0.11397080382E+02  0.56276118196E+01  0.33680773363E+02  0.00000000000E+00 0.  1.
</event>
<event>
 8    1  0.2493819E-006  0.9118800E+02  0.7816164E-02  0.1184000E+00
        -11   -1    0    0    0    0  0.00000000000E+00  0.00000000000E+00  0.45593999997E+02  0.45594000000E+02  0.51100000000E-03 0.  1.
         11   -1    0    0    0    0 -0.00000000000E+00 -0.00000000000E+00 -0.45593999997E+02  0.45594000000E+02  0.51100000000E-03 0. -1.
         23    2    1    2    0    0  0.00000000000E+00 -0.44408920985E-15 -0.17763568394E-14  0.91188000000E+02  0.91188000000E+02 0.  0.
    9900012    2    3    3    0    0 -0.35191968367E+02 -0.31072283728E+01 -0.10375496827E+02  0.54367076056E+02  0.39999981484E+02 0.  0.
        -12    1    3    3    0    0  0.35191968367E+02  0.31072283728E+01  0.10375496827E+02  0.36820923944E+02  0.00000000000E+00 0.  1.
         11    1    4    4    0    0 -0.23303415117E+02  0.10211128315E+01  0.76778841409E+01  0.24556908043E+02  0.51100000000E-03 0.  1.
        -11    1    4    4    0    0 -0.90877696773E+01 -0.75663001846E+01 -0.64166026062E+00  0.11842642625E+02  0.51100000000E-03 0. -1.
        -12    1    4    4    0    0 -0.28007835731E+01  0.34379589804E+01 -0.17411720707E+02  0.17967525387E+02  0.00000000000E+00 0.  1.
</event>
<event>
 8    1  0.2493819E-006  0.9118800E+02  0.7816164E-02  0.1184000E+00
        -11   -1    0    0    0    0  0.00000000000E+00  0.00000000000E+00  0.45593999997E+02  0.45594000000E+02  0.51100000000E-03 0. -1.
         11   -1    0    0    0    0 -0.00000000000E+00 -0.00000000000E+00 -0.45593999997E+02  0.45594000000E+02  0.51100000000E-03 0.  1.
         23    2    1    2    0    0  0.17763568394E-14  0.00000000000E+00  0.88817841970E-15  0.91188000000E+02  0.91188000000E+02 0.  0.
    9900012    2    3    3    0    0  0.13343380268E+02  0.33456810341E+02  0.76405866125E+01  0.54367047826E+02  0.39999917130E+02 0.  0.
         12    1    3    3    0    0 -0.13343380268E+02 -0.33456810341E+02 -0.76405866125E+01  0.36820952174E+02  0.00000000000E+00 0. -1.
         11    1    4    4    0    0  0.10979090446E+02  0.27939933349E+02  0.35434622527E+01  0.30228073500E+02  0.51100000000E-03 0.  1.
        -11    1    4    4    0    0 -0.58763539993E+01  0.89246962522E-01  0.10740669412E+02  0.12243426033E+02  0.51100000000E-03 0. -1.
        -12    1    4    4    0    0  0.82406438217E+01  0.54276300300E+01 -0.66435450520E+01  0.11895548293E+02  0.00000000000E+00 0.  1.
</event>
<event>
 8    1  0.2493819E-006  0.9118800E+02  0.7816164E-02  0.1184000E+00
        -11   -1    0    0    0    0  0.00000000000E+00  0.00000000000E+00  0.45593999997E+02  0.45594000000E+02  0.51100000000E-03 0.  1.
         11   -1    0    0    0    0 -0.00000000000E+00 -0.00000000000E+00 -0.45593999997E+02  0.45594000000E+02  0.51100000000E-03 0. -1.
         23    2    1    2    0    0 -0.17763568394E-14  0.13322676296E-14  0.00000000000E+00  0.91188000000E+02  0.91188000000E+02 0.  0.
    9900012    2    3    3    0    0  0.80605853143E+01 -0.36024215571E+01  0.35746749142E+02  0.54367074552E+02  0.39999978055E+02 0.  0.
         12    1    3    3    0    0 -0.80605853143E+01  0.36024215571E+01 -0.35746749142E+02  0.36820925448E+02  0.00000000000E+00 0. -1.
         11    1    4    4    0    0  0.58790110407E+01 -0.10971572809E+02  0.15920029475E+01  0.12548810874E+02  0.51100000000E-03 0. -1.
        -11    1    4    4    0    0  0.12158825665E+02  0.59375896104E+01  0.15200172410E+02  0.20350362490E+02  0.51100000000E-03 0.  1.
        -12    1    4    4    0    0 -0.99772513909E+01  0.14315616413E+01  0.18954573784E+02  0.21467901187E+02  0.00000000000E+00 0.  1.
</event>
<event>
 8    1  0.2493819E-006  0.9118800E+02  0.7816164E-02  0.1184000E+00
        -11   -1    0    0    0    0  0.00000000000E+00  0.00000000000E+00  0.45593999997E+02  0.45594000000E+02  0.51100000000E-03 0. -1.
         11   -1    0    0    0    0 -0.00000000000E+00 -0.00000000000E+00 -0.45593999997E+02  0.45594000000E+02  0.51100000000E-03 0.  1.
         23    2    1    2    0    0  0.00000000000E+00  0.25535129566E-14  0.00000000000E+00  0.91188000000E+02  0.91188000000E+02 0.  0.
    9900012    2    3    3    0    0 -0.20362097774E+02 -0.97972977517E+00 -0.30662751656E+02  0.54367092416E+02  0.40000018781E+02 0.  0.
         12    1    3    3    0    0  0.20362097774E+02  0.97972977517E+00  0.30662751656E+02  0.36820907584E+02  0.00000000000E+00 0. -1.
         11    1    4    4    0    0 -0.12298210577E+02 -0.79175132284E+01  0.69006351741E+00  0.14642717884E+02  0.51100000000E-03 0. -1.
        -11    1    4    4    0    0 -0.43021451412E+01  0.14876703726E+02 -0.18055017867E+02  0.23786728169E+02  0.51100000000E-03 0.  1.
        -12    1    4    4    0    0 -0.37617420566E+01 -0.79389202725E+01 -0.13297797307E+02  0.15937646363E+02  0.00000000000E+00 0.  1.
</event>
<event>
 8    1  0.2493819E-006  0.9118800E+02  0.7816164E-02  0.1184000E+00
        -11   -1    0    0    0    0  0.00000000000E+00  0.00000000000E+00  0.45593999997E+02  0.45594000000E+02  0.51100000000E-03 0.  1.
         11   -1    0    0    0    0 -0.00000000000E+00 -0.00000000000E+00 -0.45593999997E+02  0.45594000000E+02  0.51100000000E-03 0. -1.
         23    2    1    2    0    0 -0.35527136788E-14  0.00000000000E+00  0.00000000000E+00  0.91188000000E+02  0.91188000000E+02 0.  0.
    9900012    2    3    3    0    0 -0.16571185605E+02 -0.32655858889E+02 -0.38433232271E+01  0.54367075982E+02  0.39999981315E+02 0.  0.
        -12    1    3    3    0    0  0.16571185605E+02  0.32655858889E+02  0.38433232271E+01  0.36820924018E+02  0.00000000000E+00 0.  1.
         11    1    4    4    0    0 -0.38238040226E+01 -0.30557091740E+02 -0.77739841594E+01  0.31761488674E+02  0.51100000000E-03 0. -1.
        -11    1    4    4    0    0 -0.19267582840E+01  0.15772227640E+01 -0.66070926517E+01  0.70607154526E+01  0.51100000000E-03 0.  1.
         12    1    4    4    0    0 -0.10820623298E+02 -0.36759899135E+01  0.10537753584E+02  0.15544871855E+02  0.00000000000E+00 0. -1.
</event>
<event>
 8    1  0.2493819E-006  0.9118800E+02  0.7816164E-02  0.1184000E+00
        -11   -1    0    0    0    0  0.00000000000E+00  0.00000000000E+00  0.45593999997E+02  0.45594000000E+02  0.51100000000E-03 0.  1.
         11   -1    0    0    0    0 -0.00000000000E+00 -0.00000000000E+00 -0.45593999997E+02  0.45594000000E+02  0.51100000000E-03 0. -1.
         23    2    1    2    0    0  0.44408920985E-15  0.00000000000E+00  0.00000000000E+00  0.91188000000E+02  0.91188000000E+02 0.  0.
    9900012    2    3    3    0    0  0.16410517343E+01 -0.14840728467E+02 -0.33657848102E+02  0.54366932511E+02  0.39999654243E+02 0.  0.
        -12    1    3    3    0    0 -0.16410517343E+01  0.14840728467E+02  0.33657848102E+02  0.36821067489E+02  0.00000000000E+00 0.  1.
         11    1    4    4    0    0 -0.13646736592E+02  0.24462547826E+01 -0.17068777272E+02  0.21990014550E+02  0.51100000000E-03 0. -1.
        -11    1    4    4    0    0  0.30610054137E+01 -0.98865204593E+01 -0.14674868217E+02  0.17957304875E+02  0.51100000000E-03 0.  1.
        -12    1    4    4    0    0  0.12226782913E+02 -0.74004627899E+01 -0.19142026132E+01  0.14419613086E+02  0.00000000000E+00 0.  1.
</event>
<event>
 8    1  0.2493819E-006  0.9118800E+02  0.7816164E-02  0.1184000E+00
        -11   -1    0    0    0    0  0.00000000000E+00  0.00000000000E+00  0.45593999997E+02  0.45594000000E+02  0.51100000000E-03 0.  1.
         11   -1    0    0    0    0 -0.00000000000E+00 -0.00000000000E+00 -0.45593999997E+02  0.45594000000E+02  0.51100000000E-03 0. -1.
         23    2    1    2    0    0  0.00000000000E+00  0.00000000000E+00 -0.35527136788E-14  0.91188000000E+02  0.91188000000E+02 0.  0.
    9900012    2    3    3    0    0  0.27532306689E+02  0.18610100551E+02 -0.15856153721E+02  0.54367063497E+02  0.39999952855E+02 0.  0.
        -12    1    3    3    0    0 -0.27532306689E+02 -0.18610100551E+02  0.15856153721E+02  0.36820936503E+02  0.00000000000E+00 0.  1.
         11    1    4    4    0    0  0.55374256552E+01 -0.87974443514E+01  0.51779422087E+01  0.11613319757E+02  0.51100000000E-03 0. -1.
        -11    1    4    4    0    0  0.42291002267E+01 -0.21328681297E+00 -0.12552578272E+01  0.44166109706E+01  0.51100000000E-03 0.  1.
         12    1    4    4    0    0  0.17765780807E+02  0.27620831715E+02 -0.19778838102E+02  0.38337132770E+02  0.00000000000E+00 0. -1.
</event>
<event>
 8    1  0.2493819E-006  0.9118800E+02  0.7816164E-02  0.1184000E+00
        -11   -1    0    0    0    0  0.00000000000E+00  0.00000000000E+00  0.45593999997E+02  0.45594000000E+02  0.51100000000E-03 0.  1.
         11   -1    0    0    0    0 -0.00000000000E+00 -0.00000000000E+00 -0.45593999997E+02  0.45594000000E+02  0.51100000000E-03 0. -1.
         23    2    1    2    0    0  0.00000000000E+00 -0.17763568394E-14  0.35527136788E-14  0.91188000000E+02  0.91188000000E+02 0.  0.
    9900012    2    3    3    0    0 -0.16988728864E+02  0.12834519510E+02 -0.30040589432E+02  0.54367098152E+02  0.40000031858E+02 0.  0.
        -12    1    3    3    0    0  0.16988728864E+02 -0.12834519510E+02  0.30040589432E+02  0.36820901848E+02  0.00000000000E+00 0.  1.
         11    1    4    4    0    0  0.31266726942E+01  0.54738058019E+00 -0.16075419970E+01  0.35580752057E+01  0.51100000000E-03 0. -1.
        -11    1    4    4    0    0 -0.41725648311E+01 -0.11621119924E+02 -0.13948730272E+02  0.18628682240E+02  0.51100000000E-03 0.  1.
         12    1    4    4    0    0 -0.15942836727E+02  0.23908258853E+02 -0.14484317163E+02  0.32180340706E+02  0.00000000000E+00 0. -1.
</event>
<event>
 8    1  0.2493819E-006  0.9118800E+02  0.7816164E-02  0.1184000E+00
        -11   -1    0    0    0    0  0.00000000000E+00  0.00000000000E+00  0.45593999997E+02  0.45594000000E+02  0.51100000000E-03 0. -1.
         11   -1    0    0    0    0 -0.00000000000E+00 -0.00000000000E+00 -0.45593999997E+02  0.45594000000E+02  0.51100000000E-03 0.  1.
         23    2    1    2    0    0  0.71054273576E-14  0.17763568394E-14  0.00000000000E+00  0.91188000000E+02  0.91188000000E+02 0.  0.
    9900012    2    3    3    0    0  0.30540531210E+02  0.10609408559E+02  0.17621053709E+02  0.54367012366E+02  0.39999836289E+02 0.  0.
        -12    1    3    3    0    0 -0.30540531210E+02 -0.10609408559E+02 -0.17621053709E+02  0.36820987634E+02  0.00000000000E+00 0.  1.
         11    1    4    4    0    0  0.86960580655E+01  0.10108770278E+02  0.90269053443E+01  0.16102598634E+02  0.51100000000E-03 0. -1.
        -11    1    4    4    0    0  0.19958279230E+02  0.11667804546E+02 -0.13985170382E+01  0.23160881307E+02  0.51100000000E-03 0.  1.
         12    1    4    4    0    0  0.18861939145E+01 -0.11167166264E+02  0.99926654032E+01  0.15103532425E+02  0.00000000000E+00 0. -1.
</event>
<event>
 8    1  0.2493819E-006  0.9118800E+02  0.7816164E-02  0.1184000E+00
        -11   -1    0    0    0    0  0.00000000000E+00  0.00000000000E+00  0.45593999997E+02  0.45594000000E+02  0.51100000000E-03 0.  1.
         11   -1    0    0    0    0 -0.00000000000E+00 -0.00000000000E+00 -0.45593999997E+02  0.45594000000E+02  0.51100000000E-03 0. -1.
         23    2    1    2    0    0  0.35527136788E-14  0.00000000000E+00  0.35527136788E-14  0.91188000000E+02  0.91188000000E+02 0.  0.
    9900012    2    3    3    0    0 -0.17767670345E+02  0.13927351545E+02 -0.29088119720E+02  0.54367082856E+02  0.39999996986E+02 0.  0.
        -12    1    3    3    0    0  0.17767670345E+02 -0.13927351545E+02  0.29088119720E+02  0.36820917144E+02  0.00000000000E+00 0.  1.
         11    1    4    4    0    0 -0.25520703714E+02  0.12836707316E+02 -0.17980327294E+02  0.33754696601E+02  0.51100000000E-03 0. -1.
        -11    1    4    4    0    0 -0.14124788010E+01 -0.54235071383E+01 -0.14482925467E+01  0.57885298310E+01  0.51100000000E-03 0.  1.
         12    1    4    4    0    0  0.91655121695E+01  0.65141513673E+01 -0.96594998790E+01  0.14823856424E+02  0.00000000000E+00 0. -1.
</event>
<event>
 8    1  0.2493819E-006  0.9118800E+02  0.7816164E-02  0.1184000E+00
        -11   -1    0    0    0    0  0.00000000000E+00  0.00000000000E+00  0.45593999997E+02  0.45594000000E+02  0.51100000000E-03 0.  1.
         11   -1    0    0    0    0 -0.00000000000E+00 -0.00000000000E+00 -0.45593999997E+02  0.45594000000E+02  0.51100000000E-03 0. -1.
         23    2    1    2    0    0 -0.88817841970E-15  0.00000000000E+00 -0.35527136788E-14  0.91188000000E+02  0.91188000000E+02 0.  0.
    9900012    2    3    3    0    0 -0.46566269276E+01 -0.30841538860E+02 -0.19567892371E+02  0.54366985546E+02  0.39999775148E+02 0.  0.
         12    1    3    3    0    0  0.46566269276E+01  0.30841538860E+02  0.19567892371E+02  0.36821014454E+02  0.00000000000E+00 0. -1.
         11    1    4    4    0    0  0.64582527512E+01 -0.77961964725E+01  0.64041707733E+01  0.11979278425E+02  0.51100000000E-03 0. -1.
        -11    1    4    4    0    0 -0.11131369764E+02 -0.17790195777E+01 -0.44152466926E+01  0.12106473769E+02  0.51100000000E-03 0.  1.
         12    1    4    4    0    0  0.16490085606E-01 -0.21266322810E+02 -0.21556816452E+02  0.30281233352E+02  0.00000000000E+00 0. -1.
</event>
<event>
 8    1  0.2493819E-006  0.9118800E+02  0.7816164E-02  0.1184000E+00
        -11   -1    0    0    0    0  0.00000000000E+00  0.00000000000E+00  0.45593999997E+02  0.45594000000E+02  0.51100000000E-03 0. -1.
         11   -1    0    0    0    0 -0.00000000000E+00 -0.00000000000E+00 -0.45593999997E+02  0.45594000000E+02  0.51100000000E-03 0.  1.
         23    2    1    2    0    0  0.35527136788E-14 -0.35527136788E-14  0.00000000000E+00  0.91188000000E+02  0.91188000000E+02 0.  0.
    9900012    2    3    3    0    0  0.17921094044E+02 -0.27045604748E+02  0.17411258127E+02  0.54367051377E+02  0.39999925224E+02 0.  0.
        -12    1    3    3    0    0 -0.17921094044E+02  0.27045604748E+02 -0.17411258127E+02  0.36820948623E+02  0.00000000000E+00 0.  1.
         11    1    4    4    0    0 -0.41622061487E+00 -0.13073285944E+02  0.23536371898E+02  0.26926656817E+02  0.51100000000E-03 0. -1.
        -11    1    4    4    0    0  0.26884970285E+01  0.46447173836E+00 -0.55008105271E+01  0.61402497493E+01  0.51100000000E-03 0.  1.
         12    1    4    4    0    0  0.15648817630E+02 -0.14436790543E+02 -0.62430324388E+00  0.21300144810E+02  0.00000000000E+00 0. -1.
</event>
<event>
 8    1  0.2493819E-006  0.9118800E+02  0.7816164E-02  0.1184000E+00
        -11   -1    0    0    0    0  0.00000000000E+00  0.00000000000E+00  0.45593999997E+02  0.45594000000E+02  0.51100000000E-03 0. -1.
         11   -1    0    0    0    0 -0.00000000000E+00 -0.00000000000E+00 -0.45593999997E+02  0.45594000000E+02  0.51100000000E-03 0.  1.
         23    2    1    2    0    0  0.00000000000E+00 -0.35527136788E-14  0.00000000000E+00  0.91188000000E+02  0.91188000000E+02 0.  0.
    9900012    2    3    3    0    0 -0.20441487159E+02  0.30305068430E+02  0.44190687658E+01  0.54367085582E+02  0.40000003201E+02 0.  0.
        -12    1    3    3    0    0  0.20441487159E+02 -0.30305068430E+02 -0.44190687658E+01  0.36820914418E+02  0.00000000000E+00 0.  1.
         11    1    4    4    0    0 -0.57836245871E+01  0.81181539950E+00  0.13860748134E+02  0.15040934037E+02  0.51100000000E-03 0. -1.
        -11    1    4    4    0    0 -0.11102273872E+02  0.26957339903E+02 -0.25605476799E+00  0.29155174911E+02  0.51100000000E-03 0.  1.
        -12    1    4    4    0    0 -0.35555887004E+01  0.25359131273E+01 -0.91856246000E+01  0.10170976634E+02  0.00000000000E+00 0.  1.
</event>
<event>
 8    1  0.2493819E-006  0.9118800E+02  0.7816164E-02  0.1184000E+00
        -11   -1    0    0    0    0  0.00000000000E+00  0.00000000000E+00  0.45593999997E+02  0.45594000000E+02  0.51100000000E-03 0.  1.
         11   -1    0    0    0    0 -0.00000000000E+00 -0.00000000000E+00 -0.45593999997E+02  0.45594000000E+02  0.51100000000E-03 0. -1.
         23    2    1    2    0    0 -0.35527136788E-14  0.00000000000E+00  0.00000000000E+00  0.91188000000E+02  0.91188000000E+02 0.  0.
    9900012    2    3    3    0    0  0.30425883660E+02  0.19628734258E+02 -0.66901661399E+01  0.54367083009E+02  0.39999997336E+02 0.  0.
        -12    1    3    3    0    0 -0.30425883660E+02 -0.19628734258E+02  0.66901661399E+01  0.36820916991E+02  0.00000000000E+00 0.  1.
         11    1    4    4    0    0  0.15744512986E+02  0.89550198252E+01  0.49312763546E+00  0.18119747360E+02  0.51100000000E-03 0. -1.
        -11    1    4    4    0    0  0.22284578176E+02  0.53718830805E+00 -0.14462222990E+01  0.22337917426E+02  0.51100000000E-03 0.  1.
        -12    1    4    4    0    0 -0.76032075019E+01  0.10136526124E+02 -0.57370714763E+01  0.13909418223E+02  0.00000000000E+00 0.  1.
</event>
<event>
 8    1  0.2493819E-006  0.9118800E+02  0.7816164E-02  0.1184000E+00
        -11   -1    0    0    0    0  0.00000000000E+00  0.00000000000E+00  0.45593999997E+02  0.45594000000E+02  0.51100000000E-03 0.  1.
         11   -1    0    0    0    0 -0.00000000000E+00 -0.00000000000E+00 -0.45593999997E+02  0.45594000000E+02  0.51100000000E-03 0. -1.
         23    2    1    2    0    0  0.35527136788E-14  0.00000000000E+00 -0.35527136788E-14  0.91188000000E+02  0.91188000000E+02 0.  0.
    9900012    2    3    3    0    0  0.30844395546E+02 -0.40119568864E+01  0.19705888943E+02  0.54366883861E+02  0.39999543336E+02 0.  0.
         12    1    3    3    0    0 -0.30844395546E+02  0.40119568864E+01 -0.19705888943E+02  0.36821116139E+02  0.00000000000E+00 0. -1.
         11    1    4    4    0    0  0.84527648504E+01  0.19666242784E+01 -0.12058012338E+02  0.14856396147E+02  0.51100000000E-03 0. -1.
        -11    1    4    4    0    0  0.93232284649E+01 -0.19471602572E+01  0.10029350637E+02  0.13831192882E+02  0.51100000000E-03 0.  1.
         12    1    4    4    0    0  0.13068402231E+02 -0.40314209077E+01  0.21734550644E+02  0.25679294833E+02  0.00000000000E+00 0. -1.
</event>
<event>
 8    1  0.2493819E-006  0.9118800E+02  0.7816164E-02  0.1184000E+00
        -11   -1    0    0    0    0  0.00000000000E+00  0.00000000000E+00  0.45593999997E+02  0.45594000000E+02  0.51100000000E-03 0.  1.
         11   -1    0    0    0    0 -0.00000000000E+00 -0.00000000000E+00 -0.45593999997E+02  0.45594000000E+02  0.51100000000E-03 0. -1.
         23    2    1    2    0    0 -0.71054273576E-14  0.17763568394E-14  0.00000000000E+00  0.91188000000E+02  0.91188000000E+02 0.  0.
    9900012    2    3    3    0    0 -0.32618464361E+02  0.13141290371E+02  0.10914279126E+02  0.54367092642E+02  0.40000019296E+02 0.  0.
         12    1    3    3    0    0  0.32618464361E+02 -0.13141290371E+02 -0.10914279126E+02  0.36820907358E+02  0.00000000000E+00 0. -1.
         11    1    4    4    0    0 -0.16084381009E+01 -0.35031041391E+01  0.11143896231E+02  0.11791744366E+02  0.51100000000E-03 0. -1.
        -11    1    4    4    0    0 -0.77246061852E+00 -0.40512024529E+01  0.39317702533E+01  0.56980482894E+01  0.51100000000E-03 0.  1.
         12    1    4    4    0    0 -0.30237565641E+02  0.20695596963E+02 -0.41613873583E+01  0.36877299986E+02  0.00000000000E+00 0. -1.
</event>
<event>
 8    1  0.2493819E-006  0.9118800E+02  0.7816164E-02  0.1184000E+00
        -11   -1    0    0    0    0  0.00000000000E+00  0.00000000000E+00  0.45593999997E+02  0.45594000000E+02  0.51100000000E-03 0.  1.
         11   -1    0    0    0    0 -0.00000000000E+00 -0.00000000000E+00 -0.45593999997E+02  0.45594000000E+02  0.51100000000E-03 0. -1.
         23    2    1    2    0    0  0.00000000000E+00 -0.88817841970E-15  0.00000000000E+00  0.91188000000E+02  0.91188000000E+02 0.  0.
    9900012    2    3    3    0    0  0.35272150923E+02  0.54597402773E+01  0.90467822725E+01  0.54367113752E+02  0.40000067420E+02 0.  0.
        -12    1    3    3    0    0 -0.35272150923E+02 -0.54597402773E+01 -0.90467822725E+01  0.36820886248E+02  0.00000000000E+00 0.  1.
         11    1    4    4    0    0  0.19282445558E+02  0.85209024928E+01  0.45319320744E+01  0.21562859146E+02  0.51100000000E-03 0. -1.
        -11    1    4    4    0    0  0.10045219551E+02 -0.65382541370E+01 -0.10723135395E+02  0.16082314384E+02  0.51100000000E-03 0.  1.
        -12    1    4    4    0    0  0.59444858141E+01  0.34770919215E+01  0.15237985593E+02  0.16721940221E+02  0.00000000000E+00 0.  1.
</event>
<event>
 8    1  0.2493819E-006  0.9118800E+02  0.7816164E-02  0.1184000E+00
        -11   -1    0    0    0    0  0.00000000000E+00  0.00000000000E+00  0.45593999997E+02  0.45594000000E+02  0.51100000000E-03 0.  1.
         11   -1    0    0    0    0 -0.00000000000E+00 -0.00000000000E+00 -0.45593999997E+02  0.45594000000E+02  0.51100000000E-03 0. -1.
         23    2    1    2    0    0  0.00000000000E+00  0.00000000000E+00  0.00000000000E+00  0.91188000000E+02  0.91188000000E+02 0.  0.
    9900012    2    3    3    0    0  0.67657152322E+01  0.23468124825E+02  0.27554528634E+02  0.54367084291E+02  0.40000000258E+02 0.  0.
         12    1    3    3    0    0 -0.67657152322E+01 -0.23468124825E+02 -0.27554528634E+02  0.36820915709E+02  0.00000000000E+00 0. -1.
         11    1    4    4    0    0 -0.73540472145E+00 -0.20232613160E+01  0.10684520019E+02  0.10899237348E+02  0.51100000000E-03 0. -1.
        -11    1    4    4    0    0 -0.54082059859E+01  0.17137963728E+02  0.20908215018E+02  0.27570127824E+02  0.51100000000E-03 0.  1.
        -12    1    4    4    0    0  0.12909325940E+02  0.83534224135E+01 -0.40382064038E+01  0.15897719119E+02  0.00000000000E+00 0.  1.
</event>
<event>
 8    1  0.2493819E-006  0.9118800E+02  0.7816164E-02  0.1184000E+00
        -11   -1    0    0    0    0  0.00000000000E+00  0.00000000000E+00  0.45593999997E+02  0.45594000000E+02  0.51100000000E-03 0. -1.
         11   -1    0    0    0    0 -0.00000000000E+00 -0.00000000000E+00 -0.45593999997E+02  0.45594000000E+02  0.51100000000E-03 0.  1.
         23    2    1    2    0    0  0.35527136788E-14  0.00000000000E+00  0.00000000000E+00  0.91188000000E+02  0.91188000000E+02 0.  0.
    9900012    2    3    3    0    0  0.27734665051E+02 -0.14284635168E+02  0.19558086895E+02  0.54367065596E+02  0.39999957639E+02 0.  0.
        -12    1    3    3    0    0 -0.27734665051E+02  0.14284635168E+02 -0.19558086895E+02  0.36820934404E+02  0.00000000000E+00 0.  1.
         11    1    4    4    0    0 -0.16400073657E+01 -0.71640722204E+01  0.17278557610E+02  0.18776637299E+02  0.51100000000E-03 0. -1.
        -11    1    4    4    0    0  0.25611284334E+02 -0.12453264993E+02 -0.53271193693E+00  0.28483424592E+02  0.51100000000E-03 0.  1.
         12    1    4    4    0    0  0.37633880832E+01  0.53327020451E+01  0.28122412223E+01  0.71070037047E+01  0.00000000000E+00 0. -1.
</event>
<event>
 8    1  0.2493819E-006  0.9118800E+02  0.7816164E-02  0.1184000E+00
        -11   -1    0    0    0    0  0.00000000000E+00  0.00000000000E+00  0.45593999997E+02  0.45594000000E+02  0.51100000000E-03 0. -1.
         11   -1    0    0    0    0 -0.00000000000E+00 -0.00000000000E+00 -0.45593999997E+02  0.45594000000E+02  0.51100000000E-03 0.  1.
         23    2    1    2    0    0  0.17763568394E-14 -0.88817841970E-15  0.00000000000E+00  0.91188000000E+02  0.91188000000E+02 0.  0.
    9900012    2    3    3    0    0 -0.15459436016E+02  0.65327948322E+01 -0.32773598567E+02  0.54367077507E+02  0.39999984792E+02 0.  0.
         12    1    3    3    0    0  0.15459436016E+02 -0.65327948322E+01  0.32773598567E+02  0.36820922493E+02  0.00000000000E+00 0. -1.
         11    1    4    4    0    0 -0.36818189837E+01  0.44566876997E+01 -0.65050729540E+00  0.58173031797E+01  0.51100000000E-03 0. -1.
        -11    1    4    4    0    0 -0.82674928574E+00  0.31881060904E+01  0.70918479729E+01  0.78193249553E+01  0.51100000000E-03 0.  1.
        -12    1    4    4    0    0 -0.10950867747E+02 -0.11119989579E+01 -0.39214939244E+02  0.40730449372E+02  0.00000000000E+00 0.  1.
</event>
<event>
 8    1  0.2493819E-006  0.9118800E+02  0.7816164E-02  0.1184000E+00
        -11   -1    0    0    0    0  0.00000000000E+00  0.00000000000E+00  0.45593999997E+02  0.45594000000E+02  0.51100000000E-03 0.  1.
         11   -1    0    0    0    0 -0.00000000000E+00 -0.00000000000E+00 -0.45593999997E+02  0.45594000000E+02  0.51100000000E-03 0. -1.
         23    2    1    2    0    0  0.00000000000E+00  0.35527136788E-14  0.00000000000E+00  0.91188000000E+02  0.91188000000E+02 0.  0.
    9900012    2    3    3    0    0  0.31691293108E+02 -0.12209339840E+02 -0.14225829481E+02  0.54367078467E+02  0.39999986980E+02 0.  0.
        -12    1    3    3    0    0 -0.31691293108E+02  0.12209339840E+02  0.14225829481E+02  0.36820921533E+02  0.00000000000E+00 0.  1.
         11    1    4    4    0    0  0.10847448537E+02  0.38681296859E+01  0.32767505429E+01  0.11973581812E+02  0.51100000000E-03 0. -1.
        -11    1    4    4    0    0  0.49686280182E+01  0.36972598354E+01  0.54049706604E+01  0.82201400702E+01  0.51100000000E-03 0.  1.
         12    1    4    4    0    0  0.15875216552E+02 -0.19774729361E+02 -0.22907550684E+02  0.34173356584E+02  0.00000000000E+00 0. -1.
</event>
<event>
 8    1  0.2493819E-006  0.9118800E+02  0.7816164E-02  0.1184000E+00
        -11   -1    0    0    0    0  0.00000000000E+00  0.00000000000E+00  0.45593999997E+02  0.45594000000E+02  0.51100000000E-03 0.  1.
         11   -1    0    0    0    0 -0.00000000000E+00 -0.00000000000E+00 -0.45593999997E+02  0.45594000000E+02  0.51100000000E-03 0. -1.
         23    2    1    2    0    0  0.00000000000E+00  0.17763568394E-14 -0.66613381478E-15  0.91188000000E+02  0.91188000000E+02 0.  0.
    9900012    2    3    3    0    0 -0.35324530155E+02  0.10318233194E+02  0.12196457664E+01  0.54367137670E+02  0.40000121947E+02 0.  0.
        -12    1    3    3    0    0  0.35324530155E+02 -0.10318233194E+02 -0.12196457664E+01  0.36820862330E+02  0.00000000000E+00 0.  1.
         11    1    4    4    0    0 -0.12049766735E+02 -0.74343906513E+00  0.15942355471E+02  0.19997706825E+02  0.51100000000E-03 0.  1.
        -11    1    4    4    0    0 -0.26072348164E+02  0.96435990442E+01 -0.14106294432E+02  0.31172967202E+02  0.51100000000E-03 0. -1.
         12    1    4    4    0    0  0.27975847436E+01  0.14180732144E+01 -0.61641527292E+00  0.31964636441E+01  0.00000000000E+00 0. -1.
</event>
<event>
 8    1  0.2493819E-006  0.9118800E+02  0.7816164E-02  0.1184000E+00
        -11   -1    0    0    0    0  0.00000000000E+00  0.00000000000E+00  0.45593999997E+02  0.45594000000E+02  0.51100000000E-03 0.  1.
         11   -1    0    0    0    0 -0.00000000000E+00 -0.00000000000E+00 -0.45593999997E+02  0.45594000000E+02  0.51100000000E-03 0. -1.
         23    2    1    2    0    0  0.00000000000E+00  0.00000000000E+00 -0.35527136788E-14  0.91188000000E+02  0.91188000000E+02 0.  0.
    9900012    2    3    3    0    0  0.17045413502E+02  0.26481227601E+02  0.19078276868E+02  0.54367052362E+02  0.39999927470E+02 0.  0.
        -12    1    3    3    0    0 -0.17045413502E+02 -0.26481227601E+02 -0.19078276868E+02  0.36820947638E+02  0.00000000000E+00 0.  1.
         11    1    4    4    0    0  0.17904062791E+02  0.17249707479E+02 -0.43763167907E+01  0.25244009615E+02  0.51100000000E-03 0. -1.
        -11    1    4    4    0    0  0.53068460999E+01  0.20070139589E+01  0.16220251825E+02  0.17183925340E+02  0.51100000000E-03 0.  1.
         12    1    4    4    0    0 -0.61654953890E+01  0.72245061634E+01  0.72343418331E+01  0.11939117407E+02  0.00000000000E+00 0. -1.
</event>
<event>
 8    1  0.2493819E-006  0.9118800E+02  0.7816164E-02  0.1184000E+00
        -11   -1    0    0    0    0  0.00000000000E+00  0.00000000000E+00  0.45593999997E+02  0.45594000000E+02  0.51100000000E-03 0.  1.
         11   -1    0    0    0    0 -0.00000000000E+00 -0.00000000000E+00 -0.45593999997E+02  0.45594000000E+02  0.51100000000E-03 0. -1.
         23    2    1    2    0    0  0.00000000000E+00 -0.35527136788E-14  0.88817841970E-15  0.91188000000E+02  0.91188000000E+02 0.  0.
    9900012    2    3    3    0    0  0.32999108047E+02  0.15319926098E+02  0.56690583562E+01  0.54367088955E+02  0.40000010890E+02 0.  0.
         12    1    3    3    0    0 -0.32999108047E+02 -0.15319926098E+02 -0.56690583562E+01  0.36820911045E+02  0.00000000000E+00 0. -1.
         11    1    4    4    0    0  0.33976081479E+01 -0.17747109550E+01  0.28291081354E+00  0.38436153410E+01  0.51100000000E-03 0. -1.
        -11    1    4    4    0    0  0.11776429112E+02  0.25061727412E+02 -0.54079444852E+01  0.28213832199E+02  0.51100000000E-03 0.  1.
        -12    1    4    4    0    0  0.17825070787E+02 -0.79670903596E+01  0.10794092028E+02  0.22309641415E+02  0.00000000000E+00 0.  1.
</event>
<event>
 8    1  0.2493819E-006  0.9118800E+02  0.7816164E-02  0.1184000E+00
        -11   -1    0    0    0    0  0.00000000000E+00  0.00000000000E+00  0.45593999997E+02  0.45594000000E+02  0.51100000000E-03 0.  1.
         11   -1    0    0    0    0 -0.00000000000E+00 -0.00000000000E+00 -0.45593999997E+02  0.45594000000E+02  0.51100000000E-03 0. -1.
         23    2    1    2    0    0 -0.35527136788E-14 -0.17763568394E-14  0.00000000000E+00  0.91188000000E+02  0.91188000000E+02 0.  0.
    9900012    2    3    3    0    0 -0.28390461504E+02 -0.13413036375E+02  0.19231539589E+02  0.54367082519E+02  0.39999996218E+02 0.  0.
         12    1    3    3    0    0  0.28390461504E+02  0.13413036375E+02 -0.19231539589E+02  0.36820917481E+02  0.00000000000E+00 0. -1.
         11    1    4    4    0    0 -0.78586167751E+00 -0.10679330762E+02  0.22715252688E+02  0.25112713694E+02  0.51100000000E-03 0. -1.
        -11    1    4    4    0    0 -0.10801561588E+02 -0.33432898773E+00 -0.55620975497E+01  0.12154111980E+02  0.51100000000E-03 0.  1.
         12    1    4    4    0    0 -0.16803038239E+02 -0.23993766254E+01  0.20783844500E+01  0.17100256845E+02  0.00000000000E+00 0. -1.
</event>
<event>
 8    1  0.2493819E-006  0.9118800E+02  0.7816164E-02  0.1184000E+00
        -11   -1    0    0    0    0  0.00000000000E+00  0.00000000000E+00  0.45593999997E+02  0.45594000000E+02  0.51100000000E-03 0. -1.
         11   -1    0    0    0    0 -0.00000000000E+00 -0.00000000000E+00 -0.45593999997E+02  0.45594000000E+02  0.51100000000E-03 0.  1.
         23    2    1    2    0    0  0.53290705182E-14  0.00000000000E+00  0.00000000000E+00  0.91188000000E+02  0.91188000000E+02 0.  0.
    9900012    2    3    3    0    0  0.93033839327E+01 -0.12818085814E+02 -0.33240409912E+02  0.54367066719E+02  0.39999960199E+02 0.  0.
         12    1    3    3    0    0 -0.93033839327E+01  0.12818085814E+02  0.33240409912E+02  0.36820933281E+02  0.00000000000E+00 0. -1.
         11    1    4    4    0    0 -0.11212658492E+02 -0.49196235791E+00 -0.31933052705E+01  0.11668887532E+02  0.51100000000E-03 0.  1.
        -11    1    4    4    0    0 -0.20951954611E+01 -0.23165504070E+01  0.74017455507E+00  0.32100013149E+01  0.51100000000E-03 0. -1.
         12    1    4    4    0    0  0.22611237886E+02 -0.10009573049E+02 -0.30787279197E+02  0.39488177873E+02  0.00000000000E+00 0. -1.
</event>
<event>
 8    1  0.2493819E-006  0.9118800E+02  0.7816164E-02  0.1184000E+00
        -11   -1    0    0    0    0  0.00000000000E+00  0.00000000000E+00  0.45593999997E+02  0.45594000000E+02  0.51100000000E-03 0. -1.
         11   -1    0    0    0    0 -0.00000000000E+00 -0.00000000000E+00 -0.45593999997E+02  0.45594000000E+02  0.51100000000E-03 0.  1.
         23    2    1    2    0    0 -0.35527136788E-14  0.88817841970E-15 -0.35527136788E-14  0.91188000000E+02  0.91188000000E+02 0.  0.
    9900012    2    3    3    0    0 -0.31825573496E+02 -0.20577117444E+01 -0.18403216390E+02  0.54367086385E+02  0.40000005032E+02 0.  0.
         12    1    3    3    0    0  0.31825573496E+02  0.20577117444E+01  0.18403216390E+02  0.36820913615E+02  0.00000000000E+00 0. -1.
         11    1    4    4    0    0 -0.53398480877E+01 -0.27787396365E+01  0.10203184929E+01  0.61054419705E+01  0.51100000000E-03 0. -1.
        -11    1    4    4    0    0 -0.24035996294E+02 -0.13137853798E+02 -0.45189135937E+01  0.27762436863E+02  0.51100000000E-03 0.  1.
        -12    1    4    4    0    0 -0.24497291141E+01  0.13858881690E+02 -0.14904621289E+02  0.20499207551E+02  0.00000000000E+00 0.  1.
</event>
<event>
 8    1  0.2493819E-006  0.9118800E+02  0.7816164E-02  0.1184000E+00
        -11   -1    0    0    0    0  0.00000000000E+00  0.00000000000E+00  0.45593999997E+02  0.45594000000E+02  0.51100000000E-03 0.  1.
         11   -1    0    0    0    0 -0.00000000000E+00 -0.00000000000E+00 -0.45593999997E+02  0.45594000000E+02  0.51100000000E-03 0. -1.
         23    2    1    2    0    0  0.00000000000E+00  0.00000000000E+00  0.00000000000E+00  0.91188000000E+02  0.91188000000E+02 0.  0.
    9900012    2    3    3    0    0  0.12557018001E+02 -0.31625864306E+02  0.14067913420E+02  0.54367079558E+02  0.39999989469E+02 0.  0.
        -12    1    3    3    0    0 -0.12557018001E+02  0.31625864306E+02 -0.14067913420E+02  0.36820920442E+02  0.00000000000E+00 0.  1.
         11    1    4    4    0    0 -0.35648956094E+01  0.10800780562E+01  0.15755051661E+01  0.40444117128E+01  0.51100000000E-03 0. -1.
        -11    1    4    4    0    0 -0.93565145866E+01 -0.15095004323E+02  0.51608316890E+01  0.18494261399E+02  0.51100000000E-03 0.  1.
         12    1    4    4    0    0  0.25478428197E+02 -0.17610938040E+02  0.73315765654E+01  0.31828406447E+02  0.00000000000E+00 0. -1.
</event>
<event>
 8    1  0.2493819E-006  0.9118800E+02  0.7816164E-02  0.1184000E+00
        -11   -1    0    0    0    0  0.00000000000E+00  0.00000000000E+00  0.45593999997E+02  0.45594000000E+02  0.51100000000E-03 0. -1.
         11   -1    0    0    0    0 -0.00000000000E+00 -0.00000000000E+00 -0.45593999997E+02  0.45594000000E+02  0.51100000000E-03 0.  1.
         23    2    1    2    0    0  0.38857805862E-15 -0.22204460493E-15  0.00000000000E+00  0.91188000000E+02  0.91188000000E+02 0.  0.
    9900012    2    3    3    0    0  0.47095023343E+00  0.11368094130E+01  0.36800352432E+02  0.54367081097E+02  0.39999992976E+02 0.  0.
        -12    1    3    3    0    0 -0.47095023343E+00 -0.11368094130E+01 -0.36800352432E+02  0.36820918903E+02  0.00000000000E+00 0.  1.
         11    1    4    4    0    0 -0.15864997790E+02 -0.16861660216E+01  0.18643280458E+02  0.24537995379E+02  0.51100000000E-03 0. -1.
        -11    1    4    4    0    0  0.17401470229E+01  0.30437610317E+01 -0.26621333648E+01  0.44022207115E+01  0.51100000000E-03 0.  1.
        -12    1    4    4    0    0  0.14595801000E+02 -0.22078559709E+00  0.20819205338E+02  0.25426865006E+02  0.00000000000E+00 0.  1.
</event>
<event>
 8    1  0.2493819E-006  0.9118800E+02  0.7816164E-02  0.1184000E+00
        -11   -1    0    0    0    0  0.00000000000E+00  0.00000000000E+00  0.45593999997E+02  0.45594000000E+02  0.51100000000E-03 0. -1.
         11   -1    0    0    0    0 -0.00000000000E+00 -0.00000000000E+00 -0.45593999997E+02  0.45594000000E+02  0.51100000000E-03 0.  1.
         23    2    1    2    0    0 -0.17763568394E-14 -0.17763568394E-14  0.00000000000E+00  0.91188000000E+02  0.91188000000E+02 0.  0.
    9900012    2    3    3    0    0  0.87034904513E+01 -0.62688206545E+01 -0.35224049881E+02  0.54367047426E+02  0.39999916218E+02 0.  0.
         12    1    3    3    0    0 -0.87034904513E+01  0.62688206545E+01  0.35224049881E+02  0.36820952574E+02  0.00000000000E+00 0. -1.
         11    1    4    4    0    0 -0.37365168470E+01  0.55725171790E+01 -0.83421650913E-01  0.67098036701E+01  0.51100000000E-03 0. -1.
        -11    1    4    4    0    0  0.55997374596E+01 -0.19137886947E+02 -0.30941129436E+02  0.36809907191E+02  0.51100000000E-03 0.  1.
        -12    1    4    4    0    0  0.68402698388E+01  0.72965491134E+01 -0.41994987941E+01  0.10847336565E+02  0.00000000000E+00 0.  1.
</event>
<event>
 8    1  0.2493819E-006  0.9118800E+02  0.7816164E-02  0.1184000E+00
        -11   -1    0    0    0    0  0.00000000000E+00  0.00000000000E+00  0.45593999997E+02  0.45594000000E+02  0.51100000000E-03 0. -1.
         11   -1    0    0    0    0 -0.00000000000E+00 -0.00000000000E+00 -0.45593999997E+02  0.45594000000E+02  0.51100000000E-03 0.  1.
         23    2    1    2    0    0  0.00000000000E+00 -0.71054273576E-14  0.00000000000E+00  0.91188000000E+02  0.91188000000E+02 0.  0.
    9900012    2    3    3    0    0  0.45149868232E+01  0.26268946946E+02  0.25403796000E+02  0.54366871135E+02  0.39999514324E+02 0.  0.
        -12    1    3    3    0    0 -0.45149868232E+01 -0.26268946946E+02 -0.25403796000E+02  0.36821128865E+02  0.00000000000E+00 0.  1.
         11    1    4    4    0    0  0.57422959216E+01  0.35571505187E+02  0.15104828736E+02  0.39069960266E+02  0.51100000000E-03 0. -1.
        -11    1    4    4    0    0 -0.17712945221E+00 -0.79858496074E+01  0.43116036848E+01  0.90771744167E+01  0.51100000000E-03 0.  1.
         12    1    4    4    0    0 -0.10501796461E+01 -0.13167086340E+01  0.59873635793E+01  0.62197364531E+01  0.00000000000E+00 0. -1.
</event>
<event>
 8    1  0.2493819E-006  0.9118800E+02  0.7816164E-02  0.1184000E+00
        -11   -1    0    0    0    0  0.00000000000E+00  0.00000000000E+00  0.45593999997E+02  0.45594000000E+02  0.51100000000E-03 0.  1.
         11   -1    0    0    0    0 -0.00000000000E+00 -0.00000000000E+00 -0.45593999997E+02  0.45594000000E+02  0.51100000000E-03 0. -1.
         23    2    1    2    0    0  0.00000000000E+00  0.00000000000E+00  0.22204460493E-15  0.91188000000E+02  0.91188000000E+02 0.  0.
    9900012    2    3    3    0    0  0.20747131384E+02 -0.30354393956E+02 -0.19864497574E+01  0.54367100014E+02  0.40000036102E+02 0.  0.
        -12    1    3    3    0    0 -0.20747131384E+02  0.30354393956E+02  0.19864497574E+01  0.36820899986E+02  0.00000000000E+00 0.  1.
         11    1    4    4    0    0  0.23068360794E+02 -0.15754745756E+02 -0.14291606541E+02  0.31378516557E+02  0.51100000000E-03 0. -1.
        -11    1    4    4    0    0  0.42519601320E+01 -0.10097158346E+02  0.45280917990E+01  0.11854762217E+02  0.51100000000E-03 0.  1.
         12    1    4    4    0    0 -0.65731895415E+01 -0.45024898547E+01  0.77770649841E+01  0.11133821240E+02  0.00000000000E+00 0. -1.
</event>
<event>
 8    1  0.2493819E-006  0.9118800E+02  0.7816164E-02  0.1184000E+00
        -11   -1    0    0    0    0  0.00000000000E+00  0.00000000000E+00  0.45593999997E+02  0.45594000000E+02  0.51100000000E-03 0. -1.
         11   -1    0    0    0    0 -0.00000000000E+00 -0.00000000000E+00 -0.45593999997E+02  0.45594000000E+02  0.51100000000E-03 0.  1.
         23    2    1    2    0    0  0.22204460493E-15  0.35527136788E-14  0.00000000000E+00  0.91188000000E+02  0.91188000000E+02 0.  0.
    9900012    2    3    3    0    0 -0.99513076554E+00  0.25905251820E+02  0.26147788967E+02  0.54367092557E+02  0.40000019102E+02 0.  0.
        -12    1    3    3    0    0  0.99513076554E+00 -0.25905251820E+02 -0.26147788967E+02  0.36820907443E+02  0.00000000000E+00 0.  1.
         11    1    4    4    0    0 -0.12210289677E+02  0.18026432740E+01  0.59850853413E+01  0.13717213404E+02  0.51100000000E-03 0. -1.
        -11    1    4    4    0    0  0.23918963119E+01 -0.13390838045E+01 -0.37443189782E+01  0.46404997871E+01  0.51100000000E-03 0.  1.
         12    1    4    4    0    0  0.88232625996E+01  0.25441692350E+02  0.23907022604E+02  0.36009379366E+02  0.00000000000E+00 0. -1.
</event>
<event>
 8    1  0.2493819E-006  0.9118800E+02  0.7816164E-02  0.1184000E+00
        -11   -1    0    0    0    0  0.00000000000E+00  0.00000000000E+00  0.45593999997E+02  0.45594000000E+02  0.51100000000E-03 0.  1.
         11   -1    0    0    0    0 -0.00000000000E+00 -0.00000000000E+00 -0.45593999997E+02  0.45594000000E+02  0.51100000000E-03 0. -1.
         23    2    1    2    0    0 -0.71054273576E-14  0.71054273576E-14  0.88817841970E-15  0.91188000000E+02  0.91188000000E+02 0.  0.
    9900012    2    3    3    0    0  0.19719894755E+02 -0.30552922413E+02 -0.57815294330E+01  0.54367063025E+02  0.39999951779E+02 0.  0.
        -12    1    3    3    0    0 -0.19719894755E+02  0.30552922413E+02  0.57815294330E+01  0.36820936975E+02  0.00000000000E+00 0.  1.
         11    1    4    4    0    0  0.51489102259E+01 -0.21015862691E+01 -0.19729463450E+01  0.59008862811E+01  0.51100000000E-03 0. -1.
        -11    1    4    4    0    0  0.80937658343E+01  0.19835435496E+01  0.11166930609E+02  0.13933550513E+02  0.51100000000E-03 0.  1.
         12    1    4    4    0    0  0.64772186948E+01 -0.30434879693E+02 -0.14975513697E+02  0.34532626232E+02  0.00000000000E+00 0. -1.
</event>
<event>
 8    1  0.2493819E-006  0.9118800E+02  0.7816164E-02  0.1184000E+00
        -11   -1    0    0    0    0  0.00000000000E+00  0.00000000000E+00  0.45593999997E+02  0.45594000000E+02  0.51100000000E-03 0. -1.
         11   -1    0    0    0    0 -0.00000000000E+00 -0.00000000000E+00 -0.45593999997E+02  0.45594000000E+02  0.51100000000E-03 0.  1.
         23    2    1    2    0    0  0.44408920985E-15  0.00000000000E+00  0.00000000000E+00  0.91188000000E+02  0.91188000000E+02 0.  0.
    9900012    2    3    3    0    0 -0.20971802534E+01  0.27045193289E+02  0.24898605582E+02  0.54367065669E+02  0.39999957806E+02 0.  0.
        -12    1    3    3    0    0  0.20971802534E+01 -0.27045193289E+02 -0.24898605582E+02  0.36820934331E+02  0.00000000000E+00 0.  1.
         11    1    4    4    0    0  0.78073934879E+01  0.64413299152E+00  0.12297074478E+02  0.14580409506E+02  0.51100000000E-03 0. -1.
        -11    1    4    4    0    0  0.82489930209E+01  0.11968704410E+02  0.43928044914E+01  0.15185272559E+02  0.51100000000E-03 0.  1.
        -12    1    4    4    0    0 -0.18153566762E+02  0.14432355888E+02  0.82087266121E+01  0.24601383604E+02  0.00000000000E+00 0.  1.
</event>
<event>
 8    1  0.2493819E-006  0.9118800E+02  0.7816164E-02  0.1184000E+00
        -11   -1    0    0    0    0  0.00000000000E+00  0.00000000000E+00  0.45593999997E+02  0.45594000000E+02  0.51100000000E-03 0.  1.
         11   -1    0    0    0    0 -0.00000000000E+00 -0.00000000000E+00 -0.45593999997E+02  0.45594000000E+02  0.51100000000E-03 0. -1.
         23    2    1    2    0    0  0.00000000000E+00  0.00000000000E+00  0.71054273576E-14  0.91188000000E+02  0.91188000000E+02 0.  0.
    9900012    2    3    3    0    0 -0.16309227205E+02 -0.10249069132E+02  0.31380641775E+02  0.54367095770E+02  0.40000026426E+02 0.  0.
         12    1    3    3    0    0  0.16309227205E+02  0.10249069132E+02 -0.31380641775E+02  0.36820904230E+02  0.00000000000E+00 0. -1.
         11    1    4    4    0    0 -0.67198282080E+01 -0.11184593251E+01  0.30379797361E+01  0.74589787200E+01  0.51100000000E-03 0. -1.
        -11    1    4    4    0    0 -0.38242210764E+01 -0.31893260942E+01 -0.81157192306E+01  0.95216262617E+01  0.51100000000E-03 0.  1.
        -12    1    4    4    0    0 -0.57651779206E+01 -0.59412837130E+01  0.36458381270E+02  0.37386490788E+02  0.00000000000E+00 0.  1.
</event>
<event>
 8    1  0.2493819E-006  0.9118800E+02  0.7816164E-02  0.1184000E+00
        -11   -1    0    0    0    0  0.00000000000E+00  0.00000000000E+00  0.45593999997E+02  0.45594000000E+02  0.51100000000E-03 0.  1.
         11   -1    0    0    0    0 -0.00000000000E+00 -0.00000000000E+00 -0.45593999997E+02  0.45594000000E+02  0.51100000000E-03 0. -1.
         23    2    1    2    0    0 -0.35527136788E-14 -0.71054273576E-14  0.17937040742E-14  0.91188000000E+02  0.91188000000E+02 0.  0.
    9900012    2    3    3    0    0 -0.24055401995E+02 -0.27876811858E+02  0.88428880355E-02  0.54367094488E+02  0.40000023504E+02 0.  0.
         12    1    3    3    0    0  0.24055401995E+02  0.27876811858E+02 -0.88428880355E-02  0.36820905512E+02  0.00000000000E+00 0. -1.
         11    1    4    4    0    0 -0.26599123655E+01  0.20186575905E+01 -0.12215818935E+02  0.12663978237E+02  0.51100000000E-03 0. -1.
        -11    1    4    4    0    0 -0.21743927976E+02 -0.25742930714E+02  0.60225607392E+01  0.34231098780E+02  0.51100000000E-03 0.  1.
         12    1    4    4    0    0  0.34843834644E+00 -0.41525387352E+01  0.62021010842E+01  0.74720174711E+01  0.00000000000E+00 0. -1.
</event>
<event>
 8    1  0.2493819E-006  0.9118800E+02  0.7816164E-02  0.1184000E+00
        -11   -1    0    0    0    0  0.00000000000E+00  0.00000000000E+00  0.45593999997E+02  0.45594000000E+02  0.51100000000E-03 0.  1.
         11   -1    0    0    0    0 -0.00000000000E+00 -0.00000000000E+00 -0.45593999997E+02  0.45594000000E+02  0.51100000000E-03 0. -1.
         23    2    1    2    0    0  0.00000000000E+00  0.00000000000E+00 -0.35527136788E-14  0.91188000000E+02  0.91188000000E+02 0.  0.
    9900012    2    3    3    0    0  0.13124077030E+02 -0.23808290156E+02  0.24833524840E+02  0.54367081570E+02  0.39999994056E+02 0.  0.
         12    1    3    3    0    0 -0.13124077030E+02  0.23808290156E+02 -0.24833524840E+02  0.36820918430E+02  0.00000000000E+00 0. -1.
         11    1    4    4    0    0  0.69156979342E+01 -0.87278749812E+01  0.15763784431E+02  0.19300248171E+02  0.51100000000E-03 0. -1.
        -11    1    4    4    0    0 -0.28168722177E+01  0.22400231911E+01  0.14382805008E+02  0.14826245417E+02  0.51100000000E-03 0.  1.
         12    1    4    4    0    0  0.90252513132E+01 -0.17320438366E+02 -0.53130645995E+01  0.20240587983E+02  0.00000000000E+00 0. -1.
</event>
<event>
 8    1  0.2493819E-006  0.9118800E+02  0.7816164E-02  0.1184000E+00
        -11   -1    0    0    0    0  0.00000000000E+00  0.00000000000E+00  0.45593999997E+02  0.45594000000E+02  0.51100000000E-03 0. -1.
         11   -1    0    0    0    0 -0.00000000000E+00 -0.00000000000E+00 -0.45593999997E+02  0.45594000000E+02  0.51100000000E-03 0.  1.
         23    2    1    2    0    0  0.27755575616E-16  0.00000000000E+00 -0.71054273576E-14  0.91188000000E+02  0.91188000000E+02 0.  0.
    9900012    2    3    3    0    0 -0.16391595929E+00  0.91197598574E+01  0.35673277860E+02  0.54367086899E+02  0.40000006204E+02 0.  0.
        -12    1    3    3    0    0  0.16391595929E+00 -0.91197598574E+01 -0.35673277860E+02  0.36820913101E+02  0.00000000000E+00 0.  1.
         11    1    4    4    0    0  0.42343296338E+00  0.88030371591E+01  0.36382253793E+02  0.37434491448E+02  0.51100000000E-03 0. -1.
        -11    1    4    4    0    0 -0.70867778601E+01 -0.47398202374E+01  0.79093877829E+00  0.85623536912E+01  0.51100000000E-03 0.  1.
         12    1    4    4    0    0  0.64994289374E+01  0.50565429358E+01 -0.14999147109E+01  0.83702417596E+01  0.00000000000E+00 0. -1.
</event>
<event>
 8    1  0.2493819E-006  0.9118800E+02  0.7816164E-02  0.1184000E+00
        -11   -1    0    0    0    0  0.00000000000E+00  0.00000000000E+00  0.45593999997E+02  0.45594000000E+02  0.51100000000E-03 0. -1.
         11   -1    0    0    0    0 -0.00000000000E+00 -0.00000000000E+00 -0.45593999997E+02  0.45594000000E+02  0.51100000000E-03 0.  1.
         23    2    1    2    0    0  0.00000000000E+00  0.17763568394E-14 -0.71054273576E-14  0.91188000000E+02  0.91188000000E+02 0.  0.
    9900012    2    3    3    0    0 -0.87593972787E+01 -0.13136849631E+02 -0.33263727785E+02  0.54367089568E+02  0.40000012287E+02 0.  0.
         12    1    3    3    0    0  0.87593972787E+01  0.13136849631E+02  0.33263727785E+02  0.36820910432E+02  0.00000000000E+00 0. -1.
         11    1    4    4    0    0 -0.24820784282E+01 -0.55573387851E+01  0.54646680381E+01  0.81796897694E+01  0.51100000000E-03 0. -1.
        -11    1    4    4    0    0 -0.35517831616E+01  0.96795925450E+00 -0.36834722541E+02  0.37018223805E+02  0.51100000000E-03 0.  1.
        -12    1    4    4    0    0 -0.27255356890E+01 -0.85474700999E+01 -0.18936732825E+01  0.91691759936E+01  0.00000000000E+00 0.  1.
</event>
<event>
 8    1  0.2493819E-006  0.9118800E+02  0.7816164E-02  0.1184000E+00
        -11   -1    0    0    0    0  0.00000000000E+00  0.00000000000E+00  0.45593999997E+02  0.45594000000E+02  0.51100000000E-03 0.  1.
         11   -1    0    0    0    0 -0.00000000000E+00 -0.00000000000E+00 -0.45593999997E+02  0.45594000000E+02  0.51100000000E-03 0. -1.
         23    2    1    2    0    0  0.00000000000E+00  0.00000000000E+00  0.22204460493E-15  0.91188000000E+02  0.91188000000E+02 0.  0.
    9900012    2    3    3    0    0 -0.31329609564E+02 -0.19251245146E+02 -0.19020858399E+01  0.54367179726E+02  0.40000217821E+02 0.  0.
         12    1    3    3    0    0  0.31329609564E+02  0.19251245146E+02  0.19020858399E+01  0.36820820274E+02  0.00000000000E+00 0. -1.
         11    1    4    4    0    0 -0.29043336685E+02 -0.56052042225E+01  0.23790708086E+01  0.29674799045E+02  0.51100000000E-03 0. -1.
        -11    1    4    4    0    0 -0.92512779998E+01 -0.10461626622E+01  0.98599879621E+00  0.93623071319E+01  0.51100000000E-03 0.  1.
         12    1    4    4    0    0  0.69650051211E+01 -0.12599878261E+02 -0.52671554446E+01  0.15330073549E+02  0.00000000000E+00 0. -1.
</event>
<event>
 8    1  0.2493819E-006  0.9118800E+02  0.7816164E-02  0.1184000E+00
        -11   -1    0    0    0    0  0.00000000000E+00  0.00000000000E+00  0.45593999997E+02  0.45594000000E+02  0.51100000000E-03 0. -1.
         11   -1    0    0    0    0 -0.00000000000E+00 -0.00000000000E+00 -0.45593999997E+02  0.45594000000E+02  0.51100000000E-03 0.  1.
         23    2    1    2    0    0 -0.35527136788E-14  0.35527136788E-14 -0.71054273576E-14  0.91188000000E+02  0.91188000000E+02 0.  0.
    9900012    2    3    3    0    0  0.19016703459E+02 -0.12080331639E+02  0.29124063873E+02  0.54367074979E+02  0.39999979029E+02 0.  0.
        -12    1    3    3    0    0 -0.19016703459E+02  0.12080331639E+02 -0.29124063873E+02  0.36820925021E+02  0.00000000000E+00 0.  1.
         11    1    4    4    0    0  0.13053205512E+02 -0.15788959602E+01 -0.61777468024E+01  0.14527341202E+02  0.51100000000E-03 0. -1.
        -11    1    4    4    0    0 -0.44008217642E+01 -0.23430697073E+01  0.13082338763E+02  0.14000171271E+02  0.51100000000E-03 0.  1.
         12    1    4    4    0    0  0.10364319711E+02 -0.81583659710E+01  0.22219471912E+02  0.25839562505E+02  0.00000000000E+00 0. -1.
</event>
<event>
 8    1  0.2493819E-006  0.9118800E+02  0.7816164E-02  0.1184000E+00
        -11   -1    0    0    0    0  0.00000000000E+00  0.00000000000E+00  0.45593999997E+02  0.45594000000E+02  0.51100000000E-03 0. -1.
         11   -1    0    0    0    0 -0.00000000000E+00 -0.00000000000E+00 -0.45593999997E+02  0.45594000000E+02  0.51100000000E-03 0.  1.
         23    2    1    2    0    0  0.00000000000E+00 -0.17763568394E-14  0.88817841970E-15  0.91188000000E+02  0.91188000000E+02 0.  0.
    9900012    2    3    3    0    0 -0.33775464693E+02  0.13615627683E+02  0.54416991885E+01  0.54367089874E+02  0.40000012986E+02 0.  0.
        -12    1    3    3    0    0  0.33775464693E+02 -0.13615627683E+02 -0.54416991885E+01  0.36820910126E+02  0.00000000000E+00 0.  1.
         11    1    4    4    0    0 -0.21792779318E+01 -0.43842445030E+01  0.42298236536E+01  0.64701051435E+01  0.51100000000E-03 0. -1.
        -11    1    4    4    0    0 -0.82343646737E+01 -0.79537745084E+01 -0.48888796488E+01  0.12448631852E+02  0.51100000000E-03 0.  1.
        -12    1    4    4    0    0 -0.23361822088E+02  0.25953646694E+02  0.61007551838E+01  0.35448352878E+02  0.00000000000E+00 0.  1.
</event>
<event>
 8    1  0.2493819E-006  0.9118800E+02  0.7816164E-02  0.1184000E+00
        -11   -1    0    0    0    0  0.00000000000E+00  0.00000000000E+00  0.45593999997E+02  0.45594000000E+02  0.51100000000E-03 0.  1.
         11   -1    0    0    0    0 -0.00000000000E+00 -0.00000000000E+00 -0.45593999997E+02  0.45594000000E+02  0.51100000000E-03 0. -1.
         23    2    1    2    0    0 -0.88817841970E-15  0.00000000000E+00  0.00000000000E+00  0.91188000000E+02  0.91188000000E+02 0.  0.
    9900012    2    3    3    0    0  0.67311429861E+01  0.35524796017E+02  0.69613270089E+01  0.54367088934E+02  0.40000010844E+02 0.  0.
         12    1    3    3    0    0 -0.67311429861E+01 -0.35524796017E+02 -0.69613270089E+01  0.36820911066E+02  0.00000000000E+00 0. -1.
         11    1    4    4    0    0  0.12462217817E+02 -0.36387640771E+01  0.45458583673E+01  0.13755446393E+02  0.51100000000E-03 0. -1.
        -11    1    4    4    0    0 -0.27712196148E+01  0.19183288366E+02 -0.32056963089E+01  0.19645729810E+02  0.51100000000E-03 0.  1.
         12    1    4    4    0    0 -0.29598552160E+01  0.19980271729E+02  0.56211649505E+01  0.20965912731E+02  0.00000000000E+00 0. -1.
</event>
<event>
 8    1  0.2493819E-006  0.9118800E+02  0.7816164E-02  0.1184000E+00
        -11   -1    0    0    0    0  0.00000000000E+00  0.00000000000E+00  0.45593999997E+02  0.45594000000E+02  0.51100000000E-03 0.  1.
         11   -1    0    0    0    0 -0.00000000000E+00 -0.00000000000E+00 -0.45593999997E+02  0.45594000000E+02  0.51100000000E-03 0. -1.
         23    2    1    2    0    0 -0.22204460493E-15  0.00000000000E+00 -0.17763568394E-14  0.91188000000E+02  0.91188000000E+02 0.  0.
    9900012    2    3    3    0    0  0.19264843927E+01 -0.33886530703E+02  0.14274878258E+02  0.54367075860E+02  0.39999981039E+02 0.  0.
         12    1    3    3    0    0 -0.19264843927E+01  0.33886530703E+02 -0.14274878258E+02  0.36820924140E+02  0.00000000000E+00 0. -1.
         11    1    4    4    0    0 -0.67672831897E+01 -0.10226084409E+01 -0.53044044171E+01  0.86590158952E+01  0.51100000000E-03 0. -1.
        -11    1    4    4    0    0  0.47090856784E+01 -0.34663555071E+02  0.21359408564E+02  0.40987337954E+02  0.51100000000E-03 0.  1.
        -12    1    4    4    0    0  0.39846819039E+01  0.17996328093E+01 -0.17801258889E+01  0.47207220109E+01  0.00000000000E+00 0.  1.
</event>
<event>
 8    1  0.2493819E-006  0.9118800E+02  0.7816164E-02  0.1184000E+00
        -11   -1    0    0    0    0  0.00000000000E+00  0.00000000000E+00  0.45593999997E+02  0.45594000000E+02  0.51100000000E-03 0.  1.
         11   -1    0    0    0    0 -0.00000000000E+00 -0.00000000000E+00 -0.45593999997E+02  0.45594000000E+02  0.51100000000E-03 0. -1.
         23    2    1    2    0    0 -0.88817841970E-15  0.17763568394E-14  0.00000000000E+00  0.91188000000E+02  0.91188000000E+02 0.  0.
    9900012    2    3    3    0    0 -0.66043565555E+01 -0.85050222800E+01  0.35211189863E+02  0.54367070883E+02  0.39999969691E+02 0.  0.
         12    1    3    3    0    0  0.66043565555E+01  0.85050222800E+01 -0.35211189863E+02  0.36820929117E+02  0.00000000000E+00 0. -1.
         11    1    4    4    0    0 -0.43685259454E+01  0.35018133133E+00 -0.40795229969E+01  0.59874163079E+01  0.51100000000E-03 0.  1.
        -11    1    4    4    0    0 -0.91545987585E+01  0.44457978033E+01  0.58664644848E+01  0.11746795408E+02  0.51100000000E-03 0. -1.
        -12    1    4    4    0    0  0.69187681485E+01 -0.13301001415E+02  0.33424248375E+02  0.36632859167E+02  0.00000000000E+00 0.  1.
</event>
<event>
 8    1  0.2493819E-006  0.9118800E+02  0.7816164E-02  0.1184000E+00
        -11   -1    0    0    0    0  0.00000000000E+00  0.00000000000E+00  0.45593999997E+02  0.45594000000E+02  0.51100000000E-03 0.  1.
         11   -1    0    0    0    0 -0.00000000000E+00 -0.00000000000E+00 -0.45593999997E+02  0.45594000000E+02  0.51100000000E-03 0. -1.
         23    2    1    2    0    0 -0.35527136788E-14  0.35527136788E-14  0.00000000000E+00  0.91188000000E+02  0.91188000000E+02 0.  0.
    9900012    2    3    3    0    0 -0.20107140382E+02 -0.18140687256E+02 -0.24947867715E+02  0.54367112830E+02  0.40000065319E+02 0.  0.
        -12    1    3    3    0    0  0.20107140382E+02  0.18140687256E+02  0.24947867715E+02  0.36820887170E+02  0.00000000000E+00 0.  1.
         11    1    4    4    0    0 -0.98502237425E+01 -0.57778601258E+01  0.95498630695E+00  0.11459606211E+02  0.51100000000E-03 0. -1.
        -11    1    4    4    0    0  0.31255765208E+01  0.84857310736E+01 -0.99300706223E+01  0.13430679926E+02  0.51100000000E-03 0.  1.
        -12    1    4    4    0    0 -0.13382493160E+02 -0.20848558204E+02 -0.15972783399E+02  0.29476826693E+02  0.00000000000E+00 0.  1.
</event>
<event>
 8    1  0.2493819E-006  0.9118800E+02  0.7816164E-02  0.1184000E+00
        -11   -1    0    0    0    0  0.00000000000E+00  0.00000000000E+00  0.45593999997E+02  0.45594000000E+02  0.51100000000E-03 0.  1.
         11   -1    0    0    0    0 -0.00000000000E+00 -0.00000000000E+00 -0.45593999997E+02  0.45594000000E+02  0.51100000000E-03 0. -1.
         23    2    1    2    0    0 -0.71054273576E-14  0.44408920985E-15 -0.35527136788E-14  0.91188000000E+02  0.91188000000E+02 0.  0.
    9900012    2    3    3    0    0 -0.32226662015E+02 -0.23077404006E+01  0.17660581226E+02  0.54367088284E+02  0.40000009360E+02 0.  0.
         12    1    3    3    0    0  0.32226662015E+02  0.23077404006E+01 -0.17660581226E+02  0.36820911716E+02  0.00000000000E+00 0. -1.
         11    1    4    4    0    0  0.15156081012E+01  0.14070901957E+01  0.19884509457E+01  0.28689559355E+01  0.51100000000E-03 0. -1.
        -11    1    4    4    0    0 -0.14931667103E+02  0.15233957052E+02  0.17941410166E+01  0.21406706243E+02  0.51100000000E-03 0.  1.
        -12    1    4    4    0    0 -0.18810603013E+02 -0.18948787648E+02  0.13877989264E+02  0.30091426106E+02  0.00000000000E+00 0.  1.
</event>
<event>
 8    1  0.2493819E-006  0.9118800E+02  0.7816164E-02  0.1184000E+00
        -11   -1    0    0    0    0  0.00000000000E+00  0.00000000000E+00  0.45593999997E+02  0.45594000000E+02  0.51100000000E-03 0. -1.
         11   -1    0    0    0    0 -0.00000000000E+00 -0.00000000000E+00 -0.45593999997E+02  0.45594000000E+02  0.51100000000E-03 0.  1.
         23    2    1    2    0    0 -0.17763568394E-14 -0.35527136788E-14  0.00000000000E+00  0.91188000000E+02  0.91188000000E+02 0.  0.
    9900012    2    3    3    0    0  0.12059152420E+02  0.29049182275E+02  0.19144252730E+02  0.54367074420E+02  0.39999977756E+02 0.  0.
        -12    1    3    3    0    0 -0.12059152420E+02 -0.29049182275E+02 -0.19144252730E+02  0.36820925580E+02  0.00000000000E+00 0.  1.
         11    1    4    4    0    0  0.55347671046E+01  0.12274704009E+02  0.11826063569E+02  0.17920875682E+02  0.51100000000E-03 0. -1.
        -11    1    4    4    0    0  0.16383210996E+02  0.13745354113E+02 -0.33055640061E+01  0.21639572914E+02  0.51100000000E-03 0.  1.
         12    1    4    4    0    0 -0.98588256810E+01  0.30291241531E+01  0.10623753168E+02  0.14806625825E+02  0.00000000000E+00 0. -1.
</event>
<event>
 8    1  0.2493819E-006  0.9118800E+02  0.7816164E-02  0.1184000E+00
        -11   -1    0    0    0    0  0.00000000000E+00  0.00000000000E+00  0.45593999997E+02  0.45594000000E+02  0.51100000000E-03 0. -1.
         11   -1    0    0    0    0 -0.00000000000E+00 -0.00000000000E+00 -0.45593999997E+02  0.45594000000E+02  0.51100000000E-03 0.  1.
         23    2    1    2    0    0  0.00000000000E+00 -0.17763568394E-14  0.35527136788E-14  0.91188000000E+02  0.91188000000E+02 0.  0.
    9900012    2    3    3    0    0  0.26404044855E+02 -0.10144161039E+02  0.23573331727E+02  0.54367088053E+02  0.40000008835E+02 0.  0.
        -12    1    3    3    0    0 -0.26404044855E+02  0.10144161039E+02 -0.23573331727E+02  0.36820911947E+02  0.00000000000E+00 0.  1.
         11    1    4    4    0    0  0.10344828133E+02  0.92099133910E+01 -0.38090522508E+01  0.14364778212E+02  0.51100000000E-03 0. -1.
        -11    1    4    4    0    0  0.70515324617E+01 -0.15629149167E+02  0.24374699172E+02  0.29801348522E+02  0.51100000000E-03 0.  1.
         12    1    4    4    0    0  0.90076842598E+01 -0.37249252627E+01  0.30076848058E+01  0.10200961319E+02  0.00000000000E+00 0. -1.
</event>
<event>
 8    1  0.2493819E-006  0.9118800E+02  0.7816164E-02  0.1184000E+00
        -11   -1    0    0    0    0  0.00000000000E+00  0.00000000000E+00  0.45593999997E+02  0.45594000000E+02  0.51100000000E-03 0.  1.
         11   -1    0    0    0    0 -0.00000000000E+00 -0.00000000000E+00 -0.45593999997E+02  0.45594000000E+02  0.51100000000E-03 0. -1.
         23    2    1    2    0    0  0.00000000000E+00 -0.71054273576E-14 -0.17763568394E-14  0.91188000000E+02  0.91188000000E+02 0.  0.
    9900012    2    3    3    0    0 -0.20292648033E+02  0.28339900154E+02  0.11867522748E+02  0.54367087449E+02  0.40000007457E+02 0.  0.
        -12    1    3    3    0    0  0.20292648033E+02 -0.28339900154E+02 -0.11867522748E+02  0.36820912551E+02  0.00000000000E+00 0.  1.
         11    1    4    4    0    0 -0.25062221715E+02  0.46767745528E+01  0.86733874357E+01  0.26929812984E+02  0.51100000000E-03 0. -1.
        -11    1    4    4    0    0 -0.31163681894E+00 -0.46843203583E+00  0.27141915499E+01  0.27718914318E+01  0.51100000000E-03 0.  1.
         12    1    4    4    0    0  0.50812105007E+01  0.24131557637E+02  0.47994376268E+00  0.24665383033E+02  0.00000000000E+00 0. -1.
</event>
<event>
 8    1  0.2493819E-006  0.9118800E+02  0.7816164E-02  0.1184000E+00
        -11   -1    0    0    0    0  0.00000000000E+00  0.00000000000E+00  0.45593999997E+02  0.45594000000E+02  0.51100000000E-03 0.  1.
         11   -1    0    0    0    0 -0.00000000000E+00 -0.00000000000E+00 -0.45593999997E+02  0.45594000000E+02  0.51100000000E-03 0. -1.
         23    2    1    2    0    0  0.00000000000E+00  0.17763568394E-14  0.00000000000E+00  0.91188000000E+02  0.91188000000E+02 0.  0.
    9900012    2    3    3    0    0  0.30597644722E+02 -0.10872946387E+01 -0.20454345502E+02  0.54367104817E+02  0.40000047051E+02 0.  0.
        -12    1    3    3    0    0 -0.30597644722E+02  0.10872946387E+01  0.20454345502E+02  0.36820895183E+02  0.00000000000E+00 0.  1.
         11    1    4    4    0    0  0.20003490894E+02  0.14383132859E+02 -0.14209018784E+02  0.28441349720E+02  0.51100000000E-03 0. -1.
        -11    1    4    4    0    0  0.46068029545E+01 -0.42756974861E+01  0.57067776371E+01  0.84894954923E+01  0.51100000000E-03 0.  1.
         12    1    4    4    0    0  0.59873508737E+01 -0.11194730012E+02 -0.11952104354E+02  0.17436259605E+02  0.00000000000E+00 0. -1.
</event>
<event>
 8    1  0.2493819E-006  0.9118800E+02  0.7816164E-02  0.1184000E+00
        -11   -1    0    0    0    0  0.00000000000E+00  0.00000000000E+00  0.45593999997E+02  0.45594000000E+02  0.51100000000E-03 0. -1.
         11   -1    0    0    0    0 -0.00000000000E+00 -0.00000000000E+00 -0.45593999997E+02  0.45594000000E+02  0.51100000000E-03 0.  1.
         23    2    1    2    0    0 -0.35527136788E-14 -0.88817841970E-15  0.35527136788E-14  0.91188000000E+02  0.91188000000E+02 0.  0.
    9900012    2    3    3    0    0 -0.23603391824E+02 -0.64312185954E+01  0.27519121965E+02  0.54367044663E+02  0.39999909917E+02 0.  0.
        -12    1    3    3    0    0  0.23603391824E+02  0.64312185954E+01 -0.27519121965E+02  0.36820955337E+02  0.00000000000E+00 0.  1.
         11    1    4    4    0    0 -0.17457641026E+02  0.37461534558E+00  0.12804096064E+02  0.21653046971E+02  0.51100000000E-03 0.  1.
        -11    1    4    4    0    0 -0.21240892319E+01  0.10838006093E+02  0.44337376327E+01  0.11900931090E+02  0.51100000000E-03 0. -1.
         12    1    4    4    0    0 -0.40216615667E+01 -0.17643840034E+02  0.10281288268E+02  0.20813066602E+02  0.00000000000E+00 0. -1.
</event>
<event>
 8    1  0.2493819E-006  0.9118800E+02  0.7816164E-02  0.1184000E+00
        -11   -1    0    0    0    0  0.00000000000E+00  0.00000000000E+00  0.45593999997E+02  0.45594000000E+02  0.51100000000E-03 0.  1.
         11   -1    0    0    0    0 -0.00000000000E+00 -0.00000000000E+00 -0.45593999997E+02  0.45594000000E+02  0.51100000000E-03 0. -1.
         23    2    1    2    0    0 -0.88817841970E-15  0.00000000000E+00  0.35527136788E-14  0.91188000000E+02  0.91188000000E+02 0.  0.
    9900012    2    3    3    0    0  0.52472419919E+01  0.22497125399E+02  0.28672736283E+02  0.54367081955E+02  0.39999994932E+02 0.  0.
         12    1    3    3    0    0 -0.52472419919E+01 -0.22497125399E+02 -0.28672736283E+02  0.36820918045E+02  0.00000000000E+00 0. -1.
         11    1    4    4    0    0  0.85375190561E+01  0.82015683254E+01  0.27248759512E+02  0.29709423586E+02  0.51100000000E-03 0. -1.
        -11    1    4    4    0    0  0.46838042209E+01  0.78970184631E+01 -0.68906517923E+01  0.11479634357E+02  0.51100000000E-03 0.  1.
         12    1    4    4    0    0 -0.79740812851E+01  0.63985386108E+01  0.83146285633E+01  0.13178024011E+02  0.00000000000E+00 0. -1.
</event>
<event>
 8    1  0.2493819E-006  0.9118800E+02  0.7816164E-02  0.1184000E+00
        -11   -1    0    0    0    0  0.00000000000E+00  0.00000000000E+00  0.45593999997E+02  0.45594000000E+02  0.51100000000E-03 0.  1.
         11   -1    0    0    0    0 -0.00000000000E+00 -0.00000000000E+00 -0.45593999997E+02  0.45594000000E+02  0.51100000000E-03 0. -1.
         23    2    1    2    0    0 -0.35527136788E-14 -0.35527136788E-14  0.00000000000E+00  0.91188000000E+02  0.91188000000E+02 0.  0.
    9900012    2    3    3    0    0 -0.23427792458E+02 -0.11534387815E+02  0.25959153119E+02  0.54367065840E+02  0.39999958196E+02 0.  0.
         12    1    3    3    0    0  0.23427792458E+02  0.11534387815E+02 -0.25959153119E+02  0.36820934160E+02  0.00000000000E+00 0. -1.
         11    1    4    4    0    0 -0.29734256110E+01 -0.17547666916E+02  0.90472378520E+00  0.17820785601E+02  0.51100000000E-03 0.  1.
        -11    1    4    4    0    0 -0.14407179929E+02  0.98112233513E+01  0.10537956499E+02  0.20368491957E+02  0.51100000000E-03 0. -1.
        -12    1    4    4    0    0 -0.60471869176E+01 -0.37979442507E+01  0.14516472834E+02  0.16177788282E+02  0.00000000000E+00 0.  1.
</event>
<event>
 8    1  0.2493819E-006  0.9118800E+02  0.7816164E-02  0.1184000E+00
        -11   -1    0    0    0    0  0.00000000000E+00  0.00000000000E+00  0.45593999997E+02  0.45594000000E+02  0.51100000000E-03 0. -1.
         11   -1    0    0    0    0 -0.00000000000E+00 -0.00000000000E+00 -0.45593999997E+02  0.45594000000E+02  0.51100000000E-03 0.  1.
         23    2    1    2    0    0  0.88817841970E-15  0.00000000000E+00  0.00000000000E+00  0.91188000000E+02  0.91188000000E+02 0.  0.
    9900012    2    3    3    0    0 -0.54282536976E+01  0.22762251786E+02  0.28428747591E+02  0.54367085642E+02  0.40000003339E+02 0.  0.
        -12    1    3    3    0    0  0.54282536976E+01 -0.22762251786E+02 -0.28428747591E+02  0.36820914358E+02  0.00000000000E+00 0.  1.
         11    1    4    4    0    0  0.11446846896E+02  0.62187721383E+01 -0.18052321750E+01  0.13151513001E+02  0.51100000000E-03 0. -1.
        -11    1    4    4    0    0 -0.74786456326E+01  0.59470027360E+01  0.21965535337E+01  0.98041740972E+01  0.51100000000E-03 0.  1.
         12    1    4    4    0    0 -0.93964549605E+01  0.10596476911E+02  0.28037426232E+02  0.31411398544E+02  0.00000000000E+00 0. -1.
</event>
<event>
 8    1  0.2493819E-006  0.9118800E+02  0.7816164E-02  0.1184000E+00
        -11   -1    0    0    0    0  0.00000000000E+00  0.00000000000E+00  0.45593999997E+02  0.45594000000E+02  0.51100000000E-03 0. -1.
         11   -1    0    0    0    0 -0.00000000000E+00 -0.00000000000E+00 -0.45593999997E+02  0.45594000000E+02  0.51100000000E-03 0.  1.
         23    2    1    2    0    0  0.00000000000E+00  0.00000000000E+00 -0.88817841970E-15  0.91188000000E+02  0.91188000000E+02 0.  0.
    9900012    2    3    3    0    0 -0.16243198195E+02  0.32649947055E+02 -0.50911847264E+01  0.54367072632E+02  0.39999973680E+02 0.  0.
        -12    1    3    3    0    0  0.16243198195E+02 -0.32649947055E+02  0.50911847264E+01  0.36820927368E+02  0.00000000000E+00 0.  1.
         11    1    4    4    0    0 -0.57782523654E+01  0.68688651534E+01  0.27857492598E+01  0.93983992304E+01  0.51100000000E-03 0. -1.
        -11    1    4    4    0    0 -0.21112776117E+01  0.25346413267E+02 -0.18497648909E+02  0.31449342983E+02  0.51100000000E-03 0.  1.
        -12    1    4    4    0    0 -0.83536682182E+01  0.43466863485E+00  0.10620714922E+02  0.13519330419E+02  0.00000000000E+00 0.  1.
</event>
<event>
 8    1  0.2493819E-006  0.9118800E+02  0.7816164E-02  0.1184000E+00
        -11   -1    0    0    0    0  0.00000000000E+00  0.00000000000E+00  0.45593999997E+02  0.45594000000E+02  0.51100000000E-03 0.  1.
         11   -1    0    0    0    0 -0.00000000000E+00 -0.00000000000E+00 -0.45593999997E+02  0.45594000000E+02  0.51100000000E-03 0. -1.
         23    2    1    2    0    0  0.00000000000E+00  0.00000000000E+00  0.00000000000E+00  0.91188000000E+02  0.91188000000E+02 0.  0.
    9900012    2    3    3    0    0 -0.15057408816E+02  0.13287466297E+02  0.30862549391E+02  0.54367091867E+02  0.40000017529E+02 0.  0.
         12    1    3    3    0    0  0.15057408816E+02 -0.13287466297E+02 -0.30862549391E+02  0.36820908133E+02  0.00000000000E+00 0. -1.
         11    1    4    4    0    0 -0.40070739719E+01 -0.26274511951E+00 -0.13538561764E+01  0.42377592690E+01  0.51100000000E-03 0. -1.
        -11    1    4    4    0    0 -0.20545779204E+02 -0.60324809450E+00  0.12456309662E+02  0.24034404549E+02  0.51100000000E-03 0.  1.
        -12    1    4    4    0    0  0.94954443596E+01  0.14153459511E+02  0.19760095905E+02  0.26094928049E+02  0.00000000000E+00 0.  1.
</event>
<event>
 8    1  0.2493819E-006  0.9118800E+02  0.7816164E-02  0.1184000E+00
        -11   -1    0    0    0    0  0.00000000000E+00  0.00000000000E+00  0.45593999997E+02  0.45594000000E+02  0.51100000000E-03 0. -1.
         11   -1    0    0    0    0 -0.00000000000E+00 -0.00000000000E+00 -0.45593999997E+02  0.45594000000E+02  0.51100000000E-03 0.  1.
         23    2    1    2    0    0  0.00000000000E+00  0.00000000000E+00  0.00000000000E+00  0.91188000000E+02  0.91188000000E+02 0.  0.
    9900012    2    3    3    0    0 -0.81431295615E+01 -0.16254066600E+02  0.32019890787E+02  0.54367100417E+02  0.40000037021E+02 0.  0.
        -12    1    3    3    0    0  0.81431295615E+01  0.16254066600E+02 -0.32019890787E+02  0.36820899583E+02  0.00000000000E+00 0.  1.
         11    1    4    4    0    0 -0.19726963301E+02 -0.21273579351E+02  0.28570540449E+02  0.40718472973E+02  0.51100000000E-03 0. -1.
        -11    1    4    4    0    0  0.32678843134E+01 -0.37894894509E+00  0.94010681392E+00  0.34214720913E+01  0.51100000000E-03 0.  1.
        -12    1    4    4    0    0  0.83159494259E+01  0.53984616963E+01  0.25092435238E+01  0.10227155352E+02  0.00000000000E+00 0.  1.
</event>
<event>
 8    1  0.2493819E-006  0.9118800E+02  0.7816164E-02  0.1184000E+00
        -11   -1    0    0    0    0  0.00000000000E+00  0.00000000000E+00  0.45593999997E+02  0.45594000000E+02  0.51100000000E-03 0.  1.
         11   -1    0    0    0    0 -0.00000000000E+00 -0.00000000000E+00 -0.45593999997E+02  0.45594000000E+02  0.51100000000E-03 0. -1.
         23    2    1    2    0    0  0.00000000000E+00 -0.66613381478E-15  0.00000000000E+00  0.91188000000E+02  0.91188000000E+02 0.  0.
    9900012    2    3    3    0    0  0.22576003402E+02  0.19412788959E+01 -0.29023001306E+02  0.54367094278E+02  0.40000023026E+02 0.  0.
        -12    1    3    3    0    0 -0.22576003402E+02 -0.19412788959E+01  0.29023001306E+02  0.36820905722E+02  0.00000000000E+00 0.  1.
         11    1    4    4    0    0  0.67999126693E+01  0.12853163235E+02 -0.10870440267E+02  0.18155139474E+02  0.51100000000E-03 0. -1.
        -11    1    4    4    0    0 -0.58560523169E+01 -0.71120658687E+01 -0.37455271990E+01  0.99450391612E+01  0.51100000000E-03 0.  1.
         12    1    4    4    0    0  0.21632143050E+02 -0.37998184703E+01 -0.14407033840E+02  0.26266915643E+02  0.00000000000E+00 0. -1.
</event>
<event>
 8    1  0.2493819E-006  0.9118800E+02  0.7816164E-02  0.1184000E+00
        -11   -1    0    0    0    0  0.00000000000E+00  0.00000000000E+00  0.45593999997E+02  0.45594000000E+02  0.51100000000E-03 0. -1.
         11   -1    0    0    0    0 -0.00000000000E+00 -0.00000000000E+00 -0.45593999997E+02  0.45594000000E+02  0.51100000000E-03 0.  1.
         23    2    1    2    0    0 -0.71054273576E-14  0.00000000000E+00  0.00000000000E+00  0.91188000000E+02  0.91188000000E+02 0.  0.
    9900012    2    3    3    0    0  0.32417091464E+02  0.26291784109E+01  0.17262656562E+02  0.54367085974E+02  0.40000004095E+02 0.  0.
        -12    1    3    3    0    0 -0.32417091464E+02 -0.26291784109E+01 -0.17262656562E+02  0.36820914026E+02  0.00000000000E+00 0.  1.
         11    1    4    4    0    0  0.21919596913E+00  0.44297196658E+01 -0.85022647151E+01  0.95895239057E+01  0.51100000000E-03 0. -1.
        -11    1    4    4    0    0 -0.19835198385E+01  0.11820216426E+01  0.15098250299E+01  0.27588218492E+01  0.51100000000E-03 0.  1.
         12    1    4    4    0    0  0.34181415333E+02 -0.29825628976E+01  0.24255096248E+02  0.42018740219E+02  0.00000000000E+00 0. -1.
</event>
<event>
 8    1  0.2493819E-006  0.9118800E+02  0.7816164E-02  0.1184000E+00
        -11   -1    0    0    0    0  0.00000000000E+00  0.00000000000E+00  0.45593999997E+02  0.45594000000E+02  0.51100000000E-03 0.  1.
         11   -1    0    0    0    0 -0.00000000000E+00 -0.00000000000E+00 -0.45593999997E+02  0.45594000000E+02  0.51100000000E-03 0. -1.
         23    2    1    2    0    0 -0.17763568394E-14  0.00000000000E+00  0.00000000000E+00  0.91188000000E+02  0.91188000000E+02 0.  0.
    9900012    2    3    3    0    0 -0.11902435476E+02  0.30790278864E+02  0.16311662028E+02  0.54367087995E+02  0.40000008702E+02 0.  0.
         12    1    3    3    0    0  0.11902435476E+02 -0.30790278864E+02 -0.16311662028E+02  0.36820912005E+02  0.00000000000E+00 0. -1.
         11    1    4    4    0    0  0.51230819085E+01  0.33563714279E+02  0.13093262432E+02  0.36389591999E+02  0.51100000000E-03 0. -1.
        -11    1    4    4    0    0 -0.17116786102E+01 -0.13001338343E+01  0.11982215166E+01  0.24608792566E+01  0.51100000000E-03 0.  1.
         12    1    4    4    0    0 -0.15313838775E+02 -0.14733015813E+01  0.20201780798E+01  0.15516616739E+02  0.00000000000E+00 0. -1.
</event>
<event>
 8    1  0.2493819E-006  0.9118800E+02  0.7816164E-02  0.1184000E+00
        -11   -1    0    0    0    0  0.00000000000E+00  0.00000000000E+00  0.45593999997E+02  0.45594000000E+02  0.51100000000E-03 0. -1.
         11   -1    0    0    0    0 -0.00000000000E+00 -0.00000000000E+00 -0.45593999997E+02  0.45594000000E+02  0.51100000000E-03 0.  1.
         23    2    1    2    0    0  0.00000000000E+00  0.00000000000E+00  0.00000000000E+00  0.91188000000E+02  0.91188000000E+02 0.  0.
    9900012    2    3    3    0    0 -0.28291816937E+02 -0.15062870614E+02 -0.18123475089E+02  0.54367118343E+02  0.40000077886E+02 0.  0.
         12    1    3    3    0    0  0.28291816937E+02  0.15062870614E+02  0.18123475089E+02  0.36820881657E+02  0.00000000000E+00 0. -1.
         11    1    4    4    0    0 -0.34267695231E+02 -0.37408763431E+01 -0.68195083308E+01  0.35139362351E+02  0.51100000000E-03 0. -1.
        -11    1    4    4    0    0 -0.42321851226E+00 -0.23279604460E+01 -0.69847319843E+01  0.73746182885E+01  0.51100000000E-03 0.  1.
         12    1    4    4    0    0  0.63990968071E+01 -0.89940338246E+01 -0.43192347740E+01  0.11853137703E+02  0.00000000000E+00 0. -1.
</event>
<event>
 8    1  0.2493819E-006  0.9118800E+02  0.7816164E-02  0.1184000E+00
        -11   -1    0    0    0    0  0.00000000000E+00  0.00000000000E+00  0.45593999997E+02  0.45594000000E+02  0.51100000000E-03 0.  1.
         11   -1    0    0    0    0 -0.00000000000E+00 -0.00000000000E+00 -0.45593999997E+02  0.45594000000E+02  0.51100000000E-03 0. -1.
         23    2    1    2    0    0 -0.17763568394E-14  0.88817841970E-15  0.00000000000E+00  0.91188000000E+02  0.91188000000E+02 0.  0.
    9900012    2    3    3    0    0 -0.38925436292E+01 -0.44001193228E+01  0.36349232514E+02  0.54367086780E+02  0.40000005933E+02 0.  0.
         12    1    3    3    0    0  0.38925436292E+01  0.44001193228E+01 -0.36349232514E+02  0.36820913220E+02  0.00000000000E+00 0. -1.
         11    1    4    4    0    0  0.69398704738E+01  0.53638128366E+01  0.28342083798E+02  0.29668265952E+02  0.51100000000E-03 0. -1.
        -11    1    4    4    0    0 -0.11135333289E+01 -0.65900109494E+01  0.11989598617E+02  0.13726568254E+02  0.51100000000E-03 0.  1.
         12    1    4    4    0    0 -0.97188807740E+01 -0.31739212099E+01 -0.39824498998E+01  0.10972252574E+02  0.00000000000E+00 0. -1.
</event>
<event>
 8    1  0.2493819E-006  0.9118800E+02  0.7816164E-02  0.1184000E+00
        -11   -1    0    0    0    0  0.00000000000E+00  0.00000000000E+00  0.45593999997E+02  0.45594000000E+02  0.51100000000E-03 0. -1.
         11   -1    0    0    0    0 -0.00000000000E+00 -0.00000000000E+00 -0.45593999997E+02  0.45594000000E+02  0.51100000000E-03 0.  1.
         23    2    1    2    0    0  0.35527136788E-14  0.00000000000E+00  0.88817841970E-15  0.91188000000E+02  0.91188000000E+02 0.  0.
    9900012    2    3    3    0    0  0.19005652573E+02  0.31195680735E+02  0.46243381043E+01  0.54367220145E+02  0.40000309963E+02 0.  0.
        -12    1    3    3    0    0 -0.19005652573E+02 -0.31195680735E+02 -0.46243381043E+01  0.36820779855E+02  0.00000000000E+00 0.  1.
         11    1    4    4    0    0 -0.40800916444E+01 -0.67191699674E+01 -0.32168290730E+01  0.84936671952E+01  0.51100000000E-03 0.  1.
        -11    1    4    4    0    0  0.72467627405E+01  0.60256709863E+01  0.48916276412E-01  0.94247904017E+01  0.51100000000E-03 0. -1.
         12    1    4    4    0    0  0.15838981477E+02  0.31889179716E+02  0.77922509009E+01  0.36448762548E+02  0.00000000000E+00 0. -1.
</event>
<event>
 8    1  0.2493819E-006  0.9118800E+02  0.7816164E-02  0.1184000E+00
        -11   -1    0    0    0    0  0.00000000000E+00  0.00000000000E+00  0.45593999997E+02  0.45594000000E+02  0.51100000000E-03 0.  1.
         11   -1    0    0    0    0 -0.00000000000E+00 -0.00000000000E+00 -0.45593999997E+02  0.45594000000E+02  0.51100000000E-03 0. -1.
         23    2    1    2    0    0 -0.71054273576E-14 -0.88817841970E-15 -0.88817841970E-15  0.91188000000E+02  0.91188000000E+02 0.  0.
    9900012    2    3    3    0    0  0.36025797184E+02  0.62958137953E+01  0.42760470917E+01  0.54367083216E+02  0.39999997808E+02 0.  0.
         12    1    3    3    0    0 -0.36025797184E+02 -0.62958137953E+01 -0.42760470917E+01  0.36820916784E+02  0.00000000000E+00 0. -1.
         11    1    4    4    0    0  0.14429953356E+02 -0.36723366540E+01  0.76046066850E+01  0.16719439388E+02  0.51100000000E-03 0. -1.
        -11    1    4    4    0    0  0.14515730012E+02  0.34163858019E+00  0.11557918746E+02  0.18558249397E+02  0.51100000000E-03 0.  1.
         12    1    4    4    0    0  0.70801138153E+01  0.96265118691E+01 -0.14886478339E+02  0.19089394431E+02  0.00000000000E+00 0. -1.
</event>
<event>
 8    1  0.2493819E-006  0.9118800E+02  0.7816164E-02  0.1184000E+00
        -11   -1    0    0    0    0  0.00000000000E+00  0.00000000000E+00  0.45593999997E+02  0.45594000000E+02  0.51100000000E-03 0.  1.
         11   -1    0    0    0    0 -0.00000000000E+00 -0.00000000000E+00 -0.45593999997E+02  0.45594000000E+02  0.51100000000E-03 0. -1.
         23    2    1    2    0    0  0.17763568394E-14  0.35527136788E-14  0.00000000000E+00  0.91188000000E+02  0.91188000000E+02 0.  0.
    9900012    2    3    3    0    0  0.67046013203E+01 -0.31430376421E+02 -0.17971073584E+02  0.54367085745E+02  0.40000003573E+02 0.  0.
        -12    1    3    3    0    0 -0.67046013203E+01  0.31430376421E+02  0.17971073584E+02  0.36820914255E+02  0.00000000000E+00 0.  1.
         11    1    4    4    0    0  0.88914343500E+00  0.19081004415E+01 -0.22322613766E+01  0.30682917816E+01  0.51100000000E-03 0.  1.
        -11    1    4    4    0    0  0.19407393900E+02 -0.12021897579E+02 -0.11846067442E+02  0.25719686497E+02  0.51100000000E-03 0. -1.
        -12    1    4    4    0    0 -0.13591936015E+02 -0.21316579283E+02 -0.38927447649E+01  0.25579107466E+02  0.00000000000E+00 0.  1.
</event>
<event>
 8    1  0.2493819E-006  0.9118800E+02  0.7816164E-02  0.1184000E+00
        -11   -1    0    0    0    0  0.00000000000E+00  0.00000000000E+00  0.45593999997E+02  0.45594000000E+02  0.51100000000E-03 0. -1.
         11   -1    0    0    0    0 -0.00000000000E+00 -0.00000000000E+00 -0.45593999997E+02  0.45594000000E+02  0.51100000000E-03 0.  1.
         23    2    1    2    0    0  0.00000000000E+00 -0.35527136788E-14  0.35527136788E-14  0.91188000000E+02  0.91188000000E+02 0.  0.
    9900012    2    3    3    0    0 -0.23166402602E+02 -0.18489000566E+02 -0.21846173277E+02  0.54367073365E+02  0.39999975350E+02 0.  0.
         12    1    3    3    0    0  0.23166402602E+02  0.18489000566E+02  0.21846173277E+02  0.36820926635E+02  0.00000000000E+00 0. -1.
         11    1    4    4    0    0 -0.38984923724E+01 -0.20838860107E+02  0.68573022114E+00  0.21211472357E+02  0.51100000000E-03 0. -1.
        -11    1    4    4    0    0 -0.18782014081E+02  0.78116660975E+00 -0.11574576499E+02  0.22075893993E+02  0.51100000000E-03 0.  1.
        -12    1    4    4    0    0 -0.48589614835E+00  0.15686929308E+01 -0.10957326999E+02  0.11079707015E+02  0.00000000000E+00 0.  1.
</event>
<event>
 8    1  0.2493819E-006  0.9118800E+02  0.7816164E-02  0.1184000E+00
        -11   -1    0    0    0    0  0.00000000000E+00  0.00000000000E+00  0.45593999997E+02  0.45594000000E+02  0.51100000000E-03 0.  1.
         11   -1    0    0    0    0 -0.00000000000E+00 -0.00000000000E+00 -0.45593999997E+02  0.45594000000E+02  0.51100000000E-03 0. -1.
         23    2    1    2    0    0  0.00000000000E+00  0.44408920985E-15  0.00000000000E+00  0.91188000000E+02  0.91188000000E+02 0.  0.
    9900012    2    3    3    0    0  0.17682600581E+02 -0.39079359415E+01 -0.32059823560E+02  0.54367100862E+02  0.40000038036E+02 0.  0.
        -12    1    3    3    0    0 -0.17682600581E+02  0.39079359415E+01  0.32059823560E+02  0.36820899138E+02  0.00000000000E+00 0.  1.
         11    1    4    4    0    0  0.20097807926E+01 -0.75196514667E+01 -0.19949904393E+02  0.21414552589E+02  0.51100000000E-03 0. -1.
        -11    1    4    4    0    0  0.58566665924E+01 -0.59445721122E+01  0.59757962051E+01  0.10263947667E+02  0.51100000000E-03 0.  1.
        -12    1    4    4    0    0  0.98161531959E+01  0.95562876374E+01 -0.18085715371E+02  0.22688600606E+02  0.00000000000E+00 0.  1.
</event>
<event>
 8    1  0.2493819E-006  0.9118800E+02  0.7816164E-02  0.1184000E+00
        -11   -1    0    0    0    0  0.00000000000E+00  0.00000000000E+00  0.45593999997E+02  0.45594000000E+02  0.51100000000E-03 0.  1.
         11   -1    0    0    0    0 -0.00000000000E+00 -0.00000000000E+00 -0.45593999997E+02  0.45594000000E+02  0.51100000000E-03 0. -1.
         23    2    1    2    0    0  0.35527136788E-14  0.00000000000E+00  0.00000000000E+00  0.91188000000E+02  0.91188000000E+02 0.  0.
    9900012    2    3    3    0    0 -0.20283115250E+02  0.20776018697E+02  0.22643557179E+02  0.54367103774E+02  0.40000044675E+02 0.  0.
         12    1    3    3    0    0  0.20283115250E+02 -0.20776018697E+02 -0.22643557179E+02  0.36820896226E+02  0.00000000000E+00 0. -1.
         11    1    4    4    0    0  0.56336633913E+01  0.18193767555E+02  0.14010367513E+02  0.23644063508E+02  0.51100000000E-03 0. -1.
        -11    1    4    4    0    0 -0.13018238310E+02 -0.17339981402E+01 -0.22232111858E+01  0.13320058051E+02  0.51100000000E-03 0.  1.
         12    1    4    4    0    0 -0.12898540331E+02  0.43162492823E+01  0.10856400852E+02  0.17402982215E+02  0.00000000000E+00 0. -1.
</event>
<event>
 8    1  0.2493819E-006  0.9118800E+02  0.7816164E-02  0.1184000E+00
        -11   -1    0    0    0    0  0.00000000000E+00  0.00000000000E+00  0.45593999997E+02  0.45594000000E+02  0.51100000000E-03 0. -1.
         11   -1    0    0    0    0 -0.00000000000E+00 -0.00000000000E+00 -0.45593999997E+02  0.45594000000E+02  0.51100000000E-03 0.  1.
         23    2    1    2    0    0  0.00000000000E+00  0.00000000000E+00  0.00000000000E+00  0.91188000000E+02  0.91188000000E+02 0.  0.
    9900012    2    3    3    0    0  0.31508852490E+02 -0.13096518340E+02  0.13836629240E+02  0.54367097152E+02  0.40000029577E+02 0.  0.
        -12    1    3    3    0    0 -0.31508852490E+02  0.13096518340E+02 -0.13836629240E+02  0.36820902848E+02  0.00000000000E+00 0.  1.
         11    1    4    4    0    0  0.52474251019E+01 -0.78361111615E+01 -0.19320885294E+00  0.94327852863E+01  0.51100000000E-03 0. -1.
        -11    1    4    4    0    0  0.20526220758E+02 -0.15994401791E+02  0.18544515471E+02  0.31953805432E+02  0.51100000000E-03 0.  1.
        -12    1    4    4    0    0  0.57352066298E+01  0.10733994613E+02 -0.45146773787E+01  0.12980506433E+02  0.00000000000E+00 0.  1.
</event>
<event>
 8    1  0.2493819E-006  0.9118800E+02  0.7816164E-02  0.1184000E+00
        -11   -1    0    0    0    0  0.00000000000E+00  0.00000000000E+00  0.45593999997E+02  0.45594000000E+02  0.51100000000E-03 0. -1.
         11   -1    0    0    0    0 -0.00000000000E+00 -0.00000000000E+00 -0.45593999997E+02  0.45594000000E+02  0.51100000000E-03 0.  1.
         23    2    1    2    0    0  0.00000000000E+00 -0.35527136788E-14  0.00000000000E+00  0.91188000000E+02  0.91188000000E+02 0.  0.
    9900012    2    3    3    0    0  0.46826911058E+01 -0.26605033003E+02 -0.25020474883E+02  0.54367088272E+02  0.40000009335E+02 0.  0.
         12    1    3    3    0    0 -0.46826911058E+01  0.26605033003E+02  0.25020474883E+02  0.36820911728E+02  0.00000000000E+00 0. -1.
         11    1    4    4    0    0 -0.13799977431E+00  0.25957821681E+01 -0.21646349160E+02  0.21801870590E+02  0.51100000000E-03 0. -1.
        -11    1    4    4    0    0  0.41614233683E+01 -0.26101333373E+01  0.22100433251E+01  0.53865139236E+01  0.51100000000E-03 0.  1.
         12    1    4    4    0    0  0.65926751183E+00 -0.26590681834E+02 -0.55841690475E+01  0.27178703759E+02  0.00000000000E+00 0. -1.
</event>
<event>
 8    1  0.2493819E-006  0.9118800E+02  0.7816164E-02  0.1184000E+00
        -11   -1    0    0    0    0  0.00000000000E+00  0.00000000000E+00  0.45593999997E+02  0.45594000000E+02  0.51100000000E-03 0.  1.
         11   -1    0    0    0    0 -0.00000000000E+00 -0.00000000000E+00 -0.45593999997E+02  0.45594000000E+02  0.51100000000E-03 0. -1.
         23    2    1    2    0    0  0.00000000000E+00  0.00000000000E+00  0.00000000000E+00  0.91188000000E+02  0.91188000000E+02 0.  0.
    9900012    2    3    3    0    0 -0.26326827150E+01 -0.29969391650E+02  0.21229316110E+02  0.54367091311E+02  0.40000016263E+02 0.  0.
         12    1    3    3    0    0  0.26326827150E+01  0.29969391650E+02 -0.21229316110E+02  0.36820908689E+02  0.00000000000E+00 0. -1.
         11    1    4    4    0    0  0.62568175146E+01 -0.34449162749E+02  0.85650211312E+01  0.36045140681E+02  0.51100000000E-03 0. -1.
        -11    1    4    4    0    0 -0.17720962401E+01  0.51102323959E+01  0.26585369160E+01  0.60268249534E+01  0.51100000000E-03 0.  1.
        -12    1    4    4    0    0 -0.71174039895E+01 -0.63046129751E+00  0.10005758063E+02  0.12295125677E+02  0.00000000000E+00 0.  1.
</event>
<event>
 8    1  0.2493819E-006  0.9118800E+02  0.7816164E-02  0.1184000E+00
        -11   -1    0    0    0    0  0.00000000000E+00  0.00000000000E+00  0.45593999997E+02  0.45594000000E+02  0.51100000000E-03 0.  1.
         11   -1    0    0    0    0 -0.00000000000E+00 -0.00000000000E+00 -0.45593999997E+02  0.45594000000E+02  0.51100000000E-03 0. -1.
         23    2    1    2    0    0  0.00000000000E+00  0.00000000000E+00 -0.35527136788E-14  0.91188000000E+02  0.91188000000E+02 0.  0.
    9900012    2    3    3    0    0 -0.26136042160E+02 -0.21580175431E+02 -0.14386885567E+02  0.54367093605E+02  0.40000021492E+02 0.  0.
         12    1    3    3    0    0  0.26136042160E+02  0.21580175431E+02  0.14386885567E+02  0.36820906395E+02  0.00000000000E+00 0. -1.
         11    1    4    4    0    0  0.76878018617E+01  0.20900597235E-01 -0.51729184228E+01  0.92661653109E+01  0.51100000000E-03 0. -1.
        -11    1    4    4    0    0  0.45138617738E+00 -0.66147729529E+01 -0.25637823980E+00  0.66351112095E+01  0.51100000000E-03 0.  1.
         12    1    4    4    0    0 -0.34275230199E+02 -0.14986303075E+02 -0.89575889041E+01  0.38465817085E+02  0.00000000000E+00 0. -1.
</event>
<event>
 8    1  0.2493819E-006  0.9118800E+02  0.7816164E-02  0.1184000E+00
        -11   -1    0    0    0    0  0.00000000000E+00  0.00000000000E+00  0.45593999997E+02  0.45594000000E+02  0.51100000000E-03 0. -1.
         11   -1    0    0    0    0 -0.00000000000E+00 -0.00000000000E+00 -0.45593999997E+02  0.45594000000E+02  0.51100000000E-03 0.  1.
         23    2    1    2    0    0  0.00000000000E+00 -0.88817841970E-15  0.00000000000E+00  0.91188000000E+02  0.91188000000E+02 0.  0.
    9900012    2    3    3    0    0  0.12920169865E+02 -0.32787698947E+01 -0.34323295546E+02  0.54367221375E+02  0.40000312768E+02 0.  0.
         12    1    3    3    0    0 -0.12920169865E+02  0.32787698947E+01  0.34323295546E+02  0.36820778625E+02  0.00000000000E+00 0. -1.
         11    1    4    4    0    0 -0.57984074053E+01  0.12090241255E+02 -0.22656580493E+02  0.26327098244E+02  0.51100000000E-03 0. -1.
        -11    1    4    4    0    0  0.96449449006E+01 -0.68738443887E+01 -0.99967376754E+01  0.15498692307E+02  0.51100000000E-03 0.  1.
        -12    1    4    4    0    0  0.90736323695E+01 -0.84951667614E+01 -0.16699773782E+01  0.12541430824E+02  0.00000000000E+00 0.  1.
</event>
<event>
 8    1  0.2493819E-006  0.9118800E+02  0.7816164E-02  0.1184000E+00
        -11   -1    0    0    0    0  0.00000000000E+00  0.00000000000E+00  0.45593999997E+02  0.45594000000E+02  0.51100000000E-03 0.  1.
         11   -1    0    0    0    0 -0.00000000000E+00 -0.00000000000E+00 -0.45593999997E+02  0.45594000000E+02  0.51100000000E-03 0. -1.
         23    2    1    2    0    0  0.00000000000E+00 -0.17763568394E-14  0.00000000000E+00  0.91188000000E+02  0.91188000000E+02 0.  0.
    9900012    2    3    3    0    0 -0.13737830835E+02  0.11507452026E+02 -0.32165608554E+02  0.54367138768E+02  0.40000124450E+02 0.  0.
        -12    1    3    3    0    0  0.13737830835E+02 -0.11507452026E+02  0.32165608554E+02  0.36820861232E+02  0.00000000000E+00 0.  1.
         11    1    4    4    0    0 -0.99929830039E+01 -0.46685770064E+01 -0.22061346675E+02  0.24664921203E+02  0.51100000000E-03 0. -1.
        -11    1    4    4    0    0 -0.24423555070E+00 -0.56969368890E+01 -0.11930227146E+01  0.58256368219E+01  0.51100000000E-03 0.  1.
        -12    1    4    4    0    0 -0.35006122803E+01  0.21872965922E+02 -0.89112391649E+01  0.23876580744E+02  0.00000000000E+00 0.  1.
</event>
<event>
 8    1  0.2493819E-006  0.9118800E+02  0.7816164E-02  0.1184000E+00
        -11   -1    0    0    0    0  0.00000000000E+00  0.00000000000E+00  0.45593999997E+02  0.45594000000E+02  0.51100000000E-03 0.  1.
         11   -1    0    0    0    0 -0.00000000000E+00 -0.00000000000E+00 -0.45593999997E+02  0.45594000000E+02  0.51100000000E-03 0. -1.
         23    2    1    2    0    0  0.00000000000E+00  0.00000000000E+00  0.00000000000E+00  0.91188000000E+02  0.91188000000E+02 0.  0.
    9900012    2    3    3    0    0  0.23954239892E+02 -0.25407132083E+02  0.11680933373E+02  0.54367188304E+02  0.40000237376E+02 0.  0.
         12    1    3    3    0    0 -0.23954239892E+02  0.25407132083E+02 -0.11680933373E+02  0.36820811696E+02  0.00000000000E+00 0. -1.
         11    1    4    4    0    0  0.15658498853E+02  0.29974125913E+01  0.15369251039E+00  0.15943546978E+02  0.51100000000E-03 0. -1.
        -11    1    4    4    0    0  0.11640879683E+02 -0.30048147611E+02  0.78046469709E+01  0.33155900971E+02  0.51100000000E-03 0.  1.
        -12    1    4    4    0    0 -0.33451386447E+01  0.16436029361E+01  0.37225938914E+01  0.52677403547E+01  0.00000000000E+00 0.  1.
</event>
<event>
 8    1  0.2493819E-006  0.9118800E+02  0.7816164E-02  0.1184000E+00
        -11   -1    0    0    0    0  0.00000000000E+00  0.00000000000E+00  0.45593999997E+02  0.45594000000E+02  0.51100000000E-03 0. -1.
         11   -1    0    0    0    0 -0.00000000000E+00 -0.00000000000E+00 -0.45593999997E+02  0.45594000000E+02  0.51100000000E-03 0.  1.
         23    2    1    2    0    0 -0.35527136788E-14 -0.16653345369E-15  0.71054273576E-14  0.91188000000E+02  0.91188000000E+02 0.  0.
    9900012    2    3    3    0    0  0.16958966116E+02  0.12667575102E+00  0.32682689481E+02  0.54367071573E+02  0.39999971266E+02 0.  0.
        -12    1    3    3    0    0 -0.16958966116E+02 -0.12667575102E+00 -0.32682689481E+02  0.36820928427E+02  0.00000000000E+00 0.  1.
         11    1    4    4    0    0 -0.22550551668E+01  0.57644735923E+01 -0.35551671826E+01  0.71381820906E+01  0.51100000000E-03 0. -1.
        -11    1    4    4    0    0  0.40717452683E+01 -0.73823430246E+01  0.58102282509E+00  0.84507801916E+01  0.51100000000E-03 0.  1.
        -12    1    4    4    0    0  0.15142276014E+02  0.17445451833E+01  0.35656833839E+02  0.38778109291E+02  0.00000000000E+00 0.  1.
</event>
<event>
 8    1  0.2493819E-006  0.9118800E+02  0.7816164E-02  0.1184000E+00
        -11   -1    0    0    0    0  0.00000000000E+00  0.00000000000E+00  0.45593999997E+02  0.45594000000E+02  0.51100000000E-03 0. -1.
         11   -1    0    0    0    0 -0.00000000000E+00 -0.00000000000E+00 -0.45593999997E+02  0.45594000000E+02  0.51100000000E-03 0.  1.
         23    2    1    2    0    0  0.00000000000E+00 -0.83266726847E-16  0.00000000000E+00  0.91188000000E+02  0.91188000000E+02 0.  0.
    9900012    2    3    3    0    0  0.28231914907E+02 -0.20956059042E+00  0.23636709372E+02  0.54367096088E+02  0.40000027152E+02 0.  0.
        -12    1    3    3    0    0 -0.28231914907E+02  0.20956059042E+00 -0.23636709372E+02  0.36820903912E+02  0.00000000000E+00 0.  1.
         11    1    4    4    0    0  0.10572280963E+02  0.71072177523E+01  0.27360602597E+02  0.30180925163E+02  0.51100000000E-03 0. -1.
        -11    1    4    4    0    0 -0.12196304621E+01 -0.18030234590E+01 -0.39577018856E+01  0.45168347915E+01  0.51100000000E-03 0.  1.
         12    1    4    4    0    0  0.18879264406E+02 -0.55137548837E+01  0.23380866008E+00  0.19669336133E+02  0.00000000000E+00 0. -1.
</event>
<event>
 8    1  0.2493819E-006  0.9118800E+02  0.7816164E-02  0.1184000E+00
        -11   -1    0    0    0    0  0.00000000000E+00  0.00000000000E+00  0.45593999997E+02  0.45594000000E+02  0.51100000000E-03 0.  1.
         11   -1    0    0    0    0 -0.00000000000E+00 -0.00000000000E+00 -0.45593999997E+02  0.45594000000E+02  0.51100000000E-03 0. -1.
         23    2    1    2    0    0  0.00000000000E+00  0.00000000000E+00  0.00000000000E+00  0.91188000000E+02  0.91188000000E+02 0.  0.
    9900012    2    3    3    0    0 -0.77632956979E+01  0.34939937312E+02  0.86436457135E+01  0.54367074011E+02  0.39999976823E+02 0.  0.
        -12    1    3    3    0    0  0.77632956979E+01 -0.34939937312E+02 -0.86436457135E+01  0.36820925989E+02  0.00000000000E+00 0.  1.
         11    1    4    4    0    0 -0.13260770722E+02  0.67461263737E+01 -0.21151627666E+01  0.15027713564E+02  0.51100000000E-03 0. -1.
        -11    1    4    4    0    0 -0.34741861115E+01  0.97446889353E+01 -0.67632596707E+01  0.12360040988E+02  0.51100000000E-03 0.  1.
        -12    1    4    4    0    0  0.89716611351E+01  0.18449122003E+02  0.17522068151E+02  0.26979319459E+02  0.00000000000E+00 0.  1.
</event>
<event>
 8    1  0.2493819E-006  0.9118800E+02  0.7816164E-02  0.1184000E+00
        -11   -1    0    0    0    0  0.00000000000E+00  0.00000000000E+00  0.45593999997E+02  0.45594000000E+02  0.51100000000E-03 0.  1.
         11   -1    0    0    0    0 -0.00000000000E+00 -0.00000000000E+00 -0.45593999997E+02  0.45594000000E+02  0.51100000000E-03 0. -1.
         23    2    1    2    0    0  0.00000000000E+00  0.00000000000E+00  0.00000000000E+00  0.91188000000E+02  0.91188000000E+02 0.  0.
    9900012    2    3    3    0    0  0.55429021816E+01 -0.17826229760E+02 -0.31737720292E+02  0.54367066805E+02  0.39999960394E+02 0.  0.
        -12    1    3    3    0    0 -0.55429021816E+01  0.17826229760E+02  0.31737720292E+02  0.36820933195E+02  0.00000000000E+00 0.  1.
         11    1    4    4    0    0 -0.75785079487E+01  0.70218050734E+01 -0.96225657924E+01  0.14118544610E+02  0.51100000000E-03 0. -1.
        -11    1    4    4    0    0  0.67245061662E+01  0.82237219631E+00 -0.71667676574E+01  0.98619388623E+01  0.51100000000E-03 0.  1.
        -12    1    4    4    0    0  0.63969039641E+01 -0.25670407030E+02 -0.14948386842E+02  0.30386583332E+02  0.00000000000E+00 0.  1.
</event>
<event>
 8    1  0.2493819E-006  0.9118800E+02  0.7816164E-02  0.1184000E+00
        -11   -1    0    0    0    0  0.00000000000E+00  0.00000000000E+00  0.45593999997E+02  0.45594000000E+02  0.51100000000E-03 0.  1.
         11   -1    0    0    0    0 -0.00000000000E+00 -0.00000000000E+00 -0.45593999997E+02  0.45594000000E+02  0.51100000000E-03 0. -1.
         23    2    1    2    0    0  0.17763568394E-14 -0.35527136788E-14  0.00000000000E+00  0.91188000000E+02  0.91188000000E+02 0.  0.
    9900012    2    3    3    0    0 -0.13510257745E+02  0.30857910011E+02 -0.14867499644E+02  0.54367079042E+02  0.39999988292E+02 0.  0.
        -12    1    3    3    0    0  0.13510257745E+02 -0.30857910011E+02  0.14867499644E+02  0.36820920958E+02  0.00000000000E+00 0.  1.
         11    1    4    4    0    0 -0.14328556892E+01  0.25727435496E+02  0.20430453051E+01  0.25848172992E+02  0.51100000000E-03 0. -1.
        -11    1    4    4    0    0 -0.12836990508E+02  0.10336197737E+02 -0.16371693680E+02  0.23230532994E+02  0.51100000000E-03 0.  1.
         12    1    4    4    0    0  0.75958845223E+00 -0.52057232229E+01 -0.53885126830E+00  0.52883730560E+01  0.00000000000E+00 0. -1.
</event>
<event>
 8    1  0.2493819E-006  0.9118800E+02  0.7816164E-02  0.1184000E+00
        -11   -1    0    0    0    0  0.00000000000E+00  0.00000000000E+00  0.45593999997E+02  0.45594000000E+02  0.51100000000E-03 0.  1.
         11   -1    0    0    0    0 -0.00000000000E+00 -0.00000000000E+00 -0.45593999997E+02  0.45594000000E+02  0.51100000000E-03 0. -1.
         23    2    1    2    0    0  0.00000000000E+00  0.00000000000E+00 -0.35527136788E-14  0.91188000000E+02  0.91188000000E+02 0.  0.
    9900012    2    3    3    0    0  0.90820891748E+01 -0.26587228708E+02  0.23799438660E+02  0.54367104374E+02  0.40000046041E+02 0.  0.
         12    1    3    3    0    0 -0.90820891748E+01  0.26587228708E+02 -0.23799438660E+02  0.36820895626E+02  0.00000000000E+00 0. -1.
         11    1    4    4    0    0  0.68474618740E+01 -0.86084147712E+00  0.13367427068E+02  0.15043832252E+02  0.51100000000E-03 0. -1.
        -11    1    4    4    0    0 -0.99988425503E+00 -0.16411166661E+02  0.19790070553E+02  0.25728836982E+02  0.51100000000E-03 0.  1.
         12    1    4    4    0    0  0.32345115557E+01 -0.93152205703E+01 -0.93580589598E+01  0.13594435140E+02  0.00000000000E+00 0. -1.
</event>
<event>
 8    1  0.2493819E-006  0.9118800E+02  0.7816164E-02  0.1184000E+00
        -11   -1    0    0    0    0  0.00000000000E+00  0.00000000000E+00  0.45593999997E+02  0.45594000000E+02  0.51100000000E-03 0. -1.
         11   -1    0    0    0    0 -0.00000000000E+00 -0.00000000000E+00 -0.45593999997E+02  0.45594000000E+02  0.51100000000E-03 0.  1.
         23    2    1    2    0    0  0.00000000000E+00  0.00000000000E+00  0.35527136788E-14  0.91188000000E+02  0.91188000000E+02 0.  0.
    9900012    2    3    3    0    0  0.17914597377E+02  0.16107667681E+02 -0.27845847340E+02  0.54367068842E+02  0.39999965038E+02 0.  0.
         12    1    3    3    0    0 -0.17914597377E+02 -0.16107667681E+02  0.27845847340E+02  0.36820931158E+02  0.00000000000E+00 0. -1.
         11    1    4    4    0    0  0.24955419248E+01  0.99043241018E+01 -0.78077596112E+01  0.12856301016E+02  0.51100000000E-03 0. -1.
        -11    1    4    4    0    0  0.79186412165E+01  0.14729831787E+02 -0.24199994396E+02  0.29416195407E+02  0.51100000000E-03 0.  1.
         12    1    4    4    0    0  0.75004142362E+01 -0.85264882078E+01  0.41619066678E+01  0.12094572418E+02  0.00000000000E+00 0. -1.
</event>
<event>
 8    1  0.2493819E-006  0.9118800E+02  0.7816164E-02  0.1184000E+00
        -11   -1    0    0    0    0  0.00000000000E+00  0.00000000000E+00  0.45593999997E+02  0.45594000000E+02  0.51100000000E-03 0. -1.
         11   -1    0    0    0    0 -0.00000000000E+00 -0.00000000000E+00 -0.45593999997E+02  0.45594000000E+02  0.51100000000E-03 0.  1.
         23    2    1    2    0    0  0.17763568394E-14 -0.71054273576E-14  0.00000000000E+00  0.91188000000E+02  0.91188000000E+02 0.  0.
    9900012    2    3    3    0    0  0.10428953018E+02 -0.33330824166E+02 -0.11665012463E+02  0.54367089957E+02  0.40000013175E+02 0.  0.
        -12    1    3    3    0    0 -0.10428953018E+02  0.33330824166E+02  0.11665012463E+02  0.36820910043E+02  0.00000000000E+00 0.  1.
         11    1    4    4    0    0 -0.53600774336E+01 -0.13178643975E+02 -0.10013888603E+02  0.17397846198E+02  0.51100000000E-03 0. -1.
        -11    1    4    4    0    0  0.98224508203E+00 -0.14839920680E+02 -0.11154472889E+02  0.18590597540E+02  0.51100000000E-03 0.  1.
        -12    1    4    4    0    0  0.14806785370E+02 -0.53122595105E+01  0.95033490289E+01  0.18378646219E+02  0.00000000000E+00 0.  1.
</event>
<event>
 8    1  0.2493819E-006  0.9118800E+02  0.7816164E-02  0.1184000E+00
        -11   -1    0    0    0    0  0.00000000000E+00  0.00000000000E+00  0.45593999997E+02  0.45594000000E+02  0.51100000000E-03 0.  1.
         11   -1    0    0    0    0 -0.00000000000E+00 -0.00000000000E+00 -0.45593999997E+02  0.45594000000E+02  0.51100000000E-03 0. -1.
         23    2    1    2    0    0  0.00000000000E+00 -0.33306690739E-15  0.35527136788E-14  0.91188000000E+02  0.91188000000E+02 0.  0.
    9900012    2    3    3    0    0 -0.25421915029E+02 -0.64535730201E+00 -0.26628733365E+02  0.54367086236E+02  0.40000004692E+02 0.  0.
        -12    1    3    3    0    0  0.25421915029E+02  0.64535730201E+00  0.26628733365E+02  0.36820913764E+02  0.00000000000E+00 0.  1.
         11    1    4    4    0    0 -0.10058650788E+01  0.59599088400E+01 -0.38802734608E+00  0.60566363124E+01  0.51100000000E-03 0. -1.
        -11    1    4    4    0    0 -0.22950346107E+02  0.33392876249E+01 -0.35097229747E+01  0.23456073497E+02  0.51100000000E-03 0.  1.
        -12    1    4    4    0    0 -0.14657038428E+01 -0.99445537669E+01 -0.22730983044E+02  0.24854376426E+02  0.00000000000E+00 0.  1.
</event>
<event>
 8    1  0.2493819E-006  0.9118800E+02  0.7816164E-02  0.1184000E+00
        -11   -1    0    0    0    0  0.00000000000E+00  0.00000000000E+00  0.45593999997E+02  0.45594000000E+02  0.51100000000E-03 0.  1.
         11   -1    0    0    0    0 -0.00000000000E+00 -0.00000000000E+00 -0.45593999997E+02  0.45594000000E+02  0.51100000000E-03 0. -1.
         23    2    1    2    0    0  0.35527136788E-14  0.00000000000E+00  0.00000000000E+00  0.91188000000E+02  0.91188000000E+02 0.  0.
    9900012    2    3    3    0    0 -0.16890680379E+02 -0.13996895851E+02  0.29573143832E+02  0.54367095431E+02  0.40000025655E+02 0.  0.
         12    1    3    3    0    0  0.16890680379E+02  0.13996895851E+02 -0.29573143832E+02  0.36820904569E+02  0.00000000000E+00 0. -1.
         11    1    4    4    0    0  0.16995798200E+01 -0.34392696766E+01  0.10115870769E+01  0.39674243721E+01  0.51100000000E-03 0. -1.
        -11    1    4    4    0    0 -0.28141302007E+02 -0.13388360788E+02  0.18501874455E+02  0.36242246645E+02  0.51100000000E-03 0.  1.
        -12    1    4    4    0    0  0.95510418085E+01  0.28307346130E+01  0.10059682300E+02  0.14157424415E+02  0.00000000000E+00 0.  1.
</event>
<event>
 8    1  0.2493819E-006  0.9118800E+02  0.7816164E-02  0.1184000E+00
        -11   -1    0    0    0    0  0.00000000000E+00  0.00000000000E+00  0.45593999997E+02  0.45594000000E+02  0.51100000000E-03 0.  1.
         11   -1    0    0    0    0 -0.00000000000E+00 -0.00000000000E+00 -0.45593999997E+02  0.45594000000E+02  0.51100000000E-03 0. -1.
         23    2    1    2    0    0  0.35527136788E-14 -0.17763568394E-14  0.00000000000E+00  0.91188000000E+02  0.91188000000E+02 0.  0.
    9900012    2    3    3    0    0 -0.31927394247E+02 -0.11356734305E+02 -0.14402971218E+02  0.54367088857E+02  0.40000010667E+02 0.  0.
        -12    1    3    3    0    0  0.31927394247E+02  0.11356734305E+02  0.14402971218E+02  0.36820911143E+02  0.00000000000E+00 0.  1.
         11    1    4    4    0    0  0.16592038840E+01 -0.51112742493E+01 -0.74656328830E+01  0.91985736169E+01  0.51100000000E-03 0. -1.
        -11    1    4    4    0    0 -0.16136793035E+02 -0.16393614221E+02 -0.93658950092E+01  0.24836800645E+02  0.51100000000E-03 0.  1.
        -12    1    4    4    0    0 -0.17449805096E+02  0.10148154165E+02  0.24285566742E+01  0.20331714595E+02  0.00000000000E+00 0.  1.
</event>
<event>
 8    1  0.2493819E-006  0.9118800E+02  0.7816164E-02  0.1184000E+00
        -11   -1    0    0    0    0  0.00000000000E+00  0.00000000000E+00  0.45593999997E+02  0.45594000000E+02  0.51100000000E-03 0.  1.
         11   -1    0    0    0    0 -0.00000000000E+00 -0.00000000000E+00 -0.45593999997E+02  0.45594000000E+02  0.51100000000E-03 0. -1.
         23    2    1    2    0    0  0.00000000000E+00  0.17763568394E-14  0.00000000000E+00  0.91188000000E+02  0.91188000000E+02 0.  0.
    9900012    2    3    3    0    0  0.34372257260E+02 -0.91133037001E+01  0.95534825197E+01  0.54367171632E+02  0.40000199368E+02 0.  0.
         12    1    3    3    0    0 -0.34372257260E+02  0.91133037001E+01 -0.95534825197E+01  0.36820828368E+02  0.00000000000E+00 0. -1.
         11    1    4    4    0    0 -0.32534025227E+01  0.18358928191E+01 -0.34263919736E+01  0.50690524396E+01  0.51100000000E-03 0. -1.
        -11    1    4    4    0    0  0.30095892376E+02 -0.55632623394E+01  0.20944181338E+02  0.37085999487E+02  0.51100000000E-03 0.  1.
        -12    1    4    4    0    0  0.75297674067E+01 -0.53859341798E+01 -0.79643068443E+01  0.12212119705E+02  0.00000000000E+00 0.  1.
</event>
<event>
 8    1  0.2493819E-006  0.9118800E+02  0.7816164E-02  0.1184000E+00
        -11   -1    0    0    0    0  0.00000000000E+00  0.00000000000E+00  0.45593999997E+02  0.45594000000E+02  0.51100000000E-03 0.  1.
         11   -1    0    0    0    0 -0.00000000000E+00 -0.00000000000E+00 -0.45593999997E+02  0.45594000000E+02  0.51100000000E-03 0. -1.
         23    2    1    2    0    0  0.00000000000E+00  0.00000000000E+00  0.00000000000E+00  0.91188000000E+02  0.91188000000E+02 0.  0.
    9900012    2    3    3    0    0 -0.14653013744E+02 -0.26622613644E+02 -0.20792090170E+02  0.54367008940E+02  0.39999828480E+02 0.  0.
         12    1    3    3    0    0  0.14653013744E+02  0.26622613644E+02  0.20792090170E+02  0.36820991060E+02  0.00000000000E+00 0. -1.
         11    1    4    4    0    0  0.67803053500E+01 -0.75434515931E+01  0.49844395644E+01  0.11301364546E+02  0.51100000000E-03 0. -1.
        -11    1    4    4    0    0 -0.60538064947E+01 -0.15938688665E+02 -0.20139425419E+02  0.26387247411E+02  0.51100000000E-03 0.  1.
         12    1    4    4    0    0 -0.15379512599E+02 -0.31404733859E+01 -0.56371043150E+01  0.16678396983E+02  0.00000000000E+00 0. -1.
</event>
<event>
 8    1  0.2493819E-006  0.9118800E+02  0.7816164E-02  0.1184000E+00
        -11   -1    0    0    0    0  0.00000000000E+00  0.00000000000E+00  0.45593999997E+02  0.45594000000E+02  0.51100000000E-03 0. -1.
         11   -1    0    0    0    0 -0.00000000000E+00 -0.00000000000E+00 -0.45593999997E+02  0.45594000000E+02  0.51100000000E-03 0.  1.
         23    2    1    2    0    0  0.00000000000E+00  0.00000000000E+00  0.00000000000E+00  0.91188000000E+02  0.91188000000E+02 0.  0.
    9900012    2    3    3    0    0  0.27544808763E+02  0.12942614252E+02  0.20725634788E+02  0.54367086230E+02  0.40000004678E+02 0.  0.
        -12    1    3    3    0    0 -0.27544808763E+02 -0.12942614252E+02 -0.20725634788E+02  0.36820913770E+02  0.00000000000E+00 0.  1.
         11    1    4    4    0    0  0.14772983834E+02  0.74423024785E+01  0.21471892060E+02  0.27104816296E+02  0.51100000000E-03 0. -1.
        -11    1    4    4    0    0  0.82219903751E+00  0.38047435809E+01 -0.10846802888E+02  0.11524114636E+02  0.51100000000E-03 0.  1.
        -12    1    4    4    0    0  0.11949625891E+02  0.16955681931E+01  0.10100545617E+02  0.15738155298E+02  0.00000000000E+00 0.  1.
</event>
<event>
 8    1  0.2493819E-006  0.9118800E+02  0.7816164E-02  0.1184000E+00
        -11   -1    0    0    0    0  0.00000000000E+00  0.00000000000E+00  0.45593999997E+02  0.45594000000E+02  0.51100000000E-03 0.  1.
         11   -1    0    0    0    0 -0.00000000000E+00 -0.00000000000E+00 -0.45593999997E+02  0.45594000000E+02  0.51100000000E-03 0. -1.
         23    2    1    2    0    0 -0.17763568394E-14  0.00000000000E+00  0.35527136788E-14  0.91188000000E+02  0.91188000000E+02 0.  0.
    9900012    2    3    3    0    0  0.99612794966E+01  0.18466694663E+02 -0.30257826901E+02  0.54367055013E+02  0.39999933513E+02 0.  0.
        -12    1    3    3    0    0 -0.99612794966E+01 -0.18466694663E+02  0.30257826901E+02  0.36820944987E+02  0.00000000000E+00 0.  1.
         11    1    4    4    0    0  0.17775204726E+02  0.78007118396E+01 -0.34340724533E+01  0.19712987143E+02  0.51100000000E-03 0. -1.
        -11    1    4    4    0    0 -0.43009643929E+01  0.59737419705E+01 -0.16951244609E+00  0.73629221488E+01  0.51100000000E-03 0.  1.
         12    1    4    4    0    0 -0.35129608362E+01  0.46922408527E+01 -0.26654242002E+02  0.27291145721E+02  0.00000000000E+00 0. -1.
</event>
<event>
 8    1  0.2493819E-006  0.9118800E+02  0.7816164E-02  0.1184000E+00
        -11   -1    0    0    0    0  0.00000000000E+00  0.00000000000E+00  0.45593999997E+02  0.45594000000E+02  0.51100000000E-03 0.  1.
         11   -1    0    0    0    0 -0.00000000000E+00 -0.00000000000E+00 -0.45593999997E+02  0.45594000000E+02  0.51100000000E-03 0. -1.
         23    2    1    2    0    0  0.00000000000E+00  0.35527136788E-14  0.00000000000E+00  0.91188000000E+02  0.91188000000E+02 0.  0.
    9900012    2    3    3    0    0  0.26327326971E+02  0.25434284414E+02  0.39681600838E+01  0.54367119191E+02  0.40000079819E+02 0.  0.
         12    1    3    3    0    0 -0.26327326971E+02 -0.25434284414E+02 -0.39681600838E+01  0.36820880809E+02  0.00000000000E+00 0. -1.
         11    1    4    4    0    0 -0.16153135398E+00 -0.30765427009E+01  0.67242919758E+01  0.73964390220E+01  0.51100000000E-03 0. -1.
        -11    1    4    4    0    0  0.98739632725E+01 -0.13833076955E+01 -0.74536303104E+01  0.12448505772E+02  0.51100000000E-03 0.  1.
        -12    1    4    4    0    0  0.16614895053E+02  0.29894134811E+02  0.46974984183E+01  0.34522174397E+02  0.00000000000E+00 0.  1.
</event>
<event>
 8    1  0.2493819E-006  0.9118800E+02  0.7816164E-02  0.1184000E+00
        -11   -1    0    0    0    0  0.00000000000E+00  0.00000000000E+00  0.45593999997E+02  0.45594000000E+02  0.51100000000E-03 0.  1.
         11   -1    0    0    0    0 -0.00000000000E+00 -0.00000000000E+00 -0.45593999997E+02  0.45594000000E+02  0.51100000000E-03 0. -1.
         23    2    1    2    0    0 -0.44408920985E-15  0.00000000000E+00  0.00000000000E+00  0.91188000000E+02  0.91188000000E+02 0.  0.
    9900012    2    3    3    0    0 -0.35947452004E+01  0.22918274900E+02  0.28593871183E+02  0.54367095792E+02  0.40000026478E+02 0.  0.
         12    1    3    3    0    0  0.35947452004E+01 -0.22918274900E+02 -0.28593871183E+02  0.36820904208E+02  0.00000000000E+00 0. -1.
         11    1    4    4    0    0  0.11085527152E+02 -0.75632790090E+00  0.38864192995E+01  0.11771372025E+02  0.51100000000E-03 0. -1.
        -11    1    4    4    0    0 -0.29715669858E+00  0.19188971106E+02  0.17161430259E+02  0.25745283121E+02  0.51100000000E-03 0.  1.
        -12    1    4    4    0    0 -0.14383115653E+02  0.44856316947E+01  0.75460216246E+01  0.16850440646E+02  0.00000000000E+00 0.  1.
</event>
<event>
 8    1  0.2493819E-006  0.9118800E+02  0.7816164E-02  0.1184000E+00
        -11   -1    0    0    0    0  0.00000000000E+00  0.00000000000E+00  0.45593999997E+02  0.45594000000E+02  0.51100000000E-03 0.  1.
         11   -1    0    0    0    0 -0.00000000000E+00 -0.00000000000E+00 -0.45593999997E+02  0.45594000000E+02  0.51100000000E-03 0. -1.
         23    2    1    2    0    0  0.00000000000E+00  0.35527136788E-14 -0.71054273576E-14  0.91188000000E+02  0.91188000000E+02 0.  0.
    9900012    2    3    3    0    0  0.16634729810E+02  0.19587518076E+02 -0.26370326924E+02  0.54367092321E+02  0.40000018564E+02 0.  0.
        -12    1    3    3    0    0 -0.16634729810E+02 -0.19587518076E+02  0.26370326924E+02  0.36820907679E+02  0.00000000000E+00 0.  1.
         11    1    4    4    0    0  0.23610614572E+02  0.20095178154E+02 -0.27851784627E+02  0.41677322522E+02  0.51100000000E-03 0. -1.
        -11    1    4    4    0    0  0.58524201694E+00  0.71232064363E+00 -0.34562857894E+01  0.35771246325E+01  0.51100000000E-03 0.  1.
        -12    1    4    4    0    0 -0.75611267789E+01 -0.12199807212E+01  0.49377434919E+01  0.91126451658E+01  0.00000000000E+00 0.  1.
</event>
<event>
 8    1  0.2493819E-006  0.9118800E+02  0.7816164E-02  0.1184000E+00
        -11   -1    0    0    0    0  0.00000000000E+00  0.00000000000E+00  0.45593999997E+02  0.45594000000E+02  0.51100000000E-03 0.  1.
         11   -1    0    0    0    0 -0.00000000000E+00 -0.00000000000E+00 -0.45593999997E+02  0.45594000000E+02  0.51100000000E-03 0. -1.
         23    2    1    2    0    0 -0.71054273576E-14  0.88817841970E-15 -0.71054273576E-14  0.91188000000E+02  0.91188000000E+02 0.  0.
    9900012    2    3    3    0    0 -0.17036357876E+02  0.50190747989E+01 -0.32254393930E+02  0.54367156320E+02  0.40000164463E+02 0.  0.
        -12    1    3    3    0    0  0.17036357876E+02 -0.50190747989E+01  0.32254393930E+02  0.36820843680E+02  0.00000000000E+00 0.  1.
         11    1    4    4    0    0  0.74513400334E+01  0.43725950353E+00 -0.13720958496E+02  0.15619806864E+02  0.51100000000E-03 0. -1.
        -11    1    4    4    0    0 -0.19863488724E+01 -0.14898293758E+01  0.50272638913E+01  0.56070095332E+01  0.51100000000E-03 0.  1.
         12    1    4    4    0    0 -0.22501349037E+02  0.60716446711E+01 -0.23560699325E+02  0.33140339923E+02  0.00000000000E+00 0. -1.
</event>
<event>
 8    1  0.2493819E-006  0.9118800E+02  0.7816164E-02  0.1184000E+00
        -11   -1    0    0    0    0  0.00000000000E+00  0.00000000000E+00  0.45593999997E+02  0.45594000000E+02  0.51100000000E-03 0. -1.
         11   -1    0    0    0    0 -0.00000000000E+00 -0.00000000000E+00 -0.45593999997E+02  0.45594000000E+02  0.51100000000E-03 0.  1.
         23    2    1    2    0    0  0.35527136788E-14  0.00000000000E+00  0.88817841970E-15  0.91188000000E+02  0.91188000000E+02 0.  0.
    9900012    2    3    3    0    0 -0.29521790849E+02  0.21437849703E+02 -0.49660490211E+01  0.54367093199E+02  0.40000020565E+02 0.  0.
         12    1    3    3    0    0  0.29521790849E+02 -0.21437849703E+02  0.49660490211E+01  0.36820906801E+02  0.00000000000E+00 0. -1.
         11    1    4    4    0    0 -0.14549817110E+01 -0.71659511234E+01 -0.74190655623E+01  0.10416830677E+02  0.51100000000E-03 0. -1.
        -11    1    4    4    0    0 -0.48698282046E+01  0.38049101858E+01 -0.63601182728E+01  0.88681268016E+01  0.51100000000E-03 0.  1.
         12    1    4    4    0    0 -0.23196980933E+02  0.24798890641E+02  0.88131348140E+01  0.35082135720E+02  0.00000000000E+00 0. -1.
</event>
<event>
 8    1  0.2493819E-006  0.9118800E+02  0.7816164E-02  0.1184000E+00
        -11   -1    0    0    0    0  0.00000000000E+00  0.00000000000E+00  0.45593999997E+02  0.45594000000E+02  0.51100000000E-03 0.  1.
         11   -1    0    0    0    0 -0.00000000000E+00 -0.00000000000E+00 -0.45593999997E+02  0.45594000000E+02  0.51100000000E-03 0. -1.
         23    2    1    2    0    0 -0.35527136788E-14  0.00000000000E+00  0.00000000000E+00  0.91188000000E+02  0.91188000000E+02 0.  0.
    9900012    2    3    3    0    0  0.28626883599E+02  0.93800110735E+01 -0.21172991290E+02  0.54367100602E+02  0.40000037442E+02 0.  0.
        -12    1    3    3    0    0 -0.28626883599E+02 -0.93800110735E+01  0.21172991290E+02  0.36820899398E+02  0.00000000000E+00 0.  1.
         11    1    4    4    0    0 -0.51031176861E+01  0.16754051573E+01 -0.66441838029E+01  0.85436509308E+01  0.51100000000E-03 0. -1.
        -11    1    4    4    0    0  0.10256775154E+02 -0.23777646394E-01  0.75090403709E+01  0.12711714656E+02  0.51100000000E-03 0.  1.
         12    1    4    4    0    0  0.23473226131E+02  0.77283835626E+01 -0.22037847858E+02  0.33111735015E+02  0.00000000000E+00 0. -1.
</event>
<event>
 8    1  0.2493819E-006  0.9118800E+02  0.7816164E-02  0.1184000E+00
        -11   -1    0    0    0    0  0.00000000000E+00  0.00000000000E+00  0.45593999997E+02  0.45594000000E+02  0.51100000000E-03 0. -1.
         11   -1    0    0    0    0 -0.00000000000E+00 -0.00000000000E+00 -0.45593999997E+02  0.45594000000E+02  0.51100000000E-03 0.  1.
         23    2    1    2    0    0  0.00000000000E+00  0.00000000000E+00 -0.35527136788E-14  0.91188000000E+02  0.91188000000E+02 0.  0.
    9900012    2    3    3    0    0  0.35423966802E+02 -0.93151871074E+01  0.37615450683E+01  0.54367090776E+02  0.40000015041E+02 0.  0.
         12    1    3    3    0    0 -0.35423966802E+02  0.93151871074E+01 -0.37615450683E+01  0.36820909224E+02  0.00000000000E+00 0. -1.
         11    1    4    4    0    0  0.86442697921E+01  0.88068964606E+01  0.81071647707E+01  0.14765193747E+02  0.51100000000E-03 0. -1.
        -11    1    4    4    0    0  0.11370975830E+02 -0.27088557047E+01 -0.11759692519E+02  0.16580933598E+02  0.51100000000E-03 0.  1.
        -12    1    4    4    0    0  0.15408721179E+02 -0.15413227863E+02  0.74140728170E+01  0.23020963431E+02  0.00000000000E+00 0.  1.
</event>
<event>
 8    1  0.2493819E-006  0.9118800E+02  0.7816164E-02  0.1184000E+00
        -11   -1    0    0    0    0  0.00000000000E+00  0.00000000000E+00  0.45593999997E+02  0.45594000000E+02  0.51100000000E-03 0. -1.
         11   -1    0    0    0    0 -0.00000000000E+00 -0.00000000000E+00 -0.45593999997E+02  0.45594000000E+02  0.51100000000E-03 0.  1.
         23    2    1    2    0    0  0.00000000000E+00 -0.13322676296E-14 -0.17763568394E-14  0.91188000000E+02  0.91188000000E+02 0.  0.
    9900012    2    3    3    0    0  0.36561007149E+02 -0.36830669729E+01 -0.23470053116E+01  0.54367073069E+02  0.39999974676E+02 0.  0.
        -12    1    3    3    0    0 -0.36561007149E+02  0.36830669729E+01  0.23470053116E+01  0.36820926931E+02  0.00000000000E+00 0.  1.
         11    1    4    4    0    0  0.15879896726E+02  0.11387837593E+02 -0.12345738062E+02  0.23114307552E+02  0.51100000000E-03 0. -1.
        -11    1    4    4    0    0  0.14324724265E+02 -0.48475366386E+01  0.11666030480E+02  0.19099544606E+02  0.51100000000E-03 0.  1.
        -12    1    4    4    0    0  0.63563861589E+01 -0.10223367927E+02 -0.16672977297E+01  0.12153220911E+02  0.00000000000E+00 0.  1.
</event>
<event>
 8    1  0.2493819E-006  0.9118800E+02  0.7816164E-02  0.1184000E+00
        -11   -1    0    0    0    0  0.00000000000E+00  0.00000000000E+00  0.45593999997E+02  0.45594000000E+02  0.51100000000E-03 0.  1.
         11   -1    0    0    0    0 -0.00000000000E+00 -0.00000000000E+00 -0.45593999997E+02  0.45594000000E+02  0.51100000000E-03 0. -1.
         23    2    1    2    0    0  0.00000000000E+00  0.00000000000E+00  0.17763568394E-14  0.91188000000E+02  0.91188000000E+02 0.  0.
    9900012    2    3    3    0    0 -0.31513853127E+02 -0.16836611961E+02 -0.88985860560E+01  0.54367091876E+02  0.40000017550E+02 0.  0.
        -12    1    3    3    0    0  0.31513853127E+02  0.16836611961E+02  0.88985860560E+01  0.36820908124E+02  0.00000000000E+00 0.  1.
         11    1    4    4    0    0 -0.34659527532E+01  0.61305123060E+01  0.50641104765E+01  0.86741699777E+01  0.51100000000E-03 0. -1.
        -11    1    4    4    0    0 -0.13564047742E+02 -0.75856380520E+01  0.59684353164E+01  0.16647748081E+02  0.51100000000E-03 0.  1.
         12    1    4    4    0    0 -0.14483852633E+02 -0.15381486216E+02 -0.19931131849E+02  0.29045173817E+02  0.00000000000E+00 0. -1.
</event>
<event>
 8    1  0.2493819E-006  0.9118800E+02  0.7816164E-02  0.1184000E+00
        -11   -1    0    0    0    0  0.00000000000E+00  0.00000000000E+00  0.45593999997E+02  0.45594000000E+02  0.51100000000E-03 0. -1.
         11   -1    0    0    0    0 -0.00000000000E+00 -0.00000000000E+00 -0.45593999997E+02  0.45594000000E+02  0.51100000000E-03 0.  1.
         23    2    1    2    0    0  0.00000000000E+00  0.00000000000E+00  0.35527136788E-14  0.91188000000E+02  0.91188000000E+02 0.  0.
    9900012    2    3    3    0    0 -0.22315268504E+02 -0.57440052652E+01 -0.28719618996E+02  0.54367064106E+02  0.39999954242E+02 0.  0.
         12    1    3    3    0    0  0.22315268504E+02  0.57440052652E+01  0.28719618996E+02  0.36820935894E+02  0.00000000000E+00 0. -1.
         11    1    4    4    0    0 -0.23524493323E+02  0.38203160233E+01 -0.15695616775E+02  0.28536800571E+02  0.51100000000E-03 0. -1.
        -11    1    4    4    0    0 -0.92376576724E+01 -0.27242548790E+01 -0.40235329318E+01  0.10437657852E+02  0.51100000000E-03 0.  1.
         12    1    4    4    0    0  0.10446882492E+02 -0.68400664095E+01 -0.90004692894E+01  0.15392605683E+02  0.00000000000E+00 0. -1.
</event>
<event>
 8    1  0.2493819E-006  0.9118800E+02  0.7816164E-02  0.1184000E+00
        -11   -1    0    0    0    0  0.00000000000E+00  0.00000000000E+00  0.45593999997E+02  0.45594000000E+02  0.51100000000E-03 0. -1.
         11   -1    0    0    0    0 -0.00000000000E+00 -0.00000000000E+00 -0.45593999997E+02  0.45594000000E+02  0.51100000000E-03 0.  1.
         23    2    1    2    0    0  0.77715611724E-15 -0.88817841970E-15  0.00000000000E+00  0.91188000000E+02  0.91188000000E+02 0.  0.
    9900012    2    3    3    0    0  0.22404143791E+00 -0.65621681903E+01 -0.36230762786E+02  0.54367076356E+02  0.39999982169E+02 0.  0.
         12    1    3    3    0    0 -0.22404143791E+00  0.65621681903E+01  0.36230762786E+02  0.36820923644E+02  0.00000000000E+00 0. -1.
         11    1    4    4    0    0 -0.28475027164E+01  0.96077386293E+00  0.14532283817E+01  0.33381478586E+01  0.51100000000E-03 0. -1.
        -11    1    4    4    0    0  0.67444711426E+01  0.27889228629E+01  0.37274779204E+01  0.81951249922E+01  0.51100000000E-03 0.  1.
        -12    1    4    4    0    0 -0.36729269883E+01 -0.10311864916E+02 -0.41411469088E+02  0.42833803505E+02  0.00000000000E+00 0.  1.
</event>
<event>
 8    1  0.2493819E-006  0.9118800E+02  0.7816164E-02  0.1184000E+00
        -11   -1    0    0    0    0  0.00000000000E+00  0.00000000000E+00  0.45593999997E+02  0.45594000000E+02  0.51100000000E-03 0. -1.
         11   -1    0    0    0    0 -0.00000000000E+00 -0.00000000000E+00 -0.45593999997E+02  0.45594000000E+02  0.51100000000E-03 0.  1.
         23    2    1    2    0    0  0.15543122345E-14 -0.44408920985E-15  0.00000000000E+00  0.91188000000E+02  0.91188000000E+02 0.  0.
    9900012    2    3    3    0    0 -0.17549799870E+01  0.27557613915E+01 -0.36675680770E+02  0.54367085623E+02  0.40000003294E+02 0.  0.
         12    1    3    3    0    0  0.17549799870E+01 -0.27557613915E+01  0.36675680770E+02  0.36820914377E+02  0.00000000000E+00 0. -1.
         11    1    4    4    0    0 -0.48321690389E+01 -0.28226361969E+01  0.27241234641E+00  0.56027976466E+01  0.51100000000E-03 0. -1.
        -11    1    4    4    0    0  0.15403342606E+02  0.25680603294E+01 -0.31084443569E+02  0.34786499243E+02  0.51100000000E-03 0.  1.
        -12    1    4    4    0    0 -0.12326153554E+02  0.30103372590E+01 -0.58636495475E+01  0.13977788733E+02  0.00000000000E+00 0.  1.
</event>
<event>
 8    1  0.2493819E-006  0.9118800E+02  0.7816164E-02  0.1184000E+00
        -11   -1    0    0    0    0  0.00000000000E+00  0.00000000000E+00  0.45593999997E+02  0.45594000000E+02  0.51100000000E-03 0. -1.
         11   -1    0    0    0    0 -0.00000000000E+00 -0.00000000000E+00 -0.45593999997E+02  0.45594000000E+02  0.51100000000E-03 0.  1.
         23    2    1    2    0    0  0.00000000000E+00  0.00000000000E+00 -0.17763568394E-14  0.91188000000E+02  0.91188000000E+02 0.  0.
    9900012    2    3    3    0    0 -0.11255355368E+02 -0.32592558731E+02 -0.12915849831E+02  0.54367121603E+02  0.40000085317E+02 0.  0.
         12    1    3    3    0    0  0.11255355368E+02  0.32592558731E+02  0.12915849831E+02  0.36820878397E+02  0.00000000000E+00 0. -1.
         11    1    4    4    0    0 -0.10341276679E+02 -0.77022617649E+01 -0.98133184003E+01  0.16203951924E+02  0.51100000000E-03 0. -1.
        -11    1    4    4    0    0 -0.10327988867E+01 -0.20144181480E+02 -0.15141817013E+02  0.25221604703E+02  0.51100000000E-03 0.  1.
         12    1    4    4    0    0  0.11872019795E+00 -0.47461154860E+01  0.12039285583E+02  0.12941564976E+02  0.00000000000E+00 0. -1.
</event>
<event>
 8    1  0.2493819E-006  0.9118800E+02  0.7816164E-02  0.1184000E+00
        -11   -1    0    0    0    0  0.00000000000E+00  0.00000000000E+00  0.45593999997E+02  0.45594000000E+02  0.51100000000E-03 0. -1.
         11   -1    0    0    0    0 -0.00000000000E+00 -0.00000000000E+00 -0.45593999997E+02  0.45594000000E+02  0.51100000000E-03 0.  1.
         23    2    1    2    0    0  0.35527136788E-14  0.71054273576E-14  0.88817841970E-15  0.91188000000E+02  0.91188000000E+02 0.  0.
    9900012    2    3    3    0    0 -0.25439397121E+02 -0.26499954897E+02 -0.25243749526E+01  0.54367041236E+02  0.39999902105E+02 0.  0.
        -12    1    3    3    0    0  0.25439397121E+02  0.26499954897E+02  0.25243749526E+01  0.36820958764E+02  0.00000000000E+00 0.  1.
         11    1    4    4    0    0 -0.22808809733E+02 -0.62627268835E+01  0.48490790077E+01  0.24144919071E+02  0.51100000000E-03 0. -1.
        -11    1    4    4    0    0 -0.96627833024E+01 -0.35045274311E+01  0.81344605496E+00  0.10310809299E+02  0.51100000000E-03 0.  1.
        -12    1    4    4    0    0  0.70321959145E+01 -0.16732700582E+02 -0.81869000153E+01  0.19911312865E+02  0.00000000000E+00 0.  1.
</event>
<event>
 8    1  0.2493819E-006  0.9118800E+02  0.7816164E-02  0.1184000E+00
        -11   -1    0    0    0    0  0.00000000000E+00  0.00000000000E+00  0.45593999997E+02  0.45594000000E+02  0.51100000000E-03 0.  1.
         11   -1    0    0    0    0 -0.00000000000E+00 -0.00000000000E+00 -0.45593999997E+02  0.45594000000E+02  0.51100000000E-03 0. -1.
         23    2    1    2    0    0  0.00000000000E+00  0.00000000000E+00  0.35527136788E-14  0.91188000000E+02  0.91188000000E+02 0.  0.
    9900012    2    3    3    0    0  0.13771750498E+02  0.13672915101E+02  0.31291750561E+02  0.54367036239E+02  0.39999890713E+02 0.  0.
         12    1    3    3    0    0 -0.13771750498E+02 -0.13672915101E+02 -0.31291750561E+02  0.36820963761E+02  0.00000000000E+00 0. -1.
         11    1    4    4    0    0  0.76377637241E+01 -0.70306088363E+01  0.64862310431E+01  0.12240755235E+02  0.51100000000E-03 0. -1.
        -11    1    4    4    0    0 -0.45468887778E+01  0.17119175040E+02  0.35433079088E+01  0.18063648104E+02  0.51100000000E-03 0.  1.
        -12    1    4    4    0    0  0.10680875551E+02  0.35843488968E+01  0.21262211609E+02  0.24062632900E+02  0.00000000000E+00 0.  1.
</event>
<event>
 8    1  0.2493819E-006  0.9118800E+02  0.7816164E-02  0.1184000E+00
        -11   -1    0    0    0    0  0.00000000000E+00  0.00000000000E+00  0.45593999997E+02  0.45594000000E+02  0.51100000000E-03 0.  1.
         11   -1    0    0    0    0 -0.00000000000E+00 -0.00000000000E+00 -0.45593999997E+02  0.45594000000E+02  0.51100000000E-03 0. -1.
         23    2    1    2    0    0  0.17763568394E-14  0.88817841970E-15  0.00000000000E+00  0.91188000000E+02  0.91188000000E+02 0.  0.
    9900012    2    3    3    0    0 -0.10733795231E+02 -0.64587612090E+01 -0.34624413501E+02  0.54367082484E+02  0.39999996138E+02 0.  0.
        -12    1    3    3    0    0  0.10733795231E+02  0.64587612090E+01  0.34624413501E+02  0.36820917516E+02  0.00000000000E+00 0.  1.
         11    1    4    4    0    0 -0.47949173290E+01 -0.43302577912E+01 -0.23062786010E+01  0.68601228835E+01  0.51100000000E-03 0. -1.
        -11    1    4    4    0    0 -0.84360467501E+01 -0.80313442309E+01  0.26590588244E+01  0.11947383354E+02  0.51100000000E-03 0.  1.
         12    1    4    4    0    0  0.24971688476E+01  0.59028408131E+01 -0.34977193725E+02  0.35559576246E+02  0.00000000000E+00 0. -1.
</event>
<event>
 8    1  0.2493819E-006  0.9118800E+02  0.7816164E-02  0.1184000E+00
        -11   -1    0    0    0    0  0.00000000000E+00  0.00000000000E+00  0.45593999997E+02  0.45594000000E+02  0.51100000000E-03 0.  1.
         11   -1    0    0    0    0 -0.00000000000E+00 -0.00000000000E+00 -0.45593999997E+02  0.45594000000E+02  0.51100000000E-03 0. -1.
         23    2    1    2    0    0  0.88817841970E-15  0.17763568394E-14 -0.71054273576E-14  0.91188000000E+02  0.91188000000E+02 0.  0.
    9900012    2    3    3    0    0  0.61717752781E+01  0.14511481025E+02 -0.33273203649E+02  0.54367082403E+02  0.39999995954E+02 0.  0.
        -12    1    3    3    0    0 -0.61717752781E+01 -0.14511481025E+02  0.33273203649E+02  0.36820917597E+02  0.00000000000E+00 0.  1.
         11    1    4    4    0    0 -0.47148688518E+01  0.70332894611E+01 -0.27249270998E+02  0.28534539055E+02  0.51100000000E-03 0. -1.
        -11    1    4    4    0    0  0.11331660784E+02  0.11842442755E+02 -0.10579341646E+02  0.19508266362E+02  0.51100000000E-03 0.  1.
        -12    1    4    4    0    0 -0.44501665398E+00 -0.43642511916E+01  0.45554089943E+01  0.63242769857E+01  0.00000000000E+00 0.  1.
</event>
<event>
 8    1  0.2493819E-006  0.9118800E+02  0.7816164E-02  0.1184000E+00
        -11   -1    0    0    0    0  0.00000000000E+00  0.00000000000E+00  0.45593999997E+02  0.45594000000E+02  0.51100000000E-03 0. -1.
         11   -1    0    0    0    0 -0.00000000000E+00 -0.00000000000E+00 -0.45593999997E+02  0.45594000000E+02  0.51100000000E-03 0.  1.
         23    2    1    2    0    0  0.00000000000E+00 -0.44408920985E-15 -0.71054273576E-14  0.91188000000E+02  0.91188000000E+02 0.  0.
    9900012    2    3    3    0    0  0.20136750027E+02  0.22563447900E+01 -0.30744119846E+02  0.54367072546E+02  0.39999973483E+02 0.  0.
         12    1    3    3    0    0 -0.20136750027E+02 -0.22563447900E+01  0.30744119846E+02  0.36820927454E+02  0.00000000000E+00 0. -1.
         11    1    4    4    0    0  0.94938047449E+01  0.80076937625E+01 -0.35710379927E+01  0.12923149792E+02  0.51100000000E-03 0. -1.
        -11    1    4    4    0    0  0.11566785142E+02 -0.40922097784E+01 -0.33057349334E+02  0.35260814577E+02  0.51100000000E-03 0.  1.
        -12    1    4    4    0    0 -0.92383986001E+00 -0.16591391941E+01  0.58842674803E+01  0.61831081772E+01  0.00000000000E+00 0.  1.
</event>
<event>
 8    1  0.2493819E-006  0.9118800E+02  0.7816164E-02  0.1184000E+00
        -11   -1    0    0    0    0  0.00000000000E+00  0.00000000000E+00  0.45593999997E+02  0.45594000000E+02  0.51100000000E-03 0.  1.
         11   -1    0    0    0    0 -0.00000000000E+00 -0.00000000000E+00 -0.45593999997E+02  0.45594000000E+02  0.51100000000E-03 0. -1.
         23    2    1    2    0    0  0.00000000000E+00 -0.66613381478E-15  0.71054273576E-14  0.91188000000E+02  0.91188000000E+02 0.  0.
    9900012    2    3    3    0    0  0.45679206405E+01 -0.42237794521E+00 -0.36534040630E+02  0.54367076235E+02  0.39999981894E+02 0.  0.
        -12    1    3    3    0    0 -0.45679206405E+01  0.42237794521E+00  0.36534040630E+02  0.36820923765E+02  0.00000000000E+00 0.  1.
         11    1    4    4    0    0  0.22848877440E-02 -0.51515030577E+01 -0.25096348119E+02  0.25619615106E+02  0.51100000000E-03 0. -1.
        -11    1    4    4    0    0 -0.41492031145E-02 -0.10073610885E+02 -0.11236574537E+01  0.10136087007E+02  0.51100000000E-03 0.  1.
         12    1    4    4    0    0  0.45697849559E+01  0.14802735998E+02 -0.10314035057E+02  0.18611374123E+02  0.00000000000E+00 0. -1.
</event>
<event>
 8    1  0.2493819E-006  0.9118800E+02  0.7816164E-02  0.1184000E+00
        -11   -1    0    0    0    0  0.00000000000E+00  0.00000000000E+00  0.45593999997E+02  0.45594000000E+02  0.51100000000E-03 0.  1.
         11   -1    0    0    0    0 -0.00000000000E+00 -0.00000000000E+00 -0.45593999997E+02  0.45594000000E+02  0.51100000000E-03 0. -1.
         23    2    1    2    0    0  0.44408920985E-15  0.00000000000E+00  0.35527136788E-14  0.91188000000E+02  0.91188000000E+02 0.  0.
    9900012    2    3    3    0    0  0.22596270579E+01  0.20709414567E+02 -0.30361078483E+02  0.54367070452E+02  0.39999968709E+02 0.  0.
        -12    1    3    3    0    0 -0.22596270579E+01 -0.20709414567E+02  0.30361078483E+02  0.36820929548E+02  0.00000000000E+00 0.  1.
         11    1    4    4    0    0 -0.11097919577E+02 -0.20735034624E+01 -0.77217732240E+01  0.13678048748E+02  0.51100000000E-03 0. -1.
        -11    1    4    4    0    0 -0.22780989084E+01  0.18711186638E+01  0.29208946816E+01  0.41499934569E+01  0.51100000000E-03 0.  1.
         12    1    4    4    0    0  0.15635645544E+02  0.20911799366E+02 -0.25560199940E+02  0.36539028247E+02  0.00000000000E+00 0. -1.
</event>
<event>
 8    1  0.2493819E-006  0.9118800E+02  0.7816164E-02  0.1184000E+00
        -11   -1    0    0    0    0  0.00000000000E+00  0.00000000000E+00  0.45593999997E+02  0.45594000000E+02  0.51100000000E-03 0.  1.
         11   -1    0    0    0    0 -0.00000000000E+00 -0.00000000000E+00 -0.45593999997E+02  0.45594000000E+02  0.51100000000E-03 0. -1.
         23    2    1    2    0    0 -0.88817841970E-15 -0.35527136788E-14 -0.35527136788E-14  0.91188000000E+02  0.91188000000E+02 0.  0.
    9900012    2    3    3    0    0 -0.72609517924E+01 -0.19412221168E+02 -0.30433934829E+02  0.54367080120E+02  0.39999990751E+02 0.  0.
        -12    1    3    3    0    0  0.72609517924E+01  0.19412221168E+02  0.30433934829E+02  0.36820919880E+02  0.00000000000E+00 0.  1.
         11    1    4    4    0    0 -0.78554806461E+01  0.30105528223E+01 -0.17842768569E+02  0.19726540369E+02  0.51100000000E-03 0. -1.
        -11    1    4    4    0    0 -0.57806204070E+01 -0.36595688083E+01 -0.13142002743E+02  0.14816215863E+02  0.51100000000E-03 0.  1.
        -12    1    4    4    0    0  0.63751492607E+01 -0.18763205182E+02  0.55083648247E+00  0.19824323888E+02  0.00000000000E+00 0.  1.
</event>
<event>
 8    1  0.2493819E-006  0.9118800E+02  0.7816164E-02  0.1184000E+00
        -11   -1    0    0    0    0  0.00000000000E+00  0.00000000000E+00  0.45593999997E+02  0.45594000000E+02  0.51100000000E-03 0.  1.
         11   -1    0    0    0    0 -0.00000000000E+00 -0.00000000000E+00 -0.45593999997E+02  0.45594000000E+02  0.51100000000E-03 0. -1.
         23    2    1    2    0    0  0.17763568394E-14 -0.88817841970E-15  0.00000000000E+00  0.91188000000E+02  0.91188000000E+02 0.  0.
    9900012    2    3    3    0    0 -0.11694374875E+02  0.48028499447E+01 -0.34582569157E+02  0.54367083922E+02  0.39999999417E+02 0.  0.
        -12    1    3    3    0    0  0.11694374875E+02 -0.48028499447E+01  0.34582569157E+02  0.36820916078E+02  0.00000000000E+00 0.  1.
         11    1    4    4    0    0 -0.14188508374E+02  0.14582520193E+02 -0.15906086696E+02  0.25825709270E+02  0.51100000000E-03 0. -1.
        -11    1    4    4    0    0  0.73653021857E+01 -0.55894197398E+01 -0.49656619155E+00  0.92593664772E+01  0.51100000000E-03 0.  1.
        -12    1    4    4    0    0 -0.48711686862E+01 -0.41902505082E+01 -0.18179916269E+02  0.19282008175E+02  0.00000000000E+00 0.  1.
</event>
<event>
 8    1  0.2493819E-006  0.9118800E+02  0.7816164E-02  0.1184000E+00
        -11   -1    0    0    0    0  0.00000000000E+00  0.00000000000E+00  0.45593999997E+02  0.45594000000E+02  0.51100000000E-03 0.  1.
         11   -1    0    0    0    0 -0.00000000000E+00 -0.00000000000E+00 -0.45593999997E+02  0.45594000000E+02  0.51100000000E-03 0. -1.
         23    2    1    2    0    0  0.00000000000E+00  0.00000000000E+00 -0.35527136788E-14  0.91188000000E+02  0.91188000000E+02 0.  0.
    9900012    2    3    3    0    0  0.16014606736E+02  0.20357702699E+02 -0.26170140092E+02  0.54367083111E+02  0.39999997569E+02 0.  0.
        -12    1    3    3    0    0 -0.16014606736E+02 -0.20357702699E+02  0.26170140092E+02  0.36820916889E+02  0.00000000000E+00 0.  1.
         11    1    4    4    0    0  0.17054857320E+02  0.13092296143E+02 -0.11834286264E+02  0.24542345204E+02  0.51100000000E-03 0. -1.
        -11    1    4    4    0    0  0.56767401528E+00  0.15810028594E+02 -0.13997332522E+02  0.21123555002E+02  0.51100000000E-03 0.  1.
        -12    1    4    4    0    0 -0.16079245987E+01 -0.85446220371E+01 -0.33852130527E+00  0.87011829050E+01  0.00000000000E+00 0.  1.
</event>
<event>
 8    1  0.2493819E-006  0.9118800E+02  0.7816164E-02  0.1184000E+00
        -11   -1    0    0    0    0  0.00000000000E+00  0.00000000000E+00  0.45593999997E+02  0.45594000000E+02  0.51100000000E-03 0.  1.
         11   -1    0    0    0    0 -0.00000000000E+00 -0.00000000000E+00 -0.45593999997E+02  0.45594000000E+02  0.51100000000E-03 0. -1.
         23    2    1    2    0    0 -0.17763568394E-14  0.00000000000E+00  0.00000000000E+00  0.91188000000E+02  0.91188000000E+02 0.  0.
    9900012    2    3    3    0    0  0.15763475449E+02 -0.16621742397E+02 -0.28827316608E+02  0.54367032314E+02  0.39999881765E+02 0.  0.
        -12    1    3    3    0    0 -0.15763475449E+02  0.16621742397E+02  0.28827316608E+02  0.36820967686E+02  0.00000000000E+00 0.  1.
         11    1    4    4    0    0 -0.31214687549E+01 -0.15891455241E+02 -0.20115096752E+02  0.25824388366E+02  0.51100000000E-03 0. -1.
        -11    1    4    4    0    0  0.44291677077E+01 -0.93205692894E+01 -0.25149267207E+01  0.10621459181E+02  0.51100000000E-03 0.  1.
         12    1    4    4    0    0  0.14455776496E+02  0.85902821332E+01 -0.61972931351E+01  0.17921184766E+02  0.00000000000E+00 0. -1.
</event>
<event>
 8    1  0.2493819E-006  0.9118800E+02  0.7816164E-02  0.1184000E+00
        -11   -1    0    0    0    0  0.00000000000E+00  0.00000000000E+00  0.45593999997E+02  0.45594000000E+02  0.51100000000E-03 0.  1.
         11   -1    0    0    0    0 -0.00000000000E+00 -0.00000000000E+00 -0.45593999997E+02  0.45594000000E+02  0.51100000000E-03 0. -1.
         23    2    1    2    0    0  0.00000000000E+00  0.00000000000E+00 -0.17763568394E-14  0.91188000000E+02  0.91188000000E+02 0.  0.
    9900012    2    3    3    0    0 -0.31329088464E+02  0.16547089632E+02 -0.10023065237E+02  0.54367084802E+02  0.40000001423E+02 0.  0.
        -12    1    3    3    0    0  0.31329088464E+02 -0.16547089632E+02  0.10023065237E+02  0.36820915198E+02  0.00000000000E+00 0.  1.
         11    1    4    4    0    0 -0.79292313782E+01 -0.74258617797E-01  0.51270810629E+01  0.94427318652E+01  0.51100000000E-03 0. -1.
        -11    1    4    4    0    0  0.57923273630E+01  0.95878444953E+01  0.19425712608E+00  0.11203372458E+02  0.51100000000E-03 0.  1.
         12    1    4    4    0    0 -0.29192184449E+02  0.70335037544E+01 -0.15344403426E+02  0.33720980479E+02  0.00000000000E+00 0. -1.
</event>
<event>
 8    1  0.2493819E-006  0.9118800E+02  0.7816164E-02  0.1184000E+00
        -11   -1    0    0    0    0  0.00000000000E+00  0.00000000000E+00  0.45593999997E+02  0.45594000000E+02  0.51100000000E-03 0.  1.
         11   -1    0    0    0    0 -0.00000000000E+00 -0.00000000000E+00 -0.45593999997E+02  0.45594000000E+02  0.51100000000E-03 0. -1.
         23    2    1    2    0    0  0.00000000000E+00 -0.26645352591E-14 -0.35527136788E-14  0.91188000000E+02  0.91188000000E+02 0.  0.
    9900012    2    3    3    0    0  0.20086361874E+02 -0.68117589999E+01 -0.30098476005E+02  0.54367078612E+02  0.39999987312E+02 0.  0.
        -12    1    3    3    0    0 -0.20086361874E+02  0.68117589999E+01  0.30098476005E+02  0.36820921388E+02  0.00000000000E+00 0.  1.
         11    1    4    4    0    0  0.24897058233E+01  0.74838839294E+01 -0.40960634862E+01  0.88873443784E+01  0.51100000000E-03 0. -1.
        -11    1    4    4    0    0 -0.27780974870E+01  0.66279161066E+01 -0.14633298242E+01  0.73340597215E+01  0.51100000000E-03 0.  1.
         12    1    4    4    0    0  0.20374753538E+02 -0.20923559036E+02 -0.24539082695E+02  0.38145674512E+02  0.00000000000E+00 0. -1.
</event>
<event>
 8    1  0.2493819E-006  0.9118800E+02  0.7816164E-02  0.1184000E+00
        -11   -1    0    0    0    0  0.00000000000E+00  0.00000000000E+00  0.45593999997E+02  0.45594000000E+02  0.51100000000E-03 0.  1.
         11   -1    0    0    0    0 -0.00000000000E+00 -0.00000000000E+00 -0.45593999997E+02  0.45594000000E+02  0.51100000000E-03 0. -1.
         23    2    1    2    0    0  0.00000000000E+00  0.22204460493E-14  0.17763568394E-14  0.91188000000E+02  0.91188000000E+02 0.  0.
    9900012    2    3    3    0    0 -0.34348872677E+02 -0.89751271643E+00  0.13233594481E+02  0.54367100960E+02  0.40000038258E+02 0.  0.
         12    1    3    3    0    0  0.34348872677E+02  0.89751271643E+00 -0.13233594481E+02  0.36820899040E+02  0.00000000000E+00 0. -1.
         11    1    4    4    0    0 -0.14864616419E+02  0.78596638522E+01  0.28405201706E+01  0.17052849975E+02  0.51100000000E-03 0. -1.
        -11    1    4    4    0    0 -0.55422114444E+01  0.10611555593E+02  0.33295969208E+01  0.12426078855E+02  0.51100000000E-03 0.  1.
         12    1    4    4    0    0 -0.13942044813E+02 -0.19368732162E+02  0.70634773899E+01  0.24888172130E+02  0.00000000000E+00 0. -1.
</event>
<event>
 8    1  0.2493819E-006  0.9118800E+02  0.7816164E-02  0.1184000E+00
        -11   -1    0    0    0    0  0.00000000000E+00  0.00000000000E+00  0.45593999997E+02  0.45594000000E+02  0.51100000000E-03 0.  1.
         11   -1    0    0    0    0 -0.00000000000E+00 -0.00000000000E+00 -0.45593999997E+02  0.45594000000E+02  0.51100000000E-03 0. -1.
         23    2    1    2    0    0 -0.17763568394E-14  0.00000000000E+00  0.35527136788E-14  0.91188000000E+02  0.91188000000E+02 0.  0.
    9900012    2    3    3    0    0  0.14949895222E+02  0.21913869905E+02 -0.25535512341E+02  0.54367089475E+02  0.40000012077E+02 0.  0.
        -12    1    3    3    0    0 -0.14949895222E+02 -0.21913869905E+02  0.25535512341E+02  0.36820910525E+02  0.00000000000E+00 0.  1.
         11    1    4    4    0    0 -0.24032251999E+01  0.69429955578E+01 -0.19560653708E+01  0.76030829716E+01  0.51100000000E-03 0. -1.
        -11    1    4    4    0    0  0.15200207054E+02 -0.40263868337E+01 -0.22713718739E+02  0.27625551662E+02  0.51100000000E-03 0.  1.
         12    1    4    4    0    0  0.21529133677E+01  0.18997261181E+02 -0.86572823105E+00  0.19138454841E+02  0.00000000000E+00 0. -1.
</event>
<event>
 8    1  0.2493819E-006  0.9118800E+02  0.7816164E-02  0.1184000E+00
        -11   -1    0    0    0    0  0.00000000000E+00  0.00000000000E+00  0.45593999997E+02  0.45594000000E+02  0.51100000000E-03 0.  1.
         11   -1    0    0    0    0 -0.00000000000E+00 -0.00000000000E+00 -0.45593999997E+02  0.45594000000E+02  0.51100000000E-03 0. -1.
         23    2    1    2    0    0  0.00000000000E+00  0.35527136788E-14 -0.17763568394E-14  0.91188000000E+02  0.91188000000E+02 0.  0.
    9900012    2    3    3    0    0  0.22339858020E+02  0.24541069666E+02  0.15951373599E+02  0.54367086426E+02  0.40000005125E+02 0.  0.
         12    1    3    3    0    0 -0.22339858020E+02 -0.24541069666E+02 -0.15951373599E+02  0.36820913574E+02  0.00000000000E+00 0. -1.
         11    1    4    4    0    0  0.29768728201E+01  0.35252502183E+01 -0.10930274363E+01  0.47417159475E+01  0.51100000000E-03 0. -1.
        -11    1    4    4    0    0  0.23288659784E+02  0.22437514165E+02  0.27087729316E+00  0.32340023055E+02  0.51100000000E-03 0.  1.
        -12    1    4    4    0    0 -0.39256745839E+01 -0.14216947172E+01  0.16773523742E+02  0.17285347423E+02  0.00000000000E+00 0.  1.
</event>
<event>
 8    1  0.2493819E-006  0.9118800E+02  0.7816164E-02  0.1184000E+00
        -11   -1    0    0    0    0  0.00000000000E+00  0.00000000000E+00  0.45593999997E+02  0.45594000000E+02  0.51100000000E-03 0.  1.
         11   -1    0    0    0    0 -0.00000000000E+00 -0.00000000000E+00 -0.45593999997E+02  0.45594000000E+02  0.51100000000E-03 0. -1.
         23    2    1    2    0    0  0.00000000000E+00  0.00000000000E+00  0.00000000000E+00  0.91188000000E+02  0.91188000000E+02 0.  0.
    9900012    2    3    3    0    0 -0.12117720773E+02  0.25757223459E+02 -0.23356057691E+02  0.54367093603E+02  0.40000021486E+02 0.  0.
        -12    1    3    3    0    0  0.12117720773E+02 -0.25757223459E+02  0.23356057691E+02  0.36820906397E+02  0.00000000000E+00 0.  1.
         11    1    4    4    0    0 -0.12107102706E+02  0.13777100087E+02 -0.95276676500E+01  0.20668015722E+02  0.51100000000E-03 0. -1.
        -11    1    4    4    0    0  0.10345568307E+02  0.15395152763E+02 -0.13219991772E+02  0.22777394384E+02  0.51100000000E-03 0.  1.
         12    1    4    4    0    0 -0.10356186374E+02 -0.34150293912E+01 -0.60839826853E+00  0.10921683497E+02  0.00000000000E+00 0. -1.
</event>
<event>
 8    1  0.2493819E-006  0.9118800E+02  0.7816164E-02  0.1184000E+00
        -11   -1    0    0    0    0  0.00000000000E+00  0.00000000000E+00  0.45593999997E+02  0.45594000000E+02  0.51100000000E-03 0.  1.
         11   -1    0    0    0    0 -0.00000000000E+00 -0.00000000000E+00 -0.45593999997E+02  0.45594000000E+02  0.51100000000E-03 0. -1.
         23    2    1    2    0    0  0.88817841970E-15 -0.71054273576E-14  0.17763568394E-14  0.91188000000E+02  0.91188000000E+02 0.  0.
    9900012    2    3    3    0    0 -0.50118780104E+01 -0.33161227259E+02  0.15198375195E+02  0.54367129245E+02  0.40000102741E+02 0.  0.
         12    1    3    3    0    0  0.50118780104E+01  0.33161227259E+02 -0.15198375195E+02  0.36820870755E+02  0.00000000000E+00 0. -1.
         11    1    4    4    0    0 -0.21970760909E+01  0.25393794496E+01 -0.34469551887E+01  0.48121815918E+01  0.51100000000E-03 0. -1.
        -11    1    4    4    0    0 -0.93643117658E+01 -0.13562461235E+02 -0.42710746763E+01  0.17025650318E+02  0.51100000000E-03 0.  1.
        -12    1    4    4    0    0  0.65495098463E+01 -0.22138145474E+02  0.22916405061E+02  0.32529297336E+02  0.00000000000E+00 0.  1.
</event>
<event>
 8    1  0.2493819E-006  0.9118800E+02  0.7816164E-02  0.1184000E+00
        -11   -1    0    0    0    0  0.00000000000E+00  0.00000000000E+00  0.45593999997E+02  0.45594000000E+02  0.51100000000E-03 0.  1.
         11   -1    0    0    0    0 -0.00000000000E+00 -0.00000000000E+00 -0.45593999997E+02  0.45594000000E+02  0.51100000000E-03 0. -1.
         23    2    1    2    0    0 -0.17763568394E-14  0.00000000000E+00  0.00000000000E+00  0.91188000000E+02  0.91188000000E+02 0.  0.
    9900012    2    3    3    0    0 -0.15914254273E+02 -0.18200234588E+02  0.27771744939E+02  0.54367056977E+02  0.39999937991E+02 0.  0.
         12    1    3    3    0    0  0.15914254273E+02  0.18200234588E+02 -0.27771744939E+02  0.36820943023E+02  0.00000000000E+00 0. -1.
         11    1    4    4    0    0  0.56797445853E+01 -0.14655239994E+02  0.64257041908E+01  0.16980142298E+02  0.51100000000E-03 0. -1.
        -11    1    4    4    0    0 -0.63617413650E+01  0.43639377779E+01  0.18427783676E+02  0.19977460238E+02  0.51100000000E-03 0.  1.
         12    1    4    4    0    0 -0.15232257493E+02 -0.79089323718E+01  0.29182570727E+01  0.17409454441E+02  0.00000000000E+00 0. -1.
</event>
<event>
 8    1  0.2493819E-006  0.9118800E+02  0.7816164E-02  0.1184000E+00
        -11   -1    0    0    0    0  0.00000000000E+00  0.00000000000E+00  0.45593999997E+02  0.45594000000E+02  0.51100000000E-03 0.  1.
         11   -1    0    0    0    0 -0.00000000000E+00 -0.00000000000E+00 -0.45593999997E+02  0.45594000000E+02  0.51100000000E-03 0. -1.
         23    2    1    2    0    0  0.17763568394E-14  0.00000000000E+00  0.00000000000E+00  0.91188000000E+02  0.91188000000E+02 0.  0.
    9900012    2    3    3    0    0 -0.14784151082E+02  0.14563085606E+02 -0.30415867995E+02  0.54367087308E+02  0.40000007136E+02 0.  0.
        -12    1    3    3    0    0  0.14784151082E+02 -0.14563085606E+02  0.30415867995E+02  0.36820912692E+02  0.00000000000E+00 0.  1.
         11    1    4    4    0    0  0.15069835383E+01  0.10987801994E+02 -0.47440754736E+01  0.12062712978E+02  0.51100000000E-03 0. -1.
        -11    1    4    4    0    0 -0.63866601390E+01  0.16114000210E+02 -0.10473518458E+02  0.20252037420E+02  0.51100000000E-03 0.  1.
         12    1    4    4    0    0 -0.99044744814E+01 -0.12538716598E+02 -0.15198274063E+02  0.22052336910E+02  0.00000000000E+00 0. -1.
</event>
<event>
 8    1  0.2493819E-006  0.9118800E+02  0.7816164E-02  0.1184000E+00
        -11   -1    0    0    0    0  0.00000000000E+00  0.00000000000E+00  0.45593999997E+02  0.45594000000E+02  0.51100000000E-03 0.  1.
         11   -1    0    0    0    0 -0.00000000000E+00 -0.00000000000E+00 -0.45593999997E+02  0.45594000000E+02  0.51100000000E-03 0. -1.
         23    2    1    2    0    0 -0.35527136788E-14  0.35527136788E-14  0.00000000000E+00  0.91188000000E+02  0.91188000000E+02 0.  0.
    9900012    2    3    3    0    0  0.18641351281E+02 -0.29793460195E+02 -0.10983171696E+02  0.54367077843E+02  0.39999985559E+02 0.  0.
        -12    1    3    3    0    0 -0.18641351281E+02  0.29793460195E+02  0.10983171696E+02  0.36820922157E+02  0.00000000000E+00 0.  1.
         11    1    4    4    0    0  0.21609776143E+02 -0.21195979087E+02 -0.17234471425E+02  0.34832154110E+02  0.51100000000E-03 0. -1.
        -11    1    4    4    0    0 -0.55396329090E+01 -0.53568974529E+01 -0.38537034612E+01  0.86159685304E+01  0.51100000000E-03 0.  1.
        -12    1    4    4    0    0  0.25712080470E+01 -0.32405836553E+01  0.10105003190E+02  0.10918955203E+02  0.00000000000E+00 0.  1.
</event>
<event>
 8    1  0.2493819E-006  0.9118800E+02  0.7816164E-02  0.1184000E+00
        -11   -1    0    0    0    0  0.00000000000E+00  0.00000000000E+00  0.45593999997E+02  0.45594000000E+02  0.51100000000E-03 0. -1.
         11   -1    0    0    0    0 -0.00000000000E+00 -0.00000000000E+00 -0.45593999997E+02  0.45594000000E+02  0.51100000000E-03 0.  1.
         23    2    1    2    0    0  0.00000000000E+00 -0.88817841970E-15  0.00000000000E+00  0.91188000000E+02  0.91188000000E+02 0.  0.
    9900012    2    3    3    0    0  0.19503990191E+02  0.40352097259E+01  0.30969197535E+02  0.54367085470E+02  0.40000002945E+02 0.  0.
        -12    1    3    3    0    0 -0.19503990191E+02 -0.40352097259E+01 -0.30969197535E+02  0.36820914530E+02  0.00000000000E+00 0.  1.
         11    1    4    4    0    0  0.27311704782E+02  0.12773752325E+02  0.30081920885E+02  0.42591312858E+02  0.51100000000E-03 0. -1.
        -11    1    4    4    0    0 -0.60415521455E+01 -0.64935621361E+01  0.40306011465E+00  0.88785786733E+01  0.51100000000E-03 0.  1.
         12    1    4    4    0    0 -0.17661624456E+01 -0.22449804632E+01  0.48421653560E+00  0.28971939386E+01  0.00000000000E+00 0. -1.
</event>
<event>
 8    1  0.2493819E-006  0.9118800E+02  0.7816164E-02  0.1184000E+00
        -11   -1    0    0    0    0  0.00000000000E+00  0.00000000000E+00  0.45593999997E+02  0.45594000000E+02  0.51100000000E-03 0.  1.
         11   -1    0    0    0    0 -0.00000000000E+00 -0.00000000000E+00 -0.45593999997E+02  0.45594000000E+02  0.51100000000E-03 0. -1.
         23    2    1    2    0    0 -0.35527136788E-14  0.00000000000E+00  0.00000000000E+00  0.91188000000E+02  0.91188000000E+02 0.  0.
    9900012    2    3    3    0    0  0.26758360071E+02 -0.12232351805E+02 -0.22139096696E+02  0.54367083839E+02  0.39999999229E+02 0.  0.
        -12    1    3    3    0    0 -0.26758360071E+02  0.12232351805E+02  0.22139096696E+02  0.36820916161E+02  0.00000000000E+00 0.  1.
         11    1    4    4    0    0  0.75211862913E+01 -0.57231290990E+01 -0.45425819761E+01  0.10486062234E+02  0.51100000000E-03 0. -1.
        -11    1    4    4    0    0 -0.51050929292E+01 -0.10251831769E+02 -0.15348390465E+02  0.19150329464E+02  0.51100000000E-03 0.  1.
        -12    1    4    4    0    0  0.24342266709E+02  0.37426090625E+01 -0.22481242551E+01  0.24730692141E+02  0.00000000000E+00 0.  1.
</event>
<event>
 8    1  0.2493819E-006  0.9118800E+02  0.7816164E-02  0.1184000E+00
        -11   -1    0    0    0    0  0.00000000000E+00  0.00000000000E+00  0.45593999997E+02  0.45594000000E+02  0.51100000000E-03 0.  1.
         11   -1    0    0    0    0 -0.00000000000E+00 -0.00000000000E+00 -0.45593999997E+02  0.45594000000E+02  0.51100000000E-03 0. -1.
         23    2    1    2    0    0  0.00000000000E+00  0.00000000000E+00 -0.17763568394E-14  0.91188000000E+02  0.91188000000E+02 0.  0.
    9900012    2    3    3    0    0  0.34431218432E+02  0.58991155082E+01  0.11639219059E+02  0.54367084927E+02  0.40000001708E+02 0.  0.
         12    1    3    3    0    0 -0.34431218432E+02 -0.58991155082E+01 -0.11639219059E+02  0.36820915073E+02  0.00000000000E+00 0. -1.
         11    1    4    4    0    0  0.29025020288E+02  0.21427122255E+01 -0.15364407689E+01  0.29144530686E+02  0.51100000000E-03 0. -1.
        -11    1    4    4    0    0 -0.94995061523E-01 -0.74523845658E+01  0.97553651645E+01  0.12276571571E+02  0.51100000000E-03 0.  1.
        -12    1    4    4    0    0  0.55011932053E+01  0.11208787848E+02  0.34202946631E+01  0.12945982670E+02  0.00000000000E+00 0.  1.
</event>
<event>
 8    1  0.2493819E-006  0.9118800E+02  0.7816164E-02  0.1184000E+00
        -11   -1    0    0    0    0  0.00000000000E+00  0.00000000000E+00  0.45593999997E+02  0.45594000000E+02  0.51100000000E-03 0.  1.
         11   -1    0    0    0    0 -0.00000000000E+00 -0.00000000000E+00 -0.45593999997E+02  0.45594000000E+02  0.51100000000E-03 0. -1.
         23    2    1    2    0    0  0.00000000000E+00  0.00000000000E+00 -0.35527136788E-14  0.91188000000E+02  0.91188000000E+02 0.  0.
    9900012    2    3    3    0    0 -0.25670153022E+02 -0.19117695639E+02 -0.18202674009E+02  0.54367076821E+02  0.39999983228E+02 0.  0.
        -12    1    3    3    0    0  0.25670153022E+02  0.19117695639E+02  0.18202674009E+02  0.36820923179E+02  0.00000000000E+00 0.  1.
         11    1    4    4    0    0 -0.29202442503E+01 -0.99109540136E+01  0.24240507094E+01  0.10612768632E+02  0.51100000000E-03 0. -1.
        -11    1    4    4    0    0 -0.73028353259E+01  0.62415478333E+01  0.43721655110E+01  0.10554816657E+02  0.51100000000E-03 0.  1.
         12    1    4    4    0    0 -0.15447073446E+02 -0.15448289458E+02 -0.24998890229E+02  0.33199491531E+02  0.00000000000E+00 0. -1.
</event>
<event>
 8    1  0.2493819E-006  0.9118800E+02  0.7816164E-02  0.1184000E+00
        -11   -1    0    0    0    0  0.00000000000E+00  0.00000000000E+00  0.45593999997E+02  0.45594000000E+02  0.51100000000E-03 0.  1.
         11   -1    0    0    0    0 -0.00000000000E+00 -0.00000000000E+00 -0.45593999997E+02  0.45594000000E+02  0.51100000000E-03 0. -1.
         23    2    1    2    0    0  0.00000000000E+00  0.00000000000E+00  0.00000000000E+00  0.91188000000E+02  0.91188000000E+02 0.  0.
    9900012    2    3    3    0    0  0.26984726249E+02 -0.81111688760E+01 -0.23702620315E+02  0.54367072241E+02  0.39999972787E+02 0.  0.
        -12    1    3    3    0    0 -0.26984726249E+02  0.81111688760E+01  0.23702620315E+02  0.36820927759E+02  0.00000000000E+00 0.  1.
         11    1    4    4    0    0  0.91992460130E+01 -0.52873389248E+01 -0.29521737619E+02  0.31370608416E+02  0.51100000000E-03 0. -1.
        -11    1    4    4    0    0  0.11214520186E+02 -0.75472746310E+01  0.62498201240E+01  0.14892517222E+02  0.51100000000E-03 0.  1.
         12    1    4    4    0    0  0.65709600497E+01  0.47234446798E+01 -0.43070282030E+00  0.81039466026E+01  0.00000000000E+00 0. -1.
</event>
<event>
 8    1  0.2493819E-006  0.9118800E+02  0.7816164E-02  0.1184000E+00
        -11   -1    0    0    0    0  0.00000000000E+00  0.00000000000E+00  0.45593999997E+02  0.45594000000E+02  0.51100000000E-03 0.  1.
         11   -1    0    0    0    0 -0.00000000000E+00 -0.00000000000E+00 -0.45593999997E+02  0.45594000000E+02  0.51100000000E-03 0. -1.
         23    2    1    2    0    0  0.00000000000E+00  0.17763568394E-14  0.88817841970E-15  0.91188000000E+02  0.91188000000E+02 0.  0.
    9900012    2    3    3    0    0 -0.34440046834E+02  0.12236212558E+02  0.44647321921E+01  0.54367142361E+02  0.40000132640E+02 0.  0.
        -12    1    3    3    0    0  0.34440046834E+02 -0.12236212558E+02 -0.44647321921E+01  0.36820857639E+02  0.00000000000E+00 0.  1.
         11    1    4    4    0    0 -0.13218118814E+02  0.95620039221E+01 -0.11082637165E+02  0.19722460059E+02  0.51100000000E-03 0. -1.
        -11    1    4    4    0    0 -0.22366888056E+01  0.91388630266E+01  0.23457560038E+00  0.94115152981E+01  0.51100000000E-03 0.  1.
         12    1    4    4    0    0 -0.18985239215E+02 -0.64646543904E+01  0.15312793756E+02  0.25233167004E+02  0.00000000000E+00 0. -1.
</event>
<event>
 8    1  0.2493819E-006  0.9118800E+02  0.7816164E-02  0.1184000E+00
        -11   -1    0    0    0    0  0.00000000000E+00  0.00000000000E+00  0.45593999997E+02  0.45594000000E+02  0.51100000000E-03 0.  1.
         11   -1    0    0    0    0 -0.00000000000E+00 -0.00000000000E+00 -0.45593999997E+02  0.45594000000E+02  0.51100000000E-03 0. -1.
         23    2    1    2    0    0  0.00000000000E+00  0.00000000000E+00  0.00000000000E+00  0.91188000000E+02  0.91188000000E+02 0.  0.
    9900012    2    3    3    0    0 -0.26864062734E+02 -0.10536773621E+02 -0.22870918127E+02  0.54367077132E+02  0.39999983937E+02 0.  0.
        -12    1    3    3    0    0  0.26864062734E+02  0.10536773621E+02  0.22870918127E+02  0.36820922868E+02  0.00000000000E+00 0.  1.
         11    1    4    4    0    0 -0.17716444462E+02 -0.27006479484E+01  0.31293837771E+01  0.18192277120E+02  0.51100000000E-03 0. -1.
        -11    1    4    4    0    0 -0.13852210015E+02 -0.11961681786E+02 -0.15653792744E+02  0.24083329939E+02  0.51100000000E-03 0.  1.
        -12    1    4    4    0    0  0.47045917430E+01  0.41255561136E+01 -0.10346509160E+02  0.12091470073E+02  0.00000000000E+00 0.  1.
</event>
<event>
 8    1  0.2493819E-006  0.9118800E+02  0.7816164E-02  0.1184000E+00
        -11   -1    0    0    0    0  0.00000000000E+00  0.00000000000E+00  0.45593999997E+02  0.45594000000E+02  0.51100000000E-03 0.  1.
         11   -1    0    0    0    0 -0.00000000000E+00 -0.00000000000E+00 -0.45593999997E+02  0.45594000000E+02  0.51100000000E-03 0. -1.
         23    2    1    2    0    0  0.88817841970E-15  0.00000000000E+00  0.00000000000E+00  0.91188000000E+02  0.91188000000E+02 0.  0.
    9900012    2    3    3    0    0 -0.75196626958E+01  0.40206453254E+01  0.35819952997E+02  0.54367082730E+02  0.39999996699E+02 0.  0.
         12    1    3    3    0    0  0.75196626958E+01 -0.40206453254E+01 -0.35819952997E+02  0.36820917270E+02  0.00000000000E+00 0. -1.
         11    1    4    4    0    0  0.22346218984E+01 -0.13070684935E+02  0.16570027584E+02  0.21222680182E+02  0.51100000000E-03 0. -1.
        -11    1    4    4    0    0 -0.13091004326E+02  0.12597043357E+02  0.20517770198E+02  0.27405086932E+02  0.51100000000E-03 0.  1.
        -12    1    4    4    0    0  0.33367197320E+01  0.44942869037E+01 -0.12678447846E+01  0.57393156161E+01  0.00000000000E+00 0.  1.
</event>
<event>
 8    1  0.2493819E-006  0.9118800E+02  0.7816164E-02  0.1184000E+00
        -11   -1    0    0    0    0  0.00000000000E+00  0.00000000000E+00  0.45593999997E+02  0.45594000000E+02  0.51100000000E-03 0.  1.
         11   -1    0    0    0    0 -0.00000000000E+00 -0.00000000000E+00 -0.45593999997E+02  0.45594000000E+02  0.51100000000E-03 0. -1.
         23    2    1    2    0    0  0.00000000000E+00  0.00000000000E+00  0.88817841970E-15  0.91188000000E+02  0.91188000000E+02 0.  0.
    9900012    2    3    3    0    0 -0.43161784397E+01  0.36115015866E+02  0.57318921829E+01  0.54367104366E+02  0.40000046022E+02 0.  0.
         12    1    3    3    0    0  0.43161784397E+01 -0.36115015866E+02 -0.57318921829E+01  0.36820895634E+02  0.00000000000E+00 0. -1.
         11    1    4    4    0    0  0.83687819577E+01  0.25830430467E+01 -0.43381563812E+01  0.97738540958E+01  0.51100000000E-03 0. -1.
        -11    1    4    4    0    0  0.34364852530E+00  0.23567962759E+02 -0.28114871064E+01  0.23737553010E+02  0.51100000000E-03 0.  1.
         12    1    4    4    0    0 -0.13028608923E+02  0.99640100605E+01  0.12881535671E+02  0.20855697259E+02  0.00000000000E+00 0. -1.
</event>
<event>
 8    1  0.2493819E-006  0.9118800E+02  0.7816164E-02  0.1184000E+00
        -11   -1    0    0    0    0  0.00000000000E+00  0.00000000000E+00  0.45593999997E+02  0.45594000000E+02  0.51100000000E-03 0.  1.
         11   -1    0    0    0    0 -0.00000000000E+00 -0.00000000000E+00 -0.45593999997E+02  0.45594000000E+02  0.51100000000E-03 0. -1.
         23    2    1    2    0    0  0.35527136788E-14  0.00000000000E+00  0.00000000000E+00  0.91188000000E+02  0.91188000000E+02 0.  0.
    9900012    2    3    3    0    0  0.28893071479E+02 -0.21097078646E+02 -0.87111045203E+01  0.54367086801E+02  0.40000005980E+02 0.  0.
        -12    1    3    3    0    0 -0.28893071479E+02  0.21097078646E+02  0.87111045203E+01  0.36820913199E+02  0.00000000000E+00 0.  1.
         11    1    4    4    0    0  0.81638492352E+01  0.44364810058E+01 -0.17211708794E+01  0.94495093792E+01  0.51100000000E-03 0. -1.
        -11    1    4    4    0    0  0.12095781609E+02  0.28345717154E+01  0.43607624322E+01  0.13166585693E+02  0.51100000000E-03 0.  1.
         12    1    4    4    0    0  0.86334406343E+01 -0.28368131367E+02 -0.11350696073E+02  0.31750991729E+02  0.00000000000E+00 0. -1.
</event>
<event>
 8    1  0.2493819E-006  0.9118800E+02  0.7816164E-02  0.1184000E+00
        -11   -1    0    0    0    0  0.00000000000E+00  0.00000000000E+00  0.45593999997E+02  0.45594000000E+02  0.51100000000E-03 0.  1.
         11   -1    0    0    0    0 -0.00000000000E+00 -0.00000000000E+00 -0.45593999997E+02  0.45594000000E+02  0.51100000000E-03 0. -1.
         23    2    1    2    0    0  0.35527136788E-14  0.35527136788E-14  0.00000000000E+00  0.91188000000E+02  0.91188000000E+02 0.  0.
    9900012    2    3    3    0    0  0.28945765897E+02  0.20971636198E+02 -0.88381712820E+01  0.54367079862E+02  0.39999990162E+02 0.  0.
        -12    1    3    3    0    0 -0.28945765897E+02 -0.20971636198E+02  0.88381712820E+01  0.36820920138E+02  0.00000000000E+00 0.  1.
         11    1    4    4    0    0  0.26996218913E+02  0.16332501877E+02 -0.17335790628E+02  0.36001056791E+02  0.51100000000E-03 0. -1.
        -11    1    4    4    0    0  0.20775320727E+01  0.10274640872E+02  0.67357972357E+01  0.12460150450E+02  0.51100000000E-03 0.  1.
        -12    1    4    4    0    0 -0.12798508889E+00 -0.56355065509E+01  0.17618221099E+01  0.59058726210E+01  0.00000000000E+00 0.  1.
</event>
<event>
 8    1  0.2493819E-006  0.9118800E+02  0.7816164E-02  0.1184000E+00
        -11   -1    0    0    0    0  0.00000000000E+00  0.00000000000E+00  0.45593999997E+02  0.45594000000E+02  0.51100000000E-03 0.  1.
         11   -1    0    0    0    0 -0.00000000000E+00 -0.00000000000E+00 -0.45593999997E+02  0.45594000000E+02  0.51100000000E-03 0. -1.
         23    2    1    2    0    0  0.00000000000E+00  0.00000000000E+00  0.35527136788E-14  0.91188000000E+02  0.91188000000E+02 0.  0.
    9900012    2    3    3    0    0  0.17753365541E+02 -0.20112332479E+02  0.25220987344E+02  0.54366999085E+02  0.39999806015E+02 0.  0.
         12    1    3    3    0    0 -0.17753365541E+02  0.20112332479E+02 -0.25220987344E+02  0.36821000915E+02  0.00000000000E+00 0. -1.
         11    1    4    4    0    0  0.90696367314E+01 -0.66453624832E+01  0.10368565356E+02  0.15294649416E+02  0.51100000000E-03 0. -1.
        -11    1    4    4    0    0  0.15806380878E+02  0.47951387599E+01  0.61502883890E+01  0.17625580266E+02  0.51100000000E-03 0.  1.
         12    1    4    4    0    0 -0.71226520680E+01 -0.18262108755E+02  0.87021335989E+01  0.21446769403E+02  0.00000000000E+00 0. -1.
</event>
<event>
 8    1  0.2493819E-006  0.9118800E+02  0.7816164E-02  0.1184000E+00
        -11   -1    0    0    0    0  0.00000000000E+00  0.00000000000E+00  0.45593999997E+02  0.45594000000E+02  0.51100000000E-03 0. -1.
         11   -1    0    0    0    0 -0.00000000000E+00 -0.00000000000E+00 -0.45593999997E+02  0.45594000000E+02  0.51100000000E-03 0.  1.
         23    2    1    2    0    0  0.00000000000E+00  0.17763568394E-14  0.00000000000E+00  0.91188000000E+02  0.91188000000E+02 0.  0.
    9900012    2    3    3    0    0  0.17738289418E+02  0.14039497308E+02  0.29052331053E+02  0.54366914523E+02  0.39999613235E+02 0.  0.
        -12    1    3    3    0    0 -0.17738289418E+02 -0.14039497308E+02 -0.29052331053E+02  0.36821085477E+02  0.00000000000E+00 0.  1.
         11    1    4    4    0    0  0.23338812401E+02  0.53131530175E+01  0.23460336834E+02  0.33515924035E+02  0.51100000000E-03 0. -1.
        -11    1    4    4    0    0  0.38622429050E+00  0.12537410805E+02  0.56422922720E+01  0.13753955840E+02  0.51100000000E-03 0.  1.
        -12    1    4    4    0    0 -0.59867472741E+01 -0.38110665141E+01 -0.50298053578E-01  0.70970346479E+01  0.00000000000E+00 0.  1.
</event>
<event>
 8    1  0.2493819E-006  0.9118800E+02  0.7816164E-02  0.1184000E+00
        -11   -1    0    0    0    0  0.00000000000E+00  0.00000000000E+00  0.45593999997E+02  0.45594000000E+02  0.51100000000E-03 0.  1.
         11   -1    0    0    0    0 -0.00000000000E+00 -0.00000000000E+00 -0.45593999997E+02  0.45594000000E+02  0.51100000000E-03 0. -1.
         23    2    1    2    0    0  0.00000000000E+00  0.00000000000E+00  0.00000000000E+00  0.91188000000E+02  0.91188000000E+02 0.  0.
    9900012    2    3    3    0    0  0.24699048531E+02 -0.18724059927E+02  0.19878295952E+02  0.54367081103E+02  0.39999992991E+02 0.  0.
         12    1    3    3    0    0 -0.24699048531E+02  0.18724059927E+02 -0.19878295952E+02  0.36820918897E+02  0.00000000000E+00 0. -1.
         11    1    4    4    0    0  0.37327922541E+01 -0.22588480557E+02  0.11131057215E+02  0.25457290250E+02  0.51100000000E-03 0.  1.
        -11    1    4    4    0    0  0.17492788536E+02  0.39207998486E+01  0.13907627647E+02  0.22689037645E+02  0.51100000000E-03 0. -1.
         12    1    4    4    0    0  0.34734677410E+01 -0.56379218345E-01 -0.51603889110E+01  0.62207532082E+01  0.00000000000E+00 0. -1.
</event>
<event>
 8    1  0.2493819E-006  0.9118800E+02  0.7816164E-02  0.1184000E+00
        -11   -1    0    0    0    0  0.00000000000E+00  0.00000000000E+00  0.45593999997E+02  0.45594000000E+02  0.51100000000E-03 0.  1.
         11   -1    0    0    0    0 -0.00000000000E+00 -0.00000000000E+00 -0.45593999997E+02  0.45594000000E+02  0.51100000000E-03 0. -1.
         23    2    1    2    0    0 -0.10658141036E-13  0.00000000000E+00  0.00000000000E+00  0.91188000000E+02  0.91188000000E+02 0.  0.
    9900012    2    3    3    0    0  0.29826760844E+02  0.59743223108E+01 -0.20747346903E+02  0.54367073979E+02  0.39999976751E+02 0.  0.
        -12    1    3    3    0    0 -0.29826760844E+02 -0.59743223108E+01  0.20747346903E+02  0.36820926021E+02  0.00000000000E+00 0.  1.
         11    1    4    4    0    0  0.87568954760E+01 -0.22178582509E-01 -0.15048378500E+02  0.17410841623E+02  0.51100000000E-03 0. -1.
        -11    1    4    4    0    0 -0.64033133333E+01  0.52237968516E+01  0.18208213391E+01  0.84620249232E+01  0.51100000000E-03 0.  1.
        -12    1    4    4    0    0  0.27473178701E+02  0.77270404175E+00 -0.75197897414E+01  0.28494207433E+02  0.00000000000E+00 0.  1.
</event>
<event>
 8    1  0.2493819E-006  0.9118800E+02  0.7816164E-02  0.1184000E+00
        -11   -1    0    0    0    0  0.00000000000E+00  0.00000000000E+00  0.45593999997E+02  0.45594000000E+02  0.51100000000E-03 0. -1.
         11   -1    0    0    0    0 -0.00000000000E+00 -0.00000000000E+00 -0.45593999997E+02  0.45594000000E+02  0.51100000000E-03 0.  1.
         23    2    1    2    0    0  0.35527136788E-14  0.00000000000E+00  0.88817841970E-15  0.91188000000E+02  0.91188000000E+02 0.  0.
    9900012    2    3    3    0    0  0.30010898919E+02 -0.20560613891E+02  0.56909386787E+01  0.54367086370E+02  0.40000004997E+02 0.  0.
         12    1    3    3    0    0 -0.30010898919E+02  0.20560613891E+02 -0.56909386787E+01  0.36820913630E+02  0.00000000000E+00 0. -1.
         11    1    4    4    0    0  0.25136437371E+02 -0.39551483641E+01  0.80559838829E+01  0.26690495666E+02  0.51100000000E-03 0. -1.
        -11    1    4    4    0    0  0.44926094074E+01 -0.55453958781E+01  0.92171911930E+01  0.11657253900E+02  0.51100000000E-03 0.  1.
        -12    1    4    4    0    0  0.38185214069E+00 -0.11060069649E+02 -0.11582236397E+02  0.16019336804E+02  0.00000000000E+00 0.  1.
</event>
<event>
 8    1  0.2493819E-006  0.9118800E+02  0.7816164E-02  0.1184000E+00
        -11   -1    0    0    0    0  0.00000000000E+00  0.00000000000E+00  0.45593999997E+02  0.45594000000E+02  0.51100000000E-03 0.  1.
         11   -1    0    0    0    0 -0.00000000000E+00 -0.00000000000E+00 -0.45593999997E+02  0.45594000000E+02  0.51100000000E-03 0. -1.
         23    2    1    2    0    0 -0.17763568394E-14  0.00000000000E+00  0.00000000000E+00  0.91188000000E+02  0.91188000000E+02 0.  0.
    9900012    2    3    3    0    0 -0.13293115966E+02  0.27118126575E+02 -0.21063737166E+02  0.54367071923E+02  0.39999972063E+02 0.  0.
        -12    1    3    3    0    0  0.13293115966E+02 -0.27118126575E+02  0.21063737166E+02  0.36820928077E+02  0.00000000000E+00 0.  1.
         11    1    4    4    0    0 -0.53156340925E+01  0.24130573802E+01 -0.11116090162E+01  0.59425993127E+01  0.51100000000E-03 0. -1.
        -11    1    4    4    0    0 -0.15902604897E+02  0.53677244308E+01  0.33592557975E+01  0.17116947971E+02  0.51100000000E-03 0.  1.
         12    1    4    4    0    0  0.79251230232E+01  0.19337344764E+02 -0.23311383947E+02  0.31307524639E+02  0.00000000000E+00 0. -1.
</event>
<event>
 8    1  0.2493819E-006  0.9118800E+02  0.7816164E-02  0.1184000E+00
        -11   -1    0    0    0    0  0.00000000000E+00  0.00000000000E+00  0.45593999997E+02  0.45594000000E+02  0.51100000000E-03 0. -1.
         11   -1    0    0    0    0 -0.00000000000E+00 -0.00000000000E+00 -0.45593999997E+02  0.45594000000E+02  0.51100000000E-03 0.  1.
         23    2    1    2    0    0  0.00000000000E+00  0.35527136788E-14 -0.35527136788E-14  0.91188000000E+02  0.91188000000E+02 0.  0.
    9900012    2    3    3    0    0 -0.23132308892E+02 -0.16592350384E+02  0.23353165683E+02  0.54367079949E+02  0.39999990360E+02 0.  0.
        -12    1    3    3    0    0  0.23132308892E+02  0.16592350384E+02 -0.23353165683E+02  0.36820920051E+02  0.00000000000E+00 0.  1.
         11    1    4    4    0    0 -0.14935162766E+02 -0.28945704635E+02  0.20995739028E+02  0.38752212341E+02  0.51100000000E-03 0. -1.
        -11    1    4    4    0    0 -0.24691910019E+01  0.46358834559E+01  0.28792191582E+01  0.59898433070E+01  0.51100000000E-03 0.  1.
         12    1    4    4    0    0 -0.57279551241E+01  0.77174707958E+01 -0.52179250264E+00  0.96250243015E+01  0.00000000000E+00 0. -1.
</event>
<event>
 8    1  0.2493819E-006  0.9118800E+02  0.7816164E-02  0.1184000E+00
        -11   -1    0    0    0    0  0.00000000000E+00  0.00000000000E+00  0.45593999997E+02  0.45594000000E+02  0.51100000000E-03 0. -1.
         11   -1    0    0    0    0 -0.00000000000E+00 -0.00000000000E+00 -0.45593999997E+02  0.45594000000E+02  0.51100000000E-03 0.  1.
         23    2    1    2    0    0 -0.35527136788E-14  0.00000000000E+00  0.00000000000E+00  0.91188000000E+02  0.91188000000E+02 0.  0.
    9900012    2    3    3    0    0  0.17687899917E+02 -0.10062875911E+02 -0.30686432071E+02  0.54367076759E+02  0.39999983088E+02 0.  0.
         12    1    3    3    0    0 -0.17687899917E+02  0.10062875911E+02  0.30686432071E+02  0.36820923241E+02  0.00000000000E+00 0. -1.
         11    1    4    4    0    0  0.57907340930E+01 -0.84818745251E+01 -0.20900049849E+01  0.10480597211E+02  0.51100000000E-03 0. -1.
        -11    1    4    4    0    0  0.31528843594E+01 -0.15985011252E+02 -0.16120857486E+02  0.22920368908E+02  0.51100000000E-03 0.  1.
        -12    1    4    4    0    0  0.87442814643E+01  0.14404009866E+02 -0.12475569600E+02  0.20966110641E+02  0.00000000000E+00 0.  1.
</event>
<event>
 8    1  0.2493819E-006  0.9118800E+02  0.7816164E-02  0.1184000E+00
        -11   -1    0    0    0    0  0.00000000000E+00  0.00000000000E+00  0.45593999997E+02  0.45594000000E+02  0.51100000000E-03 0. -1.
         11   -1    0    0    0    0 -0.00000000000E+00 -0.00000000000E+00 -0.45593999997E+02  0.45594000000E+02  0.51100000000E-03 0.  1.
         23    2    1    2    0    0 -0.55511151231E-16  0.35527136788E-14 -0.35527136788E-14  0.91188000000E+02  0.91188000000E+02 0.  0.
    9900012    2    3    3    0    0  0.18126140065E+00  0.19245060665E+02 -0.31390694124E+02  0.54367069902E+02  0.39999967456E+02 0.  0.
         12    1    3    3    0    0 -0.18126140065E+00 -0.19245060665E+02  0.31390694124E+02  0.36820930098E+02  0.00000000000E+00 0. -1.
         11    1    4    4    0    0  0.66682372583E+01  0.10088091606E+02 -0.20503464671E+02  0.23803929175E+02  0.51100000000E-03 0. -1.
        -11    1    4    4    0    0 -0.26405390078E+01  0.10725143223E+02 -0.18697889981E+02  0.21716634947E+02  0.51100000000E-03 0.  1.
         12    1    4    4    0    0 -0.38464368498E+01 -0.15681741640E+01  0.78106605277E+01  0.88465057807E+01  0.00000000000E+00 0. -1.
</event>
<event>
 8    1  0.2493819E-006  0.9118800E+02  0.7816164E-02  0.1184000E+00
        -11   -1    0    0    0    0  0.00000000000E+00  0.00000000000E+00  0.45593999997E+02  0.45594000000E+02  0.51100000000E-03 0.  1.
         11   -1    0    0    0    0 -0.00000000000E+00 -0.00000000000E+00 -0.45593999997E+02  0.45594000000E+02  0.51100000000E-03 0. -1.
         23    2    1    2    0    0  0.00000000000E+00  0.00000000000E+00 -0.35527136788E-14  0.91188000000E+02  0.91188000000E+02 0.  0.
    9900012    2    3    3    0    0 -0.30211661964E+02 -0.95633708634E+01  0.18750446690E+02  0.54367057155E+02  0.39999938397E+02 0.  0.
         12    1    3    3    0    0  0.30211661964E+02  0.95633708634E+01 -0.18750446690E+02  0.36820942845E+02  0.00000000000E+00 0. -1.
         11    1    4    4    0    0 -0.28275633376E+01 -0.95235070970E+00  0.16375808259E+02  0.16645395240E+02  0.51100000000E-03 0. -1.
        -11    1    4    4    0    0  0.17911951999E+01 -0.82564621218E+01  0.10581296198E+01  0.85145279121E+01  0.51100000000E-03 0.  1.
         12    1    4    4    0    0 -0.29175293826E+02 -0.35455803195E+00  0.13165088112E+01  0.29207134003E+02  0.00000000000E+00 0. -1.
</event>
<event>
 8    1  0.2493819E-006  0.9118800E+02  0.7816164E-02  0.1184000E+00
        -11   -1    0    0    0    0  0.00000000000E+00  0.00000000000E+00  0.45593999997E+02  0.45594000000E+02  0.51100000000E-03 0. -1.
         11   -1    0    0    0    0 -0.00000000000E+00 -0.00000000000E+00 -0.45593999997E+02  0.45594000000E+02  0.51100000000E-03 0.  1.
         23    2    1    2    0    0  0.00000000000E+00  0.00000000000E+00  0.00000000000E+00  0.91188000000E+02  0.91188000000E+02 0.  0.
    9900012    2    3    3    0    0 -0.19606856663E+02 -0.21932759474E+02 -0.22142772390E+02  0.54367120930E+02  0.40000083785E+02 0.  0.
         12    1    3    3    0    0  0.19606856663E+02  0.21932759474E+02  0.22142772390E+02  0.36820879070E+02  0.00000000000E+00 0. -1.
         11    1    4    4    0    0  0.99613397673E+01 -0.48411651171E+01 -0.50133480672E+00  0.11086771690E+02  0.51100000000E-03 0. -1.
        -11    1    4    4    0    0 -0.23464215007E+02 -0.19387937463E+02 -0.14858860836E+02  0.33871038522E+02  0.51100000000E-03 0.  1.
        -12    1    4    4    0    0 -0.61039814234E+01  0.22963431057E+01 -0.67825767468E+01  0.94093107188E+01  0.00000000000E+00 0.  1.
</event>
<event>
 8    1  0.2493819E-006  0.9118800E+02  0.7816164E-02  0.1184000E+00
        -11   -1    0    0    0    0  0.00000000000E+00  0.00000000000E+00  0.45593999997E+02  0.45594000000E+02  0.51100000000E-03 0. -1.
         11   -1    0    0    0    0 -0.00000000000E+00 -0.00000000000E+00 -0.45593999997E+02  0.45594000000E+02  0.51100000000E-03 0.  1.
         23    2    1    2    0    0  0.00000000000E+00  0.71054273576E-14 -0.17763568394E-14  0.91188000000E+02  0.91188000000E+02 0.  0.
    9900012    2    3    3    0    0 -0.10224955443E+02  0.33426343953E+02 -0.11571908435E+02  0.54367092234E+02  0.40000018366E+02 0.  0.
         12    1    3    3    0    0  0.10224955443E+02 -0.33426343953E+02  0.11571908435E+02  0.36820907766E+02  0.00000000000E+00 0. -1.
         11    1    4    4    0    0  0.64940385609E+01  0.13662820387E+02 -0.17209466916E+02  0.22913117413E+02  0.51100000000E-03 0. -1.
        -11    1    4    4    0    0  0.89872286581E-01  0.36574960821E+01  0.72476304874E+01  0.81187131099E+01  0.51100000000E-03 0.  1.
        -12    1    4    4    0    0 -0.16808866290E+02  0.16106027484E+02 -0.16100720057E+01  0.23335261712E+02  0.00000000000E+00 0.  1.
</event>
<event>
 8    1  0.2493819E-006  0.9118800E+02  0.7816164E-02  0.1184000E+00
        -11   -1    0    0    0    0  0.00000000000E+00  0.00000000000E+00  0.45593999997E+02  0.45594000000E+02  0.51100000000E-03 0.  1.
         11   -1    0    0    0    0 -0.00000000000E+00 -0.00000000000E+00 -0.45593999997E+02  0.45594000000E+02  0.51100000000E-03 0. -1.
         23    2    1    2    0    0  0.17763568394E-14  0.00000000000E+00  0.00000000000E+00  0.91188000000E+02  0.91188000000E+02 0.  0.
    9900012    2    3    3    0    0  0.91135198412E+01  0.31643136457E+02  0.16475261478E+02  0.54367101457E+02  0.40000039392E+02 0.  0.
        -12    1    3    3    0    0 -0.91135198412E+01 -0.31643136457E+02 -0.16475261478E+02  0.36820898543E+02  0.00000000000E+00 0.  1.
         11    1    4    4    0    0  0.18584273214E+01  0.13918189705E+02  0.93788596958E+01  0.16885874755E+02  0.51100000000E-03 0. -1.
        -11    1    4    4    0    0  0.18942622234E+02  0.56386640176E+01  0.58992150341E+01  0.20625668650E+02  0.51100000000E-03 0.  1.
         12    1    4    4    0    0 -0.11687529714E+02  0.12086282734E+02  0.11971867482E+01  0.16855558052E+02  0.00000000000E+00 0. -1.
</event>
<event>
 8    1  0.2493819E-006  0.9118800E+02  0.7816164E-02  0.1184000E+00
        -11   -1    0    0    0    0  0.00000000000E+00  0.00000000000E+00  0.45593999997E+02  0.45594000000E+02  0.51100000000E-03 0.  1.
         11   -1    0    0    0    0 -0.00000000000E+00 -0.00000000000E+00 -0.45593999997E+02  0.45594000000E+02  0.51100000000E-03 0. -1.
         23    2    1    2    0    0  0.00000000000E+00 -0.35527136788E-14 -0.17763568394E-14  0.91188000000E+02  0.91188000000E+02 0.  0.
    9900012    2    3    3    0    0  0.22686602765E+02 -0.27104672257E+02  0.10316716821E+02  0.54367084081E+02  0.39999999779E+02 0.  0.
         12    1    3    3    0    0 -0.22686602765E+02  0.27104672257E+02 -0.10316716821E+02  0.36820915919E+02  0.00000000000E+00 0. -1.
         11    1    4    4    0    0  0.82101853768E+00 -0.30449707258E+01  0.16387627006E+02  0.16688326379E+02  0.51100000000E-03 0. -1.
        -11    1    4    4    0    0  0.20287465745E+02 -0.96209720278E+01 -0.56257952912E+01  0.23147223203E+02  0.51100000000E-03 0.  1.
         12    1    4    4    0    0  0.15781184826E+01 -0.14438729504E+02 -0.44511489440E+00  0.14531534499E+02  0.00000000000E+00 0. -1.
</event>
<event>
 8    1  0.2493819E-006  0.9118800E+02  0.7816164E-02  0.1184000E+00
        -11   -1    0    0    0    0  0.00000000000E+00  0.00000000000E+00  0.45593999997E+02  0.45594000000E+02  0.51100000000E-03 0.  1.
         11   -1    0    0    0    0 -0.00000000000E+00 -0.00000000000E+00 -0.45593999997E+02  0.45594000000E+02  0.51100000000E-03 0. -1.
         23    2    1    2    0    0  0.00000000000E+00 -0.17763568394E-14  0.00000000000E+00  0.91188000000E+02  0.91188000000E+02 0.  0.
    9900012    2    3    3    0    0  0.11890097907E+02  0.11112214693E+02  0.33029174155E+02  0.54367053666E+02  0.39999930442E+02 0.  0.
         12    1    3    3    0    0 -0.11890097907E+02 -0.11112214693E+02 -0.33029174155E+02  0.36820946334E+02  0.00000000000E+00 0. -1.
         11    1    4    4    0    0  0.14227111764E+02 -0.58021561444E+01  0.45241996332E+01  0.16016994339E+02  0.51100000000E-03 0. -1.
        -11    1    4    4    0    0  0.41482754685E+01  0.17652252931E+01 -0.94211654803E+00  0.46056262928E+01  0.51100000000E-03 0.  1.
        -12    1    4    4    0    0 -0.64852893256E+01  0.15149145544E+02  0.29447091069E+02  0.33744433034E+02  0.00000000000E+00 0.  1.
</event>
<event>
 8    1  0.2493819E-006  0.9118800E+02  0.7816164E-02  0.1184000E+00
        -11   -1    0    0    0    0  0.00000000000E+00  0.00000000000E+00  0.45593999997E+02  0.45594000000E+02  0.51100000000E-03 0. -1.
         11   -1    0    0    0    0 -0.00000000000E+00 -0.00000000000E+00 -0.45593999997E+02  0.45594000000E+02  0.51100000000E-03 0.  1.
         23    2    1    2    0    0  0.00000000000E+00 -0.35527136788E-14 -0.71054273576E-14  0.91188000000E+02  0.91188000000E+02 0.  0.
    9900012    2    3    3    0    0 -0.35862859224E+01  0.16183453485E+02  0.32878788762E+02  0.54367077091E+02  0.39999983844E+02 0.  0.
        -12    1    3    3    0    0  0.35862859224E+01 -0.16183453485E+02 -0.32878788762E+02  0.36820922909E+02  0.00000000000E+00 0.  1.
         11    1    4    4    0    0 -0.78503243551E+01  0.53845098978E+00  0.21453325550E+02  0.22850879619E+02  0.51100000000E-03 0. -1.
        -11    1    4    4    0    0  0.30276417926E+01  0.30016371546E+01  0.17084972863E+02  0.17608882373E+02  0.51100000000E-03 0.  1.
        -12    1    4    4    0    0  0.12363966401E+01  0.12643365340E+02 -0.56595096504E+01  0.13907315099E+02  0.00000000000E+00 0.  1.
</event>
<event>
 8    1  0.2493819E-006  0.9118800E+02  0.7816164E-02  0.1184000E+00
        -11   -1    0    0    0    0  0.00000000000E+00  0.00000000000E+00  0.45593999997E+02  0.45594000000E+02  0.51100000000E-03 0.  1.
         11   -1    0    0    0    0 -0.00000000000E+00 -0.00000000000E+00 -0.45593999997E+02  0.45594000000E+02  0.51100000000E-03 0. -1.
         23    2    1    2    0    0  0.00000000000E+00  0.00000000000E+00  0.00000000000E+00  0.91188000000E+02  0.91188000000E+02 0.  0.
    9900012    2    3    3    0    0  0.87960915087E+01  0.33428589573E+02  0.12686113358E+02  0.54367091554E+02  0.40000016815E+02 0.  0.
        -12    1    3    3    0    0 -0.87960915087E+01 -0.33428589573E+02 -0.12686113358E+02  0.36820908446E+02  0.00000000000E+00 0.  1.
         11    1    4    4    0    0  0.64475579069E+01  0.33500666405E+02  0.20990087722E+02  0.40055579329E+02  0.51100000000E-03 0. -1.
        -11    1    4    4    0    0  0.32464788935E+01 -0.51832377241E+01 -0.62084409393E+01  0.87149479441E+01  0.51100000000E-03 0.  1.
        -12    1    4    4    0    0 -0.89794529176E+00  0.51111608923E+01 -0.20955334249E+01  0.55965642808E+01  0.00000000000E+00 0.  1.
</event>
<event>
 8    1  0.2493819E-006  0.9118800E+02  0.7816164E-02  0.1184000E+00
        -11   -1    0    0    0    0  0.00000000000E+00  0.00000000000E+00  0.45593999997E+02  0.45594000000E+02  0.51100000000E-03 0.  1.
         11   -1    0    0    0    0 -0.00000000000E+00 -0.00000000000E+00 -0.45593999997E+02  0.45594000000E+02  0.51100000000E-03 0. -1.
         23    2    1    2    0    0  0.35527136788E-14  0.00000000000E+00  0.00000000000E+00  0.91188000000E+02  0.91188000000E+02 0.  0.
    9900012    2    3    3    0    0 -0.10239352342E+02  0.30635821242E+02 -0.17674236277E+02  0.54367129457E+02  0.40000103223E+02 0.  0.
        -12    1    3    3    0    0  0.10239352342E+02 -0.30635821242E+02  0.17674236277E+02  0.36820870543E+02  0.00000000000E+00 0.  1.
         11    1    4    4    0    0 -0.17223515223E+02  0.15914188039E+02 -0.83853051336E+01  0.24904300834E+02  0.51100000000E-03 0. -1.
        -11    1    4    4    0    0  0.74144540112E+01 -0.14942515851E+01  0.39424711470E+01  0.85293607668E+01  0.51100000000E-03 0.  1.
        -12    1    4    4    0    0 -0.43029113039E+00  0.16215884788E+02 -0.13231402290E+02  0.20933467856E+02  0.00000000000E+00 0.  1.
</event>
<event>
 8    1  0.2493819E-006  0.9118800E+02  0.7816164E-02  0.1184000E+00
        -11   -1    0    0    0    0  0.00000000000E+00  0.00000000000E+00  0.45593999997E+02  0.45594000000E+02  0.51100000000E-03 0. -1.
         11   -1    0    0    0    0 -0.00000000000E+00 -0.00000000000E+00 -0.45593999997E+02  0.45594000000E+02  0.51100000000E-03 0.  1.
         23    2    1    2    0    0  0.00000000000E+00  0.00000000000E+00  0.00000000000E+00  0.91188000000E+02  0.91188000000E+02 0.  0.
    9900012    2    3    3    0    0 -0.20446154954E+02  0.19630447919E+02  0.23502819233E+02  0.54367051482E+02  0.39999925463E+02 0.  0.
        -12    1    3    3    0    0  0.20446154954E+02 -0.19630447919E+02 -0.23502819233E+02  0.36820948518E+02  0.00000000000E+00 0.  1.
         11    1    4    4    0    0 -0.57552798645E+01 -0.85858413125E+01  0.11889955157E+02  0.15754712033E+02  0.51100000000E-03 0. -1.
        -11    1    4    4    0    0 -0.13005858871E+02  0.15314371655E+02 -0.14894536709E+01  0.20146980336E+02  0.51100000000E-03 0.  1.
         12    1    4    4    0    0 -0.16850162188E+01  0.12901917577E+02  0.13102317747E+02  0.18465359112E+02  0.00000000000E+00 0. -1.
</event>
<event>
 8    1  0.2493819E-006  0.9118800E+02  0.7816164E-02  0.1184000E+00
        -11   -1    0    0    0    0  0.00000000000E+00  0.00000000000E+00  0.45593999997E+02  0.45594000000E+02  0.51100000000E-03 0. -1.
         11   -1    0    0    0    0 -0.00000000000E+00 -0.00000000000E+00 -0.45593999997E+02  0.45594000000E+02  0.51100000000E-03 0.  1.
         23    2    1    2    0    0  0.17763568394E-14  0.00000000000E+00  0.00000000000E+00  0.91188000000E+02  0.91188000000E+02 0.  0.
    9900012    2    3    3    0    0 -0.14290653065E+02  0.17310051363E+02  0.29187659433E+02  0.54367080587E+02  0.39999991814E+02 0.  0.
        -12    1    3    3    0    0  0.14290653065E+02 -0.17310051363E+02 -0.29187659433E+02  0.36820919413E+02  0.00000000000E+00 0.  1.
         11    1    4    4    0    0 -0.15541958967E+01  0.73659914026E+01 -0.21834551700E+01  0.78384201833E+01  0.51100000000E-03 0. -1.
        -11    1    4    4    0    0  0.85190368549E+01  0.63432250484E+01  0.18745231937E+02  0.21545166826E+02  0.51100000000E-03 0.  1.
         12    1    4    4    0    0 -0.21255494023E+02  0.36008349124E+01  0.12625882667E+02  0.24983493578E+02  0.00000000000E+00 0. -1.
</event>
<event>
 8    1  0.2493819E-006  0.9118800E+02  0.7816164E-02  0.1184000E+00
        -11   -1    0    0    0    0  0.00000000000E+00  0.00000000000E+00  0.45593999997E+02  0.45594000000E+02  0.51100000000E-03 0.  1.
         11   -1    0    0    0    0 -0.00000000000E+00 -0.00000000000E+00 -0.45593999997E+02  0.45594000000E+02  0.51100000000E-03 0. -1.
         23    2    1    2    0    0 -0.35527136788E-14  0.00000000000E+00 -0.17763568394E-14  0.91188000000E+02  0.91188000000E+02 0.  0.
    9900012    2    3    3    0    0 -0.20872886182E+02 -0.28617511728E+02 -0.10056911296E+02  0.54367070899E+02  0.39999969728E+02 0.  0.
        -12    1    3    3    0    0  0.20872886182E+02  0.28617511728E+02  0.10056911296E+02  0.36820929101E+02  0.00000000000E+00 0.  1.
         11    1    4    4    0    0  0.63419652392E+00  0.22178850398E+01  0.63677201936E+00  0.23930520567E+01  0.51100000000E-03 0. -1.
        -11    1    4    4    0    0 -0.50957586380E+01  0.75117213699E+01 -0.84880618747E+00  0.91166433648E+01  0.51100000000E-03 0.  1.
         12    1    4    4    0    0 -0.16411324068E+02 -0.38347118138E+02 -0.98448771275E+01  0.42857375477E+02  0.00000000000E+00 0. -1.
</event>
<event>
 8    1  0.2493819E-006  0.9118800E+02  0.7816164E-02  0.1184000E+00
        -11   -1    0    0    0    0  0.00000000000E+00  0.00000000000E+00  0.45593999997E+02  0.45594000000E+02  0.51100000000E-03 0.  1.
         11   -1    0    0    0    0 -0.00000000000E+00 -0.00000000000E+00 -0.45593999997E+02  0.45594000000E+02  0.51100000000E-03 0. -1.
         23    2    1    2    0    0  0.17763568394E-14  0.00000000000E+00 -0.35527136788E-14  0.91188000000E+02  0.91188000000E+02 0.  0.
    9900012    2    3    3    0    0  0.11037853567E+02  0.20052471478E+02 -0.28841710960E+02  0.54367080472E+02  0.39999991553E+02 0.  0.
        -12    1    3    3    0    0 -0.11037853567E+02 -0.20052471478E+02  0.28841710960E+02  0.36820919528E+02  0.00000000000E+00 0.  1.
         11    1    4    4    0    0 -0.10576284134E+02 -0.23193758243E-01 -0.18039212111E+02  0.20911037705E+02  0.51100000000E-03 0. -1.
        -11    1    4    4    0    0 -0.46325040514E+00 -0.42430645018E+00  0.93207685683E+00  0.11240126466E+01  0.51100000000E-03 0.  1.
         12    1    4    4    0    0  0.22077388107E+02  0.20499971686E+02 -0.11734575706E+02  0.32332030121E+02  0.00000000000E+00 0. -1.
</event>
<event>
 8    1  0.2493819E-006  0.9118800E+02  0.7816164E-02  0.1184000E+00
        -11   -1    0    0    0    0  0.00000000000E+00  0.00000000000E+00  0.45593999997E+02  0.45594000000E+02  0.51100000000E-03 0. -1.
         11   -1    0    0    0    0 -0.00000000000E+00 -0.00000000000E+00 -0.45593999997E+02  0.45594000000E+02  0.51100000000E-03 0.  1.
         23    2    1    2    0    0 -0.17763568394E-14  0.00000000000E+00  0.35527136788E-14  0.91188000000E+02  0.91188000000E+02 0.  0.
    9900012    2    3    3    0    0 -0.13390510210E+02 -0.20882932464E+02 -0.27209875444E+02  0.54367082662E+02  0.39999996544E+02 0.  0.
         12    1    3    3    0    0  0.13390510210E+02  0.20882932464E+02  0.27209875444E+02  0.36820917338E+02  0.00000000000E+00 0. -1.
         11    1    4    4    0    0  0.22892571942E+01  0.57705980003E+00  0.57272924449E+01  0.61948022991E+01  0.51100000000E-03 0. -1.
        -11    1    4    4    0    0 -0.14627240036E+02 -0.88700397114E+01 -0.30977963563E+02  0.35387398637E+02  0.51100000000E-03 0.  1.
        -12    1    4    4    0    0 -0.10525273683E+01 -0.12589952552E+02 -0.19592043258E+01  0.12784881725E+02  0.00000000000E+00 0.  1.
</event>
<event>
 8    1  0.2493819E-006  0.9118800E+02  0.7816164E-02  0.1184000E+00
        -11   -1    0    0    0    0  0.00000000000E+00  0.00000000000E+00  0.45593999997E+02  0.45594000000E+02  0.51100000000E-03 0.  1.
         11   -1    0    0    0    0 -0.00000000000E+00 -0.00000000000E+00 -0.45593999997E+02  0.45594000000E+02  0.51100000000E-03 0. -1.
         23    2    1    2    0    0  0.00000000000E+00  0.00000000000E+00  0.00000000000E+00  0.91188000000E+02  0.91188000000E+02 0.  0.
    9900012    2    3    3    0    0  0.45144091579E+01  0.34060064946E+02  0.13240558983E+02  0.54367077736E+02  0.39999985315E+02 0.  0.
         12    1    3    3    0    0 -0.45144091579E+01 -0.34060064946E+02 -0.13240558983E+02  0.36820922264E+02  0.00000000000E+00 0. -1.
         11    1    4    4    0    0  0.22028620065E+01  0.17809079730E+01  0.12119837745E+02  0.12446473454E+02  0.51100000000E-03 0. -1.
        -11    1    4    4    0    0  0.26459912703E+01  0.18946940228E+02  0.13745103320E+02  0.23556648305E+02  0.51100000000E-03 0.  1.
         12    1    4    4    0    0 -0.33444411897E+00  0.13332216745E+02 -0.12624382081E+02  0.18363955977E+02  0.00000000000E+00 0. -1.
</event>
<event>
 8    1  0.2493819E-006  0.9118800E+02  0.7816164E-02  0.1184000E+00
        -11   -1    0    0    0    0  0.00000000000E+00  0.00000000000E+00  0.45593999997E+02  0.45594000000E+02  0.51100000000E-03 0.  1.
         11   -1    0    0    0    0 -0.00000000000E+00 -0.00000000000E+00 -0.45593999997E+02  0.45594000000E+02  0.51100000000E-03 0. -1.
         23    2    1    2    0    0 -0.17763568394E-14  0.35527136788E-14  0.35527136788E-14  0.91188000000E+02  0.91188000000E+02 0.  0.
    9900012    2    3    3    0    0 -0.82084086129E+01 -0.23339019207E+02  0.27270704643E+02  0.54367093965E+02  0.40000022312E+02 0.  0.
         12    1    3    3    0    0  0.82084086129E+01  0.23339019207E+02 -0.27270704643E+02  0.36820906035E+02  0.00000000000E+00 0. -1.
         11    1    4    4    0    0  0.32127066436E+01 -0.18436001709E+01 -0.51110620037E+01  0.63121549913E+01  0.51100000000E-03 0. -1.
        -11    1    4    4    0    0 -0.19933367055E+01  0.66546091662E+00  0.21543159215E+02  0.21645413802E+02  0.51100000000E-03 0.  1.
         12    1    4    4    0    0 -0.94277785509E+01 -0.22160879953E+02  0.10838607432E+02  0.26409525171E+02  0.00000000000E+00 0. -1.
</event>
<event>
 8    1  0.2493819E-006  0.9118800E+02  0.7816164E-02  0.1184000E+00
        -11   -1    0    0    0    0  0.00000000000E+00  0.00000000000E+00  0.45593999997E+02  0.45594000000E+02  0.51100000000E-03 0. -1.
         11   -1    0    0    0    0 -0.00000000000E+00 -0.00000000000E+00 -0.45593999997E+02  0.45594000000E+02  0.51100000000E-03 0.  1.
         23    2    1    2    0    0  0.00000000000E+00  0.71054273576E-14 -0.66613381478E-15  0.91188000000E+02  0.91188000000E+02 0.  0.
    9900012    2    3    3    0    0 -0.23288692793E+02  0.28492572660E+02  0.12608557323E+01  0.54367086568E+02  0.40000005449E+02 0.  0.
        -12    1    3    3    0    0  0.23288692793E+02 -0.28492572660E+02 -0.12608557323E+01  0.36820913432E+02  0.00000000000E+00 0.  1.
         11    1    4    4    0    0 -0.10699841315E+02  0.10455959284E+02 -0.63633252188E+01  0.16257478181E+02  0.51100000000E-03 0. -1.
        -11    1    4    4    0    0  0.63082167577E+00 -0.14542273114E+01 -0.90919739131E+01  0.92291225454E+01  0.51100000000E-03 0.  1.
         12    1    4    4    0    0 -0.13219673154E+02  0.19490840687E+02  0.16716154864E+02  0.28880485841E+02  0.00000000000E+00 0. -1.
</event>
<event>
 8    1  0.2493819E-006  0.9118800E+02  0.7816164E-02  0.1184000E+00
        -11   -1    0    0    0    0  0.00000000000E+00  0.00000000000E+00  0.45593999997E+02  0.45594000000E+02  0.51100000000E-03 0.  1.
         11   -1    0    0    0    0 -0.00000000000E+00 -0.00000000000E+00 -0.45593999997E+02  0.45594000000E+02  0.51100000000E-03 0. -1.
         23    2    1    2    0    0  0.35527136788E-14  0.00000000000E+00 -0.35527136788E-14  0.91188000000E+02  0.91188000000E+02 0.  0.
    9900012    2    3    3    0    0 -0.16250883852E+02  0.28429113331E+02  0.16836689270E+02  0.54367084526E+02  0.40000000794E+02 0.  0.
         12    1    3    3    0    0  0.16250883852E+02 -0.28429113331E+02 -0.16836689270E+02  0.36820915474E+02  0.00000000000E+00 0. -1.
         11    1    4    4    0    0 -0.19192177736E+02  0.73575428354E+01 -0.21728366591E+01  0.20668680225E+02  0.51100000000E-03 0. -1.
        -11    1    4    4    0    0  0.10111202143E+02  0.82389183784E+01  0.10231851863E+02  0.16577303087E+02  0.51100000000E-03 0.  1.
         12    1    4    4    0    0 -0.71699082589E+01  0.12832652117E+02  0.87776740653E+01  0.17121101215E+02  0.00000000000E+00 0. -1.
</event>
<event>
 8    1  0.2493819E-006  0.9118800E+02  0.7816164E-02  0.1184000E+00
        -11   -1    0    0    0    0  0.00000000000E+00  0.00000000000E+00  0.45593999997E+02  0.45594000000E+02  0.51100000000E-03 0.  1.
         11   -1    0    0    0    0 -0.00000000000E+00 -0.00000000000E+00 -0.45593999997E+02  0.45594000000E+02  0.51100000000E-03 0. -1.
         23    2    1    2    0    0  0.00000000000E+00  0.35527136788E-14  0.00000000000E+00  0.91188000000E+02  0.91188000000E+02 0.  0.
    9900012    2    3    3    0    0 -0.15383161251E+02 -0.29646904976E+02  0.15498371765E+02  0.54367079966E+02  0.39999990399E+02 0.  0.
        -12    1    3    3    0    0  0.15383161251E+02  0.29646904976E+02 -0.15498371765E+02  0.36820920034E+02  0.00000000000E+00 0.  1.
         11    1    4    4    0    0 -0.10027907668E+02 -0.21225935025E+02  0.23747032923E+02  0.33391927509E+02  0.51100000000E-03 0. -1.
        -11    1    4    4    0    0 -0.88956111424E+01 -0.57602275661E+01  0.10759925633E+01  0.10652224156E+02  0.51100000000E-03 0.  1.
        -12    1    4    4    0    0  0.35403575594E+01 -0.26607423856E+01 -0.93246537212E+01  0.10322928301E+02  0.00000000000E+00 0.  1.
</event>
<event>
 8    1  0.2493819E-006  0.9118800E+02  0.7816164E-02  0.1184000E+00
        -11   -1    0    0    0    0  0.00000000000E+00  0.00000000000E+00  0.45593999997E+02  0.45594000000E+02  0.51100000000E-03 0.  1.
         11   -1    0    0    0    0 -0.00000000000E+00 -0.00000000000E+00 -0.45593999997E+02  0.45594000000E+02  0.51100000000E-03 0. -1.
         23    2    1    2    0    0 -0.17763568394E-14 -0.71054273576E-14  0.00000000000E+00  0.91188000000E+02  0.91188000000E+02 0.  0.
    9900012    2    3    3    0    0 -0.10871392724E+02  0.32874184396E+02 -0.12525223473E+02  0.54367076566E+02  0.39999982648E+02 0.  0.
        -12    1    3    3    0    0  0.10871392724E+02 -0.32874184396E+02  0.12525223473E+02  0.36820923434E+02  0.00000000000E+00 0.  1.
         11    1    4    4    0    0  0.86269134090E+01  0.34873538831E+01 -0.11638283621E+02  0.14900836151E+02  0.51100000000E-03 0. -1.
        -11    1    4    4    0    0 -0.19641309333E+02  0.15374375259E+02 -0.35740594850E+01  0.25197744907E+02  0.51100000000E-03 0.  1.
         12    1    4    4    0    0  0.14300320034E+00  0.14012455254E+02  0.26871196332E+01  0.14268495509E+02  0.00000000000E+00 0. -1.
</event>
<event>
 8    1  0.2493819E-006  0.9118800E+02  0.7816164E-02  0.1184000E+00
        -11   -1    0    0    0    0  0.00000000000E+00  0.00000000000E+00  0.45593999997E+02  0.45594000000E+02  0.51100000000E-03 0. -1.
         11   -1    0    0    0    0 -0.00000000000E+00 -0.00000000000E+00 -0.45593999997E+02  0.45594000000E+02  0.51100000000E-03 0.  1.
         23    2    1    2    0    0 -0.35527136788E-14 -0.19428902931E-15  0.35527136788E-14  0.91188000000E+02  0.91188000000E+02 0.  0.
    9900012    2    3    3    0    0 -0.25390106147E+02  0.24393567935E+00  0.26665817146E+02  0.54367044026E+02  0.39999908466E+02 0.  0.
        -12    1    3    3    0    0  0.25390106147E+02 -0.24393567935E+00 -0.26665817146E+02  0.36820955974E+02  0.00000000000E+00 0.  1.
         11    1    4    4    0    0  0.21836686321E+01 -0.14695903995E+01  0.10000809434E+02  0.10341387443E+02  0.51100000000E-03 0. -1.
        -11    1    4    4    0    0 -0.30273010382E+02 -0.70538813389E+01  0.98826354193E+01  0.32617156262E+02  0.51100000000E-03 0.  1.
        -12    1    4    4    0    0  0.26992356032E+01  0.87674074178E+01  0.67823722926E+01  0.11408500322E+02  0.00000000000E+00 0.  1.
</event>
<event>
 8    1  0.2493819E-006  0.9118800E+02  0.7816164E-02  0.1184000E+00
        -11   -1    0    0    0    0  0.00000000000E+00  0.00000000000E+00  0.45593999997E+02  0.45594000000E+02  0.51100000000E-03 0. -1.
         11   -1    0    0    0    0 -0.00000000000E+00 -0.00000000000E+00 -0.45593999997E+02  0.45594000000E+02  0.51100000000E-03 0.  1.
         23    2    1    2    0    0  0.00000000000E+00  0.00000000000E+00  0.00000000000E+00  0.91188000000E+02  0.91188000000E+02 0.  0.
    9900012    2    3    3    0    0  0.26095076919E+02 -0.16481827154E+02  0.20079361048E+02  0.54367022204E+02  0.39999858718E+02 0.  0.
        -12    1    3    3    0    0 -0.26095076919E+02  0.16481827154E+02 -0.20079361048E+02  0.36820977796E+02  0.00000000000E+00 0.  1.
         11    1    4    4    0    0  0.12881484656E+02 -0.20485170606E+02 -0.11785783900E+01  0.24227338049E+02  0.51100000000E-03 0. -1.
        -11    1    4    4    0    0 -0.12843488429E+01  0.52589220456E+00 -0.20473851505E+01  0.24734390586E+01  0.51100000000E-03 0.  1.
         12    1    4    4    0    0  0.14497941107E+02  0.34774512471E+01  0.23305324589E+02  0.27666245096E+02  0.00000000000E+00 0. -1.
</event>
<event>
 8    1  0.2493819E-006  0.9118800E+02  0.7816164E-02  0.1184000E+00
        -11   -1    0    0    0    0  0.00000000000E+00  0.00000000000E+00  0.45593999997E+02  0.45594000000E+02  0.51100000000E-03 0. -1.
         11   -1    0    0    0    0 -0.00000000000E+00 -0.00000000000E+00 -0.45593999997E+02  0.45594000000E+02  0.51100000000E-03 0.  1.
         23    2    1    2    0    0  0.00000000000E+00  0.00000000000E+00 -0.17763568394E-14  0.91188000000E+02  0.91188000000E+02 0.  0.
    9900012    2    3    3    0    0  0.11491256096E+02 -0.33790349874E+02 -0.90522307954E+01  0.54367087550E+02  0.40000007687E+02 0.  0.
         12    1    3    3    0    0 -0.11491256096E+02  0.33790349874E+02  0.90522307954E+01  0.36820912450E+02  0.00000000000E+00 0. -1.
         11    1    4    4    0    0  0.56769805271E+01 -0.20266719244E+02  0.86014925538E+01  0.22736615650E+02  0.51100000000E-03 0. -1.
        -11    1    4    4    0    0 -0.79881048498E+01 -0.25675398094E+01 -0.77172978391E+01  0.11399945875E+02  0.51100000000E-03 0.  1.
         12    1    4    4    0    0  0.13802380418E+02 -0.10956090822E+02 -0.99364255101E+01  0.20230526024E+02  0.00000000000E+00 0. -1.
</event>
<event>
 8    1  0.2493819E-006  0.9118800E+02  0.7816164E-02  0.1184000E+00
        -11   -1    0    0    0    0  0.00000000000E+00  0.00000000000E+00  0.45593999997E+02  0.45594000000E+02  0.51100000000E-03 0. -1.
         11   -1    0    0    0    0 -0.00000000000E+00 -0.00000000000E+00 -0.45593999997E+02  0.45594000000E+02  0.51100000000E-03 0.  1.
         23    2    1    2    0    0  0.35527136788E-14  0.17763568394E-14  0.00000000000E+00  0.91188000000E+02  0.91188000000E+02 0.  0.
    9900012    2    3    3    0    0  0.13053752321E+02  0.11352327079E+02  0.32503906998E+02  0.54367085429E+02  0.40000002852E+02 0.  0.
        -12    1    3    3    0    0 -0.13053752321E+02 -0.11352327079E+02 -0.32503906998E+02  0.36820914571E+02  0.00000000000E+00 0.  1.
         11    1    4    4    0    0 -0.72252831059E+01 -0.22379473160E+00  0.20910245100E+02  0.22124492095E+02  0.51100000000E-03 0. -1.
        -11    1    4    4    0    0  0.47356957302E+01 -0.49001457949E+01  0.38731254082E-01  0.68146711756E+01  0.51100000000E-03 0.  1.
         12    1    4    4    0    0  0.15543339696E+02  0.16476267605E+02  0.11554930644E+02  0.25427922158E+02  0.00000000000E+00 0. -1.
</event>
<event>
 8    1  0.2493819E-006  0.9118800E+02  0.7816164E-02  0.1184000E+00
        -11   -1    0    0    0    0  0.00000000000E+00  0.00000000000E+00  0.45593999997E+02  0.45594000000E+02  0.51100000000E-03 0. -1.
         11   -1    0    0    0    0 -0.00000000000E+00 -0.00000000000E+00 -0.45593999997E+02  0.45594000000E+02  0.51100000000E-03 0.  1.
         23    2    1    2    0    0  0.35527136788E-14  0.00000000000E+00  0.00000000000E+00  0.91188000000E+02  0.91188000000E+02 0.  0.
    9900012    2    3    3    0    0 -0.30846523107E+02  0.16038638972E+02  0.12125854974E+02  0.54367050980E+02  0.39999924320E+02 0.  0.
        -12    1    3    3    0    0  0.30846523107E+02 -0.16038638972E+02 -0.12125854974E+02  0.36820949020E+02  0.00000000000E+00 0.  1.
         11    1    4    4    0    0 -0.10220152571E+02  0.14373104262E+02  0.72747841360E+01  0.19077739101E+02  0.51100000000E-03 0. -1.
        -11    1    4    4    0    0  0.62668411890E+01  0.40570371031E+01  0.35292739738E+01  0.82576403159E+01  0.51100000000E-03 0.  1.
         12    1    4    4    0    0 -0.26893211725E+02 -0.23915023937E+01  0.13217968644E+01  0.27031671564E+02  0.00000000000E+00 0. -1.
</event>
<event>
 8    1  0.2493819E-006  0.9118800E+02  0.7816164E-02  0.1184000E+00
        -11   -1    0    0    0    0  0.00000000000E+00  0.00000000000E+00  0.45593999997E+02  0.45594000000E+02  0.51100000000E-03 0. -1.
         11   -1    0    0    0    0 -0.00000000000E+00 -0.00000000000E+00 -0.45593999997E+02  0.45594000000E+02  0.51100000000E-03 0.  1.
         23    2    1    2    0    0  0.88817841970E-15  0.66613381478E-15  0.00000000000E+00  0.91188000000E+02  0.91188000000E+02 0.  0.
    9900012    2    3    3    0    0 -0.71039513558E+01 -0.19572343866E+01 -0.36076079195E+02  0.54367076853E+02  0.39999983301E+02 0.  0.
         12    1    3    3    0    0  0.71039513558E+01  0.19572343866E+01  0.36076079195E+02  0.36820923147E+02  0.00000000000E+00 0. -1.
         11    1    4    4    0    0  0.67902884012E+01  0.11460029487E+02 -0.17605204259E+02  0.22076764022E+02  0.51100000000E-03 0. -1.
        -11    1    4    4    0    0 -0.91947874421E+01 -0.16303461303E+02 -0.77984125688E+01  0.20277135040E+02  0.51100000000E-03 0.  1.
        -12    1    4    4    0    0 -0.46994523148E+01  0.28861974300E+01 -0.10672462367E+02  0.12013177791E+02  0.00000000000E+00 0.  1.
</event>
<event>
 8    1  0.2493819E-006  0.9118800E+02  0.7816164E-02  0.1184000E+00
        -11   -1    0    0    0    0  0.00000000000E+00  0.00000000000E+00  0.45593999997E+02  0.45594000000E+02  0.51100000000E-03 0. -1.
         11   -1    0    0    0    0 -0.00000000000E+00 -0.00000000000E+00 -0.45593999997E+02  0.45594000000E+02  0.51100000000E-03 0.  1.
         23    2    1    2    0    0  0.00000000000E+00  0.71054273576E-14  0.00000000000E+00  0.91188000000E+02  0.91188000000E+02 0.  0.
    9900012    2    3    3    0    0  0.47055014353E+00 -0.36180971662E+02  0.68186023600E+01  0.54367116442E+02  0.40000073552E+02 0.  0.
         12    1    3    3    0    0 -0.47055014353E+00  0.36180971662E+02 -0.68186023600E+01  0.36820883558E+02  0.00000000000E+00 0. -1.
         11    1    4    4    0    0  0.18863963886E+01  0.73493413323E+01  0.54935731221E+01  0.93675319729E+01  0.51100000000E-03 0. -1.
        -11    1    4    4    0    0  0.33457598023E+01 -0.35018600238E+02  0.19022290303E+01  0.35229461348E+02  0.51100000000E-03 0.  1.
         12    1    4    4    0    0 -0.47616060473E+01 -0.85117127566E+01 -0.57719979243E+00  0.97701231211E+01  0.00000000000E+00 0. -1.
</event>
<event>
 8    1  0.2493819E-006  0.9118800E+02  0.7816164E-02  0.1184000E+00
        -11   -1    0    0    0    0  0.00000000000E+00  0.00000000000E+00  0.45593999997E+02  0.45594000000E+02  0.51100000000E-03 0.  1.
         11   -1    0    0    0    0 -0.00000000000E+00 -0.00000000000E+00 -0.45593999997E+02  0.45594000000E+02  0.51100000000E-03 0. -1.
         23    2    1    2    0    0  0.00000000000E+00 -0.17763568394E-14  0.71054273576E-14  0.91188000000E+02  0.91188000000E+02 0.  0.
    9900012    2    3    3    0    0 -0.25955569000E+02 -0.97592022259E+01  0.24224925958E+02  0.54367073506E+02  0.39999975671E+02 0.  0.
         12    1    3    3    0    0  0.25955569000E+02  0.97592022259E+01 -0.24224925958E+02  0.36820926494E+02  0.00000000000E+00 0. -1.
         11    1    4    4    0    0 -0.10522790915E+02  0.11374003386E+02 -0.76549670228E+00  0.15513963618E+02  0.51100000000E-03 0. -1.
        -11    1    4    4    0    0 -0.10301661708E+02 -0.80392742777E+01  0.41480985318E+01  0.13709882805E+02  0.51100000000E-03 0.  1.
        -12    1    4    4    0    0 -0.51311163778E+01 -0.13093931334E+02  0.20842324128E+02  0.25143227083E+02  0.00000000000E+00 0.  1.
</event>
<event>
 8    1  0.2493819E-006  0.9118800E+02  0.7816164E-02  0.1184000E+00
        -11   -1    0    0    0    0  0.00000000000E+00  0.00000000000E+00  0.45593999997E+02  0.45594000000E+02  0.51100000000E-03 0.  1.
         11   -1    0    0    0    0 -0.00000000000E+00 -0.00000000000E+00 -0.45593999997E+02  0.45594000000E+02  0.51100000000E-03 0. -1.
         23    2    1    2    0    0  0.00000000000E+00 -0.88817841970E-15  0.88817841970E-15  0.91188000000E+02  0.91188000000E+02 0.  0.
    9900012    2    3    3    0    0 -0.36365125338E+02  0.21715398071E+01  0.53516273022E+01  0.54367111353E+02  0.40000061951E+02 0.  0.
        -12    1    3    3    0    0  0.36365125338E+02 -0.21715398071E+01 -0.53516273022E+01  0.36820888647E+02  0.00000000000E+00 0.  1.
         11    1    4    4    0    0 -0.34098760745E+02 -0.17070572535E+01 -0.17262345624E+01  0.34185075908E+02  0.51100000000E-03 0. -1.
        -11    1    4    4    0    0 -0.30118159751E+01 -0.59337350180E+01 -0.18375585894E+01  0.69033954372E+01  0.51100000000E-03 0.  1.
        -12    1    4    4    0    0  0.74545138231E+00  0.98123320785E+01  0.89154204540E+01  0.13278640008E+02  0.00000000000E+00 0.  1.
</event>
<event>
 8    1  0.2493819E-006  0.9118800E+02  0.7816164E-02  0.1184000E+00
        -11   -1    0    0    0    0  0.00000000000E+00  0.00000000000E+00  0.45593999997E+02  0.45594000000E+02  0.51100000000E-03 0. -1.
         11   -1    0    0    0    0 -0.00000000000E+00 -0.00000000000E+00 -0.45593999997E+02  0.45594000000E+02  0.51100000000E-03 0.  1.
         23    2    1    2    0    0 -0.35527136788E-14 -0.35527136788E-14 -0.17763568394E-14  0.91188000000E+02  0.91188000000E+02 0.  0.
    9900012    2    3    3    0    0 -0.31185266834E+02 -0.16505971773E+02 -0.10526899621E+02  0.54367033320E+02  0.39999884059E+02 0.  0.
         12    1    3    3    0    0  0.31185266834E+02  0.16505971773E+02  0.10526899621E+02  0.36820966680E+02  0.00000000000E+00 0. -1.
         11    1    4    4    0    0 -0.10959124131E+02  0.49379222347E+01  0.41645449216E+01  0.12721199329E+02  0.51100000000E-03 0. -1.
        -11    1    4    4    0    0 -0.19309964749E+02 -0.96762925869E+01 -0.19309124983E+02  0.28971497799E+02  0.51100000000E-03 0.  1.
         12    1    4    4    0    0 -0.91617795424E+00 -0.11767601421E+02  0.46176804412E+01  0.12674336192E+02  0.00000000000E+00 0. -1.
</event>
<event>
 8    1  0.2493819E-006  0.9118800E+02  0.7816164E-02  0.1184000E+00
        -11   -1    0    0    0    0  0.00000000000E+00  0.00000000000E+00  0.45593999997E+02  0.45594000000E+02  0.51100000000E-03 0.  1.
         11   -1    0    0    0    0 -0.00000000000E+00 -0.00000000000E+00 -0.45593999997E+02  0.45594000000E+02  0.51100000000E-03 0. -1.
         23    2    1    2    0    0  0.00000000000E+00 -0.17763568394E-14  0.00000000000E+00  0.91188000000E+02  0.91188000000E+02 0.  0.
    9900012    2    3    3    0    0  0.13788415973E+02 -0.11220580129E+02  0.32245272199E+02  0.54367090008E+02  0.40000013291E+02 0.  0.
         12    1    3    3    0    0 -0.13788415973E+02  0.11220580129E+02 -0.32245272199E+02  0.36820909992E+02  0.00000000000E+00 0. -1.
         11    1    4    4    0    0 -0.46645104438E+01 -0.20519402812E+01  0.98491258541E+01  0.11089337083E+02  0.51100000000E-03 0. -1.
        -11    1    4    4    0    0  0.74608323734E+01 -0.11486301316E+02  0.27664879587E+02  0.30869802404E+02  0.51100000000E-03 0.  1.
         12    1    4    4    0    0  0.10992094043E+02  0.23176614681E+01 -0.52687332423E+01  0.12407950520E+02  0.00000000000E+00 0. -1.
</event>
<event>
 8    1  0.2493819E-006  0.9118800E+02  0.7816164E-02  0.1184000E+00
        -11   -1    0    0    0    0  0.00000000000E+00  0.00000000000E+00  0.45593999997E+02  0.45594000000E+02  0.51100000000E-03 0.  1.
         11   -1    0    0    0    0 -0.00000000000E+00 -0.00000000000E+00 -0.45593999997E+02  0.45594000000E+02  0.51100000000E-03 0. -1.
         23    2    1    2    0    0  0.00000000000E+00  0.00000000000E+00 -0.35527136788E-14  0.91188000000E+02  0.91188000000E+02 0.  0.
    9900012    2    3    3    0    0  0.34012275590E+02 -0.82755801725E+01 -0.11421812382E+02  0.54367110330E+02  0.40000059620E+02 0.  0.
        -12    1    3    3    0    0 -0.34012275590E+02  0.82755801725E+01  0.11421812382E+02  0.36820889670E+02  0.00000000000E+00 0.  1.
         11    1    4    4    0    0  0.68273909864E+01  0.20130188182E+01  0.10063367161E+02  0.12326267534E+02  0.51100000000E-03 0. -1.
        -11    1    4    4    0    0  0.11189982973E+02 -0.53152110710E+01  0.26443667143E+01  0.12667275289E+02  0.51100000000E-03 0.  1.
         12    1    4    4    0    0  0.15994901630E+02 -0.49733879196E+01 -0.24129546257E+02  0.29373567507E+02  0.00000000000E+00 0. -1.
</event>
<event>
 8    1  0.2493819E-006  0.9118800E+02  0.7816164E-02  0.1184000E+00
        -11   -1    0    0    0    0  0.00000000000E+00  0.00000000000E+00  0.45593999997E+02  0.45594000000E+02  0.51100000000E-03 0. -1.
         11   -1    0    0    0    0 -0.00000000000E+00 -0.00000000000E+00 -0.45593999997E+02  0.45594000000E+02  0.51100000000E-03 0.  1.
         23    2    1    2    0    0 -0.35527136788E-14 -0.88817841970E-15  0.00000000000E+00  0.91188000000E+02  0.91188000000E+02 0.  0.
    9900012    2    3    3    0    0 -0.29953402182E+02 -0.16418685330E+01 -0.21351266406E+02  0.54367100885E+02  0.40000038087E+02 0.  0.
         12    1    3    3    0    0  0.29953402182E+02  0.16418685330E+01  0.21351266406E+02  0.36820899115E+02  0.00000000000E+00 0. -1.
         11    1    4    4    0    0 -0.10443089827E+02 -0.12640375300E+02 -0.11951744780E+02  0.20289933869E+02  0.51100000000E-03 0. -1.
        -11    1    4    4    0    0 -0.65717032014E+01  0.16907160680E+02 -0.26461188007E+01  0.18331429574E+02  0.51100000000E-03 0.  1.
         12    1    4    4    0    0 -0.12938609153E+02 -0.59086539138E+01 -0.67534028256E+01  0.15745737442E+02  0.00000000000E+00 0. -1.
</event>
<event>
 8    1  0.2493819E-006  0.9118800E+02  0.7816164E-02  0.1184000E+00
        -11   -1    0    0    0    0  0.00000000000E+00  0.00000000000E+00  0.45593999997E+02  0.45594000000E+02  0.51100000000E-03 0.  1.
         11   -1    0    0    0    0 -0.00000000000E+00 -0.00000000000E+00 -0.45593999997E+02  0.45594000000E+02  0.51100000000E-03 0. -1.
         23    2    1    2    0    0  0.00000000000E+00  0.00000000000E+00  0.71054273576E-14  0.91188000000E+02  0.91188000000E+02 0.  0.
    9900012    2    3    3    0    0 -0.10424763238E+02 -0.11504127375E+02  0.33388019928E+02  0.54367075108E+02  0.39999979323E+02 0.  0.
         12    1    3    3    0    0  0.10424763238E+02  0.11504127375E+02 -0.33388019928E+02  0.36820924892E+02  0.00000000000E+00 0. -1.
         11    1    4    4    0    0 -0.38745282274E+01  0.71682492498E+01 -0.23588412870E+01  0.84829180575E+01  0.51100000000E-03 0. -1.
        -11    1    4    4    0    0 -0.11462085648E+02 -0.23227123992E+01  0.14537638124E+02  0.18657902422E+02  0.51100000000E-03 0.  1.
         12    1    4    4    0    0  0.49118506375E+01 -0.16349664225E+02  0.21209223091E+02  0.27226254628E+02  0.00000000000E+00 0. -1.
</event>
<event>
 8    1  0.2493819E-006  0.9118800E+02  0.7816164E-02  0.1184000E+00
        -11   -1    0    0    0    0  0.00000000000E+00  0.00000000000E+00  0.45593999997E+02  0.45594000000E+02  0.51100000000E-03 0. -1.
         11   -1    0    0    0    0 -0.00000000000E+00 -0.00000000000E+00 -0.45593999997E+02  0.45594000000E+02  0.51100000000E-03 0.  1.
         23    2    1    2    0    0 -0.35527136788E-14  0.35527136788E-14  0.00000000000E+00  0.91188000000E+02  0.91188000000E+02 0.  0.
    9900012    2    3    3    0    0  0.30462478512E+02 -0.16997629621E+02  0.11785505461E+02  0.54367080012E+02  0.39999990503E+02 0.  0.
         12    1    3    3    0    0 -0.30462478512E+02  0.16997629621E+02 -0.11785505461E+02  0.36820919988E+02  0.00000000000E+00 0. -1.
         11    1    4    4    0    0  0.67349185307E+01  0.11308210050E+01  0.89243525870E+01  0.11237524332E+02  0.51100000000E-03 0. -1.
        -11    1    4    4    0    0  0.13132850079E+02 -0.26324161899E+02 -0.68056628373E-01  0.29418325630E+02  0.51100000000E-03 0.  1.
        -12    1    4    4    0    0  0.10594709902E+02  0.81957112731E+01  0.29292095024E+01  0.13711230050E+02  0.00000000000E+00 0.  1.
</event>
<event>
 8    1  0.2493819E-006  0.9118800E+02  0.7816164E-02  0.1184000E+00
        -11   -1    0    0    0    0  0.00000000000E+00  0.00000000000E+00  0.45593999997E+02  0.45594000000E+02  0.51100000000E-03 0. -1.
         11   -1    0    0    0    0 -0.00000000000E+00 -0.00000000000E+00 -0.45593999997E+02  0.45594000000E+02  0.51100000000E-03 0.  1.
         23    2    1    2    0    0  0.71054273576E-14 -0.35527136788E-14 -0.17763568394E-14  0.91188000000E+02  0.91188000000E+02 0.  0.
    9900012    2    3    3    0    0  0.33984123973E+02 -0.10407567206E+02 -0.96198789858E+01  0.54367079193E+02  0.39999988637E+02 0.  0.
         12    1    3    3    0    0 -0.33984123973E+02  0.10407567206E+02  0.96198789858E+01  0.36820920807E+02  0.00000000000E+00 0. -1.
         11    1    4    4    0    0  0.50288859181E+01 -0.44075049543E+01 -0.73436203755E+01  0.99319964750E+01  0.51100000000E-03 0. -1.
        -11    1    4    4    0    0  0.12749706123E+02 -0.19465150407E+02 -0.27479677644E+00  0.23270638154E+02  0.51100000000E-03 0.  1.
         12    1    4    4    0    0  0.16205531932E+02  0.13465088155E+02 -0.20014618338E+01  0.21164444564E+02  0.00000000000E+00 0. -1.
</event>
<event>
 8    1  0.2493819E-006  0.9118800E+02  0.7816164E-02  0.1184000E+00
        -11   -1    0    0    0    0  0.00000000000E+00  0.00000000000E+00  0.45593999997E+02  0.45594000000E+02  0.51100000000E-03 0.  1.
         11   -1    0    0    0    0 -0.00000000000E+00 -0.00000000000E+00 -0.45593999997E+02  0.45594000000E+02  0.51100000000E-03 0. -1.
         23    2    1    2    0    0  0.00000000000E+00  0.17763568394E-14  0.44408920985E-15  0.91188000000E+02  0.91188000000E+02 0.  0.
    9900012    2    3    3    0    0 -0.35917647524E+02 -0.80207151839E+01  0.11704648888E+01  0.54367092030E+02  0.40000017900E+02 0.  0.
         12    1    3    3    0    0  0.35917647524E+02  0.80207151839E+01 -0.11704648888E+01  0.36820907970E+02  0.00000000000E+00 0. -1.
         11    1    4    4    0    0 -0.31163391228E+02 -0.79457747078E+00 -0.17621675493E+01  0.31223285236E+02  0.51100000000E-03 0. -1.
        -11    1    4    4    0    0 -0.86246378298E+01 -0.89745064000E+01 -0.55724068688E+01  0.13637370032E+02  0.51100000000E-03 0.  1.
        -12    1    4    4    0    0  0.38703815342E+01  0.17483686868E+01  0.85050393069E+01  0.95064367613E+01  0.00000000000E+00 0.  1.
</event>
<event>
 8    1  0.2493819E-006  0.9118800E+02  0.7816164E-02  0.1184000E+00
        -11   -1    0    0    0    0  0.00000000000E+00  0.00000000000E+00  0.45593999997E+02  0.45594000000E+02  0.51100000000E-03 0.  1.
         11   -1    0    0    0    0 -0.00000000000E+00 -0.00000000000E+00 -0.45593999997E+02  0.45594000000E+02  0.51100000000E-03 0. -1.
         23    2    1    2    0    0  0.00000000000E+00  0.00000000000E+00 -0.35527136788E-14  0.91188000000E+02  0.91188000000E+02 0.  0.
    9900012    2    3    3    0    0  0.20822781888E+02 -0.54724614498E+01 -0.29870437506E+02  0.54367094027E+02  0.40000022453E+02 0.  0.
        -12    1    3    3    0    0 -0.20822781888E+02  0.54724614498E+01  0.29870437506E+02  0.36820905973E+02  0.00000000000E+00 0.  1.
         11    1    4    4    0    0  0.17055027454E+02 -0.80114066458E+01 -0.34227223984E+02  0.39071210114E+02  0.51100000000E-03 0. -1.
        -11    1    4    4    0    0 -0.39522185807E+01  0.50031051378E+01  0.31202325737E+01  0.70983761738E+01  0.51100000000E-03 0.  1.
        -12    1    4    4    0    0  0.77199730149E+01 -0.24641599419E+01  0.12365539041E+01  0.81975077388E+01  0.00000000000E+00 0.  1.
</event>
<event>
 8    1  0.2493819E-006  0.9118800E+02  0.7816164E-02  0.1184000E+00
        -11   -1    0    0    0    0  0.00000000000E+00  0.00000000000E+00  0.45593999997E+02  0.45594000000E+02  0.51100000000E-03 0. -1.
         11   -1    0    0    0    0 -0.00000000000E+00 -0.00000000000E+00 -0.45593999997E+02  0.45594000000E+02  0.51100000000E-03 0.  1.
         23    2    1    2    0    0  0.00000000000E+00 -0.35527136788E-14  0.00000000000E+00  0.91188000000E+02  0.91188000000E+02 0.  0.
    9900012    2    3    3    0    0  0.13312765721E+02  0.22863918486E+02 -0.25608461438E+02  0.54367057632E+02  0.39999939483E+02 0.  0.
         12    1    3    3    0    0 -0.13312765721E+02 -0.22863918486E+02  0.25608461438E+02  0.36820942368E+02  0.00000000000E+00 0. -1.
         11    1    4    4    0    0 -0.83627371566E+01  0.43903068525E+01  0.16288592825E+01  0.95845370171E+01  0.51100000000E-03 0. -1.
        -11    1    4    4    0    0 -0.42639604435E+01  0.38792781434E+01 -0.38839276920E+01  0.69509029741E+01  0.51100000000E-03 0.  1.
        -12    1    4    4    0    0  0.25939463321E+02  0.14594333490E+02 -0.23353393028E+02  0.37831617641E+02  0.00000000000E+00 0.  1.
</event>
<event>
 8    1  0.2493819E-006  0.9118800E+02  0.7816164E-02  0.1184000E+00
        -11   -1    0    0    0    0  0.00000000000E+00  0.00000000000E+00  0.45593999997E+02  0.45594000000E+02  0.51100000000E-03 0.  1.
         11   -1    0    0    0    0 -0.00000000000E+00 -0.00000000000E+00 -0.45593999997E+02  0.45594000000E+02  0.51100000000E-03 0. -1.
         23    2    1    2    0    0  0.00000000000E+00 -0.22204460493E-15  0.35527136788E-14  0.91188000000E+02  0.91188000000E+02 0.  0.
    9900012    2    3    3    0    0 -0.21456321977E+02  0.15331967654E+01 -0.29884049625E+02  0.54367070258E+02  0.39999968266E+02 0.  0.
        -12    1    3    3    0    0  0.21456321977E+02 -0.15331967654E+01  0.29884049625E+02  0.36820929742E+02  0.00000000000E+00 0.  1.
         11    1    4    4    0    0 -0.67348877337E+01  0.14477304587E-01  0.58411678727E+01  0.89150527063E+01  0.51100000000E-03 0. -1.
        -11    1    4    4    0    0 -0.79710298563E+01  0.19494989190E+01  0.85618032235E+00  0.82505095606E+01  0.51100000000E-03 0.  1.
         12    1    4    4    0    0 -0.67504043875E+01 -0.43077945810E+00 -0.36581397820E+02  0.37201507991E+02  0.00000000000E+00 0. -1.
</event>
<event>
 8    1  0.2493819E-006  0.9118800E+02  0.7816164E-02  0.1184000E+00
        -11   -1    0    0    0    0  0.00000000000E+00  0.00000000000E+00  0.45593999997E+02  0.45594000000E+02  0.51100000000E-03 0. -1.
         11   -1    0    0    0    0 -0.00000000000E+00 -0.00000000000E+00 -0.45593999997E+02  0.45594000000E+02  0.51100000000E-03 0.  1.
         23    2    1    2    0    0 -0.88817841970E-15  0.00000000000E+00  0.00000000000E+00  0.91188000000E+02  0.91188000000E+02 0.  0.
    9900012    2    3    3    0    0 -0.49659462127E+01 -0.29133057841E+02  0.21963250964E+02  0.54367081029E+02  0.39999992822E+02 0.  0.
        -12    1    3    3    0    0  0.49659462127E+01  0.29133057841E+02 -0.21963250964E+02  0.36820918971E+02  0.00000000000E+00 0.  1.
         11    1    4    4    0    0 -0.13032619465E+02 -0.23517572849E+02  0.10716959326E+02  0.28944405682E+02  0.51100000000E-03 0. -1.
        -11    1    4    4    0    0  0.61245237531E+01  0.69080547767E+01  0.13224730144E+01  0.93263040448E+01  0.51100000000E-03 0.  1.
        -12    1    4    4    0    0  0.19421494992E+01 -0.12523539769E+02  0.99238186238E+01  0.16096371302E+02  0.00000000000E+00 0.  1.
</event>
<event>
 8    1  0.2493819E-006  0.9118800E+02  0.7816164E-02  0.1184000E+00
        -11   -1    0    0    0    0  0.00000000000E+00  0.00000000000E+00  0.45593999997E+02  0.45594000000E+02  0.51100000000E-03 0.  1.
         11   -1    0    0    0    0 -0.00000000000E+00 -0.00000000000E+00 -0.45593999997E+02  0.45594000000E+02  0.51100000000E-03 0. -1.
         23    2    1    2    0    0  0.26645352591E-14  0.26645352591E-14  0.71054273576E-14  0.91188000000E+02  0.91188000000E+02 0.  0.
    9900012    2    3    3    0    0  0.54210953191E+01  0.68497417786E+01  0.35769711040E+02  0.54367089300E+02  0.40000011677E+02 0.  0.
         12    1    3    3    0    0 -0.54210953191E+01 -0.68497417786E+01 -0.35769711040E+02  0.36820910700E+02  0.00000000000E+00 0. -1.
         11    1    4    4    0    0  0.18970088026E+02  0.23447076905E+01  0.10164425420E+02  0.21648959288E+02  0.51100000000E-03 0. -1.
        -11    1    4    4    0    0 -0.33570423165E+01 -0.52463358527E+01  0.69909154992E+01  0.93630482629E+01  0.51100000000E-03 0.  1.
        -12    1    4    4    0    0 -0.10191950391E+02  0.97513699409E+01  0.18614370121E+02  0.23355081748E+02  0.00000000000E+00 0.  1.
</event>
<event>
 8    1  0.2493819E-006  0.9118800E+02  0.7816164E-02  0.1184000E+00
        -11   -1    0    0    0    0  0.00000000000E+00  0.00000000000E+00  0.45593999997E+02  0.45594000000E+02  0.51100000000E-03 0.  1.
         11   -1    0    0    0    0 -0.00000000000E+00 -0.00000000000E+00 -0.45593999997E+02  0.45594000000E+02  0.51100000000E-03 0. -1.
         23    2    1    2    0    0 -0.35527136788E-14  0.00000000000E+00 -0.71054273576E-14  0.91188000000E+02  0.91188000000E+02 0.  0.
    9900012    2    3    3    0    0 -0.24014695499E+02  0.88144804327E+01 -0.26483526095E+02  0.54367111640E+02  0.40000062605E+02 0.  0.
        -12    1    3    3    0    0  0.24014695499E+02 -0.88144804327E+01  0.26483526095E+02  0.36820888360E+02  0.00000000000E+00 0.  1.
         11    1    4    4    0    0 -0.71835935820E+01 -0.38152672461E+01 -0.17645915125E+02  0.19430352590E+02  0.51100000000E-03 0. -1.
        -11    1    4    4    0    0 -0.42131944219E+01 -0.25068402001E+01  0.77555292843E+01  0.91751561167E+01  0.51100000000E-03 0.  1.
        -12    1    4    4    0    0 -0.12617907495E+02  0.15136587879E+02 -0.16593140254E+02  0.25761602933E+02  0.00000000000E+00 0.  1.
</event>
<event>
 8    1  0.2493819E-006  0.9118800E+02  0.7816164E-02  0.1184000E+00
        -11   -1    0    0    0    0  0.00000000000E+00  0.00000000000E+00  0.45593999997E+02  0.45594000000E+02  0.51100000000E-03 0.  1.
         11   -1    0    0    0    0 -0.00000000000E+00 -0.00000000000E+00 -0.45593999997E+02  0.45594000000E+02  0.51100000000E-03 0. -1.
         23    2    1    2    0    0  0.00000000000E+00  0.00000000000E+00  0.00000000000E+00  0.91188000000E+02  0.91188000000E+02 0.  0.
    9900012    2    3    3    0    0  0.22058825930E+02 -0.24141044193E+02 -0.16923304931E+02  0.54367081137E+02  0.39999993068E+02 0.  0.
         12    1    3    3    0    0 -0.22058825930E+02  0.24141044193E+02  0.16923304931E+02  0.36820918863E+02  0.00000000000E+00 0. -1.
         11    1    4    4    0    0  0.20166487209E+01 -0.11468638393E+02 -0.24851921581E+02  0.27444754420E+02  0.51100000000E-03 0. -1.
        -11    1    4    4    0    0  0.17248264935E+02 -0.13222334801E+02  0.94442681816E+01  0.23696560565E+02  0.51100000000E-03 0.  1.
         12    1    4    4    0    0  0.27939122745E+01  0.54992900132E+00 -0.15156515320E+01  0.32257661525E+01  0.00000000000E+00 0. -1.
</event>
<event>
 8    1  0.2493819E-006  0.9118800E+02  0.7816164E-02  0.1184000E+00
        -11   -1    0    0    0    0  0.00000000000E+00  0.00000000000E+00  0.45593999997E+02  0.45594000000E+02  0.51100000000E-03 0. -1.
         11   -1    0    0    0    0 -0.00000000000E+00 -0.00000000000E+00 -0.45593999997E+02  0.45594000000E+02  0.51100000000E-03 0.  1.
         23    2    1    2    0    0  0.00000000000E+00  0.10658141036E-13  0.00000000000E+00  0.91188000000E+02  0.91188000000E+02 0.  0.
    9900012    2    3    3    0    0  0.22816050674E+02 -0.24704984993E+02 -0.14995688152E+02  0.54367094050E+02  0.40000022505E+02 0.  0.
         12    1    3    3    0    0 -0.22816050674E+02  0.24704984993E+02  0.14995688152E+02  0.36820905950E+02  0.00000000000E+00 0. -1.
         11    1    4    4    0    0  0.12996217963E+01 -0.99229775710E+01 -0.11585172368E+02  0.15309171099E+02  0.51100000000E-03 0. -1.
        -11    1    4    4    0    0  0.10944645045E+02  0.69861614318E+01 -0.67417668431E+01  0.14630212819E+02  0.51100000000E-03 0.  1.
        -12    1    4    4    0    0  0.10571783833E+02 -0.21768168854E+02  0.33312510589E+01  0.24427710132E+02  0.00000000000E+00 0.  1.
</event>
<event>
 8    1  0.2493819E-006  0.9118800E+02  0.7816164E-02  0.1184000E+00
        -11   -1    0    0    0    0  0.00000000000E+00  0.00000000000E+00  0.45593999997E+02  0.45594000000E+02  0.51100000000E-03 0. -1.
         11   -1    0    0    0    0 -0.00000000000E+00 -0.00000000000E+00 -0.45593999997E+02  0.45594000000E+02  0.51100000000E-03 0.  1.
         23    2    1    2    0    0  0.00000000000E+00  0.00000000000E+00  0.00000000000E+00  0.91188000000E+02  0.91188000000E+02 0.  0.
    9900012    2    3    3    0    0 -0.27011824616E+02 -0.10193028957E+02  0.22852636854E+02  0.54367088556E+02  0.40000009982E+02 0.  0.
        -12    1    3    3    0    0  0.27011824616E+02  0.10193028957E+02 -0.22852636854E+02  0.36820911444E+02  0.00000000000E+00 0.  1.
         11    1    4    4    0    0 -0.60327629692E+01 -0.37354827991E+01  0.36281071779E+01  0.79693928715E+01  0.51100000000E-03 0.  1.
        -11    1    4    4    0    0 -0.27124509421E+02 -0.75479033854E+01  0.21719089752E+01  0.28238750782E+02  0.51100000000E-03 0. -1.
        -12    1    4    4    0    0  0.61454477750E+01  0.10903572279E+01  0.17052620700E+02  0.18158944903E+02  0.00000000000E+00 0.  1.
</event>
<event>
 8    1  0.2493819E-006  0.9118800E+02  0.7816164E-02  0.1184000E+00
        -11   -1    0    0    0    0  0.00000000000E+00  0.00000000000E+00  0.45593999997E+02  0.45594000000E+02  0.51100000000E-03 0.  1.
         11   -1    0    0    0    0 -0.00000000000E+00 -0.00000000000E+00 -0.45593999997E+02  0.45594000000E+02  0.51100000000E-03 0. -1.
         23    2    1    2    0    0 -0.71054273576E-14  0.00000000000E+00  0.88817841970E-15  0.91188000000E+02  0.91188000000E+02 0.  0.
    9900012    2    3    3    0    0  0.35287345021E+02 -0.85454653979E+01 -0.61283509076E+01  0.54367103998E+02  0.40000045185E+02 0.  0.
        -12    1    3    3    0    0 -0.35287345021E+02  0.85454653979E+01  0.61283509076E+01  0.36820896002E+02  0.00000000000E+00 0.  1.
         11    1    4    4    0    0  0.58260375063E+01 -0.80843737099E+01  0.56445311930E+00  0.99809027093E+01  0.51100000000E-03 0. -1.
        -11    1    4    4    0    0  0.31503103737E+02 -0.10362282685E+02 -0.82068202993E+01  0.34163933427E+02  0.51100000000E-03 0.  1.
         12    1    4    4    0    0 -0.20417962219E+01  0.99011909974E+01  0.15140162724E+01  0.10222267862E+02  0.00000000000E+00 0. -1.
</event>
<event>
 8    1  0.2493819E-006  0.9118800E+02  0.7816164E-02  0.1184000E+00
        -11   -1    0    0    0    0  0.00000000000E+00  0.00000000000E+00  0.45593999997E+02  0.45594000000E+02  0.51100000000E-03 0.  1.
         11   -1    0    0    0    0 -0.00000000000E+00 -0.00000000000E+00 -0.45593999997E+02  0.45594000000E+02  0.51100000000E-03 0. -1.
         23    2    1    2    0    0 -0.88817841970E-15  0.71054273576E-14 -0.17763568394E-14  0.91188000000E+02  0.91188000000E+02 0.  0.
    9900012    2    3    3    0    0  0.56906448716E+01 -0.35831989452E+02  0.62820870391E+01  0.54367088486E+02  0.40000009822E+02 0.  0.
         12    1    3    3    0    0 -0.56906448716E+01  0.35831989452E+02 -0.62820870391E+01  0.36820911514E+02  0.00000000000E+00 0. -1.
         11    1    4    4    0    0 -0.55795246630E+00 -0.96845128851E+01  0.51913308114E+00  0.97144531598E+01  0.51100000000E-03 0. -1.
        -11    1    4    4    0    0  0.11166766598E+02 -0.18672001982E+02 -0.11939456784E+02  0.24817150578E+02  0.51100000000E-03 0.  1.
         12    1    4    4    0    0 -0.49181692602E+01 -0.74754745849E+01  0.17702410742E+02  0.19835484748E+02  0.00000000000E+00 0. -1.
</event>
<event>
 8    1  0.2493819E-006  0.9118800E+02  0.7816164E-02  0.1184000E+00
        -11   -1    0    0    0    0  0.00000000000E+00  0.00000000000E+00  0.45593999997E+02  0.45594000000E+02  0.51100000000E-03 0.  1.
         11   -1    0    0    0    0 -0.00000000000E+00 -0.00000000000E+00 -0.45593999997E+02  0.45594000000E+02  0.51100000000E-03 0. -1.
         23    2    1    2    0    0  0.17763568394E-14  0.00000000000E+00  0.71054273576E-14  0.91188000000E+02  0.91188000000E+02 0.  0.
    9900012    2    3    3    0    0 -0.14114881893E+02 -0.84821300082E+01 -0.32933257693E+02  0.54367137943E+02  0.40000122568E+02 0.  0.
        -12    1    3    3    0    0  0.14114881893E+02  0.84821300082E+01  0.32933257693E+02  0.36820862057E+02  0.00000000000E+00 0.  1.
         11    1    4    4    0    0 -0.27850757521E+01 -0.75200831388E+01  0.38977092323E+01  0.89163016369E+01  0.51100000000E-03 0. -1.
        -11    1    4    4    0    0 -0.70890781240E+01  0.56519671090E+01 -0.14178142912E+01  0.91765984153E+01  0.51100000000E-03 0.  1.
         12    1    4    4    0    0 -0.42407280173E+01 -0.66140139785E+01 -0.35413152634E+02  0.36274237891E+02  0.00000000000E+00 0. -1.
</event>
<event>
 8    1  0.2493819E-006  0.9118800E+02  0.7816164E-02  0.1184000E+00
        -11   -1    0    0    0    0  0.00000000000E+00  0.00000000000E+00  0.45593999997E+02  0.45594000000E+02  0.51100000000E-03 0. -1.
         11   -1    0    0    0    0 -0.00000000000E+00 -0.00000000000E+00 -0.45593999997E+02  0.45594000000E+02  0.51100000000E-03 0.  1.
         23    2    1    2    0    0  0.00000000000E+00  0.17763568394E-14  0.71054273576E-14  0.91188000000E+02  0.91188000000E+02 0.  0.
    9900012    2    3    3    0    0 -0.34730783492E+01  0.87169877184E+01  0.35605222702E+02  0.54367081601E+02  0.39999994125E+02 0.  0.
        -12    1    3    3    0    0  0.34730783492E+01 -0.87169877184E+01 -0.35605222702E+02  0.36820918399E+02  0.00000000000E+00 0.  1.
         11    1    4    4    0    0  0.97777496253E+01  0.32812709612E+01  0.11685564997E+00  0.10314299897E+02  0.51100000000E-03 0.  1.
        -11    1    4    4    0    0 -0.13545524312E+02 -0.58277788635E+01  0.18321205927E+02  0.23518308236E+02  0.51100000000E-03 0. -1.
         12    1    4    4    0    0  0.29469633759E+00  0.11263495621E+02  0.17167161125E+02  0.20534473468E+02  0.00000000000E+00 0. -1.
</event>
<event>
 8    1  0.2493819E-006  0.9118800E+02  0.7816164E-02  0.1184000E+00
        -11   -1    0    0    0    0  0.00000000000E+00  0.00000000000E+00  0.45593999997E+02  0.45594000000E+02  0.51100000000E-03 0.  1.
         11   -1    0    0    0    0 -0.00000000000E+00 -0.00000000000E+00 -0.45593999997E+02  0.45594000000E+02  0.51100000000E-03 0. -1.
         23    2    1    2    0    0 -0.17763568394E-14  0.35527136788E-14  0.00000000000E+00  0.91188000000E+02  0.91188000000E+02 0.  0.
    9900012    2    3    3    0    0  0.12554707809E+02  0.28842527385E+02 -0.19138151143E+02  0.54367069766E+02  0.39999967145E+02 0.  0.
        -12    1    3    3    0    0 -0.12554707809E+02 -0.28842527385E+02  0.19138151143E+02  0.36820930234E+02  0.00000000000E+00 0.  1.
         11    1    4    4    0    0 -0.25052424403E+01 -0.31790544033E+01 -0.88652672705E-01  0.40485165358E+01  0.51100000000E-03 0. -1.
        -11    1    4    4    0    0  0.37508233759E+01 -0.56755013303E+01 -0.53183482118E+01  0.86350923163E+01  0.51100000000E-03 0.  1.
         12    1    4    4    0    0  0.11309126874E+02  0.37697083119E+02 -0.13731150258E+02  0.41683460914E+02  0.00000000000E+00 0. -1.
</event>
<event>
 8    1  0.2493819E-006  0.9118800E+02  0.7816164E-02  0.1184000E+00
        -11   -1    0    0    0    0  0.00000000000E+00  0.00000000000E+00  0.45593999997E+02  0.45594000000E+02  0.51100000000E-03 0.  1.
         11   -1    0    0    0    0 -0.00000000000E+00 -0.00000000000E+00 -0.45593999997E+02  0.45594000000E+02  0.51100000000E-03 0. -1.
         23    2    1    2    0    0 -0.17763568394E-14  0.00000000000E+00  0.00000000000E+00  0.91188000000E+02  0.91188000000E+02 0.  0.
    9900012    2    3    3    0    0  0.12093119551E+02  0.21997800686E+02 -0.26937559777E+02  0.54367096939E+02  0.40000029092E+02 0.  0.
        -12    1    3    3    0    0 -0.12093119551E+02 -0.21997800686E+02  0.26937559777E+02  0.36820903061E+02  0.00000000000E+00 0.  1.
         11    1    4    4    0    0 -0.25449318601E+01  0.65416072417E+01 -0.27274104530E+02  0.28162849317E+02  0.51100000000E-03 0. -1.
        -11    1    4    4    0    0 -0.19011477337E+01  0.26644793339E+01  0.37948871146E+01  0.50114849396E+01  0.51100000000E-03 0.  1.
         12    1    4    4    0    0  0.16539199144E+02  0.12791714111E+02 -0.34583423616E+01  0.21192762683E+02  0.00000000000E+00 0. -1.
</event>
<event>
 8    1  0.2493819E-006  0.9118800E+02  0.7816164E-02  0.1184000E+00
        -11   -1    0    0    0    0  0.00000000000E+00  0.00000000000E+00  0.45593999997E+02  0.45594000000E+02  0.51100000000E-03 0.  1.
         11   -1    0    0    0    0 -0.00000000000E+00 -0.00000000000E+00 -0.45593999997E+02  0.45594000000E+02  0.51100000000E-03 0. -1.
         23    2    1    2    0    0 -0.88817841970E-15  0.00000000000E+00  0.00000000000E+00  0.91188000000E+02  0.91188000000E+02 0.  0.
    9900012    2    3    3    0    0  0.44170890546E+01  0.11906948689E+02 -0.34561445967E+02  0.54367086784E+02  0.40000005940E+02 0.  0.
        -12    1    3    3    0    0 -0.44170890546E+01 -0.11906948689E+02  0.34561445967E+02  0.36820913216E+02  0.00000000000E+00 0.  1.
         11    1    4    4    0    0 -0.98071311737E+01  0.34264549490E+01 -0.35628868617E+01  0.10982466864E+02  0.51100000000E-03 0. -1.
        -11    1    4    4    0    0  0.63870451182E+01 -0.34437426513E+01  0.19204128223E+01  0.75061104747E+01  0.51100000000E-03 0.  1.
         12    1    4    4    0    0  0.78371751101E+01  0.11924236391E+02 -0.32918971927E+02  0.35878509444E+02  0.00000000000E+00 0. -1.
</event>
<event>
 8    1  0.2493819E-006  0.9118800E+02  0.7816164E-02  0.1184000E+00
        -11   -1    0    0    0    0  0.00000000000E+00  0.00000000000E+00  0.45593999997E+02  0.45594000000E+02  0.51100000000E-03 0.  1.
         11   -1    0    0    0    0 -0.00000000000E+00 -0.00000000000E+00 -0.45593999997E+02  0.45594000000E+02  0.51100000000E-03 0. -1.
         23    2    1    2    0    0  0.35527136788E-14  0.35527136788E-14 -0.88817841970E-15  0.91188000000E+02  0.91188000000E+02 0.  0.
    9900012    2    3    3    0    0 -0.31345431714E+02  0.17959840323E+02 -0.71196200141E+01  0.54367069228E+02  0.39999965918E+02 0.  0.
        -12    1    3    3    0    0  0.31345431714E+02 -0.17959840323E+02  0.71196200141E+01  0.36820930772E+02  0.00000000000E+00 0.  1.
         11    1    4    4    0    0 -0.86529710573E+01  0.13315011774E+02  0.35640614616E+01  0.16274703716E+02  0.51100000000E-03 0. -1.
        -11    1    4    4    0    0  0.45179382255E+01 -0.57941461009E+01 -0.31228865803E+01  0.79835027214E+01  0.51100000000E-03 0.  1.
        -12    1    4    4    0    0 -0.27210398883E+02  0.10438974650E+02 -0.75607948953E+01  0.30108862791E+02  0.00000000000E+00 0.  1.
</event>
<event>
 8    1  0.2493819E-006  0.9118800E+02  0.7816164E-02  0.1184000E+00
        -11   -1    0    0    0    0  0.00000000000E+00  0.00000000000E+00  0.45593999997E+02  0.45594000000E+02  0.51100000000E-03 0.  1.
         11   -1    0    0    0    0 -0.00000000000E+00 -0.00000000000E+00 -0.45593999997E+02  0.45594000000E+02  0.51100000000E-03 0. -1.
         23    2    1    2    0    0  0.44408920985E-15  0.00000000000E+00  0.00000000000E+00  0.91188000000E+02  0.91188000000E+02 0.  0.
    9900012    2    3    3    0    0  0.27195286413E+01 -0.33371622223E+02 -0.15320532423E+02  0.54367085840E+02  0.40000003789E+02 0.  0.
        -12    1    3    3    0    0 -0.27195286413E+01  0.33371622223E+02  0.15320532423E+02  0.36820914160E+02  0.00000000000E+00 0.  1.
         11    1    4    4    0    0  0.14785659147E+02 -0.22168568870E+02 -0.24361816185E+01  0.26758104254E+02  0.51100000000E-03 0. -1.
        -11    1    4    4    0    0 -0.38541348573E+01 -0.12853311667E+02 -0.15391230675E+01  0.13506697464E+02  0.51100000000E-03 0.  1.
         12    1    4    4    0    0 -0.82119956480E+01  0.16502583137E+01 -0.11345227737E+02  0.14102284121E+02  0.00000000000E+00 0. -1.
</event>
<event>
 8    1  0.2493819E-006  0.9118800E+02  0.7816164E-02  0.1184000E+00
        -11   -1    0    0    0    0  0.00000000000E+00  0.00000000000E+00  0.45593999997E+02  0.45594000000E+02  0.51100000000E-03 0. -1.
         11   -1    0    0    0    0 -0.00000000000E+00 -0.00000000000E+00 -0.45593999997E+02  0.45594000000E+02  0.51100000000E-03 0.  1.
         23    2    1    2    0    0 -0.35527136788E-14  0.17763568394E-14  0.00000000000E+00  0.91188000000E+02  0.91188000000E+02 0.  0.
    9900012    2    3    3    0    0  0.10918057573E+02 -0.31570105300E+01  0.35022985226E+02  0.54367079441E+02  0.39999989202E+02 0.  0.
        -12    1    3    3    0    0 -0.10918057573E+02  0.31570105300E+01 -0.35022985226E+02  0.36820920559E+02  0.00000000000E+00 0.  1.
         11    1    4    4    0    0 -0.88982708708E+01  0.63375198370E+01 -0.50558258221E+00  0.10936132597E+02  0.51100000000E-03 0. -1.
        -11    1    4    4    0    0  0.46309349346E+01 -0.56326165634E-01  0.12940024184E+01  0.48086561039E+01  0.51100000000E-03 0.  1.
         12    1    4    4    0    0  0.15185393509E+02 -0.94382042014E+01  0.34234565390E+02  0.38622290740E+02  0.00000000000E+00 0. -1.
</event>
<event>
 8    1  0.2493819E-006  0.9118800E+02  0.7816164E-02  0.1184000E+00
        -11   -1    0    0    0    0  0.00000000000E+00  0.00000000000E+00  0.45593999997E+02  0.45594000000E+02  0.51100000000E-03 0. -1.
         11   -1    0    0    0    0 -0.00000000000E+00 -0.00000000000E+00 -0.45593999997E+02  0.45594000000E+02  0.51100000000E-03 0.  1.
         23    2    1    2    0    0  0.71054273576E-14  0.00000000000E+00 -0.88817841970E-15  0.91188000000E+02  0.91188000000E+02 0.  0.
    9900012    2    3    3    0    0  0.32904617268E+02  0.15244434835E+02 -0.63772421569E+01  0.54367138406E+02  0.40000123624E+02 0.  0.
         12    1    3    3    0    0 -0.32904617268E+02 -0.15244434835E+02  0.63772421569E+01  0.36820861594E+02  0.00000000000E+00 0. -1.
         11    1    4    4    0    0  0.84082197144E+01 -0.33631120024E+01 -0.21750882699E+01  0.93134145376E+01  0.51100000000E-03 0. -1.
        -11    1    4    4    0    0  0.12611899351E+02 -0.83104682283E+01 -0.40149354557E+01  0.15628294673E+02  0.51100000000E-03 0.  1.
        -12    1    4    4    0    0  0.11884498202E+02  0.26918015066E+02 -0.18721843127E+00  0.29425429195E+02  0.00000000000E+00 0.  1.
</event>
<event>
 8    1  0.2493819E-006  0.9118800E+02  0.7816164E-02  0.1184000E+00
        -11   -1    0    0    0    0  0.00000000000E+00  0.00000000000E+00  0.45593999997E+02  0.45594000000E+02  0.51100000000E-03 0.  1.
         11   -1    0    0    0    0 -0.00000000000E+00 -0.00000000000E+00 -0.45593999997E+02  0.45594000000E+02  0.51100000000E-03 0. -1.
         23    2    1    2    0    0 -0.88817841970E-15 -0.35527136788E-14  0.00000000000E+00  0.91188000000E+02  0.91188000000E+02 0.  0.
    9900012    2    3    3    0    0  0.43743830182E+01  0.27998280280E+02  0.23510449237E+02  0.54367080012E+02  0.39999990503E+02 0.  0.
         12    1    3    3    0    0 -0.43743830182E+01 -0.27998280280E+02 -0.23510449237E+02  0.36820919988E+02  0.00000000000E+00 0. -1.
         11    1    4    4    0    0  0.32955607150E+00  0.11158860005E+02 -0.46960670471E+01  0.12111226601E+02  0.51100000000E-03 0. -1.
        -11    1    4    4    0    0 -0.39615870568E+01  0.14565360950E+02  0.30142336150E+02  0.33710596857E+02  0.51100000000E-03 0.  1.
        -12    1    4    4    0    0  0.80064140035E+01  0.22740593256E+01 -0.19358198660E+01  0.85452565535E+01  0.00000000000E+00 0.  1.
</event>
<event>
 8    1  0.2493819E-006  0.9118800E+02  0.7816164E-02  0.1184000E+00
        -11   -1    0    0    0    0  0.00000000000E+00  0.00000000000E+00  0.45593999997E+02  0.45594000000E+02  0.51100000000E-03 0.  1.
         11   -1    0    0    0    0 -0.00000000000E+00 -0.00000000000E+00 -0.45593999997E+02  0.45594000000E+02  0.51100000000E-03 0. -1.
         23    2    1    2    0    0  0.00000000000E+00 -0.71054273576E-14  0.17763568394E-14  0.91188000000E+02  0.91188000000E+02 0.  0.
    9900012    2    3    3    0    0  0.10038007378E+02  0.34231671006E+02 -0.91219199190E+01  0.54367104913E+02  0.40000047271E+02 0.  0.
        -12    1    3    3    0    0 -0.10038007378E+02 -0.34231671006E+02  0.91219199190E+01  0.36820895087E+02  0.00000000000E+00 0.  1.
         11    1    4    4    0    0  0.81092584815E+01  0.23191010763E+02 -0.96595692075E+01  0.26398680476E+02  0.51100000000E-03 0. -1.
        -11    1    4    4    0    0  0.35299331980E+01  0.18587467925E+02  0.42740610735E+01  0.19396442730E+02  0.51100000000E-03 0.  1.
        -12    1    4    4    0    0 -0.16011843014E+01 -0.75468076827E+01 -0.37364117850E+01  0.85719817075E+01  0.00000000000E+00 0.  1.
</event>
<event>
 8    1  0.2493819E-006  0.9118800E+02  0.7816164E-02  0.1184000E+00
        -11   -1    0    0    0    0  0.00000000000E+00  0.00000000000E+00  0.45593999997E+02  0.45594000000E+02  0.51100000000E-03 0.  1.
         11   -1    0    0    0    0 -0.00000000000E+00 -0.00000000000E+00 -0.45593999997E+02  0.45594000000E+02  0.51100000000E-03 0. -1.
         23    2    1    2    0    0  0.00000000000E+00  0.00000000000E+00 -0.88817841970E-15  0.91188000000E+02  0.91188000000E+02 0.  0.
    9900012    2    3    3    0    0  0.98067156453E+01 -0.35095755058E+02  0.52816427960E+01  0.54367089563E+02  0.40000012276E+02 0.  0.
         12    1    3    3    0    0 -0.98067156453E+01  0.35095755058E+02 -0.52816427960E+01  0.36820910437E+02  0.00000000000E+00 0. -1.
         11    1    4    4    0    0 -0.23958899640E+01 -0.42393289567E+01  0.14930562661E+02  0.15704582145E+02  0.51100000000E-03 0. -1.
        -11    1    4    4    0    0  0.13858085800E+02 -0.19492675496E+02 -0.40440248412E+00  0.23920168931E+02  0.51100000000E-03 0.  1.
         12    1    4    4    0    0 -0.16554801906E+01 -0.11363750605E+02 -0.92445173804E+01  0.14742338487E+02  0.00000000000E+00 0. -1.
</event>
<event>
 8    1  0.2493819E-006  0.9118800E+02  0.7816164E-02  0.1184000E+00
        -11   -1    0    0    0    0  0.00000000000E+00  0.00000000000E+00  0.45593999997E+02  0.45594000000E+02  0.51100000000E-03 0.  1.
         11   -1    0    0    0    0 -0.00000000000E+00 -0.00000000000E+00 -0.45593999997E+02  0.45594000000E+02  0.51100000000E-03 0. -1.
         23    2    1    2    0    0 -0.35527136788E-14  0.00000000000E+00  0.00000000000E+00  0.91188000000E+02  0.91188000000E+02 0.  0.
    9900012    2    3    3    0    0 -0.19153578968E+02 -0.31338427138E+02 -0.26121826014E+01  0.54367080665E+02  0.39999991992E+02 0.  0.
        -12    1    3    3    0    0  0.19153578968E+02  0.31338427138E+02  0.26121826014E+01  0.36820919335E+02  0.00000000000E+00 0.  1.
         11    1    4    4    0    0 -0.65921916335E+01 -0.13038743899E+02  0.15771706252E+02  0.21499129084E+02  0.51100000000E-03 0.  1.
        -11    1    4    4    0    0 -0.66332259008E+01 -0.18744014852E+02 -0.91536328849E+01  0.21888964660E+02  0.51100000000E-03 0. -1.
         12    1    4    4    0    0 -0.59281614335E+01  0.44433161358E+00 -0.92302559688E+01  0.10978986921E+02  0.00000000000E+00 0. -1.
</event>
<event>
 8    1  0.2493819E-006  0.9118800E+02  0.7816164E-02  0.1184000E+00
        -11   -1    0    0    0    0  0.00000000000E+00  0.00000000000E+00  0.45593999997E+02  0.45594000000E+02  0.51100000000E-03 0.  1.
         11   -1    0    0    0    0 -0.00000000000E+00 -0.00000000000E+00 -0.45593999997E+02  0.45594000000E+02  0.51100000000E-03 0. -1.
         23    2    1    2    0    0  0.35527136788E-14  0.35527136788E-14 -0.71054273576E-14  0.91188000000E+02  0.91188000000E+02 0.  0.
    9900012    2    3    3    0    0 -0.14970165856E+02 -0.22863473107E+02  0.24676597384E+02  0.54367099322E+02  0.40000034525E+02 0.  0.
         12    1    3    3    0    0  0.14970165856E+02  0.22863473107E+02 -0.24676597384E+02  0.36820900678E+02  0.00000000000E+00 0. -1.
         11    1    4    4    0    0 -0.58624395234E+01  0.37125453346E+01 -0.16346072579E+01  0.71290343789E+01  0.51100000000E-03 0. -1.
        -11    1    4    4    0    0  0.22586853773E+01 -0.20333277885E+02  0.27433196755E+02  0.34221690982E+02  0.51100000000E-03 0.  1.
         12    1    4    4    0    0 -0.11366411710E+02 -0.62427405559E+01 -0.11219921133E+01  0.13016373962E+02  0.00000000000E+00 0. -1.
</event>
<event>
 8    1  0.2493819E-006  0.9118800E+02  0.7816164E-02  0.1184000E+00
        -11   -1    0    0    0    0  0.00000000000E+00  0.00000000000E+00  0.45593999997E+02  0.45594000000E+02  0.51100000000E-03 0.  1.
         11   -1    0    0    0    0 -0.00000000000E+00 -0.00000000000E+00 -0.45593999997E+02  0.45594000000E+02  0.51100000000E-03 0. -1.
         23    2    1    2    0    0  0.00000000000E+00  0.44408920985E-15  0.00000000000E+00  0.91188000000E+02  0.91188000000E+02 0.  0.
    9900012    2    3    3    0    0 -0.13505925045E+02 -0.15706872585E+01 -0.34218405644E+02  0.54367131534E+02  0.40000107957E+02 0.  0.
        -12    1    3    3    0    0  0.13505925045E+02  0.15706872585E+01  0.34218405644E+02  0.36820868466E+02  0.00000000000E+00 0.  1.
         11    1    4    4    0    0 -0.11077536196E+02 -0.21028916458E+01 -0.18200530631E+02  0.21410120901E+02  0.51100000000E-03 0. -1.
        -11    1    4    4    0    0  0.13506651939E+01 -0.43404841242E+01 -0.23113550178E+02  0.23556321890E+02  0.51100000000E-03 0.  1.
        -12    1    4    4    0    0 -0.37790540428E+01  0.48726885115E+01  0.70956751653E+01  0.94006887429E+01  0.00000000000E+00 0.  1.
</event>
<event>
 8    1  0.2493819E-006  0.9118800E+02  0.7816164E-02  0.1184000E+00
        -11   -1    0    0    0    0  0.00000000000E+00  0.00000000000E+00  0.45593999997E+02  0.45594000000E+02  0.51100000000E-03 0. -1.
         11   -1    0    0    0    0 -0.00000000000E+00 -0.00000000000E+00 -0.45593999997E+02  0.45594000000E+02  0.51100000000E-03 0.  1.
         23    2    1    2    0    0  0.00000000000E+00  0.00000000000E+00  0.00000000000E+00  0.91188000000E+02  0.91188000000E+02 0.  0.
    9900012    2    3    3    0    0  0.74053688863E+01 -0.44579594082E+01  0.35791999704E+02  0.54367080223E+02  0.39999990984E+02 0.  0.
        -12    1    3    3    0    0 -0.74053688863E+01  0.44579594082E+01 -0.35791999704E+02  0.36820919777E+02  0.00000000000E+00 0.  1.
         11    1    4    4    0    0  0.24140309464E+01 -0.99417690980E+01  0.18142399227E+01  0.10390273575E+02  0.51100000000E-03 0. -1.
        -11    1    4    4    0    0 -0.13513951411E+01 -0.88807449459E+01  0.23343220551E+02  0.25011994035E+02  0.51100000000E-03 0.  1.
        -12    1    4    4    0    0  0.63427330810E+01  0.14364554636E+02  0.10634539230E+02  0.18964812613E+02  0.00000000000E+00 0.  1.
</event>
<event>
 8    1  0.2493819E-006  0.9118800E+02  0.7816164E-02  0.1184000E+00
        -11   -1    0    0    0    0  0.00000000000E+00  0.00000000000E+00  0.45593999997E+02  0.45594000000E+02  0.51100000000E-03 0.  1.
         11   -1    0    0    0    0 -0.00000000000E+00 -0.00000000000E+00 -0.45593999997E+02  0.45594000000E+02  0.51100000000E-03 0. -1.
         23    2    1    2    0    0  0.00000000000E+00  0.00000000000E+00  0.35527136788E-14  0.91188000000E+02  0.91188000000E+02 0.  0.
    9900012    2    3    3    0    0  0.13965025700E+02 -0.16073224510E+02 -0.30040121387E+02  0.54367090425E+02  0.40000014243E+02 0.  0.
        -12    1    3    3    0    0 -0.13965025700E+02  0.16073224510E+02  0.30040121387E+02  0.36820909575E+02  0.00000000000E+00 0.  1.
         11    1    4    4    0    0  0.54303297092E+01 -0.20790392907E+01 -0.23231467762E+02  0.23948110150E+02  0.51100000000E-03 0. -1.
        -11    1    4    4    0    0  0.16887732920E+02 -0.58116231598E+01 -0.29239262790E+01  0.18097509002E+02  0.51100000000E-03 0.  1.
        -12    1    4    4    0    0 -0.83530369291E+01 -0.81825620598E+01 -0.38847273463E+01  0.12321471274E+02  0.00000000000E+00 0.  1.
</event>
<event>
 8    1  0.2493819E-006  0.9118800E+02  0.7816164E-02  0.1184000E+00
        -11   -1    0    0    0    0  0.00000000000E+00  0.00000000000E+00  0.45593999997E+02  0.45594000000E+02  0.51100000000E-03 0.  1.
         11   -1    0    0    0    0 -0.00000000000E+00 -0.00000000000E+00 -0.45593999997E+02  0.45594000000E+02  0.51100000000E-03 0. -1.
         23    2    1    2    0    0  0.00000000000E+00  0.00000000000E+00  0.00000000000E+00  0.91188000000E+02  0.91188000000E+02 0.  0.
    9900012    2    3    3    0    0  0.64146194699E+01 -0.16509505520E+02  0.32281078866E+02  0.54367093328E+02  0.40000020859E+02 0.  0.
         12    1    3    3    0    0 -0.64146194699E+01  0.16509505520E+02 -0.32281078866E+02  0.36820906672E+02  0.00000000000E+00 0. -1.
         11    1    4    4    0    0 -0.53447851107E+01 -0.43318483640E+01  0.95981720025E+01  0.11809172036E+02  0.51100000000E-03 0. -1.
        -11    1    4    4    0    0 -0.36897839029E+01  0.46484313405E+01  0.18378615469E+02  0.19313102444E+02  0.51100000000E-03 0.  1.
        -12    1    4    4    0    0  0.15449188484E+02 -0.16826088496E+02  0.43042913940E+01  0.23244818848E+02  0.00000000000E+00 0.  1.
</event>
<event>
 8    1  0.2493819E-006  0.9118800E+02  0.7816164E-02  0.1184000E+00
        -11   -1    0    0    0    0  0.00000000000E+00  0.00000000000E+00  0.45593999997E+02  0.45594000000E+02  0.51100000000E-03 0.  1.
         11   -1    0    0    0    0 -0.00000000000E+00 -0.00000000000E+00 -0.45593999997E+02  0.45594000000E+02  0.51100000000E-03 0. -1.
         23    2    1    2    0    0 -0.17763568394E-14  0.35527136788E-14  0.00000000000E+00  0.91188000000E+02  0.91188000000E+02 0.  0.
    9900012    2    3    3    0    0  0.83814977538E+01  0.22545433762E+02 -0.27878900709E+02  0.54367092992E+02  0.40000020094E+02 0.  0.
        -12    1    3    3    0    0 -0.83814977538E+01 -0.22545433762E+02  0.27878900709E+02  0.36820907008E+02  0.00000000000E+00 0.  1.
         11    1    4    4    0    0  0.12051671960E+02  0.39401606166E+01 -0.11206120336E+02  0.16921725561E+02  0.51100000000E-03 0. -1.
        -11    1    4    4    0    0  0.73886452696E+01  0.18802609553E+02 -0.39460900699E+01  0.20584018851E+02  0.51100000000E-03 0.  1.
         12    1    4    4    0    0 -0.11058819476E+02 -0.19733640788E+00 -0.12726690303E+02  0.16861348580E+02  0.00000000000E+00 0. -1.
</event>
<event>
 8    1  0.2493819E-006  0.9118800E+02  0.7816164E-02  0.1184000E+00
        -11   -1    0    0    0    0  0.00000000000E+00  0.00000000000E+00  0.45593999997E+02  0.45594000000E+02  0.51100000000E-03 0.  1.
         11   -1    0    0    0    0 -0.00000000000E+00 -0.00000000000E+00 -0.45593999997E+02  0.45594000000E+02  0.51100000000E-03 0. -1.
         23    2    1    2    0    0  0.00000000000E+00  0.00000000000E+00 -0.44408920985E-15  0.91188000000E+02  0.91188000000E+02 0.  0.
    9900012    2    3    3    0    0  0.36170945793E+02 -0.58222533955E+01 -0.36799801550E+01  0.54367106364E+02  0.40000050579E+02 0.  0.
         12    1    3    3    0    0 -0.36170945793E+02  0.58222533955E+01  0.36799801550E+01  0.36820893636E+02  0.00000000000E+00 0. -1.
         11    1    4    4    0    0  0.55849628098E+01  0.27112712876E+01 -0.56858020101E+01  0.84185002430E+01  0.51100000000E-03 0. -1.
        -11    1    4    4    0    0  0.25483403649E+01  0.14797941348E+01  0.13661912833E+02  0.13976111470E+02  0.51100000000E-03 0.  1.
        -12    1    4    4    0    0  0.28037642619E+02 -0.10013318818E+02 -0.11656090978E+02  0.31972494652E+02  0.00000000000E+00 0.  1.
</event>
<event>
 8    1  0.2493819E-006  0.9118800E+02  0.7816164E-02  0.1184000E+00
        -11   -1    0    0    0    0  0.00000000000E+00  0.00000000000E+00  0.45593999997E+02  0.45594000000E+02  0.51100000000E-03 0.  1.
         11   -1    0    0    0    0 -0.00000000000E+00 -0.00000000000E+00 -0.45593999997E+02  0.45594000000E+02  0.51100000000E-03 0. -1.
         23    2    1    2    0    0  0.00000000000E+00  0.00000000000E+00  0.00000000000E+00  0.91188000000E+02  0.91188000000E+02 0.  0.
    9900012    2    3    3    0    0  0.12692005355E+02 -0.24046219620E+02 -0.24828858091E+02  0.54367083770E+02  0.39999999070E+02 0.  0.
        -12    1    3    3    0    0 -0.12692005355E+02  0.24046219620E+02  0.24828858091E+02  0.36820916230E+02  0.00000000000E+00 0.  1.
         11    1    4    4    0    0  0.19787688525E+02 -0.32548747282E+01 -0.20394278115E+02  0.28601982567E+02  0.51100000000E-03 0. -1.
        -11    1    4    4    0    0 -0.78852111532E+01 -0.84544262763E+01  0.21493725972E+01  0.11758983009E+02  0.51100000000E-03 0.  1.
         12    1    4    4    0    0  0.78952798274E+00 -0.12336918616E+02 -0.65839525734E+01  0.14006118194E+02  0.00000000000E+00 0. -1.
</event>
<event>
 8    1  0.2493819E-006  0.9118800E+02  0.7816164E-02  0.1184000E+00
        -11   -1    0    0    0    0  0.00000000000E+00  0.00000000000E+00  0.45593999997E+02  0.45594000000E+02  0.51100000000E-03 0.  1.
         11   -1    0    0    0    0 -0.00000000000E+00 -0.00000000000E+00 -0.45593999997E+02  0.45594000000E+02  0.51100000000E-03 0. -1.
         23    2    1    2    0    0  0.00000000000E+00  0.17763568394E-14  0.00000000000E+00  0.91188000000E+02  0.91188000000E+02 0.  0.
    9900012    2    3    3    0    0  0.21369071835E+02  0.25870690905E+01  0.29873896464E+02  0.54367084103E+02  0.39999999829E+02 0.  0.
        -12    1    3    3    0    0 -0.21369071835E+02 -0.25870690905E+01 -0.29873896464E+02  0.36820915897E+02  0.00000000000E+00 0.  1.
         11    1    4    4    0    0 -0.40718281207E+01  0.10235929989E+02  0.58416457609E+01  0.12469116747E+02  0.51100000000E-03 0. -1.
        -11    1    4    4    0    0 -0.27864751074E+01 -0.19062579297E+01  0.85563561884E+01  0.91983419322E+01  0.51100000000E-03 0.  1.
        -12    1    4    4    0    0  0.28227375064E+02 -0.57426029689E+01  0.15475894514E+02  0.32699625424E+02  0.00000000000E+00 0.  1.
</event>
<event>
 8    1  0.2493819E-006  0.9118800E+02  0.7816164E-02  0.1184000E+00
        -11   -1    0    0    0    0  0.00000000000E+00  0.00000000000E+00  0.45593999997E+02  0.45594000000E+02  0.51100000000E-03 0.  1.
         11   -1    0    0    0    0 -0.00000000000E+00 -0.00000000000E+00 -0.45593999997E+02  0.45594000000E+02  0.51100000000E-03 0. -1.
         23    2    1    2    0    0  0.00000000000E+00  0.00000000000E+00  0.18526846723E-14  0.91188000000E+02  0.91188000000E+02 0.  0.
    9900012    2    3    3    0    0  0.32005481863E+02 -0.18205090081E+02 -0.55148363429E-01  0.54367092685E+02  0.40000019394E+02 0.  0.
        -12    1    3    3    0    0 -0.32005481863E+02  0.18205090081E+02  0.55148363429E-01  0.36820907315E+02  0.00000000000E+00 0.  1.
         11    1    4    4    0    0  0.21644916889E+01  0.47445595961E+01  0.48921697573E+01  0.71504681824E+01  0.51100000000E-03 0. -1.
        -11    1    4    4    0    0  0.44945371222E+01 -0.38245915060E+01  0.10393868903E+02  0.11952442226E+02  0.51100000000E-03 0.  1.
         12    1    4    4    0    0  0.25346453052E+02 -0.19125058171E+02 -0.15341187024E+02  0.35264182277E+02  0.00000000000E+00 0. -1.
</event>
<event>
 8    1  0.2493819E-006  0.9118800E+02  0.7816164E-02  0.1184000E+00
        -11   -1    0    0    0    0  0.00000000000E+00  0.00000000000E+00  0.45593999997E+02  0.45594000000E+02  0.51100000000E-03 0. -1.
         11   -1    0    0    0    0 -0.00000000000E+00 -0.00000000000E+00 -0.45593999997E+02  0.45594000000E+02  0.51100000000E-03 0.  1.
         23    2    1    2    0    0 -0.17763568394E-14  0.17763568394E-14 -0.35527136788E-14  0.91188000000E+02  0.91188000000E+02 0.  0.
    9900012    2    3    3    0    0 -0.14440111068E+02  0.12717454511E+02 -0.31393135172E+02  0.54367090277E+02  0.40000013905E+02 0.  0.
         12    1    3    3    0    0  0.14440111068E+02 -0.12717454511E+02  0.31393135172E+02  0.36820909723E+02  0.00000000000E+00 0. -1.
         11    1    4    4    0    0 -0.44123619311E+01  0.85185449036E+01  0.27485746692E+01  0.99794392658E+01  0.51100000000E-03 0.  1.
        -11    1    4    4    0    0 -0.18910318921E+01 -0.50934168554E+01  0.23073321775E+01  0.59027687502E+01  0.51100000000E-03 0. -1.
        -12    1    4    4    0    0 -0.81367172448E+01  0.92923264628E+01 -0.36449042018E+02  0.38484882261E+02  0.00000000000E+00 0.  1.
</event>
<event>
 8    1  0.2493819E-006  0.9118800E+02  0.7816164E-02  0.1184000E+00
        -11   -1    0    0    0    0  0.00000000000E+00  0.00000000000E+00  0.45593999997E+02  0.45594000000E+02  0.51100000000E-03 0.  1.
         11   -1    0    0    0    0 -0.00000000000E+00 -0.00000000000E+00 -0.45593999997E+02  0.45594000000E+02  0.51100000000E-03 0. -1.
         23    2    1    2    0    0  0.00000000000E+00  0.00000000000E+00 -0.35527136788E-14  0.91188000000E+02  0.91188000000E+02 0.  0.
    9900012    2    3    3    0    0  0.49968749640E+01  0.24658337595E+02  0.26884529377E+02  0.54367078064E+02  0.39999986063E+02 0.  0.
         12    1    3    3    0    0 -0.49968749640E+01 -0.24658337595E+02 -0.26884529377E+02  0.36820921936E+02  0.00000000000E+00 0. -1.
         11    1    4    4    0    0  0.63661617469E+01 -0.23769125020E+01  0.23907052138E+02  0.24854071510E+02  0.51100000000E-03 0. -1.
        -11    1    4    4    0    0  0.49334437983E+01  0.95746418401E+01  0.47083879442E+00  0.10781202322E+02  0.51100000000E-03 0.  1.
         12    1    4    4    0    0 -0.63027305812E+01  0.17460608257E+02  0.25066384450E+01  0.18731804232E+02  0.00000000000E+00 0. -1.
</event>
<event>
 8    1  0.2493819E-006  0.9118800E+02  0.7816164E-02  0.1184000E+00
        -11   -1    0    0    0    0  0.00000000000E+00  0.00000000000E+00  0.45593999997E+02  0.45594000000E+02  0.51100000000E-03 0. -1.
         11   -1    0    0    0    0 -0.00000000000E+00 -0.00000000000E+00 -0.45593999997E+02  0.45594000000E+02  0.51100000000E-03 0.  1.
         23    2    1    2    0    0  0.35527136788E-14 -0.35527136788E-14  0.00000000000E+00  0.91188000000E+02  0.91188000000E+02 0.  0.
    9900012    2    3    3    0    0 -0.27754794996E+02  0.16035641620E+02 -0.18119355726E+02  0.54367061672E+02  0.39999948693E+02 0.  0.
        -12    1    3    3    0    0  0.27754794996E+02 -0.16035641620E+02  0.18119355726E+02  0.36820938328E+02  0.00000000000E+00 0.  1.
         11    1    4    4    0    0 -0.23251779356E+02  0.16902467949E+02 -0.85253396200E+01  0.29983663583E+02  0.51100000000E-03 0. -1.
        -11    1    4    4    0    0 -0.72935062685E+01  0.37813315822E+01 -0.14761549069E+02  0.16893698038E+02  0.51100000000E-03 0.  1.
         12    1    4    4    0    0  0.27904906281E+01 -0.46481579110E+01  0.51675329635E+01  0.74897000501E+01  0.00000000000E+00 0. -1.
</event>
<event>
 8    1  0.2493819E-006  0.9118800E+02  0.7816164E-02  0.1184000E+00
        -11   -1    0    0    0    0  0.00000000000E+00  0.00000000000E+00  0.45593999997E+02  0.45594000000E+02  0.51100000000E-03 0.  1.
         11   -1    0    0    0    0 -0.00000000000E+00 -0.00000000000E+00 -0.45593999997E+02  0.45594000000E+02  0.51100000000E-03 0. -1.
         23    2    1    2    0    0  0.00000000000E+00  0.88817841970E-15  0.00000000000E+00  0.91188000000E+02  0.91188000000E+02 0.  0.
    9900012    2    3    3    0    0 -0.33223909202E+02  0.65923712284E+01 -0.14439248026E+02  0.54367090388E+02  0.40000014158E+02 0.  0.
         12    1    3    3    0    0  0.33223909202E+02 -0.65923712284E+01  0.14439248026E+02  0.36820909612E+02  0.00000000000E+00 0. -1.
         11    1    4    4    0    0 -0.20594310674E+02 -0.57208301995E+01 -0.18523094286E+02  0.28283538543E+02  0.51100000000E-03 0. -1.
        -11    1    4    4    0    0 -0.10691252408E+02  0.94578471287E+01  0.11220430477E+02  0.18156316001E+02  0.51100000000E-03 0.  1.
        -12    1    4    4    0    0 -0.19383461196E+01  0.28553542992E+01 -0.71365842173E+01  0.79272358451E+01  0.00000000000E+00 0.  1.
</event>
<event>
 8    1  0.2493819E-006  0.9118800E+02  0.7816164E-02  0.1184000E+00
        -11   -1    0    0    0    0  0.00000000000E+00  0.00000000000E+00  0.45593999997E+02  0.45594000000E+02  0.51100000000E-03 0. -1.
         11   -1    0    0    0    0 -0.00000000000E+00 -0.00000000000E+00 -0.45593999997E+02  0.45594000000E+02  0.51100000000E-03 0.  1.
         23    2    1    2    0    0 -0.26645352591E-14 -0.17763568394E-14  0.71054273576E-14  0.91188000000E+02  0.91188000000E+02 0.  0.
    9900012    2    3    3    0    0  0.13665522244E+01 -0.11202397834E+02 -0.35048812645E+02  0.54367075921E+02  0.39999981177E+02 0.  0.
         12    1    3    3    0    0 -0.13665522244E+01  0.11202397834E+02  0.35048812645E+02  0.36820924079E+02  0.00000000000E+00 0. -1.
         11    1    4    4    0    0  0.95929186021E+01 -0.21875485123E+02 -0.12689029859E+02  0.27047595378E+02  0.51100000000E-03 0. -1.
        -11    1    4    4    0    0 -0.80355602117E+01  0.45643192878E+01 -0.10573911873E+02  0.14043178096E+02  0.51100000000E-03 0.  1.
         12    1    4    4    0    0 -0.19080616604E+00  0.61087680016E+01 -0.11785870913E+02  0.13276302447E+02  0.00000000000E+00 0. -1.
</event>
<event>
 8    1  0.2493819E-006  0.9118800E+02  0.7816164E-02  0.1184000E+00
        -11   -1    0    0    0    0  0.00000000000E+00  0.00000000000E+00  0.45593999997E+02  0.45594000000E+02  0.51100000000E-03 0.  1.
         11   -1    0    0    0    0 -0.00000000000E+00 -0.00000000000E+00 -0.45593999997E+02  0.45594000000E+02  0.51100000000E-03 0. -1.
         23    2    1    2    0    0 -0.71054273576E-14 -0.17763568394E-14  0.00000000000E+00  0.91188000000E+02  0.91188000000E+02 0.  0.
    9900012    2    3    3    0    0  0.35273594846E+02  0.60461452019E+01  0.86600579634E+01  0.54367096031E+02  0.40000027022E+02 0.  0.
        -12    1    3    3    0    0 -0.35273594846E+02 -0.60461452019E+01 -0.86600579634E+01  0.36820903969E+02  0.00000000000E+00 0.  1.
         11    1    4    4    0    0  0.15592165222E+02  0.15914095935E+01  0.78493599806E+01  0.17528852021E+02  0.51100000000E-03 0. -1.
        -11    1    4    4    0    0  0.25005992892E+02  0.11847530022E+02 -0.20279922246E+00  0.27671371052E+02  0.51100000000E-03 0.  1.
        -12    1    4    4    0    0 -0.53245632675E+01 -0.73927944140E+01  0.10134972053E+01  0.91668729577E+01  0.00000000000E+00 0.  1.
</event>
<event>
 8    1  0.2493819E-006  0.9118800E+02  0.7816164E-02  0.1184000E+00
        -11   -1    0    0    0    0  0.00000000000E+00  0.00000000000E+00  0.45593999997E+02  0.45594000000E+02  0.51100000000E-03 0. -1.
         11   -1    0    0    0    0 -0.00000000000E+00 -0.00000000000E+00 -0.45593999997E+02  0.45594000000E+02  0.51100000000E-03 0.  1.
         23    2    1    2    0    0  0.17763568394E-14  0.00000000000E+00  0.00000000000E+00  0.91188000000E+02  0.91188000000E+02 0.  0.
    9900012    2    3    3    0    0  0.13925974949E+02 -0.92761827445E+01 -0.32799379257E+02  0.54367087135E+02  0.40000006741E+02 0.  0.
         12    1    3    3    0    0 -0.13925974949E+02  0.92761827445E+01  0.32799379257E+02  0.36820912865E+02  0.00000000000E+00 0. -1.
         11    1    4    4    0    0 -0.37750352549E+01  0.53090524785E+01 -0.88210250708E+01  0.10965738140E+02  0.51100000000E-03 0. -1.
        -11    1    4    4    0    0  0.69589780453E+01  0.35432463818E+01 -0.20638162921E+02  0.22066167301E+02  0.51100000000E-03 0.  1.
        -12    1    4    4    0    0  0.10742032159E+02 -0.18128481605E+02 -0.33401912657E+01  0.21335181694E+02  0.00000000000E+00 0.  1.
</event>
<event>
 8    1  0.2493819E-006  0.9118800E+02  0.7816164E-02  0.1184000E+00
        -11   -1    0    0    0    0  0.00000000000E+00  0.00000000000E+00  0.45593999997E+02  0.45594000000E+02  0.51100000000E-03 0.  1.
         11   -1    0    0    0    0 -0.00000000000E+00 -0.00000000000E+00 -0.45593999997E+02  0.45594000000E+02  0.51100000000E-03 0. -1.
         23    2    1    2    0    0 -0.71054273576E-14  0.00000000000E+00  0.17763568394E-14  0.91188000000E+02  0.91188000000E+02 0.  0.
    9900012    2    3    3    0    0  0.33342297676E+02  0.97467283420E+01 -0.12209430640E+02  0.54367112936E+02  0.40000065559E+02 0.  0.
        -12    1    3    3    0    0 -0.33342297676E+02 -0.97467283420E+01  0.12209430640E+02  0.36820887064E+02  0.00000000000E+00 0.  1.
         11    1    4    4    0    0  0.16538107550E+02 -0.47820321356E+01 -0.11272956000E+02  0.20578055543E+02  0.51100000000E-03 0. -1.
        -11    1    4    4    0    0 -0.17631114659E+01 -0.58351168358E+01 -0.12823450739E+01  0.62290897953E+01  0.51100000000E-03 0.  1.
         12    1    4    4    0    0  0.18567301591E+02  0.20363877313E+02  0.34587043359E+00  0.27559967598E+02  0.00000000000E+00 0. -1.
</event>
<event>
 8    1  0.2493819E-006  0.9118800E+02  0.7816164E-02  0.1184000E+00
        -11   -1    0    0    0    0  0.00000000000E+00  0.00000000000E+00  0.45593999997E+02  0.45594000000E+02  0.51100000000E-03 0.  1.
         11   -1    0    0    0    0 -0.00000000000E+00 -0.00000000000E+00 -0.45593999997E+02  0.45594000000E+02  0.51100000000E-03 0. -1.
         23    2    1    2    0    0 -0.12212453271E-14 -0.88817841970E-15  0.00000000000E+00  0.91188000000E+02  0.91188000000E+02 0.  0.
    9900012    2    3    3    0    0 -0.58381682850E+00  0.52457496449E+01  0.36440636007E+02  0.54367099902E+02  0.40000035847E+02 0.  0.
         12    1    3    3    0    0  0.58381682850E+00 -0.52457496449E+01 -0.36440636007E+02  0.36820900098E+02  0.00000000000E+00 0. -1.
         11    1    4    4    0    0 -0.88895109773E+01  0.97847176224E+01 -0.92338075573E+00  0.13252046508E+02  0.51100000000E-03 0. -1.
        -11    1    4    4    0    0  0.75304527607E+01  0.26566592723E+01  0.99299671815E+01  0.12742441122E+02  0.51100000000E-03 0.  1.
        -12    1    4    4    0    0  0.77524138807E+00 -0.71956272498E+01  0.27434049581E+02  0.28372612272E+02  0.00000000000E+00 0.  1.
</event>
<event>
 8    1  0.2493819E-006  0.9118800E+02  0.7816164E-02  0.1184000E+00
        -11   -1    0    0    0    0  0.00000000000E+00  0.00000000000E+00  0.45593999997E+02  0.45594000000E+02  0.51100000000E-03 0. -1.
         11   -1    0    0    0    0 -0.00000000000E+00 -0.00000000000E+00 -0.45593999997E+02  0.45594000000E+02  0.51100000000E-03 0.  1.
         23    2    1    2    0    0  0.35527136788E-14  0.00000000000E+00  0.00000000000E+00  0.91188000000E+02  0.91188000000E+02 0.  0.
    9900012    2    3    3    0    0 -0.19864103423E+02 -0.18013977373E+02 -0.25232786100E+02  0.54367089094E+02  0.40000011208E+02 0.  0.
         12    1    3    3    0    0  0.19864103423E+02  0.18013977373E+02  0.25232786100E+02  0.36820910906E+02  0.00000000000E+00 0. -1.
         11    1    4    4    0    0  0.55390573246E+01 -0.12061747048E+01 -0.15860752829E+02  0.16843381312E+02  0.51100000000E-03 0. -1.
        -11    1    4    4    0    0 -0.59169027870E+01 -0.14015269042E+02 -0.93148809208E+01  0.17838287803E+02  0.51100000000E-03 0.  1.
         12    1    4    4    0    0 -0.19486257960E+02 -0.27925336257E+01 -0.57152350017E-01  0.19685419979E+02  0.00000000000E+00 0. -1.
</event>
<event>
 8    1  0.2493819E-006  0.9118800E+02  0.7816164E-02  0.1184000E+00
        -11   -1    0    0    0    0  0.00000000000E+00  0.00000000000E+00  0.45593999997E+02  0.45594000000E+02  0.51100000000E-03 0. -1.
         11   -1    0    0    0    0 -0.00000000000E+00 -0.00000000000E+00 -0.45593999997E+02  0.45594000000E+02  0.51100000000E-03 0.  1.
         23    2    1    2    0    0  0.35527136788E-14  0.00000000000E+00  0.00000000000E+00  0.91188000000E+02  0.91188000000E+02 0.  0.
    9900012    2    3    3    0    0 -0.18354919942E+02 -0.25196733654E+02 -0.19596036472E+02  0.54367039688E+02  0.39999898576E+02 0.  0.
         12    1    3    3    0    0  0.18354919942E+02  0.25196733654E+02  0.19596036472E+02  0.36820960312E+02  0.00000000000E+00 0. -1.
         11    1    4    4    0    0 -0.39213105323E+00  0.15511894480E+01  0.30012173862E+01  0.34010677039E+01  0.51100000000E-03 0. -1.
        -11    1    4    4    0    0  0.59349979835E+01 -0.18877648707E+02 -0.14508066279E+02  0.24537192366E+02  0.51100000000E-03 0.  1.
        -12    1    4    4    0    0 -0.23897786872E+02 -0.78702743958E+01 -0.80891875784E+01  0.26428779618E+02  0.00000000000E+00 0.  1.
</event>
<event>
 8    1  0.2493819E-006  0.9118800E+02  0.7816164E-02  0.1184000E+00
        -11   -1    0    0    0    0  0.00000000000E+00  0.00000000000E+00  0.45593999997E+02  0.45594000000E+02  0.51100000000E-03 0.  1.
         11   -1    0    0    0    0 -0.00000000000E+00 -0.00000000000E+00 -0.45593999997E+02  0.45594000000E+02  0.51100000000E-03 0. -1.
         23    2    1    2    0    0  0.00000000000E+00  0.00000000000E+00  0.00000000000E+00  0.91188000000E+02  0.91188000000E+02 0.  0.
    9900012    2    3    3    0    0  0.12859458069E+02 -0.31977565674E+02 -0.12955690416E+02  0.54367078197E+02  0.39999986366E+02 0.  0.
        -12    1    3    3    0    0 -0.12859458069E+02  0.31977565674E+02  0.12955690416E+02  0.36820921803E+02  0.00000000000E+00 0.  1.
         11    1    4    4    0    0 -0.71977521181E+01 -0.15654103272E+02 -0.10817570676E+02  0.20344002075E+02  0.51100000000E-03 0. -1.
        -11    1    4    4    0    0 -0.34410832512E+01 -0.67600399340E+01  0.29663026776E+01  0.81448232447E+01  0.51100000000E-03 0.  1.
         12    1    4    4    0    0  0.23498293438E+02 -0.95634224677E+01 -0.51044224175E+01  0.25878252878E+02  0.00000000000E+00 0. -1.
</event>
<event>
 8    1  0.2493819E-006  0.9118800E+02  0.7816164E-02  0.1184000E+00
        -11   -1    0    0    0    0  0.00000000000E+00  0.00000000000E+00  0.45593999997E+02  0.45594000000E+02  0.51100000000E-03 0.  1.
         11   -1    0    0    0    0 -0.00000000000E+00 -0.00000000000E+00 -0.45593999997E+02  0.45594000000E+02  0.51100000000E-03 0. -1.
         23    2    1    2    0    0  0.00000000000E+00  0.00000000000E+00  0.00000000000E+00  0.91188000000E+02  0.91188000000E+02 0.  0.
    9900012    2    3    3    0    0  0.14378372318E+02 -0.20874559961E+02  0.26707596810E+02  0.54367074272E+02  0.39999977418E+02 0.  0.
         12    1    3    3    0    0 -0.14378372318E+02  0.20874559961E+02 -0.26707596810E+02  0.36820925728E+02  0.00000000000E+00 0. -1.
         11    1    4    4    0    0 -0.66672092660E+01 -0.96336661090E+01 -0.35352331272E+01  0.12237527349E+02  0.51100000000E-03 0. -1.
        -11    1    4    4    0    0  0.19264486343E+02 -0.70314627975E+01  0.31317119921E+02  0.37434261092E+02  0.51100000000E-03 0.  1.
        -12    1    4    4    0    0  0.17810952414E+01 -0.42094310549E+01 -0.10742899832E+01  0.46952858308E+01  0.00000000000E+00 0.  1.
</event>
<event>
 8    1  0.2493819E-006  0.9118800E+02  0.7816164E-02  0.1184000E+00
        -11   -1    0    0    0    0  0.00000000000E+00  0.00000000000E+00  0.45593999997E+02  0.45594000000E+02  0.51100000000E-03 0. -1.
         11   -1    0    0    0    0 -0.00000000000E+00 -0.00000000000E+00 -0.45593999997E+02  0.45594000000E+02  0.51100000000E-03 0.  1.
         23    2    1    2    0    0  0.17763568394E-14  0.35527136788E-14 -0.35527136788E-14  0.91188000000E+02  0.91188000000E+02 0.  0.
    9900012    2    3    3    0    0 -0.11830119324E+02 -0.29628667744E+02  0.18383972092E+02  0.54367080601E+02  0.39999991847E+02 0.  0.
        -12    1    3    3    0    0  0.11830119324E+02  0.29628667744E+02 -0.18383972092E+02  0.36820919399E+02  0.00000000000E+00 0.  1.
         11    1    4    4    0    0  0.81708348103E+01 -0.13470298231E+02 -0.45498987990E+01  0.16398568696E+02  0.51100000000E-03 0.  1.
        -11    1    4    4    0    0 -0.11014643281E+02 -0.86501517592E+01  0.22183178393E+02  0.26234345731E+02  0.51100000000E-03 0. -1.
        -12    1    4    4    0    0 -0.89863108531E+01 -0.75082177542E+01  0.75069249782E+00  0.11734166175E+02  0.00000000000E+00 0.  1.
</event>
<event>
 8    1  0.2493819E-006  0.9118800E+02  0.7816164E-02  0.1184000E+00
        -11   -1    0    0    0    0  0.00000000000E+00  0.00000000000E+00  0.45593999997E+02  0.45594000000E+02  0.51100000000E-03 0.  1.
         11   -1    0    0    0    0 -0.00000000000E+00 -0.00000000000E+00 -0.45593999997E+02  0.45594000000E+02  0.51100000000E-03 0. -1.
         23    2    1    2    0    0  0.88817841970E-15  0.00000000000E+00 -0.35527136788E-14  0.91188000000E+02  0.91188000000E+02 0.  0.
    9900012    2    3    3    0    0 -0.34824541176E+01  0.27503995395E+02 -0.24231852160E+02  0.54367083275E+02  0.39999997942E+02 0.  0.
        -12    1    3    3    0    0  0.34824541176E+01 -0.27503995395E+02  0.24231852160E+02  0.36820916725E+02  0.00000000000E+00 0.  1.
         11    1    4    4    0    0 -0.15365851128E+02  0.10201358404E+02 -0.19816413335E+02  0.27071522527E+02  0.51100000000E-03 0. -1.
        -11    1    4    4    0    0  0.47438790241E+01  0.19010456160E+02 -0.30748004787E+01  0.19833210276E+02  0.51100000000E-03 0.  1.
         12    1    4    4    0    0  0.71395179867E+01 -0.17078191691E+01 -0.13406383468E+01  0.74623504724E+01  0.00000000000E+00 0. -1.
</event>
<event>
 8    1  0.2493819E-006  0.9118800E+02  0.7816164E-02  0.1184000E+00
        -11   -1    0    0    0    0  0.00000000000E+00  0.00000000000E+00  0.45593999997E+02  0.45594000000E+02  0.51100000000E-03 0.  1.
         11   -1    0    0    0    0 -0.00000000000E+00 -0.00000000000E+00 -0.45593999997E+02  0.45594000000E+02  0.51100000000E-03 0. -1.
         23    2    1    2    0    0  0.35527136788E-14 -0.35527136788E-14  0.00000000000E+00  0.91188000000E+02  0.91188000000E+02 0.  0.
    9900012    2    3    3    0    0 -0.23984247459E+02  0.18646862849E+02  0.20804551812E+02  0.54367095660E+02  0.40000026177E+02 0.  0.
         12    1    3    3    0    0  0.23984247459E+02 -0.18646862849E+02 -0.20804551812E+02  0.36820904340E+02  0.00000000000E+00 0. -1.
         11    1    4    4    0    0  0.63391294873E+01 -0.10434000787E+01 -0.47528743335E+01  0.79914367339E+01  0.51100000000E-03 0. -1.
        -11    1    4    4    0    0 -0.41516109211E+01  0.52873114345E+01 -0.49150289141E+00  0.67404088006E+01  0.51100000000E-03 0.  1.
        -12    1    4    4    0    0 -0.26171766025E+02  0.14402951493E+02  0.26048929037E+02  0.39635250126E+02  0.00000000000E+00 0.  1.
</event>
<event>
 8    1  0.2493819E-006  0.9118800E+02  0.7816164E-02  0.1184000E+00
        -11   -1    0    0    0    0  0.00000000000E+00  0.00000000000E+00  0.45593999997E+02  0.45594000000E+02  0.51100000000E-03 0. -1.
         11   -1    0    0    0    0 -0.00000000000E+00 -0.00000000000E+00 -0.45593999997E+02  0.45594000000E+02  0.51100000000E-03 0.  1.
         23    2    1    2    0    0 -0.35527136788E-14  0.00000000000E+00 -0.17763568394E-14  0.91188000000E+02  0.91188000000E+02 0.  0.
    9900012    2    3    3    0    0 -0.28529034174E+02 -0.18116382962E+02 -0.14617465193E+02  0.54367090027E+02  0.40000013336E+02 0.  0.
         12    1    3    3    0    0  0.28529034174E+02  0.18116382962E+02  0.14617465193E+02  0.36820909973E+02  0.00000000000E+00 0. -1.
         11    1    4    4    0    0 -0.14137819015E+02 -0.12087858327E+02  0.17205345865E+01  0.18680323471E+02  0.51100000000E-03 0. -1.
        -11    1    4    4    0    0 -0.13736460252E+02 -0.15851012044E+02 -0.14921844361E+02  0.25741141436E+02  0.51100000000E-03 0.  1.
         12    1    4    4    0    0 -0.65475490681E+00  0.98224874081E+01 -0.14161554192E+01  0.99456251207E+01  0.00000000000E+00 0. -1.
</event>
<event>
 8    1  0.2493819E-006  0.9118800E+02  0.7816164E-02  0.1184000E+00
        -11   -1    0    0    0    0  0.00000000000E+00  0.00000000000E+00  0.45593999997E+02  0.45594000000E+02  0.51100000000E-03 0.  1.
         11   -1    0    0    0    0 -0.00000000000E+00 -0.00000000000E+00 -0.45593999997E+02  0.45594000000E+02  0.51100000000E-03 0. -1.
         23    2    1    2    0    0  0.35527136788E-14  0.00000000000E+00  0.17763568394E-14  0.91188000000E+02  0.91188000000E+02 0.  0.
    9900012    2    3    3    0    0  0.24022824686E+02  0.24030600788E+02 -0.14185083775E+02  0.54367048330E+02  0.39999918278E+02 0.  0.
        -12    1    3    3    0    0 -0.24022824686E+02 -0.24030600788E+02  0.14185083775E+02  0.36820951670E+02  0.00000000000E+00 0.  1.
         11    1    4    4    0    0  0.16053391279E+02  0.31557801679E+02 -0.20229075402E+02  0.40777710949E+02  0.51100000000E-03 0. -1.
        -11    1    4    4    0    0 -0.50153536602E+00  0.71033793104E-01  0.10430435143E+01  0.11595359231E+01  0.51100000000E-03 0.  1.
         12    1    4    4    0    0  0.84709687736E+01 -0.75982346837E+01  0.50009481122E+01  0.12429801458E+02  0.00000000000E+00 0. -1.
</event>
<event>
 8    1  0.2493819E-006  0.9118800E+02  0.7816164E-02  0.1184000E+00
        -11   -1    0    0    0    0  0.00000000000E+00  0.00000000000E+00  0.45593999997E+02  0.45594000000E+02  0.51100000000E-03 0. -1.
         11   -1    0    0    0    0 -0.00000000000E+00 -0.00000000000E+00 -0.45593999997E+02  0.45594000000E+02  0.51100000000E-03 0.  1.
         23    2    1    2    0    0  0.00000000000E+00  0.17763568394E-14 -0.88817841970E-15  0.91188000000E+02  0.91188000000E+02 0.  0.
    9900012    2    3    3    0    0 -0.34518209185E+02 -0.10422656451E+02  0.74596278966E+01  0.54367019823E+02  0.39999853290E+02 0.  0.
         12    1    3    3    0    0  0.34518209185E+02  0.10422656451E+02 -0.74596278966E+01  0.36820980177E+02  0.00000000000E+00 0. -1.
         11    1    4    4    0    0 -0.13066682471E+02 -0.11763471936E+01 -0.18263310974E+01  0.13246035975E+02  0.51100000000E-03 0. -1.
        -11    1    4    4    0    0 -0.13567528055E+02 -0.98681412204E+01 -0.10514683493E+02  0.19799409029E+02  0.51100000000E-03 0.  1.
         12    1    4    4    0    0 -0.78839986590E+01  0.62183196277E+00  0.19800642487E+02  0.21321574819E+02  0.00000000000E+00 0. -1.
</event>
<event>
 8    1  0.2493819E-006  0.9118800E+02  0.7816164E-02  0.1184000E+00
        -11   -1    0    0    0    0  0.00000000000E+00  0.00000000000E+00  0.45593999997E+02  0.45594000000E+02  0.51100000000E-03 0.  1.
         11   -1    0    0    0    0 -0.00000000000E+00 -0.00000000000E+00 -0.45593999997E+02  0.45594000000E+02  0.51100000000E-03 0. -1.
         23    2    1    2    0    0 -0.88817841970E-15 -0.17763568394E-14  0.00000000000E+00  0.91188000000E+02  0.91188000000E+02 0.  0.
    9900012    2    3    3    0    0  0.55487159991E+01  0.37289264310E+01 -0.36209000708E+02  0.54367015849E+02  0.39999844231E+02 0.  0.
        -12    1    3    3    0    0 -0.55487159991E+01 -0.37289264310E+01  0.36209000708E+02  0.36820984151E+02  0.00000000000E+00 0.  1.
         11    1    4    4    0    0  0.68695164268E+01  0.79032640935E+01 -0.13173370671E+02  0.16828236223E+02  0.51100000000E-03 0.  1.
        -11    1    4    4    0    0  0.17354275068E+01 -0.52902566204E+01 -0.29649623717E+02  0.30167842325E+02  0.51100000000E-03 0. -1.
        -12    1    4    4    0    0 -0.30562279345E+01  0.11159189579E+01  0.66139936797E+01  0.73709373016E+01  0.00000000000E+00 0.  1.
</event>
<event>
 8    1  0.2493819E-006  0.9118800E+02  0.7816164E-02  0.1184000E+00
        -11   -1    0    0    0    0  0.00000000000E+00  0.00000000000E+00  0.45593999997E+02  0.45594000000E+02  0.51100000000E-03 0. -1.
         11   -1    0    0    0    0 -0.00000000000E+00 -0.00000000000E+00 -0.45593999997E+02  0.45594000000E+02  0.51100000000E-03 0.  1.
         23    2    1    2    0    0  0.00000000000E+00  0.00000000000E+00  0.00000000000E+00  0.91188000000E+02  0.91188000000E+02 0.  0.
    9900012    2    3    3    0    0  0.10129508313E+02  0.17563305134E+02 -0.30736011546E+02  0.54367095181E+02  0.40000025084E+02 0.  0.
         12    1    3    3    0    0 -0.10129508313E+02 -0.17563305134E+02  0.30736011546E+02  0.36820904819E+02  0.00000000000E+00 0. -1.
         11    1    4    4    0    0  0.16363492349E+02 -0.41274467769E+01 -0.12350491963E+02  0.20912540514E+02  0.51100000000E-03 0. -1.
        -11    1    4    4    0    0 -0.82660602594E+01  0.15910222267E+02 -0.20253010365E+02  0.27048980645E+02  0.51100000000E-03 0.  1.
         12    1    4    4    0    0  0.20320762238E+01  0.57805296436E+01  0.18674907818E+01  0.64055740227E+01  0.00000000000E+00 0. -1.
</event>
<event>
 8    1  0.2493819E-006  0.9118800E+02  0.7816164E-02  0.1184000E+00
        -11   -1    0    0    0    0  0.00000000000E+00  0.00000000000E+00  0.45593999997E+02  0.45594000000E+02  0.51100000000E-03 0.  1.
         11   -1    0    0    0    0 -0.00000000000E+00 -0.00000000000E+00 -0.45593999997E+02  0.45594000000E+02  0.51100000000E-03 0. -1.
         23    2    1    2    0    0 -0.88817841970E-15 -0.71054273576E-14  0.00000000000E+00  0.91188000000E+02  0.91188000000E+02 0.  0.
    9900012    2    3    3    0    0 -0.30339088875E+01 -0.34818545227E+02  0.11586375388E+02  0.54367084890E+02  0.40000001624E+02 0.  0.
         12    1    3    3    0    0  0.30339088875E+01  0.34818545227E+02 -0.11586375388E+02  0.36820915110E+02  0.00000000000E+00 0. -1.
         11    1    4    4    0    0  0.14775224705E+01 -0.13532827824E+02 -0.16782917067E+00  0.13614281782E+02  0.51100000000E-03 0. -1.
        -11    1    4    4    0    0 -0.90278730908E+01 -0.28061930326E+02  0.13502810673E+02  0.32423761696E+02  0.51100000000E-03 0.  1.
         12    1    4    4    0    0  0.45164417327E+01  0.67762129225E+01 -0.17486061148E+01  0.83290414119E+01  0.00000000000E+00 0. -1.
</event>
<event>
 8    1  0.2493819E-006  0.9118800E+02  0.7816164E-02  0.1184000E+00
        -11   -1    0    0    0    0  0.00000000000E+00  0.00000000000E+00  0.45593999997E+02  0.45594000000E+02  0.51100000000E-03 0.  1.
         11   -1    0    0    0    0 -0.00000000000E+00 -0.00000000000E+00 -0.45593999997E+02  0.45594000000E+02  0.51100000000E-03 0. -1.
         23    2    1    2    0    0  0.00000000000E+00  0.00000000000E+00  0.00000000000E+00  0.91188000000E+02  0.91188000000E+02 0.  0.
    9900012    2    3    3    0    0 -0.19087541227E+02  0.29016384145E+02 -0.12226918310E+02  0.54367050660E+02  0.39999923590E+02 0.  0.
        -12    1    3    3    0    0  0.19087541227E+02 -0.29016384145E+02  0.12226918310E+02  0.36820949340E+02  0.00000000000E+00 0.  1.
         11    1    4    4    0    0 -0.67026560870E+00  0.12888033665E+02 -0.19574111483E+02  0.23445607442E+02  0.51100000000E-03 0. -1.
        -11    1    4    4    0    0 -0.49236150133E+01  0.69514109029E+01  0.11280505944E+02  0.14135554922E+02  0.51100000000E-03 0.  1.
         12    1    4    4    0    0 -0.13493660605E+02  0.91769395769E+01 -0.39333127721E+01  0.16785888296E+02  0.00000000000E+00 0. -1.
</event>
<event>
 8    1  0.2493819E-006  0.9118800E+02  0.7816164E-02  0.1184000E+00
        -11   -1    0    0    0    0  0.00000000000E+00  0.00000000000E+00  0.45593999997E+02  0.45594000000E+02  0.51100000000E-03 0.  1.
         11   -1    0    0    0    0 -0.00000000000E+00 -0.00000000000E+00 -0.45593999997E+02  0.45594000000E+02  0.51100000000E-03 0. -1.
         23    2    1    2    0    0  0.00000000000E+00  0.00000000000E+00  0.00000000000E+00  0.91188000000E+02  0.91188000000E+02 0.  0.
    9900012    2    3    3    0    0  0.81239967679E+01  0.51541963468E+01  0.35541727062E+02  0.54367089826E+02  0.40000012877E+02 0.  0.
         12    1    3    3    0    0 -0.81239967679E+01 -0.51541963468E+01 -0.35541727062E+02  0.36820910174E+02  0.00000000000E+00 0. -1.
         11    1    4    4    0    0  0.71275105098E+01 -0.48942916840E+01 -0.40901951112E+01  0.95647892535E+01  0.51100000000E-03 0. -1.
        -11    1    4    4    0    0  0.86839160588E+01  0.88386840580E+00  0.13699905047E+02  0.16244353482E+02  0.51100000000E-03 0.  1.
        -12    1    4    4    0    0 -0.76874298007E+01  0.91646196250E+01  0.25932017126E+02  0.28557947091E+02  0.00000000000E+00 0.  1.
</event>
<event>
 8    1  0.2493819E-006  0.9118800E+02  0.7816164E-02  0.1184000E+00
        -11   -1    0    0    0    0  0.00000000000E+00  0.00000000000E+00  0.45593999997E+02  0.45594000000E+02  0.51100000000E-03 0. -1.
         11   -1    0    0    0    0 -0.00000000000E+00 -0.00000000000E+00 -0.45593999997E+02  0.45594000000E+02  0.51100000000E-03 0.  1.
         23    2    1    2    0    0 -0.35527136788E-14 -0.35527136788E-14  0.00000000000E+00  0.91188000000E+02  0.91188000000E+02 0.  0.
    9900012    2    3    3    0    0  0.22718173614E+02  0.22920495689E+02 -0.17728891185E+02  0.54367107593E+02  0.40000053379E+02 0.  0.
        -12    1    3    3    0    0 -0.22718173614E+02 -0.22920495689E+02  0.17728891185E+02  0.36820892407E+02  0.00000000000E+00 0.  1.
         11    1    4    4    0    0 -0.36935110368E+01  0.73042614173E+01 -0.49599680068E+01  0.95705559671E+01  0.51100000000E-03 0. -1.
        -11    1    4    4    0    0 -0.39756142324E+01  0.36752733998E+01 -0.10808232783E+02  0.12088467200E+02  0.51100000000E-03 0.  1.
         12    1    4    4    0    0  0.30387298883E+02  0.11940960872E+02 -0.19606903956E+01  0.32708084426E+02  0.00000000000E+00 0. -1.
</event>
<event>
 8    1  0.2493819E-006  0.9118800E+02  0.7816164E-02  0.1184000E+00
        -11   -1    0    0    0    0  0.00000000000E+00  0.00000000000E+00  0.45593999997E+02  0.45594000000E+02  0.51100000000E-03 0. -1.
         11   -1    0    0    0    0 -0.00000000000E+00 -0.00000000000E+00 -0.45593999997E+02  0.45594000000E+02  0.51100000000E-03 0.  1.
         23    2    1    2    0    0  0.00000000000E+00  0.00000000000E+00  0.88817841970E-15  0.91188000000E+02  0.91188000000E+02 0.  0.
    9900012    2    3    3    0    0  0.28039452728E+02  0.23008322651E+02  0.63391177891E+01  0.54367106002E+02  0.40000049753E+02 0.  0.
        -12    1    3    3    0    0 -0.28039452728E+02 -0.23008322651E+02 -0.63391177891E+01  0.36820893998E+02  0.00000000000E+00 0.  1.
         11    1    4    4    0    0  0.14268037773E+02  0.25269224078E+02  0.17380010544E+02  0.33825661178E+02  0.51100000000E-03 0. -1.
        -11    1    4    4    0    0  0.48322465302E+01 -0.82007771252E+00  0.14524156889E+01  0.51120099352E+01  0.51100000000E-03 0.  1.
        -12    1    4    4    0    0  0.89391684248E+01 -0.14408237144E+01 -0.12493308444E+02  0.15429434889E+02  0.00000000000E+00 0.  1.
</event>
<event>
 8    1  0.2493819E-006  0.9118800E+02  0.7816164E-02  0.1184000E+00
        -11   -1    0    0    0    0  0.00000000000E+00  0.00000000000E+00  0.45593999997E+02  0.45594000000E+02  0.51100000000E-03 0.  1.
         11   -1    0    0    0    0 -0.00000000000E+00 -0.00000000000E+00 -0.45593999997E+02  0.45594000000E+02  0.51100000000E-03 0. -1.
         23    2    1    2    0    0 -0.35527136788E-14  0.00000000000E+00  0.00000000000E+00  0.91188000000E+02  0.91188000000E+02 0.  0.
    9900012    2    3    3    0    0 -0.24926539118E+02  0.18015045731E+02  0.20246129142E+02  0.54367082435E+02  0.39999996027E+02 0.  0.
         12    1    3    3    0    0  0.24926539118E+02 -0.18015045731E+02 -0.20246129142E+02  0.36820917565E+02  0.00000000000E+00 0. -1.
         11    1    4    4    0    0 -0.17630365327E+02  0.12336355382E+02 -0.43702463481E+01  0.21957105891E+02  0.51100000000E-03 0. -1.
        -11    1    4    4    0    0 -0.66257191520E+01 -0.45168560148E+01  0.19283701547E+02  0.20884522694E+02  0.51100000000E-03 0.  1.
        -12    1    4    4    0    0 -0.67045463847E+00  0.10195546364E+02  0.53326739437E+01  0.11525453851E+02  0.00000000000E+00 0.  1.
</event>
<event>
 8    1  0.2493819E-006  0.9118800E+02  0.7816164E-02  0.1184000E+00
        -11   -1    0    0    0    0  0.00000000000E+00  0.00000000000E+00  0.45593999997E+02  0.45594000000E+02  0.51100000000E-03 0. -1.
         11   -1    0    0    0    0 -0.00000000000E+00 -0.00000000000E+00 -0.45593999997E+02  0.45594000000E+02  0.51100000000E-03 0.  1.
         23    2    1    2    0    0  0.35527136788E-14 -0.13322676296E-14  0.00000000000E+00  0.91188000000E+02  0.91188000000E+02 0.  0.
    9900012    2    3    3    0    0 -0.17183462987E+02 -0.26703302939E+01 -0.32455773034E+02  0.54367091981E+02  0.40000017790E+02 0.  0.
         12    1    3    3    0    0  0.17183462987E+02  0.26703302939E+01  0.32455773034E+02  0.36820908019E+02  0.00000000000E+00 0. -1.
         11    1    4    4    0    0  0.17030813095E+01  0.23861878593E+01 -0.10306058153E+02  0.10714906129E+02  0.51100000000E-03 0. -1.
        -11    1    4    4    0    0 -0.21380703290E+02 -0.72673689334E+01 -0.13880269594E+01  0.22624671124E+02  0.51100000000E-03 0.  1.
        -12    1    4    4    0    0  0.24941589939E+01  0.22108507802E+01 -0.20761687922E+02  0.21027514728E+02  0.00000000000E+00 0.  1.
</event>
<event>
 8    1  0.2493819E-006  0.9118800E+02  0.7816164E-02  0.1184000E+00
        -11   -1    0    0    0    0  0.00000000000E+00  0.00000000000E+00  0.45593999997E+02  0.45594000000E+02  0.51100000000E-03 0.  1.
         11   -1    0    0    0    0 -0.00000000000E+00 -0.00000000000E+00 -0.45593999997E+02  0.45594000000E+02  0.51100000000E-03 0. -1.
         23    2    1    2    0    0  0.00000000000E+00 -0.35527136788E-14  0.00000000000E+00  0.91188000000E+02  0.91188000000E+02 0.  0.
    9900012    2    3    3    0    0  0.24650628076E+02 -0.25423713532E+02 -0.10087728995E+02  0.54367069124E+02  0.39999965682E+02 0.  0.
        -12    1    3    3    0    0 -0.24650628076E+02  0.25423713532E+02  0.10087728995E+02  0.36820930876E+02  0.00000000000E+00 0.  1.
         11    1    4    4    0    0  0.79308906123E+01 -0.80732844009E+01 -0.39502525103E+01  0.11986719404E+02  0.51100000000E-03 0. -1.
        -11    1    4    4    0    0  0.23360957230E+02 -0.22583843537E+01  0.27813912502E+01  0.23634101636E+02  0.51100000000E-03 0.  1.
         12    1    4    4    0    0 -0.66412197662E+01 -0.15092044778E+02 -0.89188677347E+01  0.18746248084E+02  0.00000000000E+00 0. -1.
</event>
<event>
 8    1  0.2493819E-006  0.9118800E+02  0.7816164E-02  0.1184000E+00
        -11   -1    0    0    0    0  0.00000000000E+00  0.00000000000E+00  0.45593999997E+02  0.45594000000E+02  0.51100000000E-03 0. -1.
         11   -1    0    0    0    0 -0.00000000000E+00 -0.00000000000E+00 -0.45593999997E+02  0.45594000000E+02  0.51100000000E-03 0.  1.
         23    2    1    2    0    0  0.00000000000E+00  0.71054273576E-14  0.00000000000E+00  0.91188000000E+02  0.91188000000E+02 0.  0.
    9900012    2    3    3    0    0 -0.48193187922E+01  0.32892692465E+02 -0.15831106839E+02  0.54367095680E+02  0.40000026222E+02 0.  0.
         12    1    3    3    0    0  0.48193187922E+01 -0.32892692465E+02  0.15831106839E+02  0.36820904320E+02  0.00000000000E+00 0. -1.
         11    1    4    4    0    0  0.10920804873E+01  0.54139848949E+01 -0.77469361839E+01  0.95141417233E+01  0.51100000000E-03 0. -1.
        -11    1    4    4    0    0  0.56447048828E+01  0.17568501122E+01 -0.14738466540E+02  0.15879912208E+02  0.51100000000E-03 0.  1.
         12    1    4    4    0    0 -0.11556104162E+02  0.25721857457E+02  0.66542958844E+01  0.28973041749E+02  0.00000000000E+00 0. -1.
</event>
<event>
 8    1  0.2493819E-006  0.9118800E+02  0.7816164E-02  0.1184000E+00
        -11   -1    0    0    0    0  0.00000000000E+00  0.00000000000E+00  0.45593999997E+02  0.45594000000E+02  0.51100000000E-03 0.  1.
         11   -1    0    0    0    0 -0.00000000000E+00 -0.00000000000E+00 -0.45593999997E+02  0.45594000000E+02  0.51100000000E-03 0. -1.
         23    2    1    2    0    0  0.88817841970E-15  0.00000000000E+00 -0.71054273576E-14  0.91188000000E+02  0.91188000000E+02 0.  0.
    9900012    2    3    3    0    0 -0.43103030958E+01  0.28236497146E+02  0.23235630833E+02  0.54367176760E+02  0.40000211060E+02 0.  0.
         12    1    3    3    0    0  0.43103030958E+01 -0.28236497146E+02 -0.23235630833E+02  0.36820823240E+02  0.00000000000E+00 0. -1.
         11    1    4    4    0    0 -0.13776390451E+02  0.55903036596E+01 -0.39722349076E+01  0.15388927165E+02  0.51100000000E-03 0. -1.
        -11    1    4    4    0    0  0.22717924003E+01 -0.13561904189E+01  0.13463438309E+01  0.29686588107E+01  0.51100000000E-03 0.  1.
        -12    1    4    4    0    0  0.71942949545E+01  0.24002383906E+02  0.25861521909E+02  0.36009590785E+02  0.00000000000E+00 0.  1.
</event>
<event>
 8    1  0.2493819E-006  0.9118800E+02  0.7816164E-02  0.1184000E+00
        -11   -1    0    0    0    0  0.00000000000E+00  0.00000000000E+00  0.45593999997E+02  0.45594000000E+02  0.51100000000E-03 0. -1.
         11   -1    0    0    0    0 -0.00000000000E+00 -0.00000000000E+00 -0.45593999997E+02  0.45594000000E+02  0.51100000000E-03 0.  1.
         23    2    1    2    0    0  0.17763568394E-14  0.35527136788E-14 -0.35527136788E-14  0.91188000000E+02  0.91188000000E+02 0.  0.
    9900012    2    3    3    0    0 -0.13387361083E+02  0.26470242601E+02  0.21814785785E+02  0.54367081231E+02  0.39999993283E+02 0.  0.
        -12    1    3    3    0    0  0.13387361083E+02 -0.26470242601E+02 -0.21814785785E+02  0.36820918769E+02  0.00000000000E+00 0.  1.
         11    1    4    4    0    0  0.16674508957E+00 -0.51915142288E+01  0.42930942818E+01  0.67387152103E+01  0.51100000000E-03 0. -1.
        -11    1    4    4    0    0 -0.13097670595E+02  0.17932717333E+01  0.10650313424E+02  0.16976276824E+02  0.51100000000E-03 0.  1.
        -12    1    4    4    0    0 -0.45643557795E+00  0.29868485097E+02  0.68713780793E+01  0.30652089197E+02  0.00000000000E+00 0.  1.
</event>
<event>
 8    1  0.2493819E-006  0.9118800E+02  0.7816164E-02  0.1184000E+00
        -11   -1    0    0    0    0  0.00000000000E+00  0.00000000000E+00  0.45593999997E+02  0.45594000000E+02  0.51100000000E-03 0. -1.
         11   -1    0    0    0    0 -0.00000000000E+00 -0.00000000000E+00 -0.45593999997E+02  0.45594000000E+02  0.51100000000E-03 0.  1.
         23    2    1    2    0    0  0.00000000000E+00  0.17763568394E-14 -0.88817841970E-15  0.91188000000E+02  0.91188000000E+02 0.  0.
    9900012    2    3    3    0    0 -0.32717464965E+02  0.15099656109E+02 -0.75728168870E+01  0.54367086324E+02  0.40000004893E+02 0.  0.
        -12    1    3    3    0    0  0.32717464965E+02 -0.15099656109E+02  0.75728168870E+01  0.36820913676E+02  0.00000000000E+00 0.  1.
         11    1    4    4    0    0 -0.21441091503E+02  0.16040904200E+02 -0.48426242541E+01  0.27211799321E+02  0.51100000000E-03 0. -1.
        -11    1    4    4    0    0 -0.13373838267E+02  0.39393322040E+01  0.73502073320E+01  0.15760819658E+02  0.51100000000E-03 0.  1.
        -12    1    4    4    0    0  0.20974648050E+01 -0.48805802946E+01 -0.10080399965E+02  0.11394467345E+02  0.00000000000E+00 0.  1.
</event>
<event>
 8    1  0.2493819E-006  0.9118800E+02  0.7816164E-02  0.1184000E+00
        -11   -1    0    0    0    0  0.00000000000E+00  0.00000000000E+00  0.45593999997E+02  0.45594000000E+02  0.51100000000E-03 0.  1.
         11   -1    0    0    0    0 -0.00000000000E+00 -0.00000000000E+00 -0.45593999997E+02  0.45594000000E+02  0.51100000000E-03 0. -1.
         23    2    1    2    0    0 -0.35527136788E-14  0.00000000000E+00 -0.33306690739E-15  0.91188000000E+02  0.91188000000E+02 0.  0.
    9900012    2    3    3    0    0  0.30278011415E+02  0.20929620281E+02 -0.98668692097E+00  0.54367074816E+02  0.39999978658E+02 0.  0.
        -12    1    3    3    0    0 -0.30278011415E+02 -0.20929620281E+02  0.98668692097E+00  0.36820925184E+02  0.00000000000E+00 0.  1.
         11    1    4    4    0    0  0.11735078187E+02 -0.66475215218E+01 -0.52418372343E+00  0.13497272734E+02  0.51100000000E-03 0. -1.
        -11    1    4    4    0    0  0.94436260047E+01  0.10838722344E+02  0.11469029325E+02  0.18390176946E+02  0.51100000000E-03 0.  1.
         12    1    4    4    0    0  0.90993072234E+01  0.16738419458E+02 -0.11931532523E+02  0.22479625136E+02  0.00000000000E+00 0. -1.
</event>
<event>
 8    1  0.2493819E-006  0.9118800E+02  0.7816164E-02  0.1184000E+00
        -11   -1    0    0    0    0  0.00000000000E+00  0.00000000000E+00  0.45593999997E+02  0.45594000000E+02  0.51100000000E-03 0. -1.
         11   -1    0    0    0    0 -0.00000000000E+00 -0.00000000000E+00 -0.45593999997E+02  0.45594000000E+02  0.51100000000E-03 0.  1.
         23    2    1    2    0    0  0.00000000000E+00  0.00000000000E+00  0.00000000000E+00  0.91188000000E+02  0.91188000000E+02 0.  0.
    9900012    2    3    3    0    0 -0.18941168538E+02 -0.25652022304E+02  0.18411524509E+02  0.54367104457E+02  0.40000046230E+02 0.  0.
        -12    1    3    3    0    0  0.18941168538E+02  0.25652022304E+02 -0.18411524509E+02  0.36820895543E+02  0.00000000000E+00 0.  1.
         11    1    4    4    0    0 -0.15124525750E+02 -0.28221849270E+02  0.92363024502E+01  0.33324665619E+02  0.51100000000E-03 0. -1.
        -11    1    4    4    0    0 -0.36515637650E+00 -0.89596079957E-03 -0.56210980176E+01  0.56329462243E+01  0.51100000000E-03 0.  1.
         12    1    4    4    0    0 -0.34514864117E+01  0.25707229271E+01  0.14796320076E+02  0.15409492614E+02  0.00000000000E+00 0. -1.
</event>
<event>
 8    1  0.2493819E-006  0.9118800E+02  0.7816164E-02  0.1184000E+00
        -11   -1    0    0    0    0  0.00000000000E+00  0.00000000000E+00  0.45593999997E+02  0.45594000000E+02  0.51100000000E-03 0. -1.
         11   -1    0    0    0    0 -0.00000000000E+00 -0.00000000000E+00 -0.45593999997E+02  0.45594000000E+02  0.51100000000E-03 0.  1.
         23    2    1    2    0    0 -0.17763568394E-14  0.00000000000E+00 -0.88817841970E-15  0.91188000000E+02  0.91188000000E+02 0.  0.
    9900012    2    3    3    0    0 -0.72876337730E+01 -0.35395939315E+02 -0.70567246065E+01  0.54367088983E+02  0.40000010954E+02 0.  0.
         12    1    3    3    0    0  0.72876337730E+01  0.35395939315E+02  0.70567246065E+01  0.36820911017E+02  0.00000000000E+00 0. -1.
         11    1    4    4    0    0 -0.16494199058E+02 -0.12239177008E+02 -0.36957431009E+01  0.20868985929E+02  0.51100000000E-03 0. -1.
        -11    1    4    4    0    0 -0.28835360066E+01 -0.18994009672E+02 -0.65891998926E+01  0.20310212673E+02  0.51100000000E-03 0.  1.
         12    1    4    4    0    0  0.12090101292E+02 -0.41627526347E+01  0.32282183871E+01  0.13187890381E+02  0.00000000000E+00 0. -1.
</event>
<event>
 8    1  0.2493819E-006  0.9118800E+02  0.7816164E-02  0.1184000E+00
        -11   -1    0    0    0    0  0.00000000000E+00  0.00000000000E+00  0.45593999997E+02  0.45594000000E+02  0.51100000000E-03 0. -1.
         11   -1    0    0    0    0 -0.00000000000E+00 -0.00000000000E+00 -0.45593999997E+02  0.45594000000E+02  0.51100000000E-03 0.  1.
         23    2    1    2    0    0  0.35527136788E-14  0.00000000000E+00  0.00000000000E+00  0.91188000000E+02  0.91188000000E+02 0.  0.
    9900012    2    3    3    0    0  0.28127739590E+02 -0.23739975555E+02 -0.10116709242E+01  0.54367086760E+02  0.40000005886E+02 0.  0.
         12    1    3    3    0    0 -0.28127739590E+02  0.23739975555E+02  0.10116709242E+01  0.36820913240E+02  0.00000000000E+00 0. -1.
         11    1    4    4    0    0  0.34049239044E+01 -0.39408271723E+01  0.91845555378E+01  0.10558394115E+02  0.51100000000E-03 0. -1.
        -11    1    4    4    0    0  0.94269867652E+01 -0.24717769040E+02 -0.76718061496E+01  0.27544378658E+02  0.51100000000E-03 0.  1.
        -12    1    4    4    0    0  0.15295828921E+02  0.49186206578E+01 -0.25244203124E+01  0.16264313987E+02  0.00000000000E+00 0.  1.
</event>
<event>
 8    1  0.2493819E-006  0.9118800E+02  0.7816164E-02  0.1184000E+00
        -11   -1    0    0    0    0  0.00000000000E+00  0.00000000000E+00  0.45593999997E+02  0.45594000000E+02  0.51100000000E-03 0.  1.
         11   -1    0    0    0    0 -0.00000000000E+00 -0.00000000000E+00 -0.45593999997E+02  0.45594000000E+02  0.51100000000E-03 0. -1.
         23    2    1    2    0    0  0.00000000000E+00  0.00000000000E+00  0.00000000000E+00  0.91188000000E+02  0.91188000000E+02 0.  0.
    9900012    2    3    3    0    0 -0.27726706281E+02  0.22236878663E+02 -0.96193174476E+01  0.54367078203E+02  0.39999986378E+02 0.  0.
         12    1    3    3    0    0  0.27726706281E+02 -0.22236878663E+02  0.96193174476E+01  0.36820921797E+02  0.00000000000E+00 0. -1.
         11    1    4    4    0    0 -0.11228247359E+02 -0.32648759705E+01 -0.19066279749E+02  0.22366402875E+02  0.51100000000E-03 0. -1.
        -11    1    4    4    0    0 -0.92979619790E+01  0.14903752553E+02  0.36685547721E+01  0.17945256518E+02  0.51100000000E-03 0.  1.
         12    1    4    4    0    0 -0.72004969428E+01  0.10598002081E+02  0.57784075293E+01  0.14055418809E+02  0.00000000000E+00 0. -1.
</event>
<event>
 8    1  0.2493819E-006  0.9118800E+02  0.7816164E-02  0.1184000E+00
        -11   -1    0    0    0    0  0.00000000000E+00  0.00000000000E+00  0.45593999997E+02  0.45594000000E+02  0.51100000000E-03 0.  1.
         11   -1    0    0    0    0 -0.00000000000E+00 -0.00000000000E+00 -0.45593999997E+02  0.45594000000E+02  0.51100000000E-03 0. -1.
         23    2    1    2    0    0  0.00000000000E+00 -0.88817841970E-15  0.00000000000E+00  0.91188000000E+02  0.91188000000E+02 0.  0.
    9900012    2    3    3    0    0 -0.35808841779E+02  0.57266470462E+01  0.63806238437E+01  0.54367082078E+02  0.39999995214E+02 0.  0.
         12    1    3    3    0    0  0.35808841779E+02 -0.57266470462E+01 -0.63806238437E+01  0.36820917922E+02  0.00000000000E+00 0. -1.
         11    1    4    4    0    0  0.29511958131E+01 -0.27635989567E+01 -0.22745461511E+01  0.46390296804E+01  0.51100000000E-03 0. -1.
        -11    1    4    4    0    0 -0.42369770812E+02  0.31043738915E+01  0.76628357541E+01  0.43168896998E+02  0.51100000000E-03 0.  1.
         12    1    4    4    0    0  0.36097332199E+01  0.53858721114E+01  0.99233424082E+00  0.65591554003E+01  0.00000000000E+00 0. -1.
</event>
<event>
 8    1  0.2493819E-006  0.9118800E+02  0.7816164E-02  0.1184000E+00
        -11   -1    0    0    0    0  0.00000000000E+00  0.00000000000E+00  0.45593999997E+02  0.45594000000E+02  0.51100000000E-03 0.  1.
         11   -1    0    0    0    0 -0.00000000000E+00 -0.00000000000E+00 -0.45593999997E+02  0.45594000000E+02  0.51100000000E-03 0. -1.
         23    2    1    2    0    0  0.00000000000E+00  0.00000000000E+00  0.00000000000E+00  0.91188000000E+02  0.91188000000E+02 0.  0.
    9900012    2    3    3    0    0  0.27354832436E+02  0.12439392553E+02 -0.21278030851E+02  0.54367082825E+02  0.39999996916E+02 0.  0.
         12    1    3    3    0    0 -0.27354832436E+02 -0.12439392553E+02  0.21278030851E+02  0.36820917175E+02  0.00000000000E+00 0. -1.
         11    1    4    4    0    0  0.29794991320E+02  0.15100296253E+02 -0.11563801200E+02  0.35348012012E+02  0.51100000000E-03 0.  1.
        -11    1    4    4    0    0 -0.24376114077E+01  0.66044738045E+01 -0.34934668801E+01  0.78590924866E+01  0.51100000000E-03 0. -1.
        -12    1    4    4    0    0 -0.25474763500E-02 -0.92653775052E+01 -0.62207627712E+01  0.11159978327E+02  0.00000000000E+00 0.  1.
</event>
<event>
 8    1  0.2493819E-006  0.9118800E+02  0.7816164E-02  0.1184000E+00
        -11   -1    0    0    0    0  0.00000000000E+00  0.00000000000E+00  0.45593999997E+02  0.45594000000E+02  0.51100000000E-03 0.  1.
         11   -1    0    0    0    0 -0.00000000000E+00 -0.00000000000E+00 -0.45593999997E+02  0.45594000000E+02  0.51100000000E-03 0. -1.
         23    2    1    2    0    0  0.44408920985E-15  0.71054273576E-14  0.26645352591E-14  0.91188000000E+02  0.91188000000E+02 0.  0.
    9900012    2    3    3    0    0 -0.13172818464E+01 -0.36553564396E+02  0.42286560284E+01  0.54367084295E+02  0.40000000268E+02 0.  0.
        -12    1    3    3    0    0  0.13172818464E+01  0.36553564396E+02 -0.42286560284E+01  0.36820915705E+02  0.00000000000E+00 0.  1.
         11    1    4    4    0    0 -0.31285322182E+01 -0.17591659116E+02 -0.50702960289E+01  0.18573154992E+02  0.51100000000E-03 0. -1.
        -11    1    4    4    0    0 -0.90461568068E+01 -0.15460438030E+02 -0.39164651576E+01  0.18335670062E+02  0.51100000000E-03 0.  1.
        -12    1    4    4    0    0  0.10857407179E+02 -0.35014672508E+01  0.13215417215E+02  0.17458259241E+02  0.00000000000E+00 0.  1.
</event>
<event>
 8    1  0.2493819E-006  0.9118800E+02  0.7816164E-02  0.1184000E+00
        -11   -1    0    0    0    0  0.00000000000E+00  0.00000000000E+00  0.45593999997E+02  0.45594000000E+02  0.51100000000E-03 0. -1.
         11   -1    0    0    0    0 -0.00000000000E+00 -0.00000000000E+00 -0.45593999997E+02  0.45594000000E+02  0.51100000000E-03 0.  1.
         23    2    1    2    0    0  0.00000000000E+00  0.35527136788E-14  0.00000000000E+00  0.91188000000E+02  0.91188000000E+02 0.  0.
    9900012    2    3    3    0    0 -0.16032279470E+02  0.29103258712E+02 -0.15866524369E+02  0.54367078661E+02  0.39999987424E+02 0.  0.
         12    1    3    3    0    0  0.16032279470E+02 -0.29103258712E+02  0.15866524369E+02  0.36820921339E+02  0.00000000000E+00 0. -1.
         11    1    4    4    0    0  0.19851067763E+01  0.87989915881E+01  0.77373577426E+01  0.11884006352E+02  0.51100000000E-03 0. -1.
        -11    1    4    4    0    0 -0.14232958140E+02  0.12503763479E+01 -0.38937091330E+01  0.14808832145E+02  0.51100000000E-03 0.  1.
        -12    1    4    4    0    0 -0.37844281060E+01  0.19053890776E+02 -0.19710172979E+02  0.27674240164E+02  0.00000000000E+00 0.  1.
</event>
<event>
 8    1  0.2493819E-006  0.9118800E+02  0.7816164E-02  0.1184000E+00
        -11   -1    0    0    0    0  0.00000000000E+00  0.00000000000E+00  0.45593999997E+02  0.45594000000E+02  0.51100000000E-03 0. -1.
         11   -1    0    0    0    0 -0.00000000000E+00 -0.00000000000E+00 -0.45593999997E+02  0.45594000000E+02  0.51100000000E-03 0.  1.
         23    2    1    2    0    0  0.00000000000E+00  0.35527136788E-14  0.00000000000E+00  0.91188000000E+02  0.91188000000E+02 0.  0.
    9900012    2    3    3    0    0 -0.14759722910E+02  0.25489658341E+02 -0.22095405486E+02  0.54367094982E+02  0.40000024631E+02 0.  0.
         12    1    3    3    0    0  0.14759722910E+02 -0.25489658341E+02  0.22095405486E+02  0.36820905018E+02  0.00000000000E+00 0. -1.
         11    1    4    4    0    0 -0.20606795469E+02  0.21115888217E+02 -0.11208314499E+02  0.31561797618E+02  0.51100000000E-03 0. -1.
        -11    1    4    4    0    0 -0.30096768490E+01  0.39230340836E+01 -0.12809875696E+02  0.13731032982E+02  0.51100000000E-03 0.  1.
         12    1    4    4    0    0  0.88567494077E+01  0.45073604061E+00  0.19227847087E+01  0.90742643826E+01  0.00000000000E+00 0. -1.
</event>
<event>
 8    1  0.2493819E-006  0.9118800E+02  0.7816164E-02  0.1184000E+00
        -11   -1    0    0    0    0  0.00000000000E+00  0.00000000000E+00  0.45593999997E+02  0.45594000000E+02  0.51100000000E-03 0.  1.
         11   -1    0    0    0    0 -0.00000000000E+00 -0.00000000000E+00 -0.45593999997E+02  0.45594000000E+02  0.51100000000E-03 0. -1.
         23    2    1    2    0    0  0.35527136788E-14  0.00000000000E+00  0.35527136788E-14  0.91188000000E+02  0.91188000000E+02 0.  0.
    9900012    2    3    3    0    0  0.25613192735E+02 -0.16570381731E+02 -0.20619568927E+02  0.54367084537E+02  0.40000000820E+02 0.  0.
        -12    1    3    3    0    0 -0.25613192735E+02  0.16570381731E+02  0.20619568927E+02  0.36820915463E+02  0.00000000000E+00 0.  1.
         11    1    4    4    0    0  0.47815162704E+01 -0.59538622516E+01 -0.11071207684E+02  0.13449275572E+02  0.51100000000E-03 0. -1.
        -11    1    4    4    0    0  0.24293643686E+02 -0.83090931654E+01  0.46758620533E+01  0.26097621328E+02  0.51100000000E-03 0.  1.
        -12    1    4    4    0    0 -0.34619672220E+01 -0.23074263141E+01 -0.14224223296E+02  0.14820187637E+02  0.00000000000E+00 0.  1.
</event>
<event>
 8    1  0.2493819E-006  0.9118800E+02  0.7816164E-02  0.1184000E+00
        -11   -1    0    0    0    0  0.00000000000E+00  0.00000000000E+00  0.45593999997E+02  0.45594000000E+02  0.51100000000E-03 0. -1.
         11   -1    0    0    0    0 -0.00000000000E+00 -0.00000000000E+00 -0.45593999997E+02  0.45594000000E+02  0.51100000000E-03 0.  1.
         23    2    1    2    0    0  0.00000000000E+00  0.00000000000E+00  0.00000000000E+00  0.91188000000E+02  0.91188000000E+02 0.  0.
    9900012    2    3    3    0    0 -0.18321474588E+02  0.37763303509E+01  0.31715015041E+02  0.54367091795E+02  0.40000017365E+02 0.  0.
        -12    1    3    3    0    0  0.18321474588E+02 -0.37763303509E+01 -0.31715015041E+02  0.36820908205E+02  0.00000000000E+00 0.  1.
         11    1    4    4    0    0 -0.16539912699E+02 -0.83219512889E+01  0.25083544839E+02  0.31177039745E+02  0.51100000000E-03 0. -1.
        -11    1    4    4    0    0  0.98345123804E+00  0.51785916198E+01  0.12590056456E+02  0.13648974662E+02  0.51100000000E-03 0.  1.
        -12    1    4    4    0    0 -0.27650131276E+01  0.69196900201E+01 -0.59585862538E+01  0.95410773875E+01  0.00000000000E+00 0.  1.
</event>
<event>
 8    1  0.2493819E-006  0.9118800E+02  0.7816164E-02  0.1184000E+00
        -11   -1    0    0    0    0  0.00000000000E+00  0.00000000000E+00  0.45593999997E+02  0.45594000000E+02  0.51100000000E-03 0.  1.
         11   -1    0    0    0    0 -0.00000000000E+00 -0.00000000000E+00 -0.45593999997E+02  0.45594000000E+02  0.51100000000E-03 0. -1.
         23    2    1    2    0    0 -0.71054273576E-14  0.00000000000E+00  0.00000000000E+00  0.91188000000E+02  0.91188000000E+02 0.  0.
    9900012    2    3    3    0    0  0.28368724648E+02  0.18097486650E+02  0.14949137313E+02  0.54367078398E+02  0.39999986824E+02 0.  0.
        -12    1    3    3    0    0 -0.28368724648E+02 -0.18097486650E+02 -0.14949137313E+02  0.36820921602E+02  0.00000000000E+00 0.  1.
         11    1    4    4    0    0  0.22166701945E+01 -0.20204132683E+01 -0.42321672385E+01  0.51871896362E+01  0.51100000000E-03 0.  1.
        -11    1    4    4    0    0  0.19276151577E+01  0.74567773919E+01 -0.76659024484E+01  0.10866705567E+02  0.51100000000E-03 0. -1.
        -12    1    4    4    0    0  0.24224439296E+02  0.12661122527E+02  0.26847207000E+02  0.38313183195E+02  0.00000000000E+00 0.  1.
</event>
<event>
 8    1  0.2493819E-006  0.9118800E+02  0.7816164E-02  0.1184000E+00
        -11   -1    0    0    0    0  0.00000000000E+00  0.00000000000E+00  0.45593999997E+02  0.45594000000E+02  0.51100000000E-03 0. -1.
         11   -1    0    0    0    0 -0.00000000000E+00 -0.00000000000E+00 -0.45593999997E+02  0.45594000000E+02  0.51100000000E-03 0.  1.
         23    2    1    2    0    0  0.17763568394E-14  0.00000000000E+00  0.35527136788E-14  0.91188000000E+02  0.91188000000E+02 0.  0.
    9900012    2    3    3    0    0  0.15600627767E+02  0.23563225859E+02  0.23604547086E+02  0.54367084167E+02  0.39999999976E+02 0.  0.
         12    1    3    3    0    0 -0.15600627767E+02 -0.23563225859E+02 -0.23604547086E+02  0.36820915833E+02  0.00000000000E+00 0. -1.
         11    1    4    4    0    0  0.84966446122E+01 -0.55235438681E+01  0.15326405426E+02  0.18373927454E+02  0.51100000000E-03 0. -1.
        -11    1    4    4    0    0  0.11254847934E+02  0.17035051775E+02  0.10649817496E+02  0.23027878842E+02  0.51100000000E-03 0.  1.
         12    1    4    4    0    0 -0.41508647792E+01  0.12051717953E+02 -0.23716758356E+01  0.12965277872E+02  0.00000000000E+00 0. -1.
</event>
<event>
 8    1  0.2493819E-006  0.9118800E+02  0.7816164E-02  0.1184000E+00
        -11   -1    0    0    0    0  0.00000000000E+00  0.00000000000E+00  0.45593999997E+02  0.45594000000E+02  0.51100000000E-03 0. -1.
         11   -1    0    0    0    0 -0.00000000000E+00 -0.00000000000E+00 -0.45593999997E+02  0.45594000000E+02  0.51100000000E-03 0.  1.
         23    2    1    2    0    0  0.00000000000E+00  0.00000000000E+00  0.35527136788E-14  0.91188000000E+02  0.91188000000E+02 0.  0.
    9900012    2    3    3    0    0  0.20982165920E+02  0.22479617958E+02  0.20253294027E+02  0.54367076204E+02  0.39999981822E+02 0.  0.
        -12    1    3    3    0    0 -0.20982165920E+02 -0.22479617958E+02 -0.20253294027E+02  0.36820923796E+02  0.00000000000E+00 0.  1.
         11    1    4    4    0    0  0.11331544527E+02  0.17478350393E+02  0.29218687868E+02  0.35883538772E+02  0.51100000000E-03 0. -1.
        -11    1    4    4    0    0  0.14174552501E+01 -0.23518912548E+01 -0.66637801812E+01  0.72073947044E+01  0.51100000000E-03 0.  1.
        -12    1    4    4    0    0  0.82331661434E+01  0.73531588195E+01 -0.23016136595E+01  0.11276142727E+02  0.00000000000E+00 0.  1.
</event>
<event>
 8    1  0.2493819E-006  0.9118800E+02  0.7816164E-02  0.1184000E+00
        -11   -1    0    0    0    0  0.00000000000E+00  0.00000000000E+00  0.45593999997E+02  0.45594000000E+02  0.51100000000E-03 0.  1.
         11   -1    0    0    0    0 -0.00000000000E+00 -0.00000000000E+00 -0.45593999997E+02  0.45594000000E+02  0.51100000000E-03 0. -1.
         23    2    1    2    0    0 -0.88817841970E-15  0.35527136788E-14  0.00000000000E+00  0.91188000000E+02  0.91188000000E+02 0.  0.
    9900012    2    3    3    0    0 -0.73215245597E+01 -0.21094123204E+02  0.29278190806E+02  0.54367092726E+02  0.40000019487E+02 0.  0.
         12    1    3    3    0    0  0.73215245597E+01  0.21094123204E+02 -0.29278190806E+02  0.36820907274E+02  0.00000000000E+00 0. -1.
         11    1    4    4    0    0  0.12595572856E+01 -0.81753332645E+01 -0.92269852327E+01  0.12391925407E+02  0.51100000000E-03 0. -1.
        -11    1    4    4    0    0 -0.31117515419E+00 -0.49539263190E+01  0.15295975843E+02  0.16081203102E+02  0.51100000000E-03 0.  1.
         12    1    4    4    0    0 -0.82699066911E+01 -0.79648636205E+01  0.23209200196E+02  0.25893964217E+02  0.00000000000E+00 0. -1.
</event>
<event>
 8    1  0.2493819E-006  0.9118800E+02  0.7816164E-02  0.1184000E+00
        -11   -1    0    0    0    0  0.00000000000E+00  0.00000000000E+00  0.45593999997E+02  0.45594000000E+02  0.51100000000E-03 0.  1.
         11   -1    0    0    0    0 -0.00000000000E+00 -0.00000000000E+00 -0.45593999997E+02  0.45594000000E+02  0.51100000000E-03 0. -1.
         23    2    1    2    0    0 -0.88817841970E-15  0.00000000000E+00  0.00000000000E+00  0.91188000000E+02  0.91188000000E+02 0.  0.
    9900012    2    3    3    0    0  0.79068642256E+01  0.35235760491E+02 -0.71904092992E+01  0.54367091468E+02  0.40000016620E+02 0.  0.
        -12    1    3    3    0    0 -0.79068642256E+01 -0.35235760491E+02  0.71904092992E+01  0.36820908532E+02  0.00000000000E+00 0.  1.
         11    1    4    4    0    0 -0.28667038517E+01  0.34366437120E+01 -0.35774145966E+01  0.57294333431E+01  0.51100000000E-03 0. -1.
        -11    1    4    4    0    0  0.57612046015E+01  0.37762830423E+02  0.31389365351E+01  0.38328524142E+02  0.51100000000E-03 0.  1.
         12    1    4    4    0    0  0.50123634758E+01 -0.59637136447E+01 -0.67519312377E+01  0.10309133983E+02  0.00000000000E+00 0. -1.
</event>
<event>
 8    1  0.2493819E-006  0.9118800E+02  0.7816164E-02  0.1184000E+00
        -11   -1    0    0    0    0  0.00000000000E+00  0.00000000000E+00  0.45593999997E+02  0.45594000000E+02  0.51100000000E-03 0.  1.
         11   -1    0    0    0    0 -0.00000000000E+00 -0.00000000000E+00 -0.45593999997E+02  0.45594000000E+02  0.51100000000E-03 0. -1.
         23    2    1    2    0    0  0.00000000000E+00  0.00000000000E+00 -0.88817841970E-15  0.91188000000E+02  0.91188000000E+02 0.  0.
    9900012    2    3    3    0    0  0.34538394803E+02 -0.11425278696E+02 -0.56870666304E+01  0.54367076116E+02  0.39999981621E+02 0.  0.
        -12    1    3    3    0    0 -0.34538394803E+02  0.11425278696E+02  0.56870666304E+01  0.36820923884E+02  0.00000000000E+00 0.  1.
         11    1    4    4    0    0  0.11113331904E+02  0.29348635855E+01  0.89731918408E+01  0.14582103495E+02  0.51100000000E-03 0. -1.
        -11    1    4    4    0    0  0.44117559336E+00 -0.67039087890E+01  0.51706342352E+01  0.84777643050E+01  0.51100000000E-03 0.  1.
         12    1    4    4    0    0  0.22983887306E+02 -0.76562334924E+01 -0.19830892706E+02  0.31307208315E+02  0.00000000000E+00 0. -1.
</event>
<event>
 8    1  0.2493819E-006  0.9118800E+02  0.7816164E-02  0.1184000E+00
        -11   -1    0    0    0    0  0.00000000000E+00  0.00000000000E+00  0.45593999997E+02  0.45594000000E+02  0.51100000000E-03 0.  1.
         11   -1    0    0    0    0 -0.00000000000E+00 -0.00000000000E+00 -0.45593999997E+02  0.45594000000E+02  0.51100000000E-03 0. -1.
         23    2    1    2    0    0  0.00000000000E+00  0.38857805862E-15  0.00000000000E+00  0.91188000000E+02  0.91188000000E+02 0.  0.
    9900012    2    3    3    0    0 -0.20625888256E+01  0.41591810685E+00  0.36760771675E+02  0.54367060377E+02  0.39999945742E+02 0.  0.
         12    1    3    3    0    0  0.20625888256E+01 -0.41591810685E+00 -0.36760771675E+02  0.36820939623E+02  0.00000000000E+00 0. -1.
         11    1    4    4    0    0  0.76011289410E+00 -0.46249446903E+01  0.51886293002E+00  0.47156233948E+01  0.51100000000E-03 0. -1.
        -11    1    4    4    0    0  0.10898338469E+02  0.32372291463E+01  0.56334946594E+00  0.11382916885E+02  0.51100000000E-03 0.  1.
        -12    1    4    4    0    0 -0.13721040189E+02  0.18036336509E+01  0.35678559279E+02  0.38268520098E+02  0.00000000000E+00 0.  1.
</event>
<event>
 8    1  0.2493819E-006  0.9118800E+02  0.7816164E-02  0.1184000E+00
        -11   -1    0    0    0    0  0.00000000000E+00  0.00000000000E+00  0.45593999997E+02  0.45594000000E+02  0.51100000000E-03 0.  1.
         11   -1    0    0    0    0 -0.00000000000E+00 -0.00000000000E+00 -0.45593999997E+02  0.45594000000E+02  0.51100000000E-03 0. -1.
         23    2    1    2    0    0  0.00000000000E+00  0.00000000000E+00  0.00000000000E+00  0.91188000000E+02  0.91188000000E+02 0.  0.
    9900012    2    3    3    0    0 -0.98813568274E+01  0.85348193685E+01  0.34428117345E+02  0.54367087215E+02  0.40000006924E+02 0.  0.
         12    1    3    3    0    0  0.98813568274E+01 -0.85348193685E+01 -0.34428117345E+02  0.36820912785E+02  0.00000000000E+00 0. -1.
         11    1    4    4    0    0 -0.20739700615E+02  0.21923540817E+01  0.11674900842E+02  0.23900730281E+02  0.51100000000E-03 0. -1.
        -11    1    4    4    0    0  0.48397933394E+01 -0.51630129309E+01  0.10130374722E+02  0.12357378134E+02  0.51100000000E-03 0.  1.
         12    1    4    4    0    0  0.60185504486E+01  0.11505478218E+02  0.12622841781E+02  0.18108978800E+02  0.00000000000E+00 0. -1.
</event>
<event>
 8    1  0.2493819E-006  0.9118800E+02  0.7816164E-02  0.1184000E+00
        -11   -1    0    0    0    0  0.00000000000E+00  0.00000000000E+00  0.45593999997E+02  0.45594000000E+02  0.51100000000E-03 0. -1.
         11   -1    0    0    0    0 -0.00000000000E+00 -0.00000000000E+00 -0.45593999997E+02  0.45594000000E+02  0.51100000000E-03 0.  1.
         23    2    1    2    0    0  0.35527136788E-14 -0.17763568394E-14  0.35527136788E-14  0.91188000000E+02  0.91188000000E+02 0.  0.
    9900012    2    3    3    0    0 -0.16868272484E+02  0.15756396099E+02 -0.28687608422E+02  0.54367061506E+02  0.39999948316E+02 0.  0.
         12    1    3    3    0    0  0.16868272484E+02 -0.15756396099E+02  0.28687608422E+02  0.36820938494E+02  0.00000000000E+00 0. -1.
         11    1    4    4    0    0 -0.15600439853E+02 -0.49742379000E-01  0.13000428505E+01  0.15654593881E+02  0.51100000000E-03 0. -1.
        -11    1    4    4    0    0 -0.53481809084E+01  0.18081875255E+02 -0.27703825232E+02  0.33512075205E+02  0.51100000000E-03 0.  1.
        -12    1    4    4    0    0  0.40803482778E+01 -0.22757367770E+01 -0.22838260397E+01  0.52003924204E+01  0.00000000000E+00 0.  1.
</event>
<event>
 8    1  0.2493819E-006  0.9118800E+02  0.7816164E-02  0.1184000E+00
        -11   -1    0    0    0    0  0.00000000000E+00  0.00000000000E+00  0.45593999997E+02  0.45594000000E+02  0.51100000000E-03 0.  1.
         11   -1    0    0    0    0 -0.00000000000E+00 -0.00000000000E+00 -0.45593999997E+02  0.45594000000E+02  0.51100000000E-03 0. -1.
         23    2    1    2    0    0  0.00000000000E+00  0.00000000000E+00 -0.35527136788E-14  0.91188000000E+02  0.91188000000E+02 0.  0.
    9900012    2    3    3    0    0  0.32187511439E+02  0.88448626091E+01 -0.15540681784E+02  0.54367078264E+02  0.39999986518E+02 0.  0.
        -12    1    3    3    0    0 -0.32187511439E+02 -0.88448626091E+01  0.15540681784E+02  0.36820921736E+02  0.00000000000E+00 0.  1.
         11    1    4    4    0    0  0.24803732008E-01 -0.90786291776E+01 -0.22687412444E+01  0.93578475124E+01  0.51100000000E-03 0. -1.
        -11    1    4    4    0    0  0.17758918634E+02 -0.25717420623E+01 -0.49859888564E+01  0.18623993487E+02  0.51100000000E-03 0.  1.
         12    1    4    4    0    0  0.14403789073E+02  0.20495233849E+02 -0.82859516835E+01  0.26385237264E+02  0.00000000000E+00 0. -1.
</event>
<event>
 8    1  0.2493819E-006  0.9118800E+02  0.7816164E-02  0.1184000E+00
        -11   -1    0    0    0    0  0.00000000000E+00  0.00000000000E+00  0.45593999997E+02  0.45594000000E+02  0.51100000000E-03 0.  1.
         11   -1    0    0    0    0 -0.00000000000E+00 -0.00000000000E+00 -0.45593999997E+02  0.45594000000E+02  0.51100000000E-03 0. -1.
         23    2    1    2    0    0  0.00000000000E+00 -0.17763568394E-14  0.17763568394E-14  0.91188000000E+02  0.91188000000E+02 0.  0.
    9900012    2    3    3    0    0 -0.34627680965E+02  0.11844447473E+02 -0.40513752818E+01  0.54367070264E+02  0.39999968282E+02 0.  0.
        -12    1    3    3    0    0  0.34627680965E+02 -0.11844447473E+02  0.40513752818E+01  0.36820929736E+02  0.00000000000E+00 0.  1.
         11    1    4    4    0    0 -0.74701293636E+01 -0.14775870156E+01  0.10013090955E+02  0.12579669584E+02  0.51100000000E-03 0. -1.
        -11    1    4    4    0    0 -0.12761265873E+02  0.19005783732E+02 -0.37752798837E+01  0.23201777096E+02  0.51100000000E-03 0.  1.
         12    1    4    4    0    0 -0.14396285728E+02 -0.56837492432E+01 -0.10289186353E+02  0.18585623585E+02  0.00000000000E+00 0. -1.
</event>
<event>
 8    1  0.2493819E-006  0.9118800E+02  0.7816164E-02  0.1184000E+00
        -11   -1    0    0    0    0  0.00000000000E+00  0.00000000000E+00  0.45593999997E+02  0.45594000000E+02  0.51100000000E-03 0.  1.
         11   -1    0    0    0    0 -0.00000000000E+00 -0.00000000000E+00 -0.45593999997E+02  0.45594000000E+02  0.51100000000E-03 0. -1.
         23    2    1    2    0    0 -0.53290705182E-14  0.00000000000E+00 -0.35527136788E-14  0.91188000000E+02  0.91188000000E+02 0.  0.
    9900012    2    3    3    0    0 -0.91195020554E+01 -0.21560327743E+02 -0.28421237150E+02  0.54367085138E+02  0.40000002188E+02 0.  0.
        -12    1    3    3    0    0  0.91195020554E+01  0.21560327743E+02  0.28421237150E+02  0.36820914862E+02  0.00000000000E+00 0.  1.
         11    1    4    4    0    0  0.82038982290E+01 -0.23103413401E+02 -0.83850108268E+01  0.25911002755E+02  0.51100000000E-03 0. -1.
        -11    1    4    4    0    0 -0.90986020252E+01  0.10183544466E+01 -0.31782509648E+01  0.96913819473E+01  0.51100000000E-03 0.  1.
         12    1    4    4    0    0 -0.82247982592E+01  0.52473121088E+00 -0.16857975359E+02  0.18764700436E+02  0.00000000000E+00 0. -1.
</event>
<event>
 8    1  0.2493819E-006  0.9118800E+02  0.7816164E-02  0.1184000E+00
        -11   -1    0    0    0    0  0.00000000000E+00  0.00000000000E+00  0.45593999997E+02  0.45594000000E+02  0.51100000000E-03 0. -1.
         11   -1    0    0    0    0 -0.00000000000E+00 -0.00000000000E+00 -0.45593999997E+02  0.45594000000E+02  0.51100000000E-03 0.  1.
         23    2    1    2    0    0 -0.35527136788E-14 -0.17763568394E-14  0.35527136788E-14  0.91188000000E+02  0.91188000000E+02 0.  0.
    9900012    2    3    3    0    0 -0.29075871283E+02  0.14202033816E+02  0.17569144439E+02  0.54367097082E+02  0.40000029417E+02 0.  0.
         12    1    3    3    0    0  0.29075871283E+02 -0.14202033816E+02 -0.17569144439E+02  0.36820902918E+02  0.00000000000E+00 0. -1.
         11    1    4    4    0    0 -0.45582837096E+01  0.13247229776E+01 -0.11243036458E+02  0.12204044838E+02  0.51100000000E-03 0. -1.
        -11    1    4    4    0    0 -0.52400426980E+01  0.50212926324E+01  0.16381512057E+02  0.17917180713E+02  0.51100000000E-03 0.  1.
        -12    1    4    4    0    0 -0.19277544876E+02  0.78560182059E+01  0.12430668841E+02  0.24245871531E+02  0.00000000000E+00 0.  1.
</event>
<event>
 8    1  0.2493819E-006  0.9118800E+02  0.7816164E-02  0.1184000E+00
        -11   -1    0    0    0    0  0.00000000000E+00  0.00000000000E+00  0.45593999997E+02  0.45594000000E+02  0.51100000000E-03 0.  1.
         11   -1    0    0    0    0 -0.00000000000E+00 -0.00000000000E+00 -0.45593999997E+02  0.45594000000E+02  0.51100000000E-03 0. -1.
         23    2    1    2    0    0  0.77715611724E-15  0.00000000000E+00  0.00000000000E+00  0.91188000000E+02  0.91188000000E+02 0.  0.
    9900012    2    3    3    0    0 -0.51639944718E+00 -0.28020155704E+02 -0.23882703203E+02  0.54367091451E+02  0.40000016582E+02 0.  0.
        -12    1    3    3    0    0  0.51639944718E+00  0.28020155704E+02  0.23882703203E+02  0.36820908549E+02  0.00000000000E+00 0.  1.
         11    1    4    4    0    0 -0.43890598467E+01 -0.75184428152E+01 -0.20165852231E+02  0.21964799684E+02  0.51100000000E-03 0. -1.
        -11    1    4    4    0    0  0.13119906314E+02 -0.18243598170E+02 -0.95863238002E+00  0.22491771655E+02  0.51100000000E-03 0.  1.
        -12    1    4    4    0    0 -0.92472459147E+01 -0.22581147185E+01 -0.27582185924E+01  0.99105201121E+01  0.00000000000E+00 0.  1.
</event>
<event>
 8    1  0.2493819E-006  0.9118800E+02  0.7816164E-02  0.1184000E+00
        -11   -1    0    0    0    0  0.00000000000E+00  0.00000000000E+00  0.45593999997E+02  0.45594000000E+02  0.51100000000E-03 0. -1.
         11   -1    0    0    0    0 -0.00000000000E+00 -0.00000000000E+00 -0.45593999997E+02  0.45594000000E+02  0.51100000000E-03 0.  1.
         23    2    1    2    0    0  0.00000000000E+00 -0.35527136788E-14 -0.88817841970E-15  0.91188000000E+02  0.91188000000E+02 0.  0.
    9900012    2    3    3    0    0 -0.24302109663E+02  0.27305854757E+02  0.44246780060E+01  0.54367081848E+02  0.39999994689E+02 0.  0.
        -12    1    3    3    0    0  0.24302109663E+02 -0.27305854757E+02 -0.44246780060E+01  0.36820918152E+02  0.00000000000E+00 0.  1.
         11    1    4    4    0    0 -0.94805581072E+01 -0.68140113001E+01  0.10684880944E+01  0.11724052162E+02  0.51100000000E-03 0. -1.
        -11    1    4    4    0    0 -0.61508600055E+01  0.32033907713E+02  0.63587035247E+01  0.33233077392E+02  0.51100000000E-03 0.  1.
        -12    1    4    4    0    0 -0.86706915505E+01  0.20859583445E+01 -0.30025136131E+01  0.94099522940E+01  0.00000000000E+00 0.  1.
</event>
<event>
 8    1  0.2493819E-006  0.9118800E+02  0.7816164E-02  0.1184000E+00
        -11   -1    0    0    0    0  0.00000000000E+00  0.00000000000E+00  0.45593999997E+02  0.45594000000E+02  0.51100000000E-03 0.  1.
         11   -1    0    0    0    0 -0.00000000000E+00 -0.00000000000E+00 -0.45593999997E+02  0.45594000000E+02  0.51100000000E-03 0. -1.
         23    2    1    2    0    0 -0.13322676296E-14 -0.71054273576E-14  0.00000000000E+00  0.91188000000E+02  0.91188000000E+02 0.  0.
    9900012    2    3    3    0    0  0.30045672391E+01  0.36360612193E+02  0.49656939461E+01  0.54367086653E+02  0.40000005644E+02 0.  0.
         12    1    3    3    0    0 -0.30045672391E+01 -0.36360612193E+02 -0.49656939461E+01  0.36820913347E+02  0.00000000000E+00 0. -1.
         11    1    4    4    0    0 -0.12290918934E+01  0.86245853027E+00 -0.20571851410E+01  0.25468632795E+01  0.51100000000E-03 0. -1.
        -11    1    4    4    0    0  0.20544227664E+02  0.16932153148E+02  0.32282593909E+01  0.26817620318E+02  0.51100000000E-03 0.  1.
        -12    1    4    4    0    0 -0.16310568532E+02  0.18566000515E+02  0.37946196961E+01  0.25002603056E+02  0.00000000000E+00 0.  1.
</event>
<event>
 8    1  0.2493819E-006  0.9118800E+02  0.7816164E-02  0.1184000E+00
        -11   -1    0    0    0    0  0.00000000000E+00  0.00000000000E+00  0.45593999997E+02  0.45594000000E+02  0.51100000000E-03 0.  1.
         11   -1    0    0    0    0 -0.00000000000E+00 -0.00000000000E+00 -0.45593999997E+02  0.45594000000E+02  0.51100000000E-03 0. -1.
         23    2    1    2    0    0  0.88817841970E-15 -0.15543122345E-14  0.00000000000E+00  0.91188000000E+02  0.91188000000E+02 0.  0.
    9900012    2    3    3    0    0  0.42211345767E+01  0.14905608899E+01 -0.36547771021E+02  0.54367091328E+02  0.40000016299E+02 0.  0.
        -12    1    3    3    0    0 -0.42211345767E+01 -0.14905608899E+01  0.36547771021E+02  0.36820908672E+02  0.00000000000E+00 0.  1.
         11    1    4    4    0    0  0.13428528812E+02 -0.46869497404E+01 -0.14925763916E+02  0.20617257642E+02  0.51100000000E-03 0. -1.
        -11    1    4    4    0    0  0.13306775395E+01  0.46628201803E+00  0.46573107695E+01  0.48660729032E+01  0.51100000000E-03 0.  1.
         12    1    4    4    0    0 -0.10538071775E+02  0.57112286122E+01 -0.26279317875E+02  0.28883760783E+02  0.00000000000E+00 0. -1.
</event>
<event>
 8    1  0.2493819E-006  0.9118800E+02  0.7816164E-02  0.1184000E+00
        -11   -1    0    0    0    0  0.00000000000E+00  0.00000000000E+00  0.45593999997E+02  0.45594000000E+02  0.51100000000E-03 0.  1.
         11   -1    0    0    0    0 -0.00000000000E+00 -0.00000000000E+00 -0.45593999997E+02  0.45594000000E+02  0.51100000000E-03 0. -1.
         23    2    1    2    0    0  0.35527136788E-14  0.35527136788E-14 -0.35527136788E-14  0.91188000000E+02  0.91188000000E+02 0.  0.
    9900012    2    3    3    0    0 -0.16020007049E+02 -0.19064889265E+02  0.27123216932E+02  0.54367088478E+02  0.40000009804E+02 0.  0.
         12    1    3    3    0    0  0.16020007049E+02  0.19064889265E+02 -0.27123216932E+02  0.36820911522E+02  0.00000000000E+00 0. -1.
         11    1    4    4    0    0 -0.10538673010E+02 -0.26334694614E+01 -0.84063825249E+01  0.13735576349E+02  0.51100000000E-03 0. -1.
        -11    1    4    4    0    0 -0.26618265350E+01 -0.71971370005E+01  0.25829485022E+02  0.26945248157E+02  0.51100000000E-03 0.  1.
        -12    1    4    4    0    0 -0.28195075035E+01 -0.92342828033E+01  0.97001144352E+01  0.13686263972E+02  0.00000000000E+00 0.  1.
</event>
<event>
 8    1  0.2493819E-006  0.9118800E+02  0.7816164E-02  0.1184000E+00
        -11   -1    0    0    0    0  0.00000000000E+00  0.00000000000E+00  0.45593999997E+02  0.45594000000E+02  0.51100000000E-03 0.  1.
         11   -1    0    0    0    0 -0.00000000000E+00 -0.00000000000E+00 -0.45593999997E+02  0.45594000000E+02  0.51100000000E-03 0. -1.
         23    2    1    2    0    0  0.00000000000E+00 -0.44408920985E-15  0.35527136788E-14  0.91188000000E+02  0.91188000000E+02 0.  0.
    9900012    2    3    3    0    0 -0.25159848533E+02 -0.38981868386E+01  0.26600075649E+02  0.54367111046E+02  0.40000061252E+02 0.  0.
         12    1    3    3    0    0  0.25159848533E+02  0.38981868386E+01 -0.26600075649E+02  0.36820888954E+02  0.00000000000E+00 0. -1.
         11    1    4    4    0    0  0.16397595262E+01 -0.41111173109E+00 -0.45414054893E+01  0.48458423663E+01  0.51100000000E-03 0. -1.
        -11    1    4    4    0    0 -0.11148099973E+02  0.57516122116E+00  0.31424913800E+02  0.33348705388E+02  0.51100000000E-03 0.  1.
         12    1    4    4    0    0 -0.15651508086E+02 -0.40622363287E+01 -0.28343266165E+00  0.16172563292E+02  0.00000000000E+00 0. -1.
</event>
<event>
 8    1  0.2493819E-006  0.9118800E+02  0.7816164E-02  0.1184000E+00
        -11   -1    0    0    0    0  0.00000000000E+00  0.00000000000E+00  0.45593999997E+02  0.45594000000E+02  0.51100000000E-03 0. -1.
         11   -1    0    0    0    0 -0.00000000000E+00 -0.00000000000E+00 -0.45593999997E+02  0.45594000000E+02  0.51100000000E-03 0.  1.
         23    2    1    2    0    0  0.17763568394E-14  0.00000000000E+00 -0.44408920985E-15  0.91188000000E+02  0.91188000000E+02 0.  0.
    9900012    2    3    3    0    0  0.11270855112E+02  0.34881122898E+02 -0.34720281668E+01  0.54367083537E+02  0.39999998539E+02 0.  0.
        -12    1    3    3    0    0 -0.11270855112E+02 -0.34881122898E+02  0.34720281668E+01  0.36820916463E+02  0.00000000000E+00 0.  1.
         11    1    4    4    0    0 -0.25519577391E+01  0.60932665490E+01 -0.37387469584E+01  0.75906926311E+01  0.51100000000E-03 0. -1.
        -11    1    4    4    0    0  0.18834493648E+02  0.26170220206E+02  0.11473818635E+02  0.34223779612E+02  0.51100000000E-03 0.  1.
        -12    1    4    4    0    0 -0.50116807968E+01  0.26176361430E+01 -0.11207099843E+02  0.12552611294E+02  0.00000000000E+00 0.  1.
</event>
<event>
 8    1  0.2493819E-006  0.9118800E+02  0.7816164E-02  0.1184000E+00
        -11   -1    0    0    0    0  0.00000000000E+00  0.00000000000E+00  0.45593999997E+02  0.45594000000E+02  0.51100000000E-03 0. -1.
         11   -1    0    0    0    0 -0.00000000000E+00 -0.00000000000E+00 -0.45593999997E+02  0.45594000000E+02  0.51100000000E-03 0.  1.
         23    2    1    2    0    0 -0.17763568394E-14  0.35527136788E-14  0.00000000000E+00  0.91188000000E+02  0.91188000000E+02 0.  0.
    9900012    2    3    3    0    0 -0.14261208750E+02  0.24097855824E+02  0.23910066866E+02  0.54367081654E+02  0.39999994246E+02 0.  0.
        -12    1    3    3    0    0  0.14261208750E+02 -0.24097855824E+02 -0.23910066866E+02  0.36820918346E+02  0.00000000000E+00 0.  1.
         11    1    4    4    0    0 -0.78949348749E+01  0.17688167074E+02  0.86569216579E+01  0.21216586530E+02  0.51100000000E-03 0. -1.
        -11    1    4    4    0    0  0.71303223512E+00  0.16193238039E+02  0.41173891212E+01  0.16723703735E+02  0.51100000000E-03 0.  1.
        -12    1    4    4    0    0 -0.70793061105E+01 -0.97835492901E+01  0.11135756087E+02  0.16426791389E+02  0.00000000000E+00 0.  1.
</event>
<event>
 8    1  0.2493819E-006  0.9118800E+02  0.7816164E-02  0.1184000E+00
        -11   -1    0    0    0    0  0.00000000000E+00  0.00000000000E+00  0.45593999997E+02  0.45594000000E+02  0.51100000000E-03 0.  1.
         11   -1    0    0    0    0 -0.00000000000E+00 -0.00000000000E+00 -0.45593999997E+02  0.45594000000E+02  0.51100000000E-03 0. -1.
         23    2    1    2    0    0  0.00000000000E+00  0.35527136788E-14 -0.17763568394E-14  0.91188000000E+02  0.91188000000E+02 0.  0.
    9900012    2    3    3    0    0  0.20688853395E+02 -0.26006378720E+02 -0.15856362639E+02  0.54367019228E+02  0.39999851933E+02 0.  0.
        -12    1    3    3    0    0 -0.20688853395E+02  0.26006378720E+02  0.15856362639E+02  0.36820980772E+02  0.00000000000E+00 0.  1.
         11    1    4    4    0    0  0.11235111156E+02 -0.16706139449E+02 -0.12688451430E+02  0.23797470830E+02  0.51100000000E-03 0. -1.
        -11    1    4    4    0    0 -0.17148762598E+01  0.88868172560E+01 -0.13297458508E+01  0.91479257658E+01  0.51100000000E-03 0.  1.
        -12    1    4    4    0    0  0.11168618499E+02 -0.18187056527E+02 -0.18381653584E+01  0.21421622631E+02  0.00000000000E+00 0.  1.
</event>
<event>
 8    1  0.2493819E-006  0.9118800E+02  0.7816164E-02  0.1184000E+00
        -11   -1    0    0    0    0  0.00000000000E+00  0.00000000000E+00  0.45593999997E+02  0.45594000000E+02  0.51100000000E-03 0.  1.
         11   -1    0    0    0    0 -0.00000000000E+00 -0.00000000000E+00 -0.45593999997E+02  0.45594000000E+02  0.51100000000E-03 0. -1.
         23    2    1    2    0    0 -0.66613381478E-15  0.88817841970E-15  0.71054273576E-14  0.91188000000E+02  0.91188000000E+02 0.  0.
    9900012    2    3    3    0    0  0.10255545242E+01  0.58572751151E+01 -0.36337586411E+02  0.54367087191E+02  0.40000006870E+02 0.  0.
        -12    1    3    3    0    0 -0.10255545242E+01 -0.58572751151E+01  0.36337586411E+02  0.36820912809E+02  0.00000000000E+00 0.  1.
         11    1    4    4    0    0 -0.10140181798E+01  0.18879983410E+02 -0.23132666811E+02  0.29876450266E+02  0.51100000000E-03 0. -1.
        -11    1    4    4    0    0  0.80583321581E+01 -0.11922142507E+02 -0.80414831818E+01  0.16484527629E+02  0.51100000000E-03 0.  1.
        -12    1    4    4    0    0 -0.60187594540E+01 -0.11005657880E+01 -0.51634364188E+01  0.80061092967E+01  0.00000000000E+00 0.  1.
</event>
<event>
 8    1  0.2493819E-006  0.9118800E+02  0.7816164E-02  0.1184000E+00
        -11   -1    0    0    0    0  0.00000000000E+00  0.00000000000E+00  0.45593999997E+02  0.45594000000E+02  0.51100000000E-03 0.  1.
         11   -1    0    0    0    0 -0.00000000000E+00 -0.00000000000E+00 -0.45593999997E+02  0.45594000000E+02  0.51100000000E-03 0. -1.
         23    2    1    2    0    0  0.00000000000E+00  0.00000000000E+00 -0.35527136788E-14  0.91188000000E+02  0.91188000000E+02 0.  0.
    9900012    2    3    3    0    0 -0.14536597512E+02 -0.25209199537E+02  0.22560221238E+02  0.54367082157E+02  0.39999995392E+02 0.  0.
         12    1    3    3    0    0  0.14536597512E+02  0.25209199537E+02 -0.22560221238E+02  0.36820917843E+02  0.00000000000E+00 0. -1.
         11    1    4    4    0    0 -0.15726294507E+01 -0.10489307841E+02  0.31985094436E+01  0.11078321412E+02  0.51100000000E-03 0. -1.
        -11    1    4    4    0    0 -0.19190755330E+01 -0.20103749530E+02  0.22870172743E+02  0.30510463740E+02  0.51100000000E-03 0.  1.
         12    1    4    4    0    0 -0.11044892528E+02  0.53838578338E+01 -0.35084609483E+01  0.12778297005E+02  0.00000000000E+00 0. -1.
</event>
<event>
 8    1  0.2493819E-006  0.9118800E+02  0.7816164E-02  0.1184000E+00
        -11   -1    0    0    0    0  0.00000000000E+00  0.00000000000E+00  0.45593999997E+02  0.45594000000E+02  0.51100000000E-03 0. -1.
         11   -1    0    0    0    0 -0.00000000000E+00 -0.00000000000E+00 -0.45593999997E+02  0.45594000000E+02  0.51100000000E-03 0.  1.
         23    2    1    2    0    0  0.44408920985E-15  0.00000000000E+00  0.00000000000E+00  0.91188000000E+02  0.91188000000E+02 0.  0.
    9900012    2    3    3    0    0  0.21818804634E+01 -0.16756147405E+02 -0.32714531003E+02  0.54367223026E+02  0.40000316530E+02 0.  0.
         12    1    3    3    0    0 -0.21818804634E+01  0.16756147405E+02  0.32714531003E+02  0.36820776974E+02  0.00000000000E+00 0. -1.
         11    1    4    4    0    0 -0.47015049545E+01  0.14740319668E+01 -0.17474321749E+02  0.18155683406E+02  0.51100000000E-03 0. -1.
        -11    1    4    4    0    0 -0.74619335661E+01 -0.11823083753E+01 -0.11288465548E+02  0.13583363365E+02  0.51100000000E-03 0.  1.
        -12    1    4    4    0    0  0.14345318984E+02 -0.17047870997E+02 -0.39517437065E+01  0.22628176254E+02  0.00000000000E+00 0.  1.
</event>
<event>
 8    1  0.2493819E-006  0.9118800E+02  0.7816164E-02  0.1184000E+00
        -11   -1    0    0    0    0  0.00000000000E+00  0.00000000000E+00  0.45593999997E+02  0.45594000000E+02  0.51100000000E-03 0.  1.
         11   -1    0    0    0    0 -0.00000000000E+00 -0.00000000000E+00 -0.45593999997E+02  0.45594000000E+02  0.51100000000E-03 0. -1.
         23    2    1    2    0    0  0.44408920985E-15  0.00000000000E+00 -0.71054273576E-14  0.91188000000E+02  0.91188000000E+02 0.  0.
    9900012    2    3    3    0    0  0.17678069572E+01 -0.79463685447E+01  0.35909734555E+02  0.54367096286E+02  0.40000027603E+02 0.  0.
         12    1    3    3    0    0 -0.17678069572E+01  0.79463685447E+01 -0.35909734555E+02  0.36820903714E+02  0.00000000000E+00 0. -1.
         11    1    4    4    0    0 -0.88973192549E+01 -0.10401466361E+02  0.14037004204E+02  0.19605873601E+02  0.51100000000E-03 0. -1.
        -11    1    4    4    0    0 -0.61128021806E+01  0.57383786440E+00 -0.11146544476E+01  0.62400396787E+01  0.51100000000E-03 0.  1.
         12    1    4    4    0    0  0.16777928393E+02  0.18812599517E+01  0.22987384799E+02  0.28521183006E+02  0.00000000000E+00 0. -1.
</event>
<event>
 8    1  0.2493819E-006  0.9118800E+02  0.7816164E-02  0.1184000E+00
        -11   -1    0    0    0    0  0.00000000000E+00  0.00000000000E+00  0.45593999997E+02  0.45594000000E+02  0.51100000000E-03 0.  1.
         11   -1    0    0    0    0 -0.00000000000E+00 -0.00000000000E+00 -0.45593999997E+02  0.45594000000E+02  0.51100000000E-03 0. -1.
         23    2    1    2    0    0  0.17763568394E-14  0.35527136788E-14  0.35527136788E-14  0.91188000000E+02  0.91188000000E+02 0.  0.
    9900012    2    3    3    0    0 -0.11813284385E+02  0.30382311187E+02  0.17121324614E+02  0.54367105422E+02  0.40000048430E+02 0.  0.
         12    1    3    3    0    0  0.11813284385E+02 -0.30382311187E+02 -0.17121324614E+02  0.36820894578E+02  0.00000000000E+00 0. -1.
         11    1    4    4    0    0 -0.67241174990E+00 -0.47888624443E+01  0.10248545386E+01  0.49432446995E+01  0.51100000000E-03 0. -1.
        -11    1    4    4    0    0  0.49152906361E+01  0.54663996300E+01 -0.56404155931E+01  0.92658456320E+01  0.51100000000E-03 0.  1.
        -12    1    4    4    0    0 -0.16056163271E+02  0.29704774001E+02  0.21736885668E+02  0.40158015090E+02  0.00000000000E+00 0.  1.
</event>
<event>
 8    1  0.2493819E-006  0.9118800E+02  0.7816164E-02  0.1184000E+00
        -11   -1    0    0    0    0  0.00000000000E+00  0.00000000000E+00  0.45593999997E+02  0.45594000000E+02  0.51100000000E-03 0. -1.
         11   -1    0    0    0    0 -0.00000000000E+00 -0.00000000000E+00 -0.45593999997E+02  0.45594000000E+02  0.51100000000E-03 0.  1.
         23    2    1    2    0    0  0.17763568394E-14  0.00000000000E+00 -0.17763568394E-14  0.91188000000E+02  0.91188000000E+02 0.  0.
    9900012    2    3    3    0    0  0.32167972492E+01  0.33972994757E+02  0.13829990428E+02  0.54367071270E+02  0.39999970574E+02 0.  0.
        -12    1    3    3    0    0 -0.32167972492E+01 -0.33972994757E+02 -0.13829990428E+02  0.36820928730E+02  0.00000000000E+00 0.  1.
         11    1    4    4    0    0  0.14630130239E+02  0.28343159677E+02  0.11678981386E-01  0.31896324991E+02  0.51100000000E-03 0. -1.
        -11    1    4    4    0    0  0.11630155899E+01 -0.24144423753E+01  0.30693506939E+01  0.40746841828E+01  0.51100000000E-03 0.  1.
         12    1    4    4    0    0 -0.12576348580E+02  0.80442774556E+01  0.10748960753E+02  0.18396062096E+02  0.00000000000E+00 0. -1.
</event>
<event>
 8    1  0.2493819E-006  0.9118800E+02  0.7816164E-02  0.1184000E+00
        -11   -1    0    0    0    0  0.00000000000E+00  0.00000000000E+00  0.45593999997E+02  0.45594000000E+02  0.51100000000E-03 0.  1.
         11   -1    0    0    0    0 -0.00000000000E+00 -0.00000000000E+00 -0.45593999997E+02  0.45594000000E+02  0.51100000000E-03 0. -1.
         23    2    1    2    0    0 -0.17763568394E-14  0.00000000000E+00 -0.35527136788E-14  0.91188000000E+02  0.91188000000E+02 0.  0.
    9900012    2    3    3    0    0  0.13546055336E+02  0.19375529600E+02  0.28228933783E+02  0.54367089297E+02  0.40000011670E+02 0.  0.
         12    1    3    3    0    0 -0.13546055336E+02 -0.19375529600E+02 -0.28228933783E+02  0.36820910703E+02  0.00000000000E+00 0. -1.
         11    1    4    4    0    0  0.13485163959E+01  0.36102046533E+01 -0.41078910860E+01  0.56326586568E+01  0.51100000000E-03 0. -1.
        -11    1    4    4    0    0 -0.41546664269E+01  0.18044066670E+02  0.23779727128E+02  0.30138430909E+02  0.51100000000E-03 0.  1.
         12    1    4    4    0    0  0.16352205368E+02 -0.22787417236E+01  0.85570977415E+01  0.18595999731E+02  0.00000000000E+00 0. -1.
</event>
<event>
 8    1  0.2493819E-006  0.9118800E+02  0.7816164E-02  0.1184000E+00
        -11   -1    0    0    0    0  0.00000000000E+00  0.00000000000E+00  0.45593999997E+02  0.45594000000E+02  0.51100000000E-03 0. -1.
         11   -1    0    0    0    0 -0.00000000000E+00 -0.00000000000E+00 -0.45593999997E+02  0.45594000000E+02  0.51100000000E-03 0.  1.
         23    2    1    2    0    0  0.00000000000E+00 -0.35527136788E-14  0.00000000000E+00  0.91188000000E+02  0.91188000000E+02 0.  0.
    9900012    2    3    3    0    0  0.24548514252E+01  0.26639473247E+02  0.25300054494E+02  0.54367074050E+02  0.39999976912E+02 0.  0.
         12    1    3    3    0    0 -0.24548514252E+01 -0.26639473247E+02 -0.25300054494E+02  0.36820925950E+02  0.00000000000E+00 0. -1.
         11    1    4    4    0    0  0.63631323514E+01 -0.75768202076E+00  0.34128341917E+01  0.72602322861E+01  0.51100000000E-03 0.  1.
        -11    1    4    4    0    0  0.93867238643E+01 -0.11262978907E+01  0.91510753458E+01  0.13157557223E+02  0.51100000000E-03 0. -1.
         12    1    4    4    0    0 -0.13295004790E+02  0.28523453159E+02  0.12736144956E+02  0.33949284541E+02  0.00000000000E+00 0. -1.
</event>
<event>
 8    1  0.2493819E-006  0.9118800E+02  0.7816164E-02  0.1184000E+00
        -11   -1    0    0    0    0  0.00000000000E+00  0.00000000000E+00  0.45593999997E+02  0.45594000000E+02  0.51100000000E-03 0.  1.
         11   -1    0    0    0    0 -0.00000000000E+00 -0.00000000000E+00 -0.45593999997E+02  0.45594000000E+02  0.51100000000E-03 0. -1.
         23    2    1    2    0    0  0.35527136788E-14  0.17763568394E-14  0.00000000000E+00  0.91188000000E+02  0.91188000000E+02 0.  0.
    9900012    2    3    3    0    0  0.30914819303E+02  0.13656664549E+02 -0.14613323127E+02  0.54367085400E+02  0.40000002786E+02 0.  0.
        -12    1    3    3    0    0 -0.30914819303E+02 -0.13656664549E+02  0.14613323127E+02  0.36820914600E+02  0.00000000000E+00 0.  1.
         11    1    4    4    0    0  0.15497211735E+02  0.27881496791E+01 -0.18322282121E+02  0.24158712146E+02  0.51100000000E-03 0. -1.
        -11    1    4    4    0    0 -0.43523549866E+01  0.87900648157E+01  0.32194672122E+01  0.10323429798E+02  0.51100000000E-03 0.  1.
        -12    1    4    4    0    0  0.19769962555E+02  0.20784500543E+01  0.48949178111E+00  0.19884943456E+02  0.00000000000E+00 0.  1.
</event>
<event>
 8    1  0.2493819E-006  0.9118800E+02  0.7816164E-02  0.1184000E+00
        -11   -1    0    0    0    0  0.00000000000E+00  0.00000000000E+00  0.45593999997E+02  0.45594000000E+02  0.51100000000E-03 0.  1.
         11   -1    0    0    0    0 -0.00000000000E+00 -0.00000000000E+00 -0.45593999997E+02  0.45594000000E+02  0.51100000000E-03 0. -1.
         23    2    1    2    0    0  0.00000000000E+00 -0.22204460493E-15  0.71054273576E-14  0.91188000000E+02  0.91188000000E+02 0.  0.
    9900012    2    3    3    0    0  0.11143870912E+02  0.10381698208E+01 -0.35078721174E+02  0.54367077488E+02  0.39999984749E+02 0.  0.
        -12    1    3    3    0    0 -0.11143870912E+02 -0.10381698208E+01  0.35078721174E+02  0.36820922512E+02  0.00000000000E+00 0.  1.
         11    1    4    4    0    0  0.11750426107E+02  0.10226189916E+01 -0.37128578467E+00  0.11800682891E+02  0.51100000000E-03 0. -1.
        -11    1    4    4    0    0 -0.40802757301E+01 -0.39681467395E+01  0.15713752986E+01  0.59045795083E+01  0.51100000000E-03 0.  1.
         12    1    4    4    0    0  0.34737205351E+01  0.39836975687E+01 -0.36278810687E+02  0.36661815088E+02  0.00000000000E+00 0. -1.
</event>
<event>
 8    1  0.2493819E-006  0.9118800E+02  0.7816164E-02  0.1184000E+00
        -11   -1    0    0    0    0  0.00000000000E+00  0.00000000000E+00  0.45593999997E+02  0.45594000000E+02  0.51100000000E-03 0.  1.
         11   -1    0    0    0    0 -0.00000000000E+00 -0.00000000000E+00 -0.45593999997E+02  0.45594000000E+02  0.51100000000E-03 0. -1.
         23    2    1    2    0    0  0.00000000000E+00  0.00000000000E+00  0.71054273576E-14  0.91188000000E+02  0.91188000000E+02 0.  0.
    9900012    2    3    3    0    0 -0.17381357154E+01  0.53332860569E+01  0.36391128069E+02  0.54367092107E+02  0.40000018076E+02 0.  0.
         12    1    3    3    0    0  0.17381357154E+01 -0.53332860569E+01 -0.36391128069E+02  0.36820907893E+02  0.00000000000E+00 0. -1.
         11    1    4    4    0    0 -0.77445073249E+01  0.12516690848E+02  0.17442499613E+02  0.22822921297E+02  0.51100000000E-03 0. -1.
        -11    1    4    4    0    0  0.60820946836E+01  0.78309237628E+01  0.52496410763E+01  0.11219357130E+02  0.51100000000E-03 0.  1.
        -12    1    4    4    0    0 -0.75723074059E-01 -0.15014328554E+02  0.13698987379E+02  0.20324813680E+02  0.00000000000E+00 0.  1.
</event>
<event>
 8    1  0.2493819E-006  0.9118800E+02  0.7816164E-02  0.1184000E+00
        -11   -1    0    0    0    0  0.00000000000E+00  0.00000000000E+00  0.45593999997E+02  0.45594000000E+02  0.51100000000E-03 0. -1.
         11   -1    0    0    0    0 -0.00000000000E+00 -0.00000000000E+00 -0.45593999997E+02  0.45594000000E+02  0.51100000000E-03 0.  1.
         23    2    1    2    0    0 -0.88817841970E-15  0.00000000000E+00  0.00000000000E+00  0.91188000000E+02  0.91188000000E+02 0.  0.
    9900012    2    3    3    0    0 -0.75432171634E+01 -0.14295343628E+02 -0.33083580513E+02  0.54367078309E+02  0.39999986621E+02 0.  0.
         12    1    3    3    0    0  0.75432171634E+01  0.14295343628E+02  0.33083580513E+02  0.36820921691E+02  0.00000000000E+00 0. -1.
         11    1    4    4    0    0 -0.12562593920E+01 -0.18527812029E+02 -0.72076252298E+01  0.19920036846E+02  0.51100000000E-03 0. -1.
        -11    1    4    4    0    0  0.67287000784E+01  0.28370370573E+01 -0.17352541360E+02  0.18826440873E+02  0.51100000000E-03 0.  1.
         12    1    4    4    0    0 -0.13015657850E+02  0.13954313434E+01 -0.85234139225E+01  0.15620600590E+02  0.00000000000E+00 0. -1.
</event>
<event>
 8    1  0.2493819E-006  0.9118800E+02  0.7816164E-02  0.1184000E+00
        -11   -1    0    0    0    0  0.00000000000E+00  0.00000000000E+00  0.45593999997E+02  0.45594000000E+02  0.51100000000E-03 0. -1.
         11   -1    0    0    0    0 -0.00000000000E+00 -0.00000000000E+00 -0.45593999997E+02  0.45594000000E+02  0.51100000000E-03 0.  1.
         23    2    1    2    0    0  0.88817841970E-15  0.35527136788E-14 -0.35527136788E-14  0.91188000000E+02  0.91188000000E+02 0.  0.
    9900012    2    3    3    0    0 -0.44320561853E+01  0.30163929336E+02  0.20646302159E+02  0.54367142489E+02  0.40000132932E+02 0.  0.
        -12    1    3    3    0    0  0.44320561853E+01 -0.30163929336E+02 -0.20646302159E+02  0.36820857511E+02  0.00000000000E+00 0.  1.
         11    1    4    4    0    0 -0.23442973064E+01  0.17687443232E+02 -0.20894379110E+01  0.17964051018E+02  0.51100000000E-03 0. -1.
        -11    1    4    4    0    0 -0.73188450724E+01  0.33364693783E+01 -0.30088653180E+01  0.85878281229E+01  0.51100000000E-03 0.  1.
         12    1    4    4    0    0  0.52310861935E+01  0.91400167258E+01  0.25744605388E+02  0.27815263348E+02  0.00000000000E+00 0. -1.
</event>
<event>
 8    1  0.2493819E-006  0.9118800E+02  0.7816164E-02  0.1184000E+00
        -11   -1    0    0    0    0  0.00000000000E+00  0.00000000000E+00  0.45593999997E+02  0.45594000000E+02  0.51100000000E-03 0. -1.
         11   -1    0    0    0    0 -0.00000000000E+00 -0.00000000000E+00 -0.45593999997E+02  0.45594000000E+02  0.51100000000E-03 0.  1.
         23    2    1    2    0    0  0.00000000000E+00  0.88817841970E-15 -0.35527136788E-14  0.91188000000E+02  0.91188000000E+02 0.  0.
    9900012    2    3    3    0    0 -0.34737640860E+02 -0.43042135281E+01  0.11425856071E+02  0.54367080219E+02  0.39999990975E+02 0.  0.
        -12    1    3    3    0    0  0.34737640860E+02  0.43042135281E+01 -0.11425856071E+02  0.36820919781E+02  0.00000000000E+00 0.  1.
         11    1    4    4    0    0 -0.11775293442E+02 -0.21318373171E+01  0.14722843072E+02  0.18972727121E+02  0.51100000000E-03 0. -1.
        -11    1    4    4    0    0 -0.17821879538E+02 -0.13445302007E+02 -0.50291029111E+01  0.22884217546E+02  0.51100000000E-03 0.  1.
        -12    1    4    4    0    0 -0.51404678791E+01  0.11272925796E+02  0.17321159094E+01  0.12510135553E+02  0.00000000000E+00 0.  1.
</event>
<event>
 8    1  0.2493819E-006  0.9118800E+02  0.7816164E-02  0.1184000E+00
        -11   -1    0    0    0    0  0.00000000000E+00  0.00000000000E+00  0.45593999997E+02  0.45594000000E+02  0.51100000000E-03 0.  1.
         11   -1    0    0    0    0 -0.00000000000E+00 -0.00000000000E+00 -0.45593999997E+02  0.45594000000E+02  0.51100000000E-03 0. -1.
         23    2    1    2    0    0 -0.35527136788E-14  0.00000000000E+00  0.17763568394E-14  0.91188000000E+02  0.91188000000E+02 0.  0.
    9900012    2    3    3    0    0 -0.30393529920E+02 -0.20259701291E+02 -0.46425308773E+01  0.54367146529E+02  0.40000142142E+02 0.  0.
        -12    1    3    3    0    0  0.30393529920E+02  0.20259701291E+02  0.46425308773E+01  0.36820853471E+02  0.00000000000E+00 0.  1.
         11    1    4    4    0    0 -0.10846279540E+02 -0.23787531803E+02 -0.15228516651E+02  0.30255514684E+02  0.51100000000E-03 0. -1.
        -11    1    4    4    0    0 -0.71371047195E+01 -0.28042841357E+01  0.46465207154E+01  0.89661824826E+01  0.51100000000E-03 0.  1.
         12    1    4    4    0    0 -0.12410145660E+02  0.63321146475E+01  0.59394650581E+01  0.15145449363E+02  0.00000000000E+00 0. -1.
</event>
<event>
 8    1  0.2493819E-006  0.9118800E+02  0.7816164E-02  0.1184000E+00
        -11   -1    0    0    0    0  0.00000000000E+00  0.00000000000E+00  0.45593999997E+02  0.45594000000E+02  0.51100000000E-03 0.  1.
         11   -1    0    0    0    0 -0.00000000000E+00 -0.00000000000E+00 -0.45593999997E+02  0.45594000000E+02  0.51100000000E-03 0. -1.
         23    2    1    2    0    0  0.00000000000E+00  0.00000000000E+00  0.35527136788E-14  0.91188000000E+02  0.91188000000E+02 0.  0.
    9900012    2    3    3    0    0  0.16416622353E+02  0.17454023985E+02  0.27957670529E+02  0.54367084963E+02  0.40000001790E+02 0.  0.
         12    1    3    3    0    0 -0.16416622353E+02 -0.17454023985E+02 -0.27957670529E+02  0.36820915037E+02  0.00000000000E+00 0. -1.
         11    1    4    4    0    0 -0.32458732556E+00  0.77031402344E+01  0.11486892575E+02  0.13834465211E+02  0.51100000000E-03 0. -1.
        -11    1    4    4    0    0  0.17626832941E+02  0.17167469381E+02  0.25533881578E+01  0.24737563256E+02  0.51100000000E-03 0.  1.
        -12    1    4    4    0    0 -0.88562326227E+00 -0.74165856302E+01  0.13917389796E+02  0.15795056496E+02  0.00000000000E+00 0.  1.
</event>
<event>
 8    1  0.2493819E-006  0.9118800E+02  0.7816164E-02  0.1184000E+00
        -11   -1    0    0    0    0  0.00000000000E+00  0.00000000000E+00  0.45593999997E+02  0.45594000000E+02  0.51100000000E-03 0.  1.
         11   -1    0    0    0    0 -0.00000000000E+00 -0.00000000000E+00 -0.45593999997E+02  0.45594000000E+02  0.51100000000E-03 0. -1.
         23    2    1    2    0    0 -0.66613381478E-15  0.00000000000E+00  0.00000000000E+00  0.91188000000E+02  0.91188000000E+02 0.  0.
    9900012    2    3    3    0    0  0.16200875075E+01 -0.21386768252E+02 -0.29929423377E+02  0.54366960858E+02  0.39999718867E+02 0.  0.
        -12    1    3    3    0    0 -0.16200875075E+01  0.21386768252E+02  0.29929423377E+02  0.36821039142E+02  0.00000000000E+00 0.  1.
         11    1    4    4    0    0 -0.79566906996E+01 -0.34187492726E+01 -0.30574904715E+02  0.31777689848E+02  0.51100000000E-03 0.  1.
        -11    1    4    4    0    0  0.10055338696E+02 -0.14695451028E+02 -0.25528252606E+01  0.17988413890E+02  0.51100000000E-03 0. -1.
        -12    1    4    4    0    0 -0.47856048891E+00 -0.32725679510E+01  0.31983065988E+01  0.46008571196E+01  0.00000000000E+00 0.  1.
</event>
<event>
 8    1  0.2493819E-006  0.9118800E+02  0.7816164E-02  0.1184000E+00
        -11   -1    0    0    0    0  0.00000000000E+00  0.00000000000E+00  0.45593999997E+02  0.45594000000E+02  0.51100000000E-03 0.  1.
         11   -1    0    0    0    0 -0.00000000000E+00 -0.00000000000E+00 -0.45593999997E+02  0.45594000000E+02  0.51100000000E-03 0. -1.
         23    2    1    2    0    0  0.00000000000E+00  0.00000000000E+00  0.00000000000E+00  0.91188000000E+02  0.91188000000E+02 0.  0.
    9900012    2    3    3    0    0 -0.18348564372E+02 -0.17477915595E+02  0.26713894114E+02  0.54367089001E+02  0.40000010996E+02 0.  0.
         12    1    3    3    0    0  0.18348564372E+02  0.17477915595E+02 -0.26713894114E+02  0.36820910999E+02  0.00000000000E+00 0. -1.
         11    1    4    4    0    0  0.77502102745E+01 -0.63278100918E+01  0.99761655183E-01  0.10005842918E+02  0.51100000000E-03 0. -1.
        -11    1    4    4    0    0 -0.93864135099E+01 -0.10138409088E+02  0.11211837494E+01  0.13861787427E+02  0.51100000000E-03 0.  1.
         12    1    4    4    0    0 -0.16712361136E+02 -0.10116964154E+01  0.25492948709E+02  0.30499458655E+02  0.00000000000E+00 0. -1.
</event>
<event>
 8    1  0.2493819E-006  0.9118800E+02  0.7816164E-02  0.1184000E+00
        -11   -1    0    0    0    0  0.00000000000E+00  0.00000000000E+00  0.45593999997E+02  0.45594000000E+02  0.51100000000E-03 0. -1.
         11   -1    0    0    0    0 -0.00000000000E+00 -0.00000000000E+00 -0.45593999997E+02  0.45594000000E+02  0.51100000000E-03 0.  1.
         23    2    1    2    0    0 -0.35527136788E-14 -0.53290705182E-14 -0.35527136788E-14  0.91188000000E+02  0.91188000000E+02 0.  0.
    9900012    2    3    3    0    0 -0.20613333468E+02 -0.14750010920E+02 -0.26707770095E+02  0.54367118394E+02  0.40000078002E+02 0.  0.
         12    1    3    3    0    0  0.20613333468E+02  0.14750010920E+02  0.26707770095E+02  0.36820881606E+02  0.00000000000E+00 0. -1.
         11    1    4    4    0    0 -0.83996827976E+01 -0.11305665462E+01  0.70280996824E+01  0.11010315037E+02  0.51100000000E-03 0. -1.
        -11    1    4    4    0    0  0.13120402486E+01 -0.85950512628E+01 -0.25048553499E+02  0.26514644792E+02  0.51100000000E-03 0.  1.
         12    1    4    4    0    0 -0.13525690919E+02 -0.50243931111E+01 -0.86873162785E+01  0.16842158564E+02  0.00000000000E+00 0. -1.
</event>
<event>
 8    1  0.2493819E-006  0.9118800E+02  0.7816164E-02  0.1184000E+00
        -11   -1    0    0    0    0  0.00000000000E+00  0.00000000000E+00  0.45593999997E+02  0.45594000000E+02  0.51100000000E-03 0.  1.
         11   -1    0    0    0    0 -0.00000000000E+00 -0.00000000000E+00 -0.45593999997E+02  0.45594000000E+02  0.51100000000E-03 0. -1.
         23    2    1    2    0    0 -0.35527136788E-14  0.00000000000E+00  0.35527136788E-14  0.91188000000E+02  0.91188000000E+02 0.  0.
    9900012    2    3    3    0    0 -0.23834767158E+02 -0.72977600191E+01 -0.27100304473E+02  0.54367082992E+02  0.39999997296E+02 0.  0.
        -12    1    3    3    0    0  0.23834767158E+02  0.72977600191E+01  0.27100304473E+02  0.36820917008E+02  0.00000000000E+00 0.  1.
         11    1    4    4    0    0 -0.11446995139E+01  0.10917583490E+01 -0.11330503637E+02  0.11440392747E+02  0.51100000000E-03 0. -1.
        -11    1    4    4    0    0 -0.52548018429E+01 -0.40274201159E+01  0.97061390196E+01  0.11749135718E+02  0.51100000000E-03 0.  1.
        -12    1    4    4    0    0 -0.17435265802E+02 -0.43620982521E+01 -0.25475939856E+02  0.31177554527E+02  0.00000000000E+00 0.  1.
</event>
<event>
 8    1  0.2493819E-006  0.9118800E+02  0.7816164E-02  0.1184000E+00
        -11   -1    0    0    0    0  0.00000000000E+00  0.00000000000E+00  0.45593999997E+02  0.45594000000E+02  0.51100000000E-03 0. -1.
         11   -1    0    0    0    0 -0.00000000000E+00 -0.00000000000E+00 -0.45593999997E+02  0.45594000000E+02  0.51100000000E-03 0.  1.
         23    2    1    2    0    0  0.00000000000E+00  0.00000000000E+00  0.00000000000E+00  0.91188000000E+02  0.91188000000E+02 0.  0.
    9900012    2    3    3    0    0 -0.10544174332E+02 -0.84744091866E+01  0.34245928848E+02  0.54367097430E+02  0.40000030211E+02 0.  0.
        -12    1    3    3    0    0  0.10544174332E+02  0.84744091866E+01 -0.34245928848E+02  0.36820902570E+02  0.00000000000E+00 0.  1.
         11    1    4    4    0    0  0.17075848704E+01 -0.12496122113E+02  0.15413157508E+02  0.19915680721E+02  0.51100000000E-03 0. -1.
        -11    1    4    4    0    0 -0.20361170824E+02  0.23703792997E+01  0.14511379417E+02  0.25115256483E+02  0.51100000000E-03 0.  1.
         12    1    4    4    0    0  0.81094116224E+01  0.16513336265E+01  0.43213919228E+01  0.93361602256E+01  0.00000000000E+00 0. -1.
</event>
<event>
 8    1  0.2493819E-006  0.9118800E+02  0.7816164E-02  0.1184000E+00
        -11   -1    0    0    0    0  0.00000000000E+00  0.00000000000E+00  0.45593999997E+02  0.45594000000E+02  0.51100000000E-03 0.  1.
         11   -1    0    0    0    0 -0.00000000000E+00 -0.00000000000E+00 -0.45593999997E+02  0.45594000000E+02  0.51100000000E-03 0. -1.
         23    2    1    2    0    0  0.14432899320E-14  0.00000000000E+00  0.00000000000E+00  0.91188000000E+02  0.91188000000E+02 0.  0.
    9900012    2    3    3    0    0  0.47043883458E+00  0.28536606992E+02 -0.23264152089E+02  0.54367081709E+02  0.39999994373E+02 0.  0.
         12    1    3    3    0    0 -0.47043883458E+00 -0.28536606992E+02  0.23264152089E+02  0.36820918291E+02  0.00000000000E+00 0. -1.
         11    1    4    4    0    0  0.72219672418E+01  0.10883368818E+02 -0.39653317031E+01  0.13650215509E+02  0.51100000000E-03 0. -1.
        -11    1    4    4    0    0 -0.17247583437E+02  0.12332658235E+02 -0.19700055217E+02  0.28942456174E+02  0.51100000000E-03 0.  1.
        -12    1    4    4    0    0  0.10496055030E+02  0.53205799389E+01  0.40123483046E+00  0.11774410026E+02  0.00000000000E+00 0.  1.
</event>
<event>
 8    1  0.2493819E-006  0.9118800E+02  0.7816164E-02  0.1184000E+00
        -11   -1    0    0    0    0  0.00000000000E+00  0.00000000000E+00  0.45593999997E+02  0.45594000000E+02  0.51100000000E-03 0. -1.
         11   -1    0    0    0    0 -0.00000000000E+00 -0.00000000000E+00 -0.45593999997E+02  0.45594000000E+02  0.51100000000E-03 0.  1.
         23    2    1    2    0    0  0.00000000000E+00  0.17763568394E-14  0.00000000000E+00  0.91188000000E+02  0.91188000000E+02 0.  0.
    9900012    2    3    3    0    0  0.11162652776E+02 -0.13858888533E+02 -0.32235163031E+02  0.54367090940E+02  0.40000015416E+02 0.  0.
         12    1    3    3    0    0 -0.11162652776E+02  0.13858888533E+02  0.32235163031E+02  0.36820909060E+02  0.00000000000E+00 0. -1.
         11    1    4    4    0    0 -0.40889182014E+01  0.48867747228E+01 -0.16062714831E+02  0.17280353795E+02  0.51100000000E-03 0.  1.
        -11    1    4    4    0    0  0.39352517889E+01  0.33862662435E+01  0.27235969683E+01  0.58626774106E+01  0.51100000000E-03 0. -1.
         12    1    4    4    0    0  0.11316319188E+02 -0.22131929499E+02 -0.18896045168E+02  0.31224059735E+02  0.00000000000E+00 0. -1.
</event>
<event>
 8    1  0.2493819E-006  0.9118800E+02  0.7816164E-02  0.1184000E+00
        -11   -1    0    0    0    0  0.00000000000E+00  0.00000000000E+00  0.45593999997E+02  0.45594000000E+02  0.51100000000E-03 0.  1.
         11   -1    0    0    0    0 -0.00000000000E+00 -0.00000000000E+00 -0.45593999997E+02  0.45594000000E+02  0.51100000000E-03 0. -1.
         23    2    1    2    0    0  0.35527136788E-14  0.00000000000E+00 -0.11102230246E-15  0.91188000000E+02  0.91188000000E+02 0.  0.
    9900012    2    3    3    0    0 -0.28285798303E+02  0.23552392880E+02 -0.98921034396E+00  0.54367080224E+02  0.39999990987E+02 0.  0.
         12    1    3    3    0    0  0.28285798303E+02 -0.23552392880E+02  0.98921034396E+00  0.36820919776E+02  0.00000000000E+00 0. -1.
         11    1    4    4    0    0 -0.28546118171E+01 -0.13437141600E+01 -0.40377846384E+01  0.51242639879E+01  0.51100000000E-03 0. -1.
        -11    1    4    4    0    0  0.65516924742E+00 -0.41833391199E+01 -0.76457486994E+01  0.87399683277E+01  0.51100000000E-03 0.  1.
        -12    1    4    4    0    0 -0.26086355734E+02  0.29079446160E+02  0.10694322994E+02  0.40502847909E+02  0.00000000000E+00 0.  1.
</event>
<event>
 8    1  0.2493819E-006  0.9118800E+02  0.7816164E-02  0.1184000E+00
        -11   -1    0    0    0    0  0.00000000000E+00  0.00000000000E+00  0.45593999997E+02  0.45594000000E+02  0.51100000000E-03 0.  1.
         11   -1    0    0    0    0 -0.00000000000E+00 -0.00000000000E+00 -0.45593999997E+02  0.45594000000E+02  0.51100000000E-03 0. -1.
         23    2    1    2    0    0 -0.35527136788E-14  0.00000000000E+00  0.00000000000E+00  0.91188000000E+02  0.91188000000E+02 0.  0.
    9900012    2    3    3    0    0  0.21594690074E+02  0.20115129255E+02 -0.22019092965E+02  0.54366952767E+02  0.39999700421E+02 0.  0.
        -12    1    3    3    0    0 -0.21594690074E+02 -0.20115129255E+02  0.22019092965E+02  0.36821047233E+02  0.00000000000E+00 0.  1.
         11    1    4    4    0    0  0.23502461562E+02  0.14991346292E+02 -0.28193564242E+02  0.39648243694E+02  0.51100000000E-03 0. -1.
        -11    1    4    4    0    0  0.23389061104E+01  0.79105038441E+01  0.43168596802E+01  0.93103077619E+01  0.51100000000E-03 0.  1.
         12    1    4    4    0    0 -0.42466775984E+01 -0.27867208810E+01  0.18576115962E+01  0.54084013106E+01  0.00000000000E+00 0. -1.
</event>
<event>
 8    1  0.2493819E-006  0.9118800E+02  0.7816164E-02  0.1184000E+00
        -11   -1    0    0    0    0  0.00000000000E+00  0.00000000000E+00  0.45593999997E+02  0.45594000000E+02  0.51100000000E-03 0.  1.
         11   -1    0    0    0    0 -0.00000000000E+00 -0.00000000000E+00 -0.45593999997E+02  0.45594000000E+02  0.51100000000E-03 0. -1.
         23    2    1    2    0    0  0.00000000000E+00  0.00000000000E+00 -0.17763568394E-14  0.91188000000E+02  0.91188000000E+02 0.  0.
    9900012    2    3    3    0    0 -0.17080689810E+02  0.31631206768E+02 -0.79684959134E+01  0.54367080225E+02  0.39999990989E+02 0.  0.
         12    1    3    3    0    0  0.17080689810E+02 -0.31631206768E+02  0.79684959134E+01  0.36820919775E+02  0.00000000000E+00 0. -1.
         11    1    4    4    0    0 -0.25064647942E+02  0.27875739823E+02  0.12586800968E+01  0.37508368706E+02  0.51100000000E-03 0.  1.
        -11    1    4    4    0    0  0.32182717575E+00 -0.33579514479E+01 -0.89632304248E+00  0.34903876454E+01  0.51100000000E-03 0. -1.
         12    1    4    4    0    0  0.76621309566E+01  0.71134183931E+01 -0.83308529677E+01  0.13368323874E+02  0.00000000000E+00 0. -1.
</event>
<event>
 8    1  0.2493819E-006  0.9118800E+02  0.7816164E-02  0.1184000E+00
        -11   -1    0    0    0    0  0.00000000000E+00  0.00000000000E+00  0.45593999997E+02  0.45594000000E+02  0.51100000000E-03 0. -1.
         11   -1    0    0    0    0 -0.00000000000E+00 -0.00000000000E+00 -0.45593999997E+02  0.45594000000E+02  0.51100000000E-03 0.  1.
         23    2    1    2    0    0  0.00000000000E+00  0.00000000000E+00  0.00000000000E+00  0.91188000000E+02  0.91188000000E+02 0.  0.
    9900012    2    3    3    0    0 -0.22479795686E+02 -0.25192478770E+02 -0.14689317360E+02  0.54367105862E+02  0.40000049433E+02 0.  0.
        -12    1    3    3    0    0  0.22479795686E+02  0.25192478770E+02  0.14689317360E+02  0.36820894138E+02  0.00000000000E+00 0.  1.
         11    1    4    4    0    0 -0.16819902836E+02 -0.27688861867E+02 -0.16433171570E+02  0.36326730255E+02  0.51100000000E-03 0. -1.
        -11    1    4    4    0    0  0.55707023534E+01  0.23848525970E+01  0.29591789531E+01  0.67436627257E+01  0.51100000000E-03 0.  1.
         12    1    4    4    0    0 -0.11230595204E+02  0.11153050067E+00 -0.12153247436E+01  0.11296712881E+02  0.00000000000E+00 0. -1.
</event>
<event>
 8    1  0.2493819E-006  0.9118800E+02  0.7816164E-02  0.1184000E+00
        -11   -1    0    0    0    0  0.00000000000E+00  0.00000000000E+00  0.45593999997E+02  0.45594000000E+02  0.51100000000E-03 0.  1.
         11   -1    0    0    0    0 -0.00000000000E+00 -0.00000000000E+00 -0.45593999997E+02  0.45594000000E+02  0.51100000000E-03 0. -1.
         23    2    1    2    0    0  0.17763568394E-14  0.00000000000E+00  0.00000000000E+00  0.91188000000E+02  0.91188000000E+02 0.  0.
    9900012    2    3    3    0    0  0.14735148914E+02  0.25069593200E+02  0.22586944125E+02  0.54367093416E+02  0.40000021061E+02 0.  0.
         12    1    3    3    0    0 -0.14735148914E+02 -0.25069593200E+02 -0.22586944125E+02  0.36820906584E+02  0.00000000000E+00 0. -1.
         11    1    4    4    0    0  0.11351855964E+02  0.20639024623E+02  0.16210768308E+02  0.28594107446E+02  0.51100000000E-03 0. -1.
        -11    1    4    4    0    0  0.13852993443E+02  0.21912213337E+01  0.53744947202E+01  0.15019722768E+02  0.51100000000E-03 0.  1.
         12    1    4    4    0    0 -0.10469700493E+02  0.22393472429E+01  0.10016810960E+01  0.10753263202E+02  0.00000000000E+00 0. -1.
</event>
<event>
 8    1  0.2493819E-006  0.9118800E+02  0.7816164E-02  0.1184000E+00
        -11   -1    0    0    0    0  0.00000000000E+00  0.00000000000E+00  0.45593999997E+02  0.45594000000E+02  0.51100000000E-03 0. -1.
         11   -1    0    0    0    0 -0.00000000000E+00 -0.00000000000E+00 -0.45593999997E+02  0.45594000000E+02  0.51100000000E-03 0.  1.
         23    2    1    2    0    0  0.00000000000E+00 -0.35527136788E-14  0.00000000000E+00  0.91188000000E+02  0.91188000000E+02 0.  0.
    9900012    2    3    3    0    0  0.64904212543E+01  0.28026808993E+02  0.22981539465E+02  0.54367099053E+02  0.40000033910E+02 0.  0.
        -12    1    3    3    0    0 -0.64904212543E+01 -0.28026808993E+02 -0.22981539465E+02  0.36820900947E+02  0.00000000000E+00 0.  1.
         11    1    4    4    0    0  0.73704894430E+01  0.10150921020E+01  0.78015481769E+01  0.10780476837E+02  0.51100000000E-03 0.  1.
        -11    1    4    4    0    0  0.13534857360E+02  0.14495085891E+02  0.14347853358E+02  0.24477760824E+02  0.51100000000E-03 0. -1.
        -12    1    4    4    0    0 -0.14414925548E+02  0.12516631001E+02  0.83213793017E+00  0.19108861392E+02  0.00000000000E+00 0.  1.
</event>
<event>
 8    1  0.2493819E-006  0.9118800E+02  0.7816164E-02  0.1184000E+00
        -11   -1    0    0    0    0  0.00000000000E+00  0.00000000000E+00  0.45593999997E+02  0.45594000000E+02  0.51100000000E-03 0. -1.
         11   -1    0    0    0    0 -0.00000000000E+00 -0.00000000000E+00 -0.45593999997E+02  0.45594000000E+02  0.51100000000E-03 0.  1.
         23    2    1    2    0    0  0.17763568394E-14  0.00000000000E+00  0.35527136788E-14  0.91188000000E+02  0.91188000000E+02 0.  0.
    9900012    2    3    3    0    0  0.15315161061E+02  0.18536746806E+02  0.27885745071E+02  0.54367083136E+02  0.39999997626E+02 0.  0.
        -12    1    3    3    0    0 -0.15315161061E+02 -0.18536746806E+02 -0.27885745071E+02  0.36820916864E+02  0.00000000000E+00 0.  1.
         11    1    4    4    0    0  0.18794083865E+02  0.13249233322E+02  0.26907553146E+02  0.35394578518E+02  0.51100000000E-03 0. -1.
        -11    1    4    4    0    0 -0.32484923090E+01  0.97907155707E+01  0.62297434362E+01  0.12050747579E+02  0.51100000000E-03 0.  1.
         12    1    4    4    0    0 -0.23043049514E+00 -0.45032020863E+01 -0.52515515104E+01  0.69217570392E+01  0.00000000000E+00 0. -1.
</event>
<event>
 8    1  0.2493819E-006  0.9118800E+02  0.7816164E-02  0.1184000E+00
        -11   -1    0    0    0    0  0.00000000000E+00  0.00000000000E+00  0.45593999997E+02  0.45594000000E+02  0.51100000000E-03 0.  1.
         11   -1    0    0    0    0 -0.00000000000E+00 -0.00000000000E+00 -0.45593999997E+02  0.45594000000E+02  0.51100000000E-03 0. -1.
         23    2    1    2    0    0  0.00000000000E+00  0.00000000000E+00  0.00000000000E+00  0.91188000000E+02  0.91188000000E+02 0.  0.
    9900012    2    3    3    0    0  0.11255730015E+02  0.12297085189E+02  0.32830933482E+02  0.54367082635E+02  0.39999996483E+02 0.  0.
         12    1    3    3    0    0 -0.11255730015E+02 -0.12297085189E+02 -0.32830933482E+02  0.36820917365E+02  0.00000000000E+00 0. -1.
         11    1    4    4    0    0  0.54604397396E+01  0.19023591907E+01  0.18295231388E+02  0.19187257867E+02  0.51100000000E-03 0. -1.
        -11    1    4    4    0    0  0.63508538426E+01  0.83274558736E+01  0.23624807473E+02  0.25842047021E+02  0.51100000000E-03 0.  1.
         12    1    4    4    0    0 -0.55556356710E+00  0.20672701246E+01 -0.90891053794E+01  0.93377777465E+01  0.00000000000E+00 0. -1.
</event>
<event>
 8    1  0.2493819E-006  0.9118800E+02  0.7816164E-02  0.1184000E+00
        -11   -1    0    0    0    0  0.00000000000E+00  0.00000000000E+00  0.45593999997E+02  0.45594000000E+02  0.51100000000E-03 0.  1.
         11   -1    0    0    0    0 -0.00000000000E+00 -0.00000000000E+00 -0.45593999997E+02  0.45594000000E+02  0.51100000000E-03 0. -1.
         23    2    1    2    0    0  0.00000000000E+00  0.00000000000E+00 -0.35527136788E-14  0.91188000000E+02  0.91188000000E+02 0.  0.
    9900012    2    3    3    0    0  0.85001423469E+01 -0.24463398555E+02  0.26173883804E+02  0.54367048326E+02  0.39999918268E+02 0.  0.
         12    1    3    3    0    0 -0.85001423469E+01  0.24463398555E+02 -0.26173883804E+02  0.36820951674E+02  0.00000000000E+00 0. -1.
         11    1    4    4    0    0 -0.13624722157E+00  0.84803153343E+00  0.22542462459E+02  0.22558819445E+02  0.51100000000E-03 0. -1.
        -11    1    4    4    0    0  0.20398351263E+01 -0.24311324389E+02  0.41215357844E+00  0.24400231386E+02  0.51100000000E-03 0.  1.
         12    1    4    4    0    0  0.65965544421E+01 -0.10001057000E+01  0.32192677668E+01  0.74079974942E+01  0.00000000000E+00 0. -1.
</event>
<event>
 8    1  0.2493819E-006  0.9118800E+02  0.7816164E-02  0.1184000E+00
        -11   -1    0    0    0    0  0.00000000000E+00  0.00000000000E+00  0.45593999997E+02  0.45594000000E+02  0.51100000000E-03 0.  1.
         11   -1    0    0    0    0 -0.00000000000E+00 -0.00000000000E+00 -0.45593999997E+02  0.45594000000E+02  0.51100000000E-03 0. -1.
         23    2    1    2    0    0  0.00000000000E+00  0.00000000000E+00  0.17763568394E-14  0.91188000000E+02  0.91188000000E+02 0.  0.
    9900012    2    3    3    0    0  0.30978440486E+02  0.18870793103E+02 -0.63253864849E+01  0.54367066804E+02  0.39999960393E+02 0.  0.
         12    1    3    3    0    0 -0.30978440486E+02 -0.18870793103E+02  0.63253864849E+01  0.36820933196E+02  0.00000000000E+00 0. -1.
         11    1    4    4    0    0  0.11492930955E+02  0.57953948124E+01 -0.88706844869E+01  0.15632117787E+02  0.51100000000E-03 0. -1.
        -11    1    4    4    0    0  0.27274233697E+02  0.13569169449E+02  0.42166239031E+01  0.30753635569E+02  0.51100000000E-03 0.  1.
        -12    1    4    4    0    0 -0.77887241661E+01 -0.49377115905E+00 -0.16713259011E+01  0.79813134484E+01  0.00000000000E+00 0.  1.
</event>
<event>
 8    1  0.2493819E-006  0.9118800E+02  0.7816164E-02  0.1184000E+00
        -11   -1    0    0    0    0  0.00000000000E+00  0.00000000000E+00  0.45593999997E+02  0.45594000000E+02  0.51100000000E-03 0.  1.
         11   -1    0    0    0    0 -0.00000000000E+00 -0.00000000000E+00 -0.45593999997E+02  0.45594000000E+02  0.51100000000E-03 0. -1.
         23    2    1    2    0    0  0.00000000000E+00  0.00000000000E+00  0.00000000000E+00  0.91188000000E+02  0.91188000000E+02 0.  0.
    9900012    2    3    3    0    0 -0.19055158309E+02 -0.18313640124E+02 -0.25637718478E+02  0.54367067346E+02  0.39999961628E+02 0.  0.
        -12    1    3    3    0    0  0.19055158309E+02  0.18313640124E+02  0.25637718478E+02  0.36820932654E+02  0.00000000000E+00 0.  1.
         11    1    4    4    0    0 -0.17933631499E+02  0.33537850766E+01 -0.76662563502E+01  0.19789757446E+02  0.51100000000E-03 0. -1.
        -11    1    4    4    0    0 -0.19049654570E+01 -0.66308522490E+01  0.39750131237E+01  0.79622750853E+01  0.51100000000E-03 0.  1.
         12    1    4    4    0    0  0.78343864644E+00 -0.15036572952E+02 -0.21946475251E+02  0.26615034815E+02  0.00000000000E+00 0. -1.
</event>
<event>
 8    1  0.2493819E-006  0.9118800E+02  0.7816164E-02  0.1184000E+00
        -11   -1    0    0    0    0  0.00000000000E+00  0.00000000000E+00  0.45593999997E+02  0.45594000000E+02  0.51100000000E-03 0. -1.
         11   -1    0    0    0    0 -0.00000000000E+00 -0.00000000000E+00 -0.45593999997E+02  0.45594000000E+02  0.51100000000E-03 0.  1.
         23    2    1    2    0    0  0.00000000000E+00 -0.22204460493E-15  0.00000000000E+00  0.91188000000E+02  0.91188000000E+02 0.  0.
    9900012    2    3    3    0    0 -0.24205484263E+02  0.14181268606E+01  0.27710349066E+02  0.54367082065E+02  0.39999995185E+02 0.  0.
        -12    1    3    3    0    0  0.24205484263E+02 -0.14181268606E+01 -0.27710349066E+02  0.36820917935E+02  0.00000000000E+00 0.  1.
         11    1    4    4    0    0  0.49427797656E+01  0.61785549840E+01 -0.22616847028E+01  0.82292667630E+01  0.51100000000E-03 0. -1.
        -11    1    4    4    0    0 -0.21218879458E+01 -0.75315096863E+01  0.54111616332E+01  0.95135018311E+01  0.51100000000E-03 0.  1.
         12    1    4    4    0    0 -0.27026376082E+02  0.27710815629E+01  0.24560872136E+02  0.36624313471E+02  0.00000000000E+00 0. -1.
</event>
<event>
 8    1  0.2493819E-006  0.9118800E+02  0.7816164E-02  0.1184000E+00
        -11   -1    0    0    0    0  0.00000000000E+00  0.00000000000E+00  0.45593999997E+02  0.45594000000E+02  0.51100000000E-03 0. -1.
         11   -1    0    0    0    0 -0.00000000000E+00 -0.00000000000E+00 -0.45593999997E+02  0.45594000000E+02  0.51100000000E-03 0.  1.
         23    2    1    2    0    0  0.00000000000E+00  0.00000000000E+00  0.00000000000E+00  0.91188000000E+02  0.91188000000E+02 0.  0.
    9900012    2    3    3    0    0 -0.20867625715E+02  0.18030007424E+02  0.24397651029E+02  0.54367023011E+02  0.39999860557E+02 0.  0.
        -12    1    3    3    0    0  0.20867625715E+02 -0.18030007424E+02 -0.24397651029E+02  0.36820976989E+02  0.00000000000E+00 0.  1.
         11    1    4    4    0    0 -0.15860963662E+02  0.17882394183E+02  0.19413935610E+02  0.30793685816E+02  0.51100000000E-03 0. -1.
        -11    1    4    4    0    0 -0.10428065472E+02  0.38857024698E+01  0.10258984820E+02  0.15135719440E+02  0.51100000000E-03 0.  1.
         12    1    4    4    0    0  0.54214034186E+01 -0.37380892287E+01 -0.52752694015E+01  0.84376177543E+01  0.00000000000E+00 0. -1.
</event>
<event>
 8    1  0.2493819E-006  0.9118800E+02  0.7816164E-02  0.1184000E+00
        -11   -1    0    0    0    0  0.00000000000E+00  0.00000000000E+00  0.45593999997E+02  0.45594000000E+02  0.51100000000E-03 0.  1.
         11   -1    0    0    0    0 -0.00000000000E+00 -0.00000000000E+00 -0.45593999997E+02  0.45594000000E+02  0.51100000000E-03 0. -1.
         23    2    1    2    0    0  0.35527136788E-14 -0.88817841970E-15  0.00000000000E+00  0.91188000000E+02  0.91188000000E+02 0.  0.
    9900012    2    3    3    0    0 -0.30529732476E+02 -0.66815924354E+01 -0.19469761838E+02  0.54367083817E+02  0.39999999177E+02 0.  0.
        -12    1    3    3    0    0  0.30529732476E+02  0.66815924354E+01  0.19469761838E+02  0.36820916183E+02  0.00000000000E+00 0.  1.
         11    1    4    4    0    0 -0.30401607755E+01  0.63873038808E+01  0.32170319502E+01  0.77710696327E+01  0.51100000000E-03 0. -1.
        -11    1    4    4    0    0 -0.22918459353E+01  0.69003705829E+01 -0.42841858637E-01  0.72711421151E+01  0.51100000000E-03 0.  1.
         12    1    4    4    0    0 -0.25197725766E+02 -0.19969266899E+02 -0.22643951929E+02  0.39324872069E+02  0.00000000000E+00 0. -1.
</event>
<event>
 8    1  0.2493819E-006  0.9118800E+02  0.7816164E-02  0.1184000E+00
        -11   -1    0    0    0    0  0.00000000000E+00  0.00000000000E+00  0.45593999997E+02  0.45594000000E+02  0.51100000000E-03 0. -1.
         11   -1    0    0    0    0 -0.00000000000E+00 -0.00000000000E+00 -0.45593999997E+02  0.45594000000E+02  0.51100000000E-03 0.  1.
         23    2    1    2    0    0  0.00000000000E+00 -0.35527136788E-14  0.00000000000E+00  0.91188000000E+02  0.91188000000E+02 0.  0.
    9900012    2    3    3    0    0  0.23620362402E+02  0.25237296233E+02  0.12686043327E+02  0.54367104622E+02  0.40000046606E+02 0.  0.
        -12    1    3    3    0    0 -0.23620362402E+02 -0.25237296233E+02 -0.12686043327E+02  0.36820895378E+02  0.00000000000E+00 0.  1.
         11    1    4    4    0    0  0.14470725436E+02  0.22956056382E+02  0.89086332499E+01  0.28561270383E+02  0.51100000000E-03 0. -1.
        -11    1    4    4    0    0  0.59904135724E+01 -0.78300001559E+01  0.95636616452E+01  0.13735267800E+02  0.51100000000E-03 0.  1.
        -12    1    4    4    0    0  0.31592233942E+01  0.10111240007E+02 -0.57862515683E+01  0.12070566439E+02  0.00000000000E+00 0.  1.
</event>
<event>
 8    1  0.2493819E-006  0.9118800E+02  0.7816164E-02  0.1184000E+00
        -11   -1    0    0    0    0  0.00000000000E+00  0.00000000000E+00  0.45593999997E+02  0.45594000000E+02  0.51100000000E-03 0. -1.
         11   -1    0    0    0    0 -0.00000000000E+00 -0.00000000000E+00 -0.45593999997E+02  0.45594000000E+02  0.51100000000E-03 0.  1.
         23    2    1    2    0    0 -0.17763568394E-14 -0.17763568394E-14  0.71054273576E-14  0.91188000000E+02  0.91188000000E+02 0.  0.
    9900012    2    3    3    0    0 -0.14601680597E+02  0.10255903400E+02  0.32208490000E+02  0.54367089380E+02  0.40000011859E+02 0.  0.
        -12    1    3    3    0    0  0.14601680597E+02 -0.10255903400E+02 -0.32208490000E+02  0.36820910620E+02  0.00000000000E+00 0.  1.
         11    1    4    4    0    0 -0.38349149964E+01  0.37001685562E+01  0.19372570223E+01  0.56701662591E+01  0.51100000000E-03 0. -1.
        -11    1    4    4    0    0 -0.62952076654E+01 -0.12044733452E+02  0.86825833500E+00  0.13618337501E+02  0.51100000000E-03 0.  1.
         12    1    4    4    0    0 -0.44715579353E+01  0.18600468297E+02  0.29402974643E+02  0.35078585620E+02  0.00000000000E+00 0. -1.
</event>
<event>
 8    1  0.2493819E-006  0.9118800E+02  0.7816164E-02  0.1184000E+00
        -11   -1    0    0    0    0  0.00000000000E+00  0.00000000000E+00  0.45593999997E+02  0.45594000000E+02  0.51100000000E-03 0.  1.
         11   -1    0    0    0    0 -0.00000000000E+00 -0.00000000000E+00 -0.45593999997E+02  0.45594000000E+02  0.51100000000E-03 0. -1.
         23    2    1    2    0    0  0.00000000000E+00  0.00000000000E+00  0.00000000000E+00  0.91188000000E+02  0.91188000000E+02 0.  0.
    9900012    2    3    3    0    0 -0.82520242358E+01  0.31460892133E+02 -0.17259679629E+02  0.54367079605E+02  0.39999989576E+02 0.  0.
         12    1    3    3    0    0  0.82520242358E+01 -0.31460892133E+02  0.17259679629E+02  0.36820920395E+02  0.00000000000E+00 0. -1.
         11    1    4    4    0    0 -0.16934102404E+02  0.32998923281E+02 -0.92375633324E+01  0.38223361162E+02  0.51100000000E-03 0. -1.
        -11    1    4    4    0    0  0.40643128106E+01  0.18142595225E+01 -0.92874095890E+01  0.10298842332E+02  0.51100000000E-03 0.  1.
         12    1    4    4    0    0  0.46177653578E+01 -0.33522906706E+01  0.12652932919E+01  0.58448761111E+01  0.00000000000E+00 0. -1.
</event>
<event>
 8    1  0.2493819E-006  0.9118800E+02  0.7816164E-02  0.1184000E+00
        -11   -1    0    0    0    0  0.00000000000E+00  0.00000000000E+00  0.45593999997E+02  0.45594000000E+02  0.51100000000E-03 0.  1.
         11   -1    0    0    0    0 -0.00000000000E+00 -0.00000000000E+00 -0.45593999997E+02  0.45594000000E+02  0.51100000000E-03 0. -1.
         23    2    1    2    0    0 -0.35527136788E-14 -0.35527136788E-14  0.00000000000E+00  0.91188000000E+02  0.91188000000E+02 0.  0.
    9900012    2    3    3    0    0  0.24657476871E+02 -0.18339037146E+02 -0.20284676149E+02  0.54367088339E+02  0.40000009487E+02 0.  0.
        -12    1    3    3    0    0 -0.24657476871E+02  0.18339037146E+02  0.20284676149E+02  0.36820911661E+02  0.00000000000E+00 0.  1.
         11    1    4    4    0    0  0.89472844801E+01 -0.64429063266E+01 -0.44449101548E+01  0.11887900069E+02  0.51100000000E-03 0. -1.
        -11    1    4    4    0    0  0.38539786744E+01  0.10944711631E+02 -0.11582133966E+02  0.16394684864E+02  0.51100000000E-03 0.  1.
        -12    1    4    4    0    0  0.11856213716E+02 -0.22840842450E+02 -0.42576320277E+01  0.26084503407E+02  0.00000000000E+00 0.  1.
</event>
<event>
 8    1  0.2493819E-006  0.9118800E+02  0.7816164E-02  0.1184000E+00
        -11   -1    0    0    0    0  0.00000000000E+00  0.00000000000E+00  0.45593999997E+02  0.45594000000E+02  0.51100000000E-03 0. -1.
         11   -1    0    0    0    0 -0.00000000000E+00 -0.00000000000E+00 -0.45593999997E+02  0.45594000000E+02  0.51100000000E-03 0.  1.
         23    2    1    2    0    0 -0.17763568394E-14  0.35527136788E-14  0.00000000000E+00  0.91188000000E+02  0.91188000000E+02 0.  0.
    9900012    2    3    3    0    0  0.25734656151E+01 -0.16947550313E+02 -0.32587371517E+02  0.54367096028E+02  0.40000027015E+02 0.  0.
         12    1    3    3    0    0 -0.25734656151E+01  0.16947550313E+02  0.32587371517E+02  0.36820903972E+02  0.00000000000E+00 0. -1.
         11    1    4    4    0    0 -0.17512687226E+01 -0.60159933097E+01 -0.39494556188E+00  0.62781446224E+01  0.51100000000E-03 0. -1.
        -11    1    4    4    0    0  0.14030630398E+02  0.66921341075E+01 -0.15412715768E+02  0.21890524340E+02  0.51100000000E-03 0.  1.
         12    1    4    4    0    0 -0.97058960607E+01 -0.17623691111E+02 -0.16779710188E+02  0.26198427066E+02  0.00000000000E+00 0. -1.
</event>
<event>
 8    1  0.2493819E-006  0.9118800E+02  0.7816164E-02  0.1184000E+00
        -11   -1    0    0    0    0  0.00000000000E+00  0.00000000000E+00  0.45593999997E+02  0.45594000000E+02  0.51100000000E-03 0. -1.
         11   -1    0    0    0    0 -0.00000000000E+00 -0.00000000000E+00 -0.45593999997E+02  0.45594000000E+02  0.51100000000E-03 0.  1.
         23    2    1    2    0    0 -0.71054273576E-14 -0.35527136788E-14 -0.17763568394E-14  0.91188000000E+02  0.91188000000E+02 0.  0.
    9900012    2    3    3    0    0  0.33069038454E+02  0.14334007472E+02  0.75335569333E+01  0.54367088081E+02  0.40000008898E+02 0.  0.
         12    1    3    3    0    0 -0.33069038454E+02 -0.14334007472E+02 -0.75335569333E+01  0.36820911919E+02  0.00000000000E+00 0. -1.
         11    1    4    4    0    0  0.96231398399E+01  0.43518405607E+01  0.18839506383E+02  0.21597924383E+02  0.51100000000E-03 0. -1.
        -11    1    4    4    0    0 -0.16626034529E+01 -0.18628298964E+01 -0.27589907320E+01  0.37210772076E+01  0.51100000000E-03 0.  1.
        -12    1    4    4    0    0  0.25108502067E+02  0.11844996808E+02 -0.85469587175E+01  0.29048086490E+02  0.00000000000E+00 0.  1.
</event>
<event>
 8    1  0.2493819E-006  0.9118800E+02  0.7816164E-02  0.1184000E+00
        -11   -1    0    0    0    0  0.00000000000E+00  0.00000000000E+00  0.45593999997E+02  0.45594000000E+02  0.51100000000E-03 0. -1.
         11   -1    0    0    0    0 -0.00000000000E+00 -0.00000000000E+00 -0.45593999997E+02  0.45594000000E+02  0.51100000000E-03 0.  1.
         23    2    1    2    0    0  0.11102230246E-14  0.00000000000E+00  0.00000000000E+00  0.91188000000E+02  0.91188000000E+02 0.  0.
    9900012    2    3    3    0    0  0.57901829674E+00  0.18486325386E+02 -0.31838668693E+02  0.54367077787E+02  0.39999985431E+02 0.  0.
         12    1    3    3    0    0 -0.57901829674E+00 -0.18486325386E+02  0.31838668693E+02  0.36820922213E+02  0.00000000000E+00 0. -1.
         11    1    4    4    0    0  0.87166204329E+01  0.13603172519E+02 -0.11761006406E+02  0.19983669490E+02  0.51100000000E-03 0. -1.
        -11    1    4    4    0    0 -0.11426439286E+01  0.15291068207E+02 -0.11942278048E+02  0.19435544945E+02  0.51100000000E-03 0.  1.
        -12    1    4    4    0    0 -0.69949582076E+01 -0.10407915341E+02 -0.81353842394E+01  0.14947863352E+02  0.00000000000E+00 0.  1.
</event>
<event>
 8    1  0.2493819E-006  0.9118800E+02  0.7816164E-02  0.1184000E+00
        -11   -1    0    0    0    0  0.00000000000E+00  0.00000000000E+00  0.45593999997E+02  0.45594000000E+02  0.51100000000E-03 0. -1.
         11   -1    0    0    0    0 -0.00000000000E+00 -0.00000000000E+00 -0.45593999997E+02  0.45594000000E+02  0.51100000000E-03 0.  1.
         23    2    1    2    0    0  0.00000000000E+00 -0.71054273576E-14 -0.88817841970E-15  0.91188000000E+02  0.91188000000E+02 0.  0.
    9900012    2    3    3    0    0 -0.94234124703E+01  0.34692610458E+02 -0.79626460489E+01  0.54367059558E+02  0.39999943873E+02 0.  0.
         12    1    3    3    0    0  0.94234124703E+01 -0.34692610458E+02  0.79626460489E+01  0.36820940442E+02  0.00000000000E+00 0. -1.
         11    1    4    4    0    0 -0.58497099623E+01 -0.12422097723E+01  0.61638983077E+01  0.85881217021E+01  0.51100000000E-03 0. -1.
        -11    1    4    4    0    0  0.25291003316E+01  0.88683346147E+01  0.64346029816E+01  0.11244902095E+02  0.51100000000E-03 0.  1.
        -12    1    4    4    0    0 -0.61028028396E+01  0.27066485615E+02 -0.20561147338E+02  0.34534035761E+02  0.00000000000E+00 0.  1.
</event>
<event>
 8    1  0.2493819E-006  0.9118800E+02  0.7816164E-02  0.1184000E+00
        -11   -1    0    0    0    0  0.00000000000E+00  0.00000000000E+00  0.45593999997E+02  0.45594000000E+02  0.51100000000E-03 0.  1.
         11   -1    0    0    0    0 -0.00000000000E+00 -0.00000000000E+00 -0.45593999997E+02  0.45594000000E+02  0.51100000000E-03 0. -1.
         23    2    1    2    0    0 -0.17763568394E-14  0.00000000000E+00  0.00000000000E+00  0.91188000000E+02  0.91188000000E+02 0.  0.
    9900012    2    3    3    0    0 -0.15097021279E+02 -0.29573487204E+02  0.15914401453E+02  0.54367090580E+02  0.40000014596E+02 0.  0.
         12    1    3    3    0    0  0.15097021279E+02  0.29573487204E+02 -0.15914401453E+02  0.36820909420E+02  0.00000000000E+00 0. -1.
         11    1    4    4    0    0 -0.28239443419E+01  0.35348627672E+01  0.11985884355E+01  0.46804413177E+01  0.51100000000E-03 0. -1.
        -11    1    4    4    0    0 -0.15368897215E+02 -0.74889823560E+01  0.16577441744E+02  0.23813849613E+02  0.51100000000E-03 0.  1.
        -12    1    4    4    0    0  0.30958202779E+01 -0.25619367615E+02 -0.18616287273E+01  0.25872799650E+02  0.00000000000E+00 0.  1.
</event>
<event>
 8    1  0.2493819E-006  0.9118800E+02  0.7816164E-02  0.1184000E+00
        -11   -1    0    0    0    0  0.00000000000E+00  0.00000000000E+00  0.45593999997E+02  0.45594000000E+02  0.51100000000E-03 0. -1.
         11   -1    0    0    0    0 -0.00000000000E+00 -0.00000000000E+00 -0.45593999997E+02  0.45594000000E+02  0.51100000000E-03 0.  1.
         23    2    1    2    0    0  0.00000000000E+00  0.17763568394E-14  0.00000000000E+00  0.91188000000E+02  0.91188000000E+02 0.  0.
    9900012    2    3    3    0    0  0.10906112089E+01  0.13919012242E+02 -0.34071269913E+02  0.54367085181E+02  0.40000002287E+02 0.  0.
         12    1    3    3    0    0 -0.10906112089E+01 -0.13919012242E+02  0.34071269913E+02  0.36820914819E+02  0.00000000000E+00 0. -1.
         11    1    4    4    0    0  0.69194467162E+01 -0.45404748708E+01 -0.97311376495E+01  0.12774572209E+02  0.51100000000E-03 0. -1.
        -11    1    4    4    0    0  0.10295226282E+02  0.10929826208E+02 -0.63961782563E+01  0.16320658126E+02  0.51100000000E-03 0.  1.
         12    1    4    4    0    0 -0.16124061789E+02  0.75296609047E+01 -0.17943954007E+02  0.25271854846E+02  0.00000000000E+00 0. -1.
</event>
<event>
 8    1  0.2493819E-006  0.9118800E+02  0.7816164E-02  0.1184000E+00
        -11   -1    0    0    0    0  0.00000000000E+00  0.00000000000E+00  0.45593999997E+02  0.45594000000E+02  0.51100000000E-03 0.  1.
         11   -1    0    0    0    0 -0.00000000000E+00 -0.00000000000E+00 -0.45593999997E+02  0.45594000000E+02  0.51100000000E-03 0. -1.
         23    2    1    2    0    0  0.00000000000E+00 -0.17763568394E-14  0.17763568394E-14  0.91188000000E+02  0.91188000000E+02 0.  0.
    9900012    2    3    3    0    0 -0.33397222462E+02 -0.84420851354E+01  0.13005217659E+02  0.54367096209E+02  0.40000027429E+02 0.  0.
         12    1    3    3    0    0  0.33397222462E+02  0.84420851354E+01 -0.13005217659E+02  0.36820903791E+02  0.00000000000E+00 0. -1.
         11    1    4    4    0    0 -0.10310318020E+01  0.29096670923E+01 -0.28436894582E+00  0.31000088909E+01  0.51100000000E-03 0. -1.
        -11    1    4    4    0    0 -0.24489720847E+02  0.92892114421E+01  0.12839000390E+02  0.29169775585E+02  0.51100000000E-03 0.  1.
        -12    1    4    4    0    0 -0.78764698129E+01 -0.20640963670E+02  0.45058621425E+00  0.22097311734E+02  0.00000000000E+00 0.  1.
</event>
<event>
 8    1  0.2493819E-006  0.9118800E+02  0.7816164E-02  0.1184000E+00
        -11   -1    0    0    0    0  0.00000000000E+00  0.00000000000E+00  0.45593999997E+02  0.45594000000E+02  0.51100000000E-03 0.  1.
         11   -1    0    0    0    0 -0.00000000000E+00 -0.00000000000E+00 -0.45593999997E+02  0.45594000000E+02  0.51100000000E-03 0. -1.
         23    2    1    2    0    0  0.00000000000E+00 -0.13322676296E-14  0.00000000000E+00  0.91188000000E+02  0.91188000000E+02 0.  0.
    9900012    2    3    3    0    0  0.20047347840E+02 -0.34800300400E+01 -0.30688316272E+02  0.54367088548E+02  0.40000009964E+02 0.  0.
        -12    1    3    3    0    0 -0.20047347840E+02  0.34800300400E+01  0.30688316272E+02  0.36820911452E+02  0.00000000000E+00 0.  1.
         11    1    4    4    0    0 -0.14551336409E+01  0.36398673340E+01 -0.11520616823E+02  0.12169250609E+02  0.51100000000E-03 0. -1.
        -11    1    4    4    0    0  0.12620962133E+02  0.11271532507E+02 -0.11106747046E+02  0.20240947617E+02  0.51100000000E-03 0.  1.
        -12    1    4    4    0    0  0.88815193481E+01 -0.18391429881E+02 -0.80609524024E+01  0.21956890323E+02  0.00000000000E+00 0.  1.
</event>
<event>
 8    1  0.2493819E-006  0.9118800E+02  0.7816164E-02  0.1184000E+00
        -11   -1    0    0    0    0  0.00000000000E+00  0.00000000000E+00  0.45593999997E+02  0.45594000000E+02  0.51100000000E-03 0.  1.
         11   -1    0    0    0    0 -0.00000000000E+00 -0.00000000000E+00 -0.45593999997E+02  0.45594000000E+02  0.51100000000E-03 0. -1.
         23    2    1    2    0    0  0.00000000000E+00  0.00000000000E+00 -0.88817841970E-15  0.91188000000E+02  0.91188000000E+02 0.  0.
    9900012    2    3    3    0    0 -0.14761139674E+02  0.33332495167E+02  0.51800974599E+01  0.54367083550E+02  0.39999998568E+02 0.  0.
         12    1    3    3    0    0  0.14761139674E+02 -0.33332495167E+02 -0.51800974599E+01  0.36820916450E+02  0.00000000000E+00 0. -1.
         11    1    4    4    0    0 -0.11040496912E+01 -0.46397416541E+01 -0.64212830629E+00  0.48123234887E+01  0.51100000000E-03 0. -1.
        -11    1    4    4    0    0 -0.16678992856E+02  0.40434590046E+02  0.88414463770E+01  0.44624164409E+02  0.51100000000E-03 0.  1.
        -12    1    4    4    0    0  0.30219028737E+01 -0.24623532249E+01 -0.30192206109E+01  0.49305956516E+01  0.00000000000E+00 0.  1.
</event>
<event>
 8    1  0.2493819E-006  0.9118800E+02  0.7816164E-02  0.1184000E+00
        -11   -1    0    0    0    0  0.00000000000E+00  0.00000000000E+00  0.45593999997E+02  0.45594000000E+02  0.51100000000E-03 0.  1.
         11   -1    0    0    0    0 -0.00000000000E+00 -0.00000000000E+00 -0.45593999997E+02  0.45594000000E+02  0.51100000000E-03 0. -1.
         23    2    1    2    0    0  0.35527136788E-14  0.35527136788E-14  0.00000000000E+00  0.91188000000E+02  0.91188000000E+02 0.  0.
    9900012    2    3    3    0    0  0.31539794876E+02  0.18464480703E+02 -0.44815465385E+01  0.54367082469E+02  0.39999996104E+02 0.  0.
        -12    1    3    3    0    0 -0.31539794876E+02 -0.18464480703E+02  0.44815465385E+01  0.36820917531E+02  0.00000000000E+00 0.  1.
         11    1    4    4    0    0  0.14863089659E+02  0.20062369268E+01 -0.61851899498E+01  0.16223223964E+02  0.51100000000E-03 0. -1.
        -11    1    4    4    0    0  0.18278960306E+02 -0.43713106069E+00  0.81122332164E+01  0.20002994812E+02  0.51100000000E-03 0.  1.
         12    1    4    4    0    0 -0.16022550882E+01  0.16895374836E+02 -0.64085898052E+01  0.18140863693E+02  0.00000000000E+00 0. -1.
</event>
<event>
 8    1  0.2493819E-006  0.9118800E+02  0.7816164E-02  0.1184000E+00
        -11   -1    0    0    0    0  0.00000000000E+00  0.00000000000E+00  0.45593999997E+02  0.45594000000E+02  0.51100000000E-03 0.  1.
         11   -1    0    0    0    0 -0.00000000000E+00 -0.00000000000E+00 -0.45593999997E+02  0.45594000000E+02  0.51100000000E-03 0. -1.
         23    2    1    2    0    0  0.00000000000E+00 -0.35527136788E-14  0.71054273576E-14  0.91188000000E+02  0.91188000000E+02 0.  0.
    9900012    2    3    3    0    0 -0.74099118637E+01 -0.26126067997E+02  0.24865671817E+02  0.54367083964E+02  0.39999999513E+02 0.  0.
         12    1    3    3    0    0  0.74099118637E+01  0.26126067997E+02 -0.24865671817E+02  0.36820916036E+02  0.00000000000E+00 0. -1.
         11    1    4    4    0    0 -0.10124219052E+02  0.13288352681E+01  0.14564237710E+02  0.17787148027E+02  0.51100000000E-03 0. -1.
        -11    1    4    4    0    0 -0.29042077747E+01 -0.10306903134E+01 -0.47446427985E+01  0.56575949720E+01  0.51100000000E-03 0.  1.
        -12    1    4    4    0    0  0.56185149632E+01 -0.26424212952E+02  0.15046076905E+02  0.30922340965E+02  0.00000000000E+00 0.  1.
</event>
<event>
 8    1  0.2493819E-006  0.9118800E+02  0.7816164E-02  0.1184000E+00
        -11   -1    0    0    0    0  0.00000000000E+00  0.00000000000E+00  0.45593999997E+02  0.45594000000E+02  0.51100000000E-03 0.  1.
         11   -1    0    0    0    0 -0.00000000000E+00 -0.00000000000E+00 -0.45593999997E+02  0.45594000000E+02  0.51100000000E-03 0. -1.
         23    2    1    2    0    0  0.35527136788E-14  0.00000000000E+00 -0.35527136788E-14  0.91188000000E+02  0.91188000000E+02 0.  0.
    9900012    2    3    3    0    0  0.25159008135E+02 -0.23334571129E+02 -0.13352978437E+02  0.54367082938E+02  0.39999997175E+02 0.  0.
        -12    1    3    3    0    0 -0.25159008135E+02  0.23334571129E+02  0.13352978437E+02  0.36820917062E+02  0.00000000000E+00 0.  1.
         11    1    4    4    0    0  0.31863290809E+01 -0.23970968202E+02 -0.12589824664E+02  0.27262862925E+02  0.51100000000E-03 0. -1.
        -11    1    4    4    0    0  0.23999754924E+01 -0.38535331425E+01  0.44504520053E+01  0.63573676437E+01  0.51100000000E-03 0.  1.
        -12    1    4    4    0    0  0.19572703562E+02  0.44899302148E+01 -0.52136057779E+01  0.20746852370E+02  0.00000000000E+00 0.  1.
</event>
<event>
 8    1  0.2493819E-006  0.9118800E+02  0.7816164E-02  0.1184000E+00
        -11   -1    0    0    0    0  0.00000000000E+00  0.00000000000E+00  0.45593999997E+02  0.45594000000E+02  0.51100000000E-03 0. -1.
         11   -1    0    0    0    0 -0.00000000000E+00 -0.00000000000E+00 -0.45593999997E+02  0.45594000000E+02  0.51100000000E-03 0.  1.
         23    2    1    2    0    0 -0.71054273576E-14 -0.88817841970E-15  0.44408920985E-15  0.91188000000E+02  0.91188000000E+02 0.  0.
    9900012    2    3    3    0    0  0.36029257032E+02  0.66394759221E+01 -0.36864675465E+01  0.54367081411E+02  0.39999993692E+02 0.  0.
         12    1    3    3    0    0 -0.36029257032E+02 -0.66394759221E+01  0.36864675465E+01  0.36820918589E+02  0.00000000000E+00 0. -1.
         11    1    4    4    0    0  0.20981941633E+02  0.15483127590E+02  0.75025481390E+00  0.26087008207E+02  0.51100000000E-03 0. -1.
        -11    1    4    4    0    0  0.13245725370E+02 -0.15539439452E+02 -0.57717957532E+01  0.21218789917E+02  0.51100000000E-03 0.  1.
         12    1    4    4    0    0  0.18015900291E+01  0.66957877847E+01  0.13350733928E+01  0.70612832866E+01  0.00000000000E+00 0. -1.
</event>
<event>
 8    1  0.2493819E-006  0.9118800E+02  0.7816164E-02  0.1184000E+00
        -11   -1    0    0    0    0  0.00000000000E+00  0.00000000000E+00  0.45593999997E+02  0.45594000000E+02  0.51100000000E-03 0. -1.
         11   -1    0    0    0    0 -0.00000000000E+00 -0.00000000000E+00 -0.45593999997E+02  0.45594000000E+02  0.51100000000E-03 0.  1.
         23    2    1    2    0    0  0.00000000000E+00  0.88817841970E-15 -0.17763568394E-14  0.91188000000E+02  0.91188000000E+02 0.  0.
    9900012    2    3    3    0    0 -0.33178708329E+02 -0.20616757792E+01 -0.15833571375E+02  0.54367093223E+02  0.40000020620E+02 0.  0.
         12    1    3    3    0    0  0.33178708329E+02  0.20616757792E+01  0.15833571375E+02  0.36820906777E+02  0.00000000000E+00 0. -1.
         11    1    4    4    0    0 -0.31575565596E+00 -0.41023062578E+01 -0.20858338681E+01  0.46129514905E+01  0.51100000000E-03 0. -1.
        -11    1    4    4    0    0 -0.27076932112E+02 -0.13996164460E+02 -0.11409851694E+02  0.32545930439E+02  0.51100000000E-03 0.  1.
        -12    1    4    4    0    0 -0.57860205609E+01  0.16036794939E+02 -0.23378858127E+01  0.17208211293E+02  0.00000000000E+00 0.  1.
</event>
<event>
 8    1  0.2493819E-006  0.9118800E+02  0.7816164E-02  0.1184000E+00
        -11   -1    0    0    0    0  0.00000000000E+00  0.00000000000E+00  0.45593999997E+02  0.45594000000E+02  0.51100000000E-03 0.  1.
         11   -1    0    0    0    0 -0.00000000000E+00 -0.00000000000E+00 -0.45593999997E+02  0.45594000000E+02  0.51100000000E-03 0. -1.
         23    2    1    2    0    0  0.00000000000E+00 -0.35527136788E-14  0.00000000000E+00  0.91188000000E+02  0.91188000000E+02 0.  0.
    9900012    2    3    3    0    0  0.16167632725E+02  0.30238330483E+02  0.13417527294E+02  0.54367095380E+02  0.40000025538E+02 0.  0.
        -12    1    3    3    0    0 -0.16167632725E+02 -0.30238330483E+02 -0.13417527294E+02  0.36820904620E+02  0.00000000000E+00 0.  1.
         11    1    4    4    0    0  0.24966085920E+02  0.29324698210E+02  0.36333808010E+01  0.38683909156E+02  0.51100000000E-03 0. -1.
        -11    1    4    4    0    0 -0.71856564157E+00 -0.28368421665E+00 -0.15386326628E+01  0.17216863966E+01  0.51100000000E-03 0.  1.
         12    1    4    4    0    0 -0.80798875525E+01  0.11973164894E+01  0.11322779156E+02  0.13961499828E+02  0.00000000000E+00 0. -1.
</event>
<event>
 8    1  0.2493819E-006  0.9118800E+02  0.7816164E-02  0.1184000E+00
        -11   -1    0    0    0    0  0.00000000000E+00  0.00000000000E+00  0.45593999997E+02  0.45594000000E+02  0.51100000000E-03 0.  1.
         11   -1    0    0    0    0 -0.00000000000E+00 -0.00000000000E+00 -0.45593999997E+02  0.45594000000E+02  0.51100000000E-03 0. -1.
         23    2    1    2    0    0  0.35527136788E-14  0.88817841970E-15  0.71054273576E-14  0.91188000000E+02  0.91188000000E+02 0.  0.
    9900012    2    3    3    0    0  0.14859661032E+02  0.64290232908E+01  0.33070184879E+02  0.54367095687E+02  0.40000026238E+02 0.  0.
         12    1    3    3    0    0 -0.14859661032E+02 -0.64290232908E+01 -0.33070184879E+02  0.36820904313E+02  0.00000000000E+00 0. -1.
         11    1    4    4    0    0  0.12620098425E+02  0.35740896872E+01  0.67741500842E+01  0.14762456129E+02  0.51100000000E-03 0. -1.
        -11    1    4    4    0    0  0.11725412105E+02 -0.87381579440E+01  0.13560950872E+02  0.19943422026E+02  0.51100000000E-03 0.  1.
        -12    1    4    4    0    0 -0.94858494973E+01  0.11593091548E+02  0.12735083923E+02  0.19661217532E+02  0.00000000000E+00 0.  1.
</event>
<event>
 8    1  0.2493819E-006  0.9118800E+02  0.7816164E-02  0.1184000E+00
        -11   -1    0    0    0    0  0.00000000000E+00  0.00000000000E+00  0.45593999997E+02  0.45594000000E+02  0.51100000000E-03 0.  1.
         11   -1    0    0    0    0 -0.00000000000E+00 -0.00000000000E+00 -0.45593999997E+02  0.45594000000E+02  0.51100000000E-03 0. -1.
         23    2    1    2    0    0  0.17763568394E-14  0.00000000000E+00  0.35527136788E-14  0.91188000000E+02  0.91188000000E+02 0.  0.
    9900012    2    3    3    0    0  0.35895513619E+01  0.22441916786E+02 -0.28969877338E+02  0.54367105103E+02  0.40000047704E+02 0.  0.
        -12    1    3    3    0    0 -0.35895513619E+01 -0.22441916786E+02  0.28969877338E+02  0.36820894897E+02  0.00000000000E+00 0.  1.
         11    1    4    4    0    0 -0.99191881517E+01  0.24343822367E+01 -0.19602272508E+02  0.22103520041E+02  0.51100000000E-03 0. -1.
        -11    1    4    4    0    0  0.14803393734E+02  0.47295959540E+01 -0.48026963931E+01  0.16265775015E+02  0.51100000000E-03 0.  1.
        -12    1    4    4    0    0 -0.12946542205E+01  0.15277938596E+02 -0.45649084370E+01  0.15997810048E+02  0.00000000000E+00 0.  1.
</event>
<event>
 8    1  0.2493819E-006  0.9118800E+02  0.7816164E-02  0.1184000E+00
        -11   -1    0    0    0    0  0.00000000000E+00  0.00000000000E+00  0.45593999997E+02  0.45594000000E+02  0.51100000000E-03 0.  1.
         11   -1    0    0    0    0 -0.00000000000E+00 -0.00000000000E+00 -0.45593999997E+02  0.45594000000E+02  0.51100000000E-03 0. -1.
         23    2    1    2    0    0  0.17763568394E-14  0.00000000000E+00 -0.13322676296E-14  0.91188000000E+02  0.91188000000E+02 0.  0.
    9900012    2    3    3    0    0  0.11940077828E+02 -0.34762485321E+02 -0.21863019683E+01  0.54367139601E+02  0.40000126348E+02 0.  0.
         12    1    3    3    0    0 -0.11940077828E+02  0.34762485321E+02  0.21863019683E+01  0.36820860399E+02  0.00000000000E+00 0. -1.
         11    1    4    4    0    0  0.16143961171E+01 -0.15707590482E+02 -0.14230655550E+02  0.21256674980E+02  0.51100000000E-03 0.  1.
        -11    1    4    4    0    0  0.23613447361E+01  0.11884483984E+01 -0.48790350564E+01  0.55491748847E+01  0.51100000000E-03 0. -1.
        -12    1    4    4    0    0  0.79643369752E+01 -0.20243343238E+02  0.16923388639E+02  0.27561289736E+02  0.00000000000E+00 0.  1.
</event>
<event>
 8    1  0.2493819E-006  0.9118800E+02  0.7816164E-02  0.1184000E+00
        -11   -1    0    0    0    0  0.00000000000E+00  0.00000000000E+00  0.45593999997E+02  0.45594000000E+02  0.51100000000E-03 0.  1.
         11   -1    0    0    0    0 -0.00000000000E+00 -0.00000000000E+00 -0.45593999997E+02  0.45594000000E+02  0.51100000000E-03 0. -1.
         23    2    1    2    0    0  0.00000000000E+00  0.17763568394E-14 -0.35527136788E-14  0.91188000000E+02  0.91188000000E+02 0.  0.
    9900012    2    3    3    0    0  0.24901238591E+02 -0.14292671519E+02  0.23052726182E+02  0.54367077592E+02  0.39999984987E+02 0.  0.
         12    1    3    3    0    0 -0.24901238591E+02  0.14292671519E+02 -0.23052726182E+02  0.36820922408E+02  0.00000000000E+00 0. -1.
         11    1    4    4    0    0  0.17189250043E+02 -0.14715589350E+02  0.34462085939E+01  0.22888757959E+02  0.51100000000E-03 0. -1.
        -11    1    4    4    0    0  0.80909755498E+01 -0.72864275290E+01  0.20981162124E+02  0.23638212196E+02  0.51100000000E-03 0.  1.
         12    1    4    4    0    0 -0.37898700235E+00  0.77093453599E+01 -0.13746445360E+01  0.78401074372E+01  0.00000000000E+00 0. -1.
</event>
<event>
 8    1  0.2493819E-006  0.9118800E+02  0.7816164E-02  0.1184000E+00
        -11   -1    0    0    0    0  0.00000000000E+00  0.00000000000E+00  0.45593999997E+02  0.45594000000E+02  0.51100000000E-03 0. -1.
         11   -1    0    0    0    0 -0.00000000000E+00 -0.00000000000E+00 -0.45593999997E+02  0.45594000000E+02  0.51100000000E-03 0.  1.
         23    2    1    2    0    0  0.35527136788E-14 -0.17763568394E-14 -0.35527136788E-14  0.91188000000E+02  0.91188000000E+02 0.  0.
    9900012    2    3    3    0    0  0.31547986532E+02  0.59767525652E+01 -0.18021707972E+02  0.54367095833E+02  0.40000026570E+02 0.  0.
         12    1    3    3    0    0 -0.31547986532E+02 -0.59767525652E+01  0.18021707972E+02  0.36820904167E+02  0.00000000000E+00 0. -1.
         11    1    4    4    0    0  0.95134265280E+01  0.74695115790E+00  0.41082727605E+01  0.10389471867E+02  0.51100000000E-03 0. -1.
        -11    1    4    4    0    0  0.80593002617E+01 -0.12732139674E+02 -0.67599862804E+01  0.16515360007E+02  0.51100000000E-03 0.  1.
         12    1    4    4    0    0  0.13975259743E+02  0.17961941081E+02 -0.15369994452E+02  0.27462263959E+02  0.00000000000E+00 0. -1.
</event>
<event>
 8    1  0.2493819E-006  0.9118800E+02  0.7816164E-02  0.1184000E+00
        -11   -1    0    0    0    0  0.00000000000E+00  0.00000000000E+00  0.45593999997E+02  0.45594000000E+02  0.51100000000E-03 0. -1.
         11   -1    0    0    0    0 -0.00000000000E+00 -0.00000000000E+00 -0.45593999997E+02  0.45594000000E+02  0.51100000000E-03 0.  1.
         23    2    1    2    0    0  0.00000000000E+00  0.17763568394E-14  0.00000000000E+00  0.91188000000E+02  0.91188000000E+02 0.  0.
    9900012    2    3    3    0    0 -0.51198872699E+01 -0.10866176187E+02  0.34806435109E+02  0.54367150531E+02  0.40000151265E+02 0.  0.
        -12    1    3    3    0    0  0.51198872699E+01  0.10866176187E+02 -0.34806435109E+02  0.36820849469E+02  0.00000000000E+00 0.  1.
         11    1    4    4    0    0 -0.13604964536E+02 -0.66821720828E+01  0.23419182569E+02  0.27896318686E+02  0.51100000000E-03 0. -1.
        -11    1    4    4    0    0 -0.96478002559E-01 -0.29142484727E+01 -0.62050071687E+01  0.68559657518E+01  0.51100000000E-03 0.  1.
        -12    1    4    4    0    0  0.85815552683E+01 -0.12697556318E+01  0.17592259709E+02  0.19614866093E+02  0.00000000000E+00 0.  1.
</event>
<event>
 8    1  0.2493819E-006  0.9118800E+02  0.7816164E-02  0.1184000E+00
        -11   -1    0    0    0    0  0.00000000000E+00  0.00000000000E+00  0.45593999997E+02  0.45594000000E+02  0.51100000000E-03 0.  1.
         11   -1    0    0    0    0 -0.00000000000E+00 -0.00000000000E+00 -0.45593999997E+02  0.45594000000E+02  0.51100000000E-03 0. -1.
         23    2    1    2    0    0 -0.17763568394E-14  0.00000000000E+00  0.00000000000E+00  0.91188000000E+02  0.91188000000E+02 0.  0.
    9900012    2    3    3    0    0 -0.11419320154E+02 -0.18896624216E+02 -0.29466859507E+02  0.54367094406E+02  0.40000023317E+02 0.  0.
        -12    1    3    3    0    0  0.11419320154E+02  0.18896624216E+02  0.29466859507E+02  0.36820905594E+02  0.00000000000E+00 0.  1.
         11    1    4    4    0    0 -0.20186721781E+02 -0.12436392725E+02 -0.29291180785E+02  0.37684756498E+02  0.51100000000E-03 0. -1.
        -11    1    4    4    0    0  0.73319754959E+01 -0.46575681097E+01  0.56874861251E+01  0.10382596210E+02  0.51100000000E-03 0.  1.
         12    1    4    4    0    0  0.14354261305E+01 -0.18026633808E+01 -0.58631648473E+01  0.62997416984E+01  0.00000000000E+00 0. -1.
</event>
<event>
 8    1  0.2493819E-006  0.9118800E+02  0.7816164E-02  0.1184000E+00
        -11   -1    0    0    0    0  0.00000000000E+00  0.00000000000E+00  0.45593999997E+02  0.45594000000E+02  0.51100000000E-03 0.  1.
         11   -1    0    0    0    0 -0.00000000000E+00 -0.00000000000E+00 -0.45593999997E+02  0.45594000000E+02  0.51100000000E-03 0. -1.
         23    2    1    2    0    0  0.00000000000E+00  0.00000000000E+00  0.00000000000E+00  0.91188000000E+02  0.91188000000E+02 0.  0.
    9900012    2    3    3    0    0 -0.18474775478E+02 -0.31255385538E+02 -0.61288836877E+01  0.54367086522E+02  0.40000005345E+02 0.  0.
        -12    1    3    3    0    0  0.18474775478E+02  0.31255385538E+02  0.61288836877E+01  0.36820913478E+02  0.00000000000E+00 0.  1.
         11    1    4    4    0    0 -0.27731066029E+02 -0.17804983681E+02  0.26107376444E+01  0.33058212570E+02  0.51100000000E-03 0. -1.
        -11    1    4    4    0    0  0.12336411593E+01 -0.86309212284E+01 -0.32717674557E+00  0.87247760226E+01  0.51100000000E-03 0.  1.
        -12    1    4    4    0    0  0.80226493917E+01 -0.48194806287E+01 -0.84124445865E+01  0.12584097930E+02  0.00000000000E+00 0.  1.
</event>
<event>
 8    1  0.2493819E-006  0.9118800E+02  0.7816164E-02  0.1184000E+00
        -11   -1    0    0    0    0  0.00000000000E+00  0.00000000000E+00  0.45593999997E+02  0.45594000000E+02  0.51100000000E-03 0.  1.
         11   -1    0    0    0    0 -0.00000000000E+00 -0.00000000000E+00 -0.45593999997E+02  0.45594000000E+02  0.51100000000E-03 0. -1.
         23    2    1    2    0    0  0.00000000000E+00  0.00000000000E+00  0.00000000000E+00  0.91188000000E+02  0.91188000000E+02 0.  0.
    9900012    2    3    3    0    0  0.28363349247E+02  0.16940872157E+02 -0.16257519716E+02  0.54367086414E+02  0.40000005099E+02 0.  0.
        -12    1    3    3    0    0 -0.28363349247E+02 -0.16940872157E+02  0.16257519716E+02  0.36820913586E+02  0.00000000000E+00 0.  1.
         11    1    4    4    0    0  0.23114808911E+02  0.15633222601E+02 -0.40136432439E+01  0.28192221839E+02  0.51100000000E-03 0. -1.
        -11    1    4    4    0    0 -0.26995503757E+01  0.16303286964E+01 -0.16742056277E+02  0.17036490029E+02  0.51100000000E-03 0.  1.
         12    1    4    4    0    0  0.79480907119E+01 -0.32267913995E+00  0.44981798044E+01  0.91383745461E+01  0.00000000000E+00 0. -1.
</event>
<event>
 8    1  0.2493819E-006  0.9118800E+02  0.7816164E-02  0.1184000E+00
        -11   -1    0    0    0    0  0.00000000000E+00  0.00000000000E+00  0.45593999997E+02  0.45594000000E+02  0.51100000000E-03 0. -1.
         11   -1    0    0    0    0 -0.00000000000E+00 -0.00000000000E+00 -0.45593999997E+02  0.45594000000E+02  0.51100000000E-03 0.  1.
         23    2    1    2    0    0  0.00000000000E+00  0.00000000000E+00  0.00000000000E+00  0.91188000000E+02  0.91188000000E+02 0.  0.
    9900012    2    3    3    0    0 -0.19542951447E+02  0.24946763454E+02 -0.18748638093E+02  0.54367090337E+02  0.40000014041E+02 0.  0.
         12    1    3    3    0    0  0.19542951447E+02 -0.24946763454E+02  0.18748638093E+02  0.36820909663E+02  0.00000000000E+00 0. -1.
         11    1    4    4    0    0 -0.19727571270E+02  0.95628011594E+01  0.73102380351E+01  0.23109820740E+02  0.51100000000E-03 0. -1.
        -11    1    4    4    0    0  0.32330328725E+01  0.33408657400E+01 -0.51649760624E+01  0.69491627866E+01  0.51100000000E-03 0.  1.
        -12    1    4    4    0    0 -0.30484130490E+01  0.12043096554E+02 -0.20893900066E+02  0.24308106810E+02  0.00000000000E+00 0.  1.
</event>
<event>
 8    1  0.2493819E-006  0.9118800E+02  0.7816164E-02  0.1184000E+00
        -11   -1    0    0    0    0  0.00000000000E+00  0.00000000000E+00  0.45593999997E+02  0.45594000000E+02  0.51100000000E-03 0. -1.
         11   -1    0    0    0    0 -0.00000000000E+00 -0.00000000000E+00 -0.45593999997E+02  0.45594000000E+02  0.51100000000E-03 0.  1.
         23    2    1    2    0    0  0.35527136788E-14  0.00000000000E+00  0.00000000000E+00  0.91188000000E+02  0.91188000000E+02 0.  0.
    9900012    2    3    3    0    0  0.29594301744E+02 -0.74237362560E+01  0.20611832178E+02  0.54367052410E+02  0.39999927578E+02 0.  0.
        -12    1    3    3    0    0 -0.29594301744E+02  0.74237362560E+01 -0.20611832178E+02  0.36820947590E+02  0.00000000000E+00 0.  1.
         11    1    4    4    0    0  0.89648403640E+01 -0.97963777588E+01  0.74484618851E+01  0.15225536597E+02  0.51100000000E-03 0.  1.
        -11    1    4    4    0    0  0.97262685779E+01  0.17239088470E+01  0.22627233665E+02  0.24689347212E+02  0.51100000000E-03 0. -1.
         12    1    4    4    0    0  0.10903192803E+02  0.64873265586E+00 -0.94638633722E+01  0.14452168601E+02  0.00000000000E+00 0. -1.
</event>
<event>
 8    1  0.2493819E-006  0.9118800E+02  0.7816164E-02  0.1184000E+00
        -11   -1    0    0    0    0  0.00000000000E+00  0.00000000000E+00  0.45593999997E+02  0.45594000000E+02  0.51100000000E-03 0.  1.
         11   -1    0    0    0    0 -0.00000000000E+00 -0.00000000000E+00 -0.45593999997E+02  0.45594000000E+02  0.51100000000E-03 0. -1.
         23    2    1    2    0    0  0.71054273576E-14  0.00000000000E+00  0.00000000000E+00  0.91188000000E+02  0.91188000000E+02 0.  0.
    9900012    2    3    3    0    0  0.33682525888E+02 -0.84058001781E+01  0.12272318784E+02  0.54367084270E+02  0.40000000211E+02 0.  0.
         12    1    3    3    0    0 -0.33682525888E+02  0.84058001781E+01 -0.12272318784E+02  0.36820915730E+02  0.00000000000E+00 0. -1.
         11    1    4    4    0    0  0.78835774629E+01 -0.45718213031E+01  0.83786937868E+01  0.12379614432E+02  0.51100000000E-03 0.  1.
        -11    1    4    4    0    0  0.30273512124E+02 -0.85743953404E+01 -0.40362423842E+01  0.31722185369E+02  0.51100000000E-03 0. -1.
         12    1    4    4    0    0 -0.44745636986E+01  0.47404164654E+01  0.79298673815E+01  0.10265284470E+02  0.00000000000E+00 0. -1.
</event>
<event>
 8    1  0.2493819E-006  0.9118800E+02  0.7816164E-02  0.1184000E+00
        -11   -1    0    0    0    0  0.00000000000E+00  0.00000000000E+00  0.45593999997E+02  0.45594000000E+02  0.51100000000E-03 0.  1.
         11   -1    0    0    0    0 -0.00000000000E+00 -0.00000000000E+00 -0.45593999997E+02  0.45594000000E+02  0.51100000000E-03 0. -1.
         23    2    1    2    0    0  0.00000000000E+00  0.00000000000E+00  0.17763568394E-14  0.91188000000E+02  0.91188000000E+02 0.  0.
    9900012    2    3    3    0    0  0.29595346229E+02  0.16067465917E+02 -0.14890713737E+02  0.54367063904E+02  0.39999953781E+02 0.  0.
         12    1    3    3    0    0 -0.29595346229E+02 -0.16067465917E+02  0.14890713737E+02  0.36820936096E+02  0.00000000000E+00 0. -1.
         11    1    4    4    0    0  0.11028277833E+01  0.12556274010E+02 -0.78514086353E+01  0.14849944914E+02  0.51100000000E-03 0. -1.
        -11    1    4    4    0    0  0.30521062538E+02  0.44247063374E+01  0.13184842478E+01  0.30868295800E+02  0.51100000000E-03 0.  1.
        -12    1    4    4    0    0 -0.20285440925E+01 -0.91351443013E+00 -0.83577893497E+01  0.86488231895E+01  0.00000000000E+00 0.  1.
</event>
<event>
 8    1  0.2493819E-006  0.9118800E+02  0.7816164E-02  0.1184000E+00
        -11   -1    0    0    0    0  0.00000000000E+00  0.00000000000E+00  0.45593999997E+02  0.45594000000E+02  0.51100000000E-03 0.  1.
         11   -1    0    0    0    0 -0.00000000000E+00 -0.00000000000E+00 -0.45593999997E+02  0.45594000000E+02  0.51100000000E-03 0. -1.
         23    2    1    2    0    0  0.00000000000E+00 -0.13322676296E-14  0.00000000000E+00  0.91188000000E+02  0.91188000000E+02 0.  0.
    9900012    2    3    3    0    0  0.69522401202E+01  0.35894255257E+01 -0.35980019046E+02  0.54367090331E+02  0.40000014028E+02 0.  0.
        -12    1    3    3    0    0 -0.69522401202E+01 -0.35894255257E+01  0.35980019046E+02  0.36820909669E+02  0.00000000000E+00 0.  1.
         11    1    4    4    0    0 -0.55409822095E+01 -0.15015001716E+02 -0.17805524451E+02  0.23941375516E+02  0.51100000000E-03 0. -1.
        -11    1    4    4    0    0 -0.33884404444E+00  0.10880174561E+00 -0.35798322232E+01  0.35974785773E+01  0.51100000000E-03 0.  1.
        -12    1    4    4    0    0  0.12832066374E+02  0.18495625496E+02 -0.14594662372E+02  0.26828236238E+02  0.00000000000E+00 0.  1.
</event>
<event>
 8    1  0.2493819E-006  0.9118800E+02  0.7816164E-02  0.1184000E+00
        -11   -1    0    0    0    0  0.00000000000E+00  0.00000000000E+00  0.45593999997E+02  0.45594000000E+02  0.51100000000E-03 0.  1.
         11   -1    0    0    0    0 -0.00000000000E+00 -0.00000000000E+00 -0.45593999997E+02  0.45594000000E+02  0.51100000000E-03 0. -1.
         23    2    1    2    0    0 -0.66613381478E-15  0.88817841970E-15  0.00000000000E+00  0.91188000000E+02  0.91188000000E+02 0.  0.
    9900012    2    3    3    0    0 -0.56426444971E+00 -0.53904162649E+01 -0.36419833875E+02  0.54367091791E+02  0.40000017356E+02 0.  0.
        -12    1    3    3    0    0  0.56426444971E+00  0.53904162649E+01  0.36419833875E+02  0.36820908209E+02  0.00000000000E+00 0.  1.
         11    1    4    4    0    0  0.13539655416E+02  0.99953637672E+00 -0.29693253664E+02  0.32649818609E+02  0.51100000000E-03 0. -1.
        -11    1    4    4    0    0 -0.29372219195E+01  0.33575568544E+01 -0.51463639844E+01  0.68106918265E+01  0.51100000000E-03 0.  1.
        -12    1    4    4    0    0 -0.11166697946E+02 -0.97475094960E+01 -0.15802162260E+01  0.14906581356E+02  0.00000000000E+00 0.  1.
</event>
<event>
 8    1  0.2493819E-006  0.9118800E+02  0.7816164E-02  0.1184000E+00
        -11   -1    0    0    0    0  0.00000000000E+00  0.00000000000E+00  0.45593999997E+02  0.45594000000E+02  0.51100000000E-03 0. -1.
         11   -1    0    0    0    0 -0.00000000000E+00 -0.00000000000E+00 -0.45593999997E+02  0.45594000000E+02  0.51100000000E-03 0.  1.
         23    2    1    2    0    0  0.00000000000E+00  0.00000000000E+00  0.88817841970E-15  0.91188000000E+02  0.91188000000E+02 0.  0.
    9900012    2    3    3    0    0 -0.36185407420E+02  0.15811202252E+01 -0.66254157790E+01  0.54367084944E+02  0.40000001748E+02 0.  0.
         12    1    3    3    0    0  0.36185407420E+02 -0.15811202252E+01  0.66254157790E+01  0.36820915056E+02  0.00000000000E+00 0. -1.
         11    1    4    4    0    0 -0.12299373882E+02 -0.84886102258E+01 -0.11898964881E+02  0.19102786889E+02  0.51100000000E-03 0.  1.
        -11    1    4    4    0    0  0.46643599760E+01  0.24645092247E+01  0.14564525479E+01  0.54727793661E+01  0.51100000000E-03 0. -1.
        -12    1    4    4    0    0 -0.28550393514E+02  0.76052212262E+01  0.38170965539E+01  0.29791518689E+02  0.00000000000E+00 0.  1.
</event>
<event>
 8    1  0.2493819E-006  0.9118800E+02  0.7816164E-02  0.1184000E+00
        -11   -1    0    0    0    0  0.00000000000E+00  0.00000000000E+00  0.45593999997E+02  0.45594000000E+02  0.51100000000E-03 0. -1.
         11   -1    0    0    0    0 -0.00000000000E+00 -0.00000000000E+00 -0.45593999997E+02  0.45594000000E+02  0.51100000000E-03 0.  1.
         23    2    1    2    0    0  0.17763568394E-14  0.00000000000E+00  0.00000000000E+00  0.91188000000E+02  0.91188000000E+02 0.  0.
    9900012    2    3    3    0    0  0.12433570961E+02 -0.18951198992E+02 -0.29017880292E+02  0.54367095520E+02  0.40000025858E+02 0.  0.
         12    1    3    3    0    0 -0.12433570961E+02  0.18951198992E+02  0.29017880292E+02  0.36820904480E+02  0.00000000000E+00 0. -1.
         11    1    4    4    0    0 -0.80159676381E+00 -0.22837708345E+00  0.19752989145E+01  0.21439495159E+01  0.51100000000E-03 0. -1.
        -11    1    4    4    0    0  0.48656725173E+00  0.10083167893E+02 -0.44579957019E+01  0.11035431500E+02  0.51100000000E-03 0.  1.
        -12    1    4    4    0    0  0.12748600473E+02 -0.28805989802E+02 -0.26535183504E+02  0.41187714504E+02  0.00000000000E+00 0.  1.
</event>
<event>
 8    1  0.2493819E-006  0.9118800E+02  0.7816164E-02  0.1184000E+00
        -11   -1    0    0    0    0  0.00000000000E+00  0.00000000000E+00  0.45593999997E+02  0.45594000000E+02  0.51100000000E-03 0. -1.
         11   -1    0    0    0    0 -0.00000000000E+00 -0.00000000000E+00 -0.45593999997E+02  0.45594000000E+02  0.51100000000E-03 0.  1.
         23    2    1    2    0    0 -0.35527136788E-14 -0.17763568394E-14  0.00000000000E+00  0.91188000000E+02  0.91188000000E+02 0.  0.
    9900012    2    3    3    0    0 -0.20947595018E+02 -0.10189849353E+02 -0.28515708608E+02  0.54367076542E+02  0.39999982593E+02 0.  0.
         12    1    3    3    0    0  0.20947595018E+02  0.10189849353E+02  0.28515708608E+02  0.36820923458E+02  0.00000000000E+00 0. -1.
         11    1    4    4    0    0 -0.23395732814E+02 -0.30942567916E+01 -0.15578185778E+02  0.28277457654E+02  0.51100000000E-03 0. -1.
        -11    1    4    4    0    0 -0.91975377119E+01 -0.39084226470E+00 -0.48405452847E+01  0.10400881528E+02  0.51100000000E-03 0.  1.
        -12    1    4    4    0    0  0.11645675508E+02 -0.67047502968E+01 -0.80969775455E+01  0.15688737360E+02  0.00000000000E+00 0.  1.
</event>
<event>
 8    1  0.2493819E-006  0.9118800E+02  0.7816164E-02  0.1184000E+00
        -11   -1    0    0    0    0  0.00000000000E+00  0.00000000000E+00  0.45593999997E+02  0.45594000000E+02  0.51100000000E-03 0. -1.
         11   -1    0    0    0    0 -0.00000000000E+00 -0.00000000000E+00 -0.45593999997E+02  0.45594000000E+02  0.51100000000E-03 0.  1.
         23    2    1    2    0    0  0.71054273576E-14  0.35527136788E-14 -0.35527136788E-14  0.91188000000E+02  0.91188000000E+02 0.  0.
    9900012    2    3    3    0    0 -0.26424275077E+02 -0.21512381510E+02  0.13955482810E+02  0.54367076980E+02  0.39999983591E+02 0.  0.
        -12    1    3    3    0    0  0.26424275077E+02  0.21512381510E+02 -0.13955482810E+02  0.36820923020E+02  0.00000000000E+00 0.  1.
         11    1    4    4    0    0  0.93610068828E+00 -0.96629339091E+00 -0.33652499091E+01  0.36242122768E+01  0.51100000000E-03 0. -1.
        -11    1    4    4    0    0  0.22068828220E+00 -0.22982980343E+01 -0.84858616448E+01  0.87943575825E+01  0.51100000000E-03 0.  1.
         12    1    4    4    0    0 -0.27581064048E+02 -0.18247790085E+02  0.25806594364E+02  0.41948507121E+02  0.00000000000E+00 0. -1.
</event>
<event>
 8    1  0.2493819E-006  0.9118800E+02  0.7816164E-02  0.1184000E+00
        -11   -1    0    0    0    0  0.00000000000E+00  0.00000000000E+00  0.45593999997E+02  0.45594000000E+02  0.51100000000E-03 0.  1.
         11   -1    0    0    0    0 -0.00000000000E+00 -0.00000000000E+00 -0.45593999997E+02  0.45594000000E+02  0.51100000000E-03 0. -1.
         23    2    1    2    0    0  0.00000000000E+00  0.11102230246E-14  0.00000000000E+00  0.91188000000E+02  0.91188000000E+02 0.  0.
    9900012    2    3    3    0    0 -0.13712262977E+02  0.18780789958E+01 -0.34120762986E+02  0.54367084702E+02  0.40000001194E+02 0.  0.
        -12    1    3    3    0    0  0.13712262977E+02 -0.18780789958E+01  0.34120762986E+02  0.36820915298E+02  0.00000000000E+00 0.  1.
         11    1    4    4    0    0 -0.11931227923E+02  0.10291991176E+02 -0.29727689234E+02  0.33645427469E+02  0.51100000000E-03 0. -1.
        -11    1    4    4    0    0  0.30909363123E+01  0.46774663188E+01  0.10972891663E+01  0.57128471208E+01  0.51100000000E-03 0.  1.
         12    1    4    4    0    0 -0.48719713659E+01 -0.13091378499E+02 -0.54903629188E+01  0.15008810112E+02  0.00000000000E+00 0. -1.
</event>
<event>
 8    1  0.2493819E-006  0.9118800E+02  0.7816164E-02  0.1184000E+00
        -11   -1    0    0    0    0  0.00000000000E+00  0.00000000000E+00  0.45593999997E+02  0.45594000000E+02  0.51100000000E-03 0.  1.
         11   -1    0    0    0    0 -0.00000000000E+00 -0.00000000000E+00 -0.45593999997E+02  0.45594000000E+02  0.51100000000E-03 0. -1.
         23    2    1    2    0    0  0.35527136788E-14  0.00000000000E+00  0.17763568394E-14  0.91188000000E+02  0.91188000000E+02 0.  0.
    9900012    2    3    3    0    0  0.31302200384E+02 -0.18207716460E+02  0.66651932632E+01  0.54367170449E+02  0.40000196671E+02 0.  0.
        -12    1    3    3    0    0 -0.31302200384E+02  0.18207716460E+02 -0.66651932632E+01  0.36820829551E+02  0.00000000000E+00 0.  1.
         11    1    4    4    0    0  0.90502341496E+01 -0.16600213191E+02 -0.10786972506E+01  0.18937724367E+02  0.51100000000E-03 0. -1.
        -11    1    4    4    0    0  0.13857951164E+02 -0.91681540656E+01  0.14680818768E+02  0.22172602450E+02  0.51100000000E-03 0.  1.
        -12    1    4    4    0    0  0.83940150710E+01  0.75606507966E+01 -0.69369282546E+01  0.13256843632E+02  0.00000000000E+00 0.  1.
</event>
<event>
 8    1  0.2493819E-006  0.9118800E+02  0.7816164E-02  0.1184000E+00
        -11   -1    0    0    0    0  0.00000000000E+00  0.00000000000E+00  0.45593999997E+02  0.45594000000E+02  0.51100000000E-03 0.  1.
         11   -1    0    0    0    0 -0.00000000000E+00 -0.00000000000E+00 -0.45593999997E+02  0.45594000000E+02  0.51100000000E-03 0. -1.
         23    2    1    2    0    0  0.00000000000E+00  0.00000000000E+00  0.88817841970E-15  0.91188000000E+02  0.91188000000E+02 0.  0.
    9900012    2    3    3    0    0 -0.26946387645E+02  0.25016379355E+02 -0.19621208970E+01  0.54367123292E+02  0.40000089168E+02 0.  0.
         12    1    3    3    0    0  0.26946387645E+02 -0.25016379355E+02  0.19621208970E+01  0.36820876708E+02  0.00000000000E+00 0. -1.
         11    1    4    4    0    0 -0.47450848128E+01  0.51479387413E+01 -0.52327675616E+01  0.87406498488E+01  0.51100000000E-03 0.  1.
        -11    1    4    4    0    0 -0.20900534701E+02  0.13445304284E+02  0.17206208259E+02  0.30226845039E+02  0.51100000000E-03 0. -1.
         12    1    4    4    0    0 -0.13007681310E+01  0.64231363300E+01 -0.13935561594E+02  0.15399628404E+02  0.00000000000E+00 0. -1.
</event>
<event>
 8    1  0.2493819E-006  0.9118800E+02  0.7816164E-02  0.1184000E+00
        -11   -1    0    0    0    0  0.00000000000E+00  0.00000000000E+00  0.45593999997E+02  0.45594000000E+02  0.51100000000E-03 0.  1.
         11   -1    0    0    0    0 -0.00000000000E+00 -0.00000000000E+00 -0.45593999997E+02  0.45594000000E+02  0.51100000000E-03 0. -1.
         23    2    1    2    0    0  0.35527136788E-14  0.17763568394E-14  0.00000000000E+00  0.91188000000E+02  0.91188000000E+02 0.  0.
    9900012    2    3    3    0    0 -0.20198108129E+02 -0.60686863760E+01  0.30182566402E+02  0.54367084192E+02  0.40000000033E+02 0.  0.
         12    1    3    3    0    0  0.20198108129E+02  0.60686863760E+01 -0.30182566402E+02  0.36820915808E+02  0.00000000000E+00 0. -1.
         11    1    4    4    0    0 -0.16130620689E+02 -0.36924410212E+00  0.99356985789E+01  0.18948650916E+02  0.51100000000E-03 0. -1.
        -11    1    4    4    0    0 -0.13224275517E+02  0.32075058972E+01  0.29634616792E+01  0.13926652951E+02  0.51100000000E-03 0.  1.
        -12    1    4    4    0    0  0.91567880773E+01 -0.89069481711E+01  0.17283406144E+02  0.21491780325E+02  0.00000000000E+00 0.  1.
</event>
<event>
 8    1  0.2493819E-006  0.9118800E+02  0.7816164E-02  0.1184000E+00
        -11   -1    0    0    0    0  0.00000000000E+00  0.00000000000E+00  0.45593999997E+02  0.45594000000E+02  0.51100000000E-03 0.  1.
         11   -1    0    0    0    0 -0.00000000000E+00 -0.00000000000E+00 -0.45593999997E+02  0.45594000000E+02  0.51100000000E-03 0. -1.
         23    2    1    2    0    0  0.00000000000E+00  0.35527136788E-14 -0.35527136788E-14  0.91188000000E+02  0.91188000000E+02 0.  0.
    9900012    2    3    3    0    0  0.24948952595E+02 -0.16315494681E+02  0.21613287416E+02  0.54367084813E+02  0.40000001448E+02 0.  0.
         12    1    3    3    0    0 -0.24948952595E+02  0.16315494681E+02 -0.21613287416E+02  0.36820915187E+02  0.00000000000E+00 0. -1.
         11    1    4    4    0    0 -0.25447226682E+01  0.10118252971E+01  0.19533159860E+01  0.33637549691E+01  0.51100000000E-03 0. -1.
        -11    1    4    4    0    0  0.16441540738E+02  0.32844163095E+01 -0.45181043025E+01  0.17364472900E+02  0.51100000000E-03 0.  1.
        -12    1    4    4    0    0  0.11052134525E+02 -0.20611736288E+02  0.24178075733E+02  0.33638856944E+02  0.00000000000E+00 0.  1.
</event>
<event>
 8    1  0.2493819E-006  0.9118800E+02  0.7816164E-02  0.1184000E+00
        -11   -1    0    0    0    0  0.00000000000E+00  0.00000000000E+00  0.45593999997E+02  0.45594000000E+02  0.51100000000E-03 0. -1.
         11   -1    0    0    0    0 -0.00000000000E+00 -0.00000000000E+00 -0.45593999997E+02  0.45594000000E+02  0.51100000000E-03 0.  1.
         23    2    1    2    0    0  0.00000000000E+00 -0.88817841970E-15  0.00000000000E+00  0.91188000000E+02  0.91188000000E+02 0.  0.
    9900012    2    3    3    0    0  0.34516723771E+02 -0.49951966838E+01 -0.11807805413E+02  0.54367075535E+02  0.39999980296E+02 0.  0.
         12    1    3    3    0    0 -0.34516723771E+02  0.49951966838E+01  0.11807805413E+02  0.36820924465E+02  0.00000000000E+00 0. -1.
         11    1    4    4    0    0  0.21998844407E+01 -0.53565255472E+01  0.42223700470E+00  0.58060435617E+01  0.51100000000E-03 0. -1.
        -11    1    4    4    0    0  0.33569227738E+02 -0.11178771249E+02 -0.95503893745E+01  0.36647891004E+02  0.51100000000E-03 0.  1.
        -12    1    4    4    0    0 -0.12523884073E+01  0.11540100112E+02 -0.26796530433E+01  0.11913140969E+02  0.00000000000E+00 0.  1.
</event>
<event>
 8    1  0.2493819E-006  0.9118800E+02  0.7816164E-02  0.1184000E+00
        -11   -1    0    0    0    0  0.00000000000E+00  0.00000000000E+00  0.45593999997E+02  0.45594000000E+02  0.51100000000E-03 0.  1.
         11   -1    0    0    0    0 -0.00000000000E+00 -0.00000000000E+00 -0.45593999997E+02  0.45594000000E+02  0.51100000000E-03 0. -1.
         23    2    1    2    0    0  0.00000000000E+00  0.00000000000E+00 -0.35527136788E-14  0.91188000000E+02  0.91188000000E+02 0.  0.
    9900012    2    3    3    0    0 -0.44426171183E+01 -0.32794001586E+02 -0.16142611765E+02  0.54367254469E+02  0.40000388212E+02 0.  0.
         12    1    3    3    0    0  0.44426171183E+01  0.32794001586E+02  0.16142611765E+02  0.36820745531E+02  0.00000000000E+00 0. -1.
         11    1    4    4    0    0  0.11978479942E+02 -0.19415310703E+02 -0.10003868521E+02  0.24910151687E+02  0.51100000000E-03 0. -1.
        -11    1    4    4    0    0 -0.11738900137E+02  0.26544539514E+01 -0.36019785142E+01  0.12562728672E+02  0.51100000000E-03 0.  1.
        -12    1    4    4    0    0 -0.46821969237E+01 -0.16033144834E+02 -0.25367647299E+01  0.16894374111E+02  0.00000000000E+00 0.  1.
</event>
<event>
 8    1  0.2493819E-006  0.9118800E+02  0.7816164E-02  0.1184000E+00
        -11   -1    0    0    0    0  0.00000000000E+00  0.00000000000E+00  0.45593999997E+02  0.45594000000E+02  0.51100000000E-03 0.  1.
         11   -1    0    0    0    0 -0.00000000000E+00 -0.00000000000E+00 -0.45593999997E+02  0.45594000000E+02  0.51100000000E-03 0. -1.
         23    2    1    2    0    0 -0.22204460493E-15  0.71054273576E-14 -0.17763568394E-14  0.91188000000E+02  0.91188000000E+02 0.  0.
    9900012    2    3    3    0    0  0.11279265779E+01  0.34663223932E+02 -0.12368030851E+02  0.54367088837E+02  0.40000010621E+02 0.  0.
        -12    1    3    3    0    0 -0.11279265779E+01 -0.34663223932E+02  0.12368030851E+02  0.36820911163E+02  0.00000000000E+00 0.  1.
         11    1    4    4    0    0  0.85924000920E+01  0.20754227491E+02 -0.18957491947E+02  0.29393091013E+02  0.51100000000E-03 0. -1.
        -11    1    4    4    0    0 -0.58375126599E+00  0.97205953803E+01 -0.49320265546E+01  0.10915842903E+02  0.51100000000E-03 0.  1.
        -12    1    4    4    0    0 -0.68807222481E+01  0.41884010610E+01  0.11521487651E+02  0.14058154921E+02  0.00000000000E+00 0.  1.
</event>
<event>
 8    1  0.2493819E-006  0.9118800E+02  0.7816164E-02  0.1184000E+00
        -11   -1    0    0    0    0  0.00000000000E+00  0.00000000000E+00  0.45593999997E+02  0.45594000000E+02  0.51100000000E-03 0.  1.
         11   -1    0    0    0    0 -0.00000000000E+00 -0.00000000000E+00 -0.45593999997E+02  0.45594000000E+02  0.51100000000E-03 0. -1.
         23    2    1    2    0    0  0.88817841970E-15 -0.26645352591E-14  0.00000000000E+00  0.91188000000E+02  0.91188000000E+02 0.  0.
    9900012    2    3    3    0    0  0.64379452130E+01 -0.74945717173E+01  0.35470621655E+02  0.54367071924E+02  0.39999972064E+02 0.  0.
         12    1    3    3    0    0 -0.64379452130E+01  0.74945717173E+01 -0.35470621655E+02  0.36820928076E+02  0.00000000000E+00 0. -1.
         11    1    4    4    0    0 -0.61678685024E+00  0.22002317426E+01  0.18335019887E+01  0.29297057094E+01  0.51100000000E-03 0. -1.
        -11    1    4    4    0    0  0.30629750871E+00  0.12218511014E+02  0.23246931870E+02  0.26264151827E+02  0.51100000000E-03 0.  1.
         12    1    4    4    0    0  0.67484345545E+01 -0.21913314474E+02  0.10390187797E+02  0.25173214388E+02  0.00000000000E+00 0. -1.
</event>
<event>
 8    1  0.2493819E-006  0.9118800E+02  0.7816164E-02  0.1184000E+00
        -11   -1    0    0    0    0  0.00000000000E+00  0.00000000000E+00  0.45593999997E+02  0.45594000000E+02  0.51100000000E-03 0.  1.
         11   -1    0    0    0    0 -0.00000000000E+00 -0.00000000000E+00 -0.45593999997E+02  0.45594000000E+02  0.51100000000E-03 0. -1.
         23    2    1    2    0    0  0.00000000000E+00  0.00000000000E+00  0.35527136788E-14  0.91188000000E+02  0.91188000000E+02 0.  0.
    9900012    2    3    3    0    0 -0.17752347810E+02  0.26165303927E+02 -0.18868244134E+02  0.54367087204E+02  0.40000006900E+02 0.  0.
        -12    1    3    3    0    0  0.17752347810E+02 -0.26165303927E+02  0.18868244134E+02  0.36820912796E+02  0.00000000000E+00 0.  1.
         11    1    4    4    0    0 -0.34449739365E+01 -0.18646492303E+01  0.10146369559E+02  0.10876285104E+02  0.51100000000E-03 0.  1.
        -11    1    4    4    0    0 -0.93876300950E+01  0.24786775440E+02 -0.23774178075E+02  0.35605103270E+02  0.51100000000E-03 0. -1.
         12    1    4    4    0    0 -0.49197437790E+01  0.32431777176E+01 -0.52404356189E+01  0.78856988298E+01  0.00000000000E+00 0. -1.
</event>
<event>
 8    1  0.2493819E-006  0.9118800E+02  0.7816164E-02  0.1184000E+00
        -11   -1    0    0    0    0  0.00000000000E+00  0.00000000000E+00  0.45593999997E+02  0.45594000000E+02  0.51100000000E-03 0.  1.
         11   -1    0    0    0    0 -0.00000000000E+00 -0.00000000000E+00 -0.45593999997E+02  0.45594000000E+02  0.51100000000E-03 0. -1.
         23    2    1    2    0    0 -0.88817841970E-15  0.00000000000E+00  0.71054273576E-14  0.91188000000E+02  0.91188000000E+02 0.  0.
    9900012    2    3    3    0    0  0.43337155161E+01  0.64480020236E+01 -0.35991973762E+02  0.54367082093E+02  0.39999995247E+02 0.  0.
        -12    1    3    3    0    0 -0.43337155161E+01 -0.64480020236E+01  0.35991973762E+02  0.36820917907E+02  0.00000000000E+00 0.  1.
         11    1    4    4    0    0  0.53990179870E+01 -0.46597480292E+01 -0.21273804705E+02  0.22437411032E+02  0.51100000000E-03 0. -1.
        -11    1    4    4    0    0 -0.69042913027E+01  0.12595009150E+02 -0.19512956581E+02  0.24229299797E+02  0.51100000000E-03 0.  1.
         12    1    4    4    0    0  0.58389888318E+01 -0.14872590972E+01  0.47947875242E+01  0.77003712639E+01  0.00000000000E+00 0. -1.
</event>
<event>
 8    1  0.2493819E-006  0.9118800E+02  0.7816164E-02  0.1184000E+00
        -11   -1    0    0    0    0  0.00000000000E+00  0.00000000000E+00  0.45593999997E+02  0.45594000000E+02  0.51100000000E-03 0.  1.
         11   -1    0    0    0    0 -0.00000000000E+00 -0.00000000000E+00 -0.45593999997E+02  0.45594000000E+02  0.51100000000E-03 0. -1.
         23    2    1    2    0    0  0.00000000000E+00 -0.35527136788E-14 -0.35527136788E-14  0.91188000000E+02  0.91188000000E+02 0.  0.
    9900012    2    3    3    0    0  0.17547246214E+02  0.11202282996E+02  0.30370729203E+02  0.54367106660E+02  0.40000051253E+02 0.  0.
         12    1    3    3    0    0 -0.17547246214E+02 -0.11202282996E+02 -0.30370729203E+02  0.36820893340E+02  0.00000000000E+00 0. -1.
         11    1    4    4    0    0  0.27541793285E+01  0.14093265731E+00 -0.47768204791E+01  0.55157392921E+01  0.51100000000E-03 0. -1.
        -11    1    4    4    0    0  0.22207020626E+02  0.90475756850E+01  0.33149319267E+02  0.40913173416E+02  0.51100000000E-03 0.  1.
         12    1    4    4    0    0 -0.74139537404E+01  0.20137746535E+01  0.19982304152E+01  0.79381939516E+01  0.00000000000E+00 0. -1.
</event>
<event>
 8    1  0.2493819E-006  0.9118800E+02  0.7816164E-02  0.1184000E+00
        -11   -1    0    0    0    0  0.00000000000E+00  0.00000000000E+00  0.45593999997E+02  0.45594000000E+02  0.51100000000E-03 0.  1.
         11   -1    0    0    0    0 -0.00000000000E+00 -0.00000000000E+00 -0.45593999997E+02  0.45594000000E+02  0.51100000000E-03 0. -1.
         23    2    1    2    0    0 -0.44408920985E-15  0.00000000000E+00  0.00000000000E+00  0.91188000000E+02  0.91188000000E+02 0.  0.
    9900012    2    3    3    0    0 -0.35546493468E+01 -0.16256692407E+02  0.32846087413E+02  0.54367067932E+02  0.39999962965E+02 0.  0.
         12    1    3    3    0    0  0.35546493468E+01  0.16256692407E+02 -0.32846087413E+02  0.36820932068E+02  0.00000000000E+00 0. -1.
         11    1    4    4    0    0  0.31807960474E+01 -0.13454792811E+02  0.12511160561E+02  0.18646126995E+02  0.51100000000E-03 0. -1.
        -11    1    4    4    0    0  0.17022117898E+01  0.10019787052E+02  0.17315478095E+02  0.20077834531E+02  0.51100000000E-03 0.  1.
         12    1    4    4    0    0 -0.84376571840E+01 -0.12821686647E+02  0.30194487578E+01  0.15643106406E+02  0.00000000000E+00 0. -1.
</event>
<event>
 8    1  0.2493819E-006  0.9118800E+02  0.7816164E-02  0.1184000E+00
        -11   -1    0    0    0    0  0.00000000000E+00  0.00000000000E+00  0.45593999997E+02  0.45594000000E+02  0.51100000000E-03 0.  1.
         11   -1    0    0    0    0 -0.00000000000E+00 -0.00000000000E+00 -0.45593999997E+02  0.45594000000E+02  0.51100000000E-03 0. -1.
         23    2    1    2    0    0  0.00000000000E+00  0.17763568394E-14  0.35527136788E-14  0.91188000000E+02  0.91188000000E+02 0.  0.
    9900012    2    3    3    0    0  0.22295905608E+02 -0.90343636153E+01 -0.27875679033E+02  0.54367073690E+02  0.39999976090E+02 0.  0.
        -12    1    3    3    0    0 -0.22295905608E+02  0.90343636153E+01  0.27875679033E+02  0.36820926310E+02  0.00000000000E+00 0.  1.
         11    1    4    4    0    0  0.22594111458E+02 -0.13619231097E+02 -0.22616577027E+02  0.34748911997E+02  0.51100000000E-03 0. -1.
        -11    1    4    4    0    0  0.43431459012E+01 -0.51385434543E+01  0.15078549247E+01  0.68950106516E+01  0.51100000000E-03 0.  1.
        -12    1    4    4    0    0 -0.46413517517E+01  0.97234109361E+01 -0.67669569308E+01  0.12723151041E+02  0.00000000000E+00 0.  1.
</event>
<event>
 8    1  0.2493819E-006  0.9118800E+02  0.7816164E-02  0.1184000E+00
        -11   -1    0    0    0    0  0.00000000000E+00  0.00000000000E+00  0.45593999997E+02  0.45594000000E+02  0.51100000000E-03 0.  1.
         11   -1    0    0    0    0 -0.00000000000E+00 -0.00000000000E+00 -0.45593999997E+02  0.45594000000E+02  0.51100000000E-03 0. -1.
         23    2    1    2    0    0  0.35527136788E-14  0.35527136788E-14  0.00000000000E+00  0.91188000000E+02  0.91188000000E+02 0.  0.
    9900012    2    3    3    0    0 -0.11172510875E+02 -0.29330821539E+02 -0.19252525003E+02  0.54367057449E+02  0.39999939065E+02 0.  0.
        -12    1    3    3    0    0  0.11172510875E+02  0.29330821539E+02  0.19252525003E+02  0.36820942551E+02  0.00000000000E+00 0.  1.
         11    1    4    4    0    0 -0.35579569338E+01 -0.21095228533E+02 -0.18033962470E+02  0.27980198839E+02  0.51100000000E-03 0. -1.
        -11    1    4    4    0    0 -0.15601074189E+00 -0.12103110321E+01 -0.11679991596E+02  0.11743568286E+02  0.51100000000E-03 0.  1.
        -12    1    4    4    0    0 -0.74585431994E+01 -0.70252819730E+01  0.10461429063E+02  0.14643290324E+02  0.00000000000E+00 0.  1.
</event>
<event>
 8    1  0.2493819E-006  0.9118800E+02  0.7816164E-02  0.1184000E+00
        -11   -1    0    0    0    0  0.00000000000E+00  0.00000000000E+00  0.45593999997E+02  0.45594000000E+02  0.51100000000E-03 0. -1.
         11   -1    0    0    0    0 -0.00000000000E+00 -0.00000000000E+00 -0.45593999997E+02  0.45594000000E+02  0.51100000000E-03 0.  1.
         23    2    1    2    0    0  0.00000000000E+00  0.00000000000E+00  0.35527136788E-14  0.91188000000E+02  0.91188000000E+02 0.  0.
    9900012    2    3    3    0    0  0.23146094605E+01  0.25463381669E+02 -0.26496135542E+02  0.54366994831E+02  0.39999796316E+02 0.  0.
         12    1    3    3    0    0 -0.23146094605E+01 -0.25463381669E+02  0.26496135542E+02  0.36821005169E+02  0.00000000000E+00 0. -1.
         11    1    4    4    0    0  0.43056595125E+01  0.12176532809E+02  0.64489162468E+01  0.14435898867E+02  0.51100000000E-03 0. -1.
        -11    1    4    4    0    0 -0.72957993343E+01 -0.54774911734E+00 -0.74405510039E+01  0.10435061884E+02  0.51100000000E-03 0.  1.
        -12    1    4    4    0    0  0.53047492823E+01  0.13834597977E+02 -0.25504500785E+02  0.29496034080E+02  0.00000000000E+00 0.  1.
</event>
<event>
 8    1  0.2493819E-006  0.9118800E+02  0.7816164E-02  0.1184000E+00
        -11   -1    0    0    0    0  0.00000000000E+00  0.00000000000E+00  0.45593999997E+02  0.45594000000E+02  0.51100000000E-03 0.  1.
         11   -1    0    0    0    0 -0.00000000000E+00 -0.00000000000E+00 -0.45593999997E+02  0.45594000000E+02  0.51100000000E-03 0. -1.
         23    2    1    2    0    0  0.35527136788E-14 -0.35527136788E-14  0.00000000000E+00  0.91188000000E+02  0.91188000000E+02 0.  0.
    9900012    2    3    3    0    0 -0.17188161978E+02 -0.31104898408E+02 -0.96350276383E+01  0.54367063364E+02  0.39999952551E+02 0.  0.
        -12    1    3    3    0    0  0.17188161978E+02  0.31104898408E+02  0.96350276383E+01  0.36820936636E+02  0.00000000000E+00 0.  1.
         11    1    4    4    0    0  0.87663680292E+01 -0.89089747157E+01  0.43935203795E+01  0.13248473893E+02  0.51100000000E-03 0. -1.
        -11    1    4    4    0    0 -0.20154182913E+02 -0.65911754981E+01 -0.36943646844E+01  0.21524010175E+02  0.51100000000E-03 0.  1.
         12    1    4    4    0    0 -0.58003470941E+01 -0.15604748194E+02 -0.10334183333E+02  0.19594579296E+02  0.00000000000E+00 0. -1.
</event>
<event>
 8    1  0.2493819E-006  0.9118800E+02  0.7816164E-02  0.1184000E+00
        -11   -1    0    0    0    0  0.00000000000E+00  0.00000000000E+00  0.45593999997E+02  0.45594000000E+02  0.51100000000E-03 0. -1.
         11   -1    0    0    0    0 -0.00000000000E+00 -0.00000000000E+00 -0.45593999997E+02  0.45594000000E+02  0.51100000000E-03 0.  1.
         23    2    1    2    0    0  0.00000000000E+00  0.00000000000E+00 -0.35527136788E-14  0.91188000000E+02  0.91188000000E+02 0.  0.
    9900012    2    3    3    0    0  0.24352967466E+02 -0.99477617224E+01  0.25763442029E+02  0.54367082944E+02  0.39999997187E+02 0.  0.
        -12    1    3    3    0    0 -0.24352967466E+02  0.99477617224E+01 -0.25763442029E+02  0.36820917056E+02  0.00000000000E+00 0.  1.
         11    1    4    4    0    0  0.17892713195E+01 -0.19276710029E+00  0.20244232853E+01  0.27086788124E+01  0.51100000000E-03 0. -1.
        -11    1    4    4    0    0  0.30118848106E+02  0.77347962722E-01  0.25069893292E+02  0.39187377354E+02  0.51100000000E-03 0.  1.
        -12    1    4    4    0    0 -0.75551519591E+01 -0.98323425849E+01 -0.13308745486E+01  0.12471026778E+02  0.00000000000E+00 0.  1.
</event>
<event>
 8    1  0.2493819E-006  0.9118800E+02  0.7816164E-02  0.1184000E+00
        -11   -1    0    0    0    0  0.00000000000E+00  0.00000000000E+00  0.45593999997E+02  0.45594000000E+02  0.51100000000E-03 0.  1.
         11   -1    0    0    0    0 -0.00000000000E+00 -0.00000000000E+00 -0.45593999997E+02  0.45594000000E+02  0.51100000000E-03 0. -1.
         23    2    1    2    0    0  0.35527136788E-14  0.35527136788E-14 -0.22204460493E-15  0.91188000000E+02  0.91188000000E+02 0.  0.
    9900012    2    3    3    0    0 -0.27965478704E+02 -0.23915717990E+02  0.13223070408E+01  0.54367108349E+02  0.40000055102E+02 0.  0.
         12    1    3    3    0    0  0.27965478704E+02  0.23915717990E+02 -0.13223070408E+01  0.36820891651E+02  0.00000000000E+00 0. -1.
         11    1    4    4    0    0  0.46227368449E+01 -0.66632208161E+00  0.88825142468E+01  0.10035573758E+02  0.51100000000E-03 0. -1.
        -11    1    4    4    0    0 -0.10096661644E+02 -0.16797988539E+02  0.43809228620E+00  0.19603747612E+02  0.51100000000E-03 0.  1.
         12    1    4    4    0    0 -0.22491553905E+02 -0.64514073693E+01 -0.79982994923E+01  0.24727786979E+02  0.00000000000E+00 0. -1.
</event>
<event>
 8    1  0.2493819E-006  0.9118800E+02  0.7816164E-02  0.1184000E+00
        -11   -1    0    0    0    0  0.00000000000E+00  0.00000000000E+00  0.45593999997E+02  0.45594000000E+02  0.51100000000E-03 0.  1.
         11   -1    0    0    0    0 -0.00000000000E+00 -0.00000000000E+00 -0.45593999997E+02  0.45594000000E+02  0.51100000000E-03 0. -1.
         23    2    1    2    0    0  0.00000000000E+00 -0.44408920985E-15 -0.71054273576E-14  0.91188000000E+02  0.91188000000E+02 0.  0.
    9900012    2    3    3    0    0 -0.10871163677E+02 -0.11249631088E+01  0.35161525190E+02  0.54367073947E+02  0.39999976677E+02 0.  0.
         12    1    3    3    0    0  0.10871163677E+02  0.11249631088E+01 -0.35161525190E+02  0.36820926053E+02  0.00000000000E+00 0. -1.
         11    1    4    4    0    0 -0.10502103206E+02 -0.41861495427E+01  0.86578855984E+00  0.11338765798E+02  0.51100000000E-03 0. -1.
        -11    1    4    4    0    0 -0.69095161485E+01 -0.25607769477E+01 -0.29885205150E+00  0.73748426961E+01  0.51100000000E-03 0.  1.
        -12    1    4    4    0    0  0.65404556769E+01  0.56219633816E+01  0.34594588682E+02  0.35653465453E+02  0.00000000000E+00 0.  1.
</event>
<event>
 8    1  0.2493819E-006  0.9118800E+02  0.7816164E-02  0.1184000E+00
        -11   -1    0    0    0    0  0.00000000000E+00  0.00000000000E+00  0.45593999997E+02  0.45594000000E+02  0.51100000000E-03 0.  1.
         11   -1    0    0    0    0 -0.00000000000E+00 -0.00000000000E+00 -0.45593999997E+02  0.45594000000E+02  0.51100000000E-03 0. -1.
         23    2    1    2    0    0  0.00000000000E+00 -0.88817841970E-15 -0.35527136788E-14  0.91188000000E+02  0.91188000000E+02 0.  0.
    9900012    2    3    3    0    0 -0.30327837872E+02 -0.62772886545E+01  0.19914766022E+02  0.54367081916E+02  0.39999994845E+02 0.  0.
         12    1    3    3    0    0  0.30327837872E+02  0.62772886545E+01 -0.19914766022E+02  0.36820918084E+02  0.00000000000E+00 0. -1.
         11    1    4    4    0    0 -0.51708848756E+01 -0.12186613518E+02  0.34816531097E+01  0.13688444326E+02  0.51100000000E-03 0. -1.
        -11    1    4    4    0    0 -0.15262428324E+02  0.14627965701E+02  0.17505416921E+02  0.27447380945E+02  0.51100000000E-03 0.  1.
        -12    1    4    4    0    0 -0.98945246722E+01 -0.87186408375E+01 -0.10723040090E+01  0.13231256646E+02  0.00000000000E+00 0.  1.
</event>
<event>
 8    1  0.2493819E-006  0.9118800E+02  0.7816164E-02  0.1184000E+00
        -11   -1    0    0    0    0  0.00000000000E+00  0.00000000000E+00  0.45593999997E+02  0.45594000000E+02  0.51100000000E-03 0. -1.
         11   -1    0    0    0    0 -0.00000000000E+00 -0.00000000000E+00 -0.45593999997E+02  0.45594000000E+02  0.51100000000E-03 0.  1.
         23    2    1    2    0    0  0.88817841970E-15 -0.35527136788E-14  0.35527136788E-14  0.91188000000E+02  0.91188000000E+02 0.  0.
    9900012    2    3    3    0    0  0.57337490471E+01  0.21933707001E+02  0.29014059350E+02  0.54367095328E+02  0.40000025419E+02 0.  0.
        -12    1    3    3    0    0 -0.57337490471E+01 -0.21933707001E+02 -0.29014059350E+02  0.36820904672E+02  0.00000000000E+00 0.  1.
         11    1    4    4    0    0  0.33682950966E+00  0.93963514706E+01  0.24109900485E+02  0.25878411403E+02  0.51100000000E-03 0. -1.
        -11    1    4    4    0    0 -0.90195713014E+01  0.89004806158E+01 -0.46653439652E+00  0.12680255370E+02  0.51100000000E-03 0.  1.
        -12    1    4    4    0    0  0.14416490839E+02  0.36368749146E+01  0.53706932607E+01  0.15808428554E+02  0.00000000000E+00 0.  1.
</event>
<event>
 8    1  0.2493819E-006  0.9118800E+02  0.7816164E-02  0.1184000E+00
        -11   -1    0    0    0    0  0.00000000000E+00  0.00000000000E+00  0.45593999997E+02  0.45594000000E+02  0.51100000000E-03 0.  1.
         11   -1    0    0    0    0 -0.00000000000E+00 -0.00000000000E+00 -0.45593999997E+02  0.45594000000E+02  0.51100000000E-03 0. -1.
         23    2    1    2    0    0  0.00000000000E+00 -0.17763568394E-14  0.71054273576E-14  0.91188000000E+02  0.91188000000E+02 0.  0.
    9900012    2    3    3    0    0 -0.15661278486E+02  0.87583041220E+01  0.32152715315E+02  0.54367073382E+02  0.39999975389E+02 0.  0.
        -12    1    3    3    0    0  0.15661278486E+02 -0.87583041220E+01 -0.32152715315E+02  0.36820926618E+02  0.00000000000E+00 0.  1.
         11    1    4    4    0    0 -0.52676916502E+01 -0.18699632348E+01  0.96455097150E+01  0.11148147637E+02  0.51100000000E-03 0. -1.
        -11    1    4    4    0    0 -0.45764076403E+01  0.19174453711E+01 -0.88568252706E+01  0.10152017424E+02  0.51100000000E-03 0.  1.
        -12    1    4    4    0    0 -0.58171791954E+01  0.87108219857E+01  0.31364030870E+02  0.33066908321E+02  0.00000000000E+00 0.  1.
</event>
<event>
 8    1  0.2493819E-006  0.9118800E+02  0.7816164E-02  0.1184000E+00
        -11   -1    0    0    0    0  0.00000000000E+00  0.00000000000E+00  0.45593999997E+02  0.45594000000E+02  0.51100000000E-03 0. -1.
         11   -1    0    0    0    0 -0.00000000000E+00 -0.00000000000E+00 -0.45593999997E+02  0.45594000000E+02  0.51100000000E-03 0.  1.
         23    2    1    2    0    0  0.00000000000E+00  0.00000000000E+00  0.00000000000E+00  0.91188000000E+02  0.91188000000E+02 0.  0.
    9900012    2    3    3    0    0 -0.14662046643E+02  0.15672329916E+02 -0.29919625039E+02  0.54367061674E+02  0.39999948698E+02 0.  0.
         12    1    3    3    0    0  0.14662046643E+02 -0.15672329916E+02  0.29919625039E+02  0.36820938326E+02  0.00000000000E+00 0. -1.
         11    1    4    4    0    0 -0.12618731408E+01 -0.67144462740E+01 -0.11442161097E+02  0.13326633611E+02  0.51100000000E-03 0. -1.
        -11    1    4    4    0    0 -0.21166145604E+02  0.15837233239E+02 -0.12364381358E+02  0.29183927135E+02  0.51100000000E-03 0.  1.
        -12    1    4    4    0    0  0.77659721021E+01  0.65495429502E+01 -0.61130825846E+01  0.11856500927E+02  0.00000000000E+00 0.  1.
</event>
<event>
 8    1  0.2493819E-006  0.9118800E+02  0.7816164E-02  0.1184000E+00
        -11   -1    0    0    0    0  0.00000000000E+00  0.00000000000E+00  0.45593999997E+02  0.45594000000E+02  0.51100000000E-03 0. -1.
         11   -1    0    0    0    0 -0.00000000000E+00 -0.00000000000E+00 -0.45593999997E+02  0.45594000000E+02  0.51100000000E-03 0.  1.
         23    2    1    2    0    0  0.00000000000E+00 -0.88817841970E-15  0.00000000000E+00  0.91188000000E+02  0.91188000000E+02 0.  0.
    9900012    2    3    3    0    0 -0.82032338330E+01  0.43976824210E+01  0.35625092369E+02  0.54367083902E+02  0.39999999371E+02 0.  0.
        -12    1    3    3    0    0  0.82032338330E+01 -0.43976824210E+01 -0.35625092369E+02  0.36820916098E+02  0.00000000000E+00 0.  1.
         11    1    4    4    0    0 -0.81303180239E+01 -0.72337349657E+01  0.28920549768E+02  0.30900278185E+02  0.51100000000E-03 0. -1.
        -11    1    4    4    0    0 -0.51188481739E+01  0.67712417733E+00 -0.46157266295E+01  0.69257516818E+01  0.51100000000E-03 0.  1.
        -12    1    4    4    0    0  0.50459323648E+01  0.10954293209E+02  0.11320269230E+02  0.16541054035E+02  0.00000000000E+00 0.  1.
</event>
<event>
 8    1  0.2493819E-006  0.9118800E+02  0.7816164E-02  0.1184000E+00
        -11   -1    0    0    0    0  0.00000000000E+00  0.00000000000E+00  0.45593999997E+02  0.45594000000E+02  0.51100000000E-03 0.  1.
         11   -1    0    0    0    0 -0.00000000000E+00 -0.00000000000E+00 -0.45593999997E+02  0.45594000000E+02  0.51100000000E-03 0. -1.
         23    2    1    2    0    0  0.17763568394E-14  0.35527136788E-14  0.00000000000E+00  0.91188000000E+02  0.91188000000E+02 0.  0.
    9900012    2    3    3    0    0 -0.10785695387E+02 -0.12744004311E+02 -0.32818263309E+02  0.54367091843E+02  0.40000017475E+02 0.  0.
        -12    1    3    3    0    0  0.10785695387E+02  0.12744004311E+02  0.32818263309E+02  0.36820908157E+02  0.00000000000E+00 0.  1.
         11    1    4    4    0    0 -0.10758427079E+01 -0.96481294243E+01  0.33033945048E+01  0.10254572367E+02  0.51100000000E-03 0. -1.
        -11    1    4    4    0    0 -0.86993306377E+01  0.10152576216E+01 -0.10899488693E+01  0.88259328335E+01  0.51100000000E-03 0.  1.
        -12    1    4    4    0    0 -0.10105220418E+01 -0.41111325088E+01 -0.35031708944E+02  0.35286586642E+02  0.00000000000E+00 0.  1.
</event>
<event>
 8    1  0.2493819E-006  0.9118800E+02  0.7816164E-02  0.1184000E+00
        -11   -1    0    0    0    0  0.00000000000E+00  0.00000000000E+00  0.45593999997E+02  0.45594000000E+02  0.51100000000E-03 0.  1.
         11   -1    0    0    0    0 -0.00000000000E+00 -0.00000000000E+00 -0.45593999997E+02  0.45594000000E+02  0.51100000000E-03 0. -1.
         23    2    1    2    0    0 -0.35527136788E-14  0.17763568394E-14  0.00000000000E+00  0.91188000000E+02  0.91188000000E+02 0.  0.
    9900012    2    3    3    0    0  0.29057675246E+02 -0.73163387748E+01 -0.21398698106E+02  0.54367060517E+02  0.39999946060E+02 0.  0.
         12    1    3    3    0    0 -0.29057675246E+02  0.73163387748E+01  0.21398698106E+02  0.36820939483E+02  0.00000000000E+00 0. -1.
         11    1    4    4    0    0 -0.81882843850E+01  0.34652814323E+01 -0.60313811687E+01  0.10744009291E+02  0.51100000000E-03 0. -1.
        -11    1    4    4    0    0  0.28910800438E+02 -0.72072106646E+01 -0.17152129793E+02  0.34379846192E+02  0.51100000000E-03 0.  1.
         12    1    4    4    0    0  0.83351591938E+01 -0.35744095425E+01  0.17848128560E+01  0.92432050337E+01  0.00000000000E+00 0. -1.
</event>
<event>
 8    1  0.2493819E-006  0.9118800E+02  0.7816164E-02  0.1184000E+00
        -11   -1    0    0    0    0  0.00000000000E+00  0.00000000000E+00  0.45593999997E+02  0.45594000000E+02  0.51100000000E-03 0. -1.
         11   -1    0    0    0    0 -0.00000000000E+00 -0.00000000000E+00 -0.45593999997E+02  0.45594000000E+02  0.51100000000E-03 0.  1.
         23    2    1    2    0    0 -0.13322676296E-14 -0.71054273576E-14  0.47184478547E-15  0.91188000000E+02  0.91188000000E+02 0.  0.
    9900012    2    3    3    0    0 -0.38088707707E+01 -0.36623133151E+02  0.13402237792E+00  0.54367090990E+02  0.40000015530E+02 0.  0.
        -12    1    3    3    0    0  0.38088707707E+01  0.36623133151E+02 -0.13402237792E+00  0.36820909010E+02  0.00000000000E+00 0.  1.
         11    1    4    4    0    0  0.53982580284E+01 -0.10885509136E+01 -0.23331349709E+01  0.59807735191E+01  0.51100000000E-03 0. -1.
        -11    1    4    4    0    0 -0.11713065237E+01 -0.31856352784E+01 -0.11689663852E+02  0.12172447262E+02  0.51100000000E-03 0.  1.
         12    1    4    4    0    0 -0.80358222753E+01 -0.32348946959E+02  0.14156821201E+02  0.36213870209E+02  0.00000000000E+00 0. -1.
</event>
<event>
 8    1  0.2493819E-006  0.9118800E+02  0.7816164E-02  0.1184000E+00
        -11   -1    0    0    0    0  0.00000000000E+00  0.00000000000E+00  0.45593999997E+02  0.45594000000E+02  0.51100000000E-03 0. -1.
         11   -1    0    0    0    0 -0.00000000000E+00 -0.00000000000E+00 -0.45593999997E+02  0.45594000000E+02  0.51100000000E-03 0.  1.
         23    2    1    2    0    0 -0.88817841970E-15  0.35527136788E-14 -0.35527136788E-14  0.91188000000E+02  0.91188000000E+02 0.  0.
    9900012    2    3    3    0    0 -0.52574828984E+01  0.31344797094E+02 -0.18591546797E+02  0.54367040702E+02  0.39999900888E+02 0.  0.
         12    1    3    3    0    0  0.52574828984E+01 -0.31344797094E+02  0.18591546797E+02  0.36820959298E+02  0.00000000000E+00 0. -1.
         11    1    4    4    0    0 -0.75698151922E+01  0.52429883258E+01 -0.68394131193E+01  0.11470335684E+02  0.51100000000E-03 0. -1.
        -11    1    4    4    0    0 -0.12891106730E+02  0.72880038833E+01 -0.11428231935E+02  0.18705617305E+02  0.51100000000E-03 0.  1.
        -12    1    4    4    0    0  0.15203439024E+02  0.18813804885E+02 -0.32390174263E+00  0.24191087713E+02  0.00000000000E+00 0.  1.
</event>
<event>
 8    1  0.2493819E-006  0.9118800E+02  0.7816164E-02  0.1184000E+00
        -11   -1    0    0    0    0  0.00000000000E+00  0.00000000000E+00  0.45593999997E+02  0.45594000000E+02  0.51100000000E-03 0.  1.
         11   -1    0    0    0    0 -0.00000000000E+00 -0.00000000000E+00 -0.45593999997E+02  0.45594000000E+02  0.51100000000E-03 0. -1.
         23    2    1    2    0    0  0.00000000000E+00  0.00000000000E+00  0.00000000000E+00  0.91188000000E+02  0.91188000000E+02 0.  0.
    9900012    2    3    3    0    0  0.13130749843E+02 -0.19183323167E+02 -0.28554569790E+02  0.54367082914E+02  0.39999997119E+02 0.  0.
        -12    1    3    3    0    0 -0.13130749843E+02  0.19183323167E+02  0.28554569790E+02  0.36820917086E+02  0.00000000000E+00 0.  1.
         11    1    4    4    0    0 -0.84698440584E+01  0.59399921111E+01 -0.33524169648E+01  0.10874762729E+02  0.51100000000E-03 0. -1.
        -11    1    4    4    0    0  0.12606205558E+02 -0.82874231981E+01 -0.54931852520E+01  0.16055307107E+02  0.51100000000E-03 0.  1.
         12    1    4    4    0    0  0.89943883433E+01 -0.16835892080E+02 -0.19708967573E+02  0.27437013077E+02  0.00000000000E+00 0. -1.
</event>
<event>
 8    1  0.2493819E-006  0.9118800E+02  0.7816164E-02  0.1184000E+00
        -11   -1    0    0    0    0  0.00000000000E+00  0.00000000000E+00  0.45593999997E+02  0.45594000000E+02  0.51100000000E-03 0.  1.
         11   -1    0    0    0    0 -0.00000000000E+00 -0.00000000000E+00 -0.45593999997E+02  0.45594000000E+02  0.51100000000E-03 0. -1.
         23    2    1    2    0    0  0.35527136788E-14  0.35527136788E-14  0.35527136788E-14  0.91188000000E+02  0.91188000000E+02 0.  0.
    9900012    2    3    3    0    0  0.12260328449E+02  0.28179915978E+02  0.20281921043E+02  0.54367086929E+02  0.40000006272E+02 0.  0.
         12    1    3    3    0    0 -0.12260328449E+02 -0.28179915978E+02 -0.20281921043E+02  0.36820913071E+02  0.00000000000E+00 0. -1.
         11    1    4    4    0    0  0.58796245904E+01  0.60900097025E+00  0.54985361758E+01  0.80730891141E+01  0.51100000000E-03 0. -1.
        -11    1    4    4    0    0  0.16437419517E+02  0.56658666096E+01  0.13753589628E+02  0.22168717435E+02  0.51100000000E-03 0.  1.
         12    1    4    4    0    0 -0.10056715659E+02  0.21905048398E+02  0.10297952392E+01  0.24125280380E+02  0.00000000000E+00 0. -1.
</event>
<event>
 8    1  0.2493819E-006  0.9118800E+02  0.7816164E-02  0.1184000E+00
        -11   -1    0    0    0    0  0.00000000000E+00  0.00000000000E+00  0.45593999997E+02  0.45594000000E+02  0.51100000000E-03 0.  1.
         11   -1    0    0    0    0 -0.00000000000E+00 -0.00000000000E+00 -0.45593999997E+02  0.45594000000E+02  0.51100000000E-03 0. -1.
         23    2    1    2    0    0 -0.35527136788E-14 -0.35527136788E-14  0.00000000000E+00  0.91188000000E+02  0.91188000000E+02 0.  0.
    9900012    2    3    3    0    0  0.21851759299E+02 -0.22273985675E+02  0.19548609946E+02  0.54367109555E+02  0.40000057853E+02 0.  0.
         12    1    3    3    0    0 -0.21851759299E+02  0.22273985675E+02 -0.19548609946E+02  0.36820890445E+02  0.00000000000E+00 0. -1.
         11    1    4    4    0    0  0.38390003675E+01 -0.84600714682E+01  0.12483224404E+00  0.92911956399E+01  0.51100000000E-03 0. -1.
        -11    1    4    4    0    0  0.28368246473E+01 -0.20845191374E+02  0.18996245561E+02  0.28344786526E+02  0.51100000000E-03 0.  1.
         12    1    4    4    0    0  0.15175934284E+02  0.70312771669E+01  0.42753214108E+00  0.16731127390E+02  0.00000000000E+00 0. -1.
</event>
<event>
 8    1  0.2493819E-006  0.9118800E+02  0.7816164E-02  0.1184000E+00
        -11   -1    0    0    0    0  0.00000000000E+00  0.00000000000E+00  0.45593999997E+02  0.45594000000E+02  0.51100000000E-03 0. -1.
         11   -1    0    0    0    0 -0.00000000000E+00 -0.00000000000E+00 -0.45593999997E+02  0.45594000000E+02  0.51100000000E-03 0.  1.
         23    2    1    2    0    0 -0.71054273576E-14  0.17763568394E-14  0.17763568394E-14  0.91188000000E+02  0.91188000000E+02 0.  0.
    9900012    2    3    3    0    0 -0.35228325453E+02  0.29519517746E+01  0.10297186118E+02  0.54367068786E+02  0.39999964911E+02 0.  0.
         12    1    3    3    0    0  0.35228325453E+02 -0.29519517746E+01 -0.10297186118E+02  0.36820931214E+02  0.00000000000E+00 0. -1.
         11    1    4    4    0    0 -0.63958010921E+00  0.10336744973E+02  0.11175545590E+01  0.10416635148E+02  0.51100000000E-03 0.  1.
        -11    1    4    4    0    0  0.80887726729E+00 -0.52237161094E+01 -0.34419587622E+01  0.63078183872E+01  0.51100000000E-03 0. -1.
        -12    1    4    4    0    0 -0.35397622611E+02 -0.21610770886E+01  0.12621590321E+02  0.37642615251E+02  0.00000000000E+00 0.  1.
</event>
<event>
 8    1  0.2493819E-006  0.9118800E+02  0.7816164E-02  0.1184000E+00
        -11   -1    0    0    0    0  0.00000000000E+00  0.00000000000E+00  0.45593999997E+02  0.45594000000E+02  0.51100000000E-03 0.  1.
         11   -1    0    0    0    0 -0.00000000000E+00 -0.00000000000E+00 -0.45593999997E+02  0.45594000000E+02  0.51100000000E-03 0. -1.
         23    2    1    2    0    0 -0.35527136788E-14  0.00000000000E+00  0.35527136788E-14  0.91188000000E+02  0.91188000000E+02 0.  0.
    9900012    2    3    3    0    0  0.24514897065E+02  0.18313553647E+02  0.20479579564E+02  0.54367087404E+02  0.40000007354E+02 0.  0.
         12    1    3    3    0    0 -0.24514897065E+02 -0.18313553647E+02 -0.20479579564E+02  0.36820912596E+02  0.00000000000E+00 0. -1.
         11    1    4    4    0    0 -0.91599431615E+01  0.35400556270E+01  0.11172854880E+02  0.14875121478E+02  0.51100000000E-03 0. -1.
        -11    1    4    4    0    0  0.12374623765E+02  0.91692337187E+01  0.81776670089E+01  0.17437901200E+02  0.51100000000E-03 0.  1.
         12    1    4    4    0    0  0.21300216462E+02  0.56042643017E+01  0.11290576757E+01  0.22054064725E+02  0.00000000000E+00 0. -1.
</event>
<event>
 8    1  0.2493819E-006  0.9118800E+02  0.7816164E-02  0.1184000E+00
        -11   -1    0    0    0    0  0.00000000000E+00  0.00000000000E+00  0.45593999997E+02  0.45594000000E+02  0.51100000000E-03 0.  1.
         11   -1    0    0    0    0 -0.00000000000E+00 -0.00000000000E+00 -0.45593999997E+02  0.45594000000E+02  0.51100000000E-03 0. -1.
         23    2    1    2    0    0  0.00000000000E+00  0.00000000000E+00  0.00000000000E+00  0.91188000000E+02  0.91188000000E+02 0.  0.
    9900012    2    3    3    0    0 -0.27618155109E+02 -0.23536450207E+02  0.62491752304E+01  0.54367093289E+02  0.40000020771E+02 0.  0.
         12    1    3    3    0    0  0.27618155109E+02  0.23536450207E+02 -0.62491752304E+01  0.36820906711E+02  0.00000000000E+00 0. -1.
         11    1    4    4    0    0  0.32135769366E+01 -0.87003691848E+00 -0.79893764943E+01  0.86552976839E+01  0.51100000000E-03 0. -1.
        -11    1    4    4    0    0 -0.30976843804E+02 -0.22793346950E+02  0.77647170068E+01  0.39235090769E+02  0.51100000000E-03 0.  1.
         12    1    4    4    0    0  0.14511175807E+00  0.12693366097E+00  0.64738347179E+01  0.64767048359E+01  0.00000000000E+00 0. -1.
</event>
<event>
 8    1  0.2493819E-006  0.9118800E+02  0.7816164E-02  0.1184000E+00
        -11   -1    0    0    0    0  0.00000000000E+00  0.00000000000E+00  0.45593999997E+02  0.45594000000E+02  0.51100000000E-03 0. -1.
         11   -1    0    0    0    0 -0.00000000000E+00 -0.00000000000E+00 -0.45593999997E+02  0.45594000000E+02  0.51100000000E-03 0.  1.
         23    2    1    2    0    0 -0.22204460493E-15  0.00000000000E+00  0.14210854715E-13  0.91188000000E+02  0.91188000000E+02 0.  0.
    9900012    2    3    3    0    0  0.13240297849E+01 -0.38229051594E+01 -0.36597991228E+02  0.54367073604E+02  0.39999975894E+02 0.  0.
         12    1    3    3    0    0 -0.13240297849E+01  0.38229051594E+01  0.36597991228E+02  0.36820926396E+02  0.00000000000E+00 0. -1.
         11    1    4    4    0    0  0.53188593765E+01 -0.35729766401E+01  0.32014705790E+01  0.71628095931E+01  0.51100000000E-03 0. -1.
        -11    1    4    4    0    0  0.43927833897E+01  0.10113062586E+02 -0.11555646970E+02  0.15971961618E+02  0.51100000000E-03 0.  1.
         12    1    4    4    0    0 -0.83876129812E+01 -0.10362991105E+02 -0.28243814837E+02  0.31232302392E+02  0.00000000000E+00 0. -1.
</event>
<event>
 8    1  0.2493819E-006  0.9118800E+02  0.7816164E-02  0.1184000E+00
        -11   -1    0    0    0    0  0.00000000000E+00  0.00000000000E+00  0.45593999997E+02  0.45594000000E+02  0.51100000000E-03 0.  1.
         11   -1    0    0    0    0 -0.00000000000E+00 -0.00000000000E+00 -0.45593999997E+02  0.45594000000E+02  0.51100000000E-03 0. -1.
         23    2    1    2    0    0  0.00000000000E+00  0.00000000000E+00  0.00000000000E+00  0.91188000000E+02  0.91188000000E+02 0.  0.
    9900012    2    3    3    0    0  0.32650526997E+02 -0.14287860220E+02  0.92509067054E+01  0.54367093742E+02  0.40000021803E+02 0.  0.
         12    1    3    3    0    0 -0.32650526997E+02  0.14287860220E+02 -0.92509067054E+01  0.36820906258E+02  0.00000000000E+00 0. -1.
         11    1    4    4    0    0 -0.42008697540E+01 -0.66590288871E+01 -0.50400314794E+00  0.78894861584E+01  0.51100000000E-03 0. -1.
        -11    1    4    4    0    0  0.16235782746E+02 -0.11012055888E+02 -0.57704209606E+01  0.20449053146E+02  0.51100000000E-03 0.  1.
        -12    1    4    4    0    0  0.20615614005E+02  0.33832245559E+01  0.15525330814E+02  0.26028554437E+02  0.00000000000E+00 0.  1.
</event>
<event>
 8    1  0.2493819E-006  0.9118800E+02  0.7816164E-02  0.1184000E+00
        -11   -1    0    0    0    0  0.00000000000E+00  0.00000000000E+00  0.45593999997E+02  0.45594000000E+02  0.51100000000E-03 0.  1.
         11   -1    0    0    0    0 -0.00000000000E+00 -0.00000000000E+00 -0.45593999997E+02  0.45594000000E+02  0.51100000000E-03 0. -1.
         23    2    1    2    0    0  0.00000000000E+00  0.00000000000E+00  0.00000000000E+00  0.91188000000E+02  0.91188000000E+02 0.  0.
    9900012    2    3    3    0    0 -0.19483971182E+02 -0.13935274554E+02  0.27963613231E+02  0.54367072868E+02  0.39999974218E+02 0.  0.
         12    1    3    3    0    0  0.19483971182E+02  0.13935274554E+02 -0.27963613231E+02  0.36820927132E+02  0.00000000000E+00 0. -1.
         11    1    4    4    0    0 -0.55510913244E-01  0.58485566433E+01 -0.50277840584E+01  0.77128016356E+01  0.51100000000E-03 0. -1.
        -11    1    4    4    0    0 -0.43993814642E+01 -0.42236451755E+00  0.16575896179E+02  0.17154978387E+02  0.51100000000E-03 0.  1.
        -12    1    4    4    0    0 -0.15029078804E+02 -0.19361466680E+02  0.16415501110E+02  0.29499292846E+02  0.00000000000E+00 0.  1.
</event>
<event>
 8    1  0.2493819E-006  0.9118800E+02  0.7816164E-02  0.1184000E+00
        -11   -1    0    0    0    0  0.00000000000E+00  0.00000000000E+00  0.45593999997E+02  0.45594000000E+02  0.51100000000E-03 0.  1.
         11   -1    0    0    0    0 -0.00000000000E+00 -0.00000000000E+00 -0.45593999997E+02  0.45594000000E+02  0.51100000000E-03 0. -1.
         23    2    1    2    0    0  0.71054273576E-14  0.88817841970E-15  0.00000000000E+00  0.91188000000E+02  0.91188000000E+02 0.  0.
    9900012    2    3    3    0    0 -0.29540764248E+02  0.74407424728E+01  0.20682367352E+02  0.54367058673E+02  0.39999941857E+02 0.  0.
         12    1    3    3    0    0  0.29540764248E+02 -0.74407424728E+01 -0.20682367352E+02  0.36820941327E+02  0.00000000000E+00 0. -1.
         11    1    4    4    0    0 -0.36895497335E+00  0.11997996761E+02  0.11839828658E+02  0.16860296467E+02  0.51100000000E-03 0. -1.
        -11    1    4    4    0    0 -0.15996546963E+02  0.65434660838E+01 -0.16061591162E+01  0.17357598063E+02  0.51100000000E-03 0.  1.
         12    1    4    4    0    0 -0.13175262312E+02 -0.11100720372E+02  0.10448697810E+02  0.20149164143E+02  0.00000000000E+00 0. -1.
</event>
<event>
 8    1  0.2493819E-006  0.9118800E+02  0.7816164E-02  0.1184000E+00
        -11   -1    0    0    0    0  0.00000000000E+00  0.00000000000E+00  0.45593999997E+02  0.45594000000E+02  0.51100000000E-03 0.  1.
         11   -1    0    0    0    0 -0.00000000000E+00 -0.00000000000E+00 -0.45593999997E+02  0.45594000000E+02  0.51100000000E-03 0. -1.
         23    2    1    2    0    0 -0.35527136788E-14  0.17763568394E-14  0.00000000000E+00  0.91188000000E+02  0.91188000000E+02 0.  0.
    9900012    2    3    3    0    0  0.31833276920E+02  0.15347657284E+02 -0.10337878096E+02  0.54367084380E+02  0.40000000461E+02 0.  0.
        -12    1    3    3    0    0 -0.31833276920E+02 -0.15347657284E+02  0.10337878096E+02  0.36820915620E+02  0.00000000000E+00 0.  1.
         11    1    4    4    0    0 -0.46457324705E+01  0.15053643126E+01 -0.99799358554E-01  0.48845585342E+01  0.51100000000E-03 0. -1.
        -11    1    4    4    0    0  0.23100641389E+02 -0.50982686011E+01  0.10753899269E+01  0.23680972089E+02  0.51100000000E-03 0.  1.
         12    1    4    4    0    0  0.13378368001E+02  0.18940561572E+02 -0.11313468664E+02  0.25801553757E+02  0.00000000000E+00 0. -1.
</event>
<event>
 8    1  0.2493819E-006  0.9118800E+02  0.7816164E-02  0.1184000E+00
        -11   -1    0    0    0    0  0.00000000000E+00  0.00000000000E+00  0.45593999997E+02  0.45594000000E+02  0.51100000000E-03 0. -1.
         11   -1    0    0    0    0 -0.00000000000E+00 -0.00000000000E+00 -0.45593999997E+02  0.45594000000E+02  0.51100000000E-03 0.  1.
         23    2    1    2    0    0 -0.71054273576E-14  0.88817841970E-15  0.35527136788E-14  0.91188000000E+02  0.91188000000E+02 0.  0.
    9900012    2    3    3    0    0 -0.32178738364E+02  0.50418152402E+01  0.17172312737E+02  0.54367089795E+02  0.40000012806E+02 0.  0.
        -12    1    3    3    0    0  0.32178738364E+02 -0.50418152402E+01 -0.17172312737E+02  0.36820910205E+02  0.00000000000E+00 0.  1.
         11    1    4    4    0    0 -0.15081595389E+02 -0.15622917459E+02  0.94703529678E+01  0.23690032820E+02  0.51100000000E-03 0. -1.
        -11    1    4    4    0    0 -0.47397855295E+01  0.82090248856E+01  0.90162269046E+01  0.13082278253E+02  0.51100000000E-03 0.  1.
        -12    1    4    4    0    0 -0.12357357445E+02  0.12455707814E+02 -0.13142671357E+01  0.17594778722E+02  0.00000000000E+00 0.  1.
</event>
<event>
 8    1  0.2493819E-006  0.9118800E+02  0.7816164E-02  0.1184000E+00
        -11   -1    0    0    0    0  0.00000000000E+00  0.00000000000E+00  0.45593999997E+02  0.45594000000E+02  0.51100000000E-03 0.  1.
         11   -1    0    0    0    0 -0.00000000000E+00 -0.00000000000E+00 -0.45593999997E+02  0.45594000000E+02  0.51100000000E-03 0. -1.
         23    2    1    2    0    0  0.00000000000E+00 -0.44408920985E-15  0.35527136788E-14  0.91188000000E+02  0.91188000000E+02 0.  0.
    9900012    2    3    3    0    0  0.19349911080E+02  0.29677024423E+01  0.31185793414E+02  0.54367081659E+02  0.39999994259E+02 0.  0.
         12    1    3    3    0    0 -0.19349911080E+02 -0.29677024423E+01 -0.31185793414E+02  0.36820918341E+02  0.00000000000E+00 0. -1.
         11    1    4    4    0    0  0.78598724317E+01 -0.14341902105E+02  0.24064098199E+01  0.16530534145E+02  0.51100000000E-03 0. -1.
        -11    1    4    4    0    0  0.77213835606E+01  0.19256794516E+01  0.14358233476E+02  0.16416055380E+02  0.51100000000E-03 0.  1.
         12    1    4    4    0    0  0.37686550881E+01  0.15383925096E+02  0.14421150118E+02  0.21420492134E+02  0.00000000000E+00 0. -1.
</event>
<event>
 8    1  0.2493819E-006  0.9118800E+02  0.7816164E-02  0.1184000E+00
        -11   -1    0    0    0    0  0.00000000000E+00  0.00000000000E+00  0.45593999997E+02  0.45594000000E+02  0.51100000000E-03 0.  1.
         11   -1    0    0    0    0 -0.00000000000E+00 -0.00000000000E+00 -0.45593999997E+02  0.45594000000E+02  0.51100000000E-03 0. -1.
         23    2    1    2    0    0 -0.17763568394E-14  0.00000000000E+00  0.35527136788E-14  0.91188000000E+02  0.91188000000E+02 0.  0.
    9900012    2    3    3    0    0 -0.15933051353E+02 -0.24744874489E+02  0.22127106682E+02  0.54367084897E+02  0.40000001641E+02 0.  0.
         12    1    3    3    0    0  0.15933051353E+02  0.24744874489E+02 -0.22127106682E+02  0.36820915103E+02  0.00000000000E+00 0. -1.
         11    1    4    4    0    0 -0.95565940214E+01 -0.59846131926E+01 -0.66307961107E+00  0.11295298101E+02  0.51100000000E-03 0. -1.
        -11    1    4    4    0    0 -0.17680253209E+02 -0.10969518634E+02  0.65650301173E+01  0.21817912670E+02  0.51100000000E-03 0.  1.
         12    1    4    4    0    0  0.11303795877E+02 -0.77907426628E+01  0.16225156175E+02  0.21253874127E+02  0.00000000000E+00 0. -1.
</event>
<event>
 8    1  0.2493819E-006  0.9118800E+02  0.7816164E-02  0.1184000E+00
        -11   -1    0    0    0    0  0.00000000000E+00  0.00000000000E+00  0.45593999997E+02  0.45594000000E+02  0.51100000000E-03 0. -1.
         11   -1    0    0    0    0 -0.00000000000E+00 -0.00000000000E+00 -0.45593999997E+02  0.45594000000E+02  0.51100000000E-03 0.  1.
         23    2    1    2    0    0  0.00000000000E+00  0.00000000000E+00  0.00000000000E+00  0.91188000000E+02  0.91188000000E+02 0.  0.
    9900012    2    3    3    0    0  0.20829241176E+02 -0.23320772104E+02  0.19443868560E+02  0.54367085779E+02  0.40000003651E+02 0.  0.
         12    1    3    3    0    0 -0.20829241176E+02  0.23320772104E+02 -0.19443868560E+02  0.36820914221E+02  0.00000000000E+00 0. -1.
         11    1    4    4    0    0  0.78620974716E+01  0.30522491847E+01  0.69130207292E+01  0.10904983155E+02  0.51100000000E-03 0. -1.
        -11    1    4    4    0    0  0.66795048911E+01 -0.32057911395E+02  0.74627866643E+01  0.33585988949E+02  0.51100000000E-03 0.  1.
        -12    1    4    4    0    0  0.62876388130E+01  0.56848901063E+01  0.50680611662E+01  0.98761136763E+01  0.00000000000E+00 0.  1.
</event>
<event>
 8    1  0.2493819E-006  0.9118800E+02  0.7816164E-02  0.1184000E+00
        -11   -1    0    0    0    0  0.00000000000E+00  0.00000000000E+00  0.45593999997E+02  0.45594000000E+02  0.51100000000E-03 0.  1.
         11   -1    0    0    0    0 -0.00000000000E+00 -0.00000000000E+00 -0.45593999997E+02  0.45594000000E+02  0.51100000000E-03 0. -1.
         23    2    1    2    0    0 -0.35527136788E-14  0.66613381478E-15  0.00000000000E+00  0.91188000000E+02  0.91188000000E+02 0.  0.
    9900012    2    3    3    0    0  0.23665178807E+02 -0.18532995462E+01  0.28147900141E+02  0.54367086248E+02  0.40000004719E+02 0.  0.
         12    1    3    3    0    0 -0.23665178807E+02  0.18532995462E+01 -0.28147900141E+02  0.36820913752E+02  0.00000000000E+00 0. -1.
         11    1    4    4    0    0  0.19040481063E+02  0.89512924957E+00  0.62771820681E+01  0.20068487498E+02  0.51100000000E-03 0. -1.
        -11    1    4    4    0    0 -0.12074178293E+01  0.51605893207E+01 -0.39898642568E+01  0.66338945576E+01  0.51100000000E-03 0.  1.
        -12    1    4    4    0    0  0.58321155739E+01 -0.79090181164E+01  0.25860582330E+02  0.27664704193E+02  0.00000000000E+00 0.  1.
</event>
<event>
 8    1  0.2493819E-006  0.9118800E+02  0.7816164E-02  0.1184000E+00
        -11   -1    0    0    0    0  0.00000000000E+00  0.00000000000E+00  0.45593999997E+02  0.45594000000E+02  0.51100000000E-03 0. -1.
         11   -1    0    0    0    0 -0.00000000000E+00 -0.00000000000E+00 -0.45593999997E+02  0.45594000000E+02  0.51100000000E-03 0.  1.
         23    2    1    2    0    0 -0.35527136788E-14  0.00000000000E+00  0.00000000000E+00  0.91188000000E+02  0.91188000000E+02 0.  0.
    9900012    2    3    3    0    0 -0.19108981874E+02  0.26735130781E+02 -0.16608995745E+02  0.54367093632E+02  0.40000021552E+02 0.  0.
         12    1    3    3    0    0  0.19108981874E+02 -0.26735130781E+02  0.16608995745E+02  0.36820906368E+02  0.00000000000E+00 0. -1.
         11    1    4    4    0    0 -0.62823563835E+01  0.20228072220E+02 -0.33400694290E+01  0.21442923577E+02  0.51100000000E-03 0. -1.
        -11    1    4    4    0    0  0.36620221433E+01 -0.75127962014E+01 -0.50978251196E+01  0.97898076668E+01  0.51100000000E-03 0.  1.
        -12    1    4    4    0    0 -0.16488647633E+02  0.14019854763E+02 -0.81711011960E+01  0.23134362388E+02  0.00000000000E+00 0.  1.
</event>
<event>
 8    1  0.2493819E-006  0.9118800E+02  0.7816164E-02  0.1184000E+00
        -11   -1    0    0    0    0  0.00000000000E+00  0.00000000000E+00  0.45593999997E+02  0.45594000000E+02  0.51100000000E-03 0.  1.
         11   -1    0    0    0    0 -0.00000000000E+00 -0.00000000000E+00 -0.45593999997E+02  0.45594000000E+02  0.51100000000E-03 0. -1.
         23    2    1    2    0    0  0.00000000000E+00  0.00000000000E+00  0.00000000000E+00  0.91188000000E+02  0.91188000000E+02 0.  0.
    9900012    2    3    3    0    0 -0.89025031110E+01  0.34177926787E+02 -0.10411277019E+02  0.54367082979E+02  0.39999997266E+02 0.  0.
         12    1    3    3    0    0  0.89025031110E+01 -0.34177926787E+02  0.10411277019E+02  0.36820917021E+02  0.00000000000E+00 0. -1.
         11    1    4    4    0    0 -0.20595990807E+01 -0.30942808988E+01  0.12637138090E+01  0.39260024843E+01  0.51100000000E-03 0. -1.
        -11    1    4    4    0    0 -0.19337296644E+02  0.21025995624E+02 -0.62922360875E+01  0.29250910562E+02  0.51100000000E-03 0.  1.
         12    1    4    4    0    0  0.12494392614E+02  0.16246212062E+02 -0.53827547407E+01  0.21190169932E+02  0.00000000000E+00 0. -1.
</event>
<event>
 8    1  0.2493819E-006  0.9118800E+02  0.7816164E-02  0.1184000E+00
        -11   -1    0    0    0    0  0.00000000000E+00  0.00000000000E+00  0.45593999997E+02  0.45594000000E+02  0.51100000000E-03 0.  1.
         11   -1    0    0    0    0 -0.00000000000E+00 -0.00000000000E+00 -0.45593999997E+02  0.45594000000E+02  0.51100000000E-03 0. -1.
         23    2    1    2    0    0 -0.35527136788E-14  0.00000000000E+00  0.00000000000E+00  0.91188000000E+02  0.91188000000E+02 0.  0.
    9900012    2    3    3    0    0  0.23863413297E+02  0.63547183287E+01  0.27311839079E+02  0.54367061757E+02  0.39999948888E+02 0.  0.
         12    1    3    3    0    0 -0.23863413297E+02 -0.63547183287E+01 -0.27311839079E+02  0.36820938243E+02  0.00000000000E+00 0. -1.
         11    1    4    4    0    0  0.61039072558E+01  0.42683880857E+01  0.49770016453E+01  0.89580894323E+01  0.51100000000E-03 0. -1.
        -11    1    4    4    0    0  0.16669828488E+02  0.64938407281E+01  0.30905515874E+02  0.35709999453E+02  0.51100000000E-03 0.  1.
         12    1    4    4    0    0  0.10896775530E+01 -0.44075104850E+01 -0.85706784405E+01  0.96989728722E+01  0.00000000000E+00 0. -1.
</event>
<event>
 8    1  0.2493819E-006  0.9118800E+02  0.7816164E-02  0.1184000E+00
        -11   -1    0    0    0    0  0.00000000000E+00  0.00000000000E+00  0.45593999997E+02  0.45594000000E+02  0.51100000000E-03 0. -1.
         11   -1    0    0    0    0 -0.00000000000E+00 -0.00000000000E+00 -0.45593999997E+02  0.45594000000E+02  0.51100000000E-03 0.  1.
         23    2    1    2    0    0  0.00000000000E+00  0.00000000000E+00 -0.88817841970E-15  0.91188000000E+02  0.91188000000E+02 0.  0.
    9900012    2    3    3    0    0 -0.92609530024E+01  0.34777613602E+02 -0.77806317706E+01  0.54367002062E+02  0.39999812801E+02 0.  0.
        -12    1    3    3    0    0  0.92609530024E+01 -0.34777613602E+02  0.77806317706E+01  0.36820997938E+02  0.00000000000E+00 0.  1.
         11    1    4    4    0    0 -0.61210030340E+00  0.95443669874E+01 -0.48373654455E+01  0.10717728896E+02  0.51100000000E-03 0. -1.
        -11    1    4    4    0    0 -0.44740862217E+01  0.21959596573E+02  0.13641878142E+02  0.26236275815E+02  0.51100000000E-03 0.  1.
        -12    1    4    4    0    0 -0.41747664773E+01  0.32736500422E+01 -0.16585144467E+02  0.17412997351E+02  0.00000000000E+00 0.  1.
</event>
<event>
 8    1  0.2493819E-006  0.9118800E+02  0.7816164E-02  0.1184000E+00
        -11   -1    0    0    0    0  0.00000000000E+00  0.00000000000E+00  0.45593999997E+02  0.45594000000E+02  0.51100000000E-03 0.  1.
         11   -1    0    0    0    0 -0.00000000000E+00 -0.00000000000E+00 -0.45593999997E+02  0.45594000000E+02  0.51100000000E-03 0. -1.
         23    2    1    2    0    0  0.35527136788E-14  0.88817841970E-15 -0.10658141036E-13  0.91188000000E+02  0.91188000000E+02 0.  0.
    9900012    2    3    3    0    0  0.26589481557E+02  0.36320399935E+01 -0.25210848154E+02  0.54367094136E+02  0.40000022703E+02 0.  0.
        -12    1    3    3    0    0 -0.26589481557E+02 -0.36320399935E+01  0.25210848154E+02  0.36820905864E+02  0.00000000000E+00 0.  1.
         11    1    4    4    0    0  0.13740971411E+02  0.47205214397E+01  0.16060993514E+01  0.14617700686E+02  0.51100000000E-03 0. -1.
        -11    1    4    4    0    0  0.12322485503E+02 -0.78724112730E+00  0.56520114818E+00  0.12360535998E+02  0.51100000000E-03 0.  1.
        -12    1    4    4    0    0  0.52602464366E+00 -0.30124031890E+00 -0.27382148653E+02  0.27388857452E+02  0.00000000000E+00 0.  1.
</event>
<event>
 8    1  0.2493819E-006  0.9118800E+02  0.7816164E-02  0.1184000E+00
        -11   -1    0    0    0    0  0.00000000000E+00  0.00000000000E+00  0.45593999997E+02  0.45594000000E+02  0.51100000000E-03 0. -1.
         11   -1    0    0    0    0 -0.00000000000E+00 -0.00000000000E+00 -0.45593999997E+02  0.45594000000E+02  0.51100000000E-03 0.  1.
         23    2    1    2    0    0 -0.88817841970E-15 -0.17763568394E-14  0.00000000000E+00  0.91188000000E+02  0.91188000000E+02 0.  0.
    9900012    2    3    3    0    0 -0.77912281537E+01  0.52405645359E+01  0.35603559586E+02  0.54367079208E+02  0.39999988670E+02 0.  0.
        -12    1    3    3    0    0  0.77912281537E+01 -0.52405645359E+01 -0.35603559586E+02  0.36820920792E+02  0.00000000000E+00 0.  1.
         11    1    4    4    0    0 -0.99517581196E+01  0.82089346747E+01  0.71311266531E+01  0.14740321088E+02  0.51100000000E-03 0. -1.
        -11    1    4    4    0    0  0.50949899863E+01  0.10625382729E+02  0.20366876406E+02  0.23530136759E+02  0.51100000000E-03 0.  1.
        -12    1    4    4    0    0 -0.29344600204E+01 -0.13593752867E+02  0.81055565268E+01  0.16096621361E+02  0.00000000000E+00 0.  1.
</event>
<event>
 8    1  0.2493819E-006  0.9118800E+02  0.7816164E-02  0.1184000E+00
        -11   -1    0    0    0    0  0.00000000000E+00  0.00000000000E+00  0.45593999997E+02  0.45594000000E+02  0.51100000000E-03 0.  1.
         11   -1    0    0    0    0 -0.00000000000E+00 -0.00000000000E+00 -0.45593999997E+02  0.45594000000E+02  0.51100000000E-03 0. -1.
         23    2    1    2    0    0 -0.35527136788E-14  0.00000000000E+00 -0.71054273576E-14  0.91188000000E+02  0.91188000000E+02 0.  0.
    9900012    2    3    3    0    0  0.12587799148E+02 -0.14648124594E+02  0.31348995188E+02  0.54367085552E+02  0.40000003133E+02 0.  0.
         12    1    3    3    0    0 -0.12587799148E+02  0.14648124594E+02 -0.31348995188E+02  0.36820914448E+02  0.00000000000E+00 0. -1.
         11    1    4    4    0    0 -0.42952368561E+01 -0.58568468654E+00 -0.93175225720E-01  0.43359852497E+01  0.51100000000E-03 0. -1.
        -11    1    4    4    0    0  0.59505743131E+01  0.34195890371E+01  0.28365400904E+02  0.29183880697E+02  0.51100000000E-03 0.  1.
         12    1    4    4    0    0  0.10932461691E+02 -0.17482028945E+02  0.30767695095E+01  0.20847219605E+02  0.00000000000E+00 0. -1.
</event>
<event>
 8    1  0.2493819E-006  0.9118800E+02  0.7816164E-02  0.1184000E+00
        -11   -1    0    0    0    0  0.00000000000E+00  0.00000000000E+00  0.45593999997E+02  0.45594000000E+02  0.51100000000E-03 0.  1.
         11   -1    0    0    0    0 -0.00000000000E+00 -0.00000000000E+00 -0.45593999997E+02  0.45594000000E+02  0.51100000000E-03 0. -1.
         23    2    1    2    0    0  0.00000000000E+00  0.00000000000E+00  0.00000000000E+00  0.91188000000E+02  0.91188000000E+02 0.  0.
    9900012    2    3    3    0    0  0.62914354084E+01 -0.34940851442E+02 -0.97640045267E+01  0.54367067863E+02  0.39999962808E+02 0.  0.
        -12    1    3    3    0    0 -0.62914354084E+01  0.34940851442E+02  0.97640045267E+01  0.36820932137E+02  0.00000000000E+00 0.  1.
         11    1    4    4    0    0  0.23329955303E+01 -0.24990470087E+02  0.78440285187E+01  0.26296297210E+02  0.51100000000E-03 0. -1.
        -11    1    4    4    0    0  0.75273059019E+01 -0.14127338528E+01  0.56283462543E+00  0.76793837094E+01  0.51100000000E-03 0.  1.
         12    1    4    4    0    0 -0.35688660238E+01 -0.85376475031E+01 -0.18170867671E+02  0.20391386944E+02  0.00000000000E+00 0. -1.
</event>
<event>
 8    1  0.2493819E-006  0.9118800E+02  0.7816164E-02  0.1184000E+00
        -11   -1    0    0    0    0  0.00000000000E+00  0.00000000000E+00  0.45593999997E+02  0.45594000000E+02  0.51100000000E-03 0.  1.
         11   -1    0    0    0    0 -0.00000000000E+00 -0.00000000000E+00 -0.45593999997E+02  0.45594000000E+02  0.51100000000E-03 0. -1.
         23    2    1    2    0    0  0.00000000000E+00  0.17763568394E-14  0.00000000000E+00  0.91188000000E+02  0.91188000000E+02 0.  0.
    9900012    2    3    3    0    0 -0.15903273276E+02  0.14747799411E+02 -0.29755111988E+02  0.54367104061E+02  0.40000045328E+02 0.  0.
        -12    1    3    3    0    0  0.15903273276E+02 -0.14747799411E+02  0.29755111988E+02  0.36820895939E+02  0.00000000000E+00 0.  1.
         11    1    4    4    0    0 -0.22450932879E+01  0.81623155641E+01 -0.25962161506E+01  0.88546133626E+01  0.51100000000E-03 0. -1.
        -11    1    4    4    0    0 -0.18495842727E+02  0.68660670048E+01 -0.19309976872E+01  0.19823416119E+02  0.51100000000E-03 0.  1.
         12    1    4    4    0    0  0.48376627389E+01 -0.28058315832E+00 -0.25227898150E+02  0.25689074580E+02  0.00000000000E+00 0. -1.
</event>
<event>
 8    1  0.2493819E-006  0.9118800E+02  0.7816164E-02  0.1184000E+00
        -11   -1    0    0    0    0  0.00000000000E+00  0.00000000000E+00  0.45593999997E+02  0.45594000000E+02  0.51100000000E-03 0.  1.
         11   -1    0    0    0    0 -0.00000000000E+00 -0.00000000000E+00 -0.45593999997E+02  0.45594000000E+02  0.51100000000E-03 0. -1.
         23    2    1    2    0    0  0.00000000000E+00  0.00000000000E+00  0.00000000000E+00  0.91188000000E+02  0.91188000000E+02 0.  0.
    9900012    2    3    3    0    0  0.32713026005E+02 -0.16491415184E+02 -0.36972221510E+01  0.54367105160E+02  0.40000047834E+02 0.  0.
        -12    1    3    3    0    0 -0.32713026005E+02  0.16491415184E+02  0.36972221510E+01  0.36820894840E+02  0.00000000000E+00 0.  1.
         11    1    4    4    0    0  0.30006514874E+02 -0.24997916772E+02 -0.92244285965E+01  0.40129501131E+02  0.51100000000E-03 0. -1.
        -11    1    4    4    0    0  0.14286106909E+01  0.27622424759E+01 -0.27027776487E+01  0.41201843746E+01  0.51100000000E-03 0.  1.
        -12    1    4    4    0    0  0.12779004402E+01  0.57442591125E+01  0.82299840941E+01  0.10117419655E+02  0.00000000000E+00 0.  1.
</event>
<event>
 8    1  0.2493819E-006  0.9118800E+02  0.7816164E-02  0.1184000E+00
        -11   -1    0    0    0    0  0.00000000000E+00  0.00000000000E+00  0.45593999997E+02  0.45594000000E+02  0.51100000000E-03 0. -1.
         11   -1    0    0    0    0 -0.00000000000E+00 -0.00000000000E+00 -0.45593999997E+02  0.45594000000E+02  0.51100000000E-03 0.  1.
         23    2    1    2    0    0  0.00000000000E+00  0.00000000000E+00  0.00000000000E+00  0.91188000000E+02  0.91188000000E+02 0.  0.
    9900012    2    3    3    0    0 -0.34216827948E+02 -0.13093203878E+02 -0.36819091992E+01  0.54367085319E+02  0.40000002601E+02 0.  0.
        -12    1    3    3    0    0  0.34216827948E+02  0.13093203878E+02  0.36819091992E+01  0.36820914681E+02  0.00000000000E+00 0.  1.
         11    1    4    4    0    0  0.54089054873E+01 -0.10813400228E+02 -0.45448433939E+01  0.12916713390E+02  0.51100000000E-03 0. -1.
        -11    1    4    4    0    0 -0.69237718762E+01 -0.47542556293E+01  0.20055326965E+01  0.86350289659E+01  0.51100000000E-03 0.  1.
        -12    1    4    4    0    0 -0.32701961559E+02  0.24744519796E+01 -0.11425985018E+01  0.32815342963E+02  0.00000000000E+00 0.  1.
</event>
<event>
 8    1  0.2493819E-006  0.9118800E+02  0.7816164E-02  0.1184000E+00
        -11   -1    0    0    0    0  0.00000000000E+00  0.00000000000E+00  0.45593999997E+02  0.45594000000E+02  0.51100000000E-03 0. -1.
         11   -1    0    0    0    0 -0.00000000000E+00 -0.00000000000E+00 -0.45593999997E+02  0.45594000000E+02  0.51100000000E-03 0.  1.
         23    2    1    2    0    0  0.00000000000E+00  0.35527136788E-14  0.35527136788E-14  0.91188000000E+02  0.91188000000E+02 0.  0.
    9900012    2    3    3    0    0 -0.43871840280E+01  0.22164941777E+02  0.29073167630E+02  0.54367067045E+02  0.39999960942E+02 0.  0.
        -12    1    3    3    0    0  0.43871840280E+01 -0.22164941777E+02 -0.29073167630E+02  0.36820932955E+02  0.00000000000E+00 0.  1.
         11    1    4    4    0    0 -0.86473384616E+01  0.52725226502E+01  0.10033710873E+00  0.10128475965E+02  0.51100000000E-03 0. -1.
        -11    1    4    4    0    0  0.11712350677E+02  0.12587430219E+02  0.37636040893E+01  0.17600774810E+02  0.51100000000E-03 0.  1.
         12    1    4    4    0    0 -0.74521962436E+01  0.43049889071E+01  0.25209226432E+02  0.26637816270E+02  0.00000000000E+00 0. -1.
</event>
<event>
 8    1  0.2493819E-006  0.9118800E+02  0.7816164E-02  0.1184000E+00
        -11   -1    0    0    0    0  0.00000000000E+00  0.00000000000E+00  0.45593999997E+02  0.45594000000E+02  0.51100000000E-03 0. -1.
         11   -1    0    0    0    0 -0.00000000000E+00 -0.00000000000E+00 -0.45593999997E+02  0.45594000000E+02  0.51100000000E-03 0.  1.
         23    2    1    2    0    0  0.17763568394E-14  0.00000000000E+00  0.00000000000E+00  0.91188000000E+02  0.91188000000E+02 0.  0.
    9900012    2    3    3    0    0 -0.66367628810E+01  0.32735892127E+02 -0.15494971669E+02  0.54367090153E+02  0.40000013623E+02 0.  0.
        -12    1    3    3    0    0  0.66367628810E+01 -0.32735892127E+02  0.15494971669E+02  0.36820909847E+02  0.00000000000E+00 0.  1.
         11    1    4    4    0    0 -0.16758853631E+02  0.28936480602E+02 -0.62063652582E+01  0.34010263961E+02  0.51100000000E-03 0. -1.
        -11    1    4    4    0    0  0.44997331842E+01 -0.34622471359E+01  0.18026556946E+01  0.59568718111E+01  0.51100000000E-03 0.  1.
         12    1    4    4    0    0  0.56223575658E+01  0.72616586605E+01 -0.11091262106E+02  0.14399954382E+02  0.00000000000E+00 0. -1.
</event>
<event>
 8    1  0.2493819E-006  0.9118800E+02  0.7816164E-02  0.1184000E+00
        -11   -1    0    0    0    0  0.00000000000E+00  0.00000000000E+00  0.45593999997E+02  0.45594000000E+02  0.51100000000E-03 0.  1.
         11   -1    0    0    0    0 -0.00000000000E+00 -0.00000000000E+00 -0.45593999997E+02  0.45594000000E+02  0.51100000000E-03 0. -1.
         23    2    1    2    0    0  0.00000000000E+00 -0.44408920985E-15  0.35527136788E-14  0.91188000000E+02  0.91188000000E+02 0.  0.
    9900012    2    3    3    0    0 -0.20654992818E+02 -0.23684361533E+01 -0.30389827887E+02  0.54367083972E+02  0.39999999531E+02 0.  0.
        -12    1    3    3    0    0  0.20654992818E+02  0.23684361533E+01  0.30389827887E+02  0.36820916028E+02  0.00000000000E+00 0.  1.
         11    1    4    4    0    0 -0.55373524859E+01 -0.31232740291E+01 -0.19313919745E+02  0.20333337390E+02  0.51100000000E-03 0. -1.
        -11    1    4    4    0    0 -0.10469074495E+02  0.79904549948E+01 -0.18475045007E+02  0.22688679558E+02  0.51100000000E-03 0.  1.
        -12    1    4    4    0    0 -0.46485658366E+01 -0.72356171190E+01  0.73991368655E+01  0.11345067024E+02  0.00000000000E+00 0.  1.
</event>
<event>
 8    1  0.2493819E-006  0.9118800E+02  0.7816164E-02  0.1184000E+00
        -11   -1    0    0    0    0  0.00000000000E+00  0.00000000000E+00  0.45593999997E+02  0.45594000000E+02  0.51100000000E-03 0. -1.
         11   -1    0    0    0    0 -0.00000000000E+00 -0.00000000000E+00 -0.45593999997E+02  0.45594000000E+02  0.51100000000E-03 0.  1.
         23    2    1    2    0    0  0.00000000000E+00 -0.22204460493E-15  0.71054273576E-14  0.91188000000E+02  0.91188000000E+02 0.  0.
    9900012    2    3    3    0    0  0.32999338632E+01  0.18058134740E+01  0.36628236932E+02  0.54367105571E+02  0.40000048770E+02 0.  0.
        -12    1    3    3    0    0 -0.32999338632E+01 -0.18058134740E+01 -0.36628236932E+02  0.36820894429E+02  0.00000000000E+00 0.  1.
         11    1    4    4    0    0  0.51274700902E+01  0.95157640314E+00  0.24191654870E+02  0.24747375877E+02  0.51100000000E-03 0. -1.
        -11    1    4    4    0    0 -0.39977913131E+01 -0.20335374570E+01  0.20393656343E+02  0.20881063893E+02  0.51100000000E-03 0.  1.
        -12    1    4    4    0    0  0.21702550861E+01  0.28877745279E+01 -0.79570742814E+01  0.87386658010E+01  0.00000000000E+00 0.  1.
</event>
<event>
 8    1  0.2493819E-006  0.9118800E+02  0.7816164E-02  0.1184000E+00
        -11   -1    0    0    0    0  0.00000000000E+00  0.00000000000E+00  0.45593999997E+02  0.45594000000E+02  0.51100000000E-03 0.  1.
         11   -1    0    0    0    0 -0.00000000000E+00 -0.00000000000E+00 -0.45593999997E+02  0.45594000000E+02  0.51100000000E-03 0. -1.
         23    2    1    2    0    0  0.00000000000E+00  0.00000000000E+00 -0.13877787808E-15  0.91188000000E+02  0.91188000000E+02 0.  0.
    9900012    2    3    3    0    0 -0.32202106153E+02  0.17854795561E+02 -0.98985239081E-01  0.54367093394E+02  0.40000021010E+02 0.  0.
        -12    1    3    3    0    0  0.32202106153E+02 -0.17854795561E+02  0.98985239081E-01  0.36820906606E+02  0.00000000000E+00 0.  1.
         11    1    4    4    0    0 -0.16324051411E+02  0.16944297043E+02  0.33601128776E+01  0.23767082605E+02  0.51100000000E-03 0. -1.
        -11    1    4    4    0    0  0.33832793970E+01 -0.83185799902E+01 -0.19426410860E+01  0.91879925545E+01  0.51100000000E-03 0.  1.
        -12    1    4    4    0    0 -0.19261334139E+02  0.92290785078E+01 -0.15164570306E+01  0.21412018234E+02  0.00000000000E+00 0.  1.
</event>
<event>
 8    1  0.2493819E-006  0.9118800E+02  0.7816164E-02  0.1184000E+00
        -11   -1    0    0    0    0  0.00000000000E+00  0.00000000000E+00  0.45593999997E+02  0.45594000000E+02  0.51100000000E-03 0. -1.
         11   -1    0    0    0    0 -0.00000000000E+00 -0.00000000000E+00 -0.45593999997E+02  0.45594000000E+02  0.51100000000E-03 0.  1.
         23    2    1    2    0    0  0.00000000000E+00  0.00000000000E+00  0.00000000000E+00  0.91188000000E+02  0.91188000000E+02 0.  0.
    9900012    2    3    3    0    0 -0.10308179592E+02 -0.32874540762E+02 -0.12991653281E+02  0.54367122067E+02  0.40000086376E+02 0.  0.
         12    1    3    3    0    0  0.10308179592E+02  0.32874540762E+02  0.12991653281E+02  0.36820877933E+02  0.00000000000E+00 0. -1.
         11    1    4    4    0    0 -0.12040744123E+02 -0.16448861658E+02  0.14879448317E+01  0.20439142569E+02  0.51100000000E-03 0. -1.
        -11    1    4    4    0    0 -0.46089405670E+01  0.56235601240E+01 -0.61387281814E+01  0.95158155491E+01  0.51100000000E-03 0.  1.
        -12    1    4    4    0    0  0.63415050981E+01 -0.22049239228E+02 -0.83408699309E+01  0.24412163948E+02  0.00000000000E+00 0.  1.
</event>
<event>
 8    1  0.2493819E-006  0.9118800E+02  0.7816164E-02  0.1184000E+00
        -11   -1    0    0    0    0  0.00000000000E+00  0.00000000000E+00  0.45593999997E+02  0.45594000000E+02  0.51100000000E-03 0. -1.
         11   -1    0    0    0    0 -0.00000000000E+00 -0.00000000000E+00 -0.45593999997E+02  0.45594000000E+02  0.51100000000E-03 0.  1.
         23    2    1    2    0    0  0.17763568394E-14  0.12490009027E-14  0.00000000000E+00  0.91188000000E+02  0.91188000000E+02 0.  0.
    9900012    2    3    3    0    0 -0.38693389896E+01 -0.19584509857E+00  0.36616534808E+02  0.54367071700E+02  0.39999971555E+02 0.  0.
        -12    1    3    3    0    0  0.38693389896E+01  0.19584509857E+00 -0.36616534808E+02  0.36820928300E+02  0.00000000000E+00 0.  1.
         11    1    4    4    0    0 -0.75373145578E+01 -0.27011908090E+01  0.10018470051E+02  0.12824869783E+02  0.51100000000E-03 0. -1.
        -11    1    4    4    0    0  0.87207290316E+01  0.10389781305E+02  0.23643222740E+00  0.13566671326E+02  0.51100000000E-03 0.  1.
        -12    1    4    4    0    0 -0.50527534634E+01 -0.78844355949E+01  0.26361632530E+02  0.27975530591E+02  0.00000000000E+00 0.  1.
</event>
<event>
 8    1  0.2493819E-006  0.9118800E+02  0.7816164E-02  0.1184000E+00
        -11   -1    0    0    0    0  0.00000000000E+00  0.00000000000E+00  0.45593999997E+02  0.45594000000E+02  0.51100000000E-03 0.  1.
         11   -1    0    0    0    0 -0.00000000000E+00 -0.00000000000E+00 -0.45593999997E+02  0.45594000000E+02  0.51100000000E-03 0. -1.
         23    2    1    2    0    0 -0.35527136788E-14 -0.17763568394E-14  0.17763568394E-14  0.91188000000E+02  0.91188000000E+02 0.  0.
    9900012    2    3    3    0    0 -0.31942843308E+02 -0.93941360929E+01  0.15722123345E+02  0.54367079398E+02  0.39999989103E+02 0.  0.
        -12    1    3    3    0    0  0.31942843308E+02  0.93941360929E+01 -0.15722123345E+02  0.36820920602E+02  0.00000000000E+00 0.  1.
         11    1    4    4    0    0 -0.13474715949E+02 -0.72121862862E+01 -0.10543833991E+02  0.18567607181E+02  0.51100000000E-03 0. -1.
        -11    1    4    4    0    0 -0.39670898703E+01 -0.78058351304E+01  0.88530713285E+01  0.12451736278E+02  0.51100000000E-03 0.  1.
        -12    1    4    4    0    0 -0.14501037489E+02  0.56238853237E+01  0.17412886007E+02  0.23347735939E+02  0.00000000000E+00 0.  1.
</event>
<event>
 8    1  0.2493819E-006  0.9118800E+02  0.7816164E-02  0.1184000E+00
        -11   -1    0    0    0    0  0.00000000000E+00  0.00000000000E+00  0.45593999997E+02  0.45594000000E+02  0.51100000000E-03 0.  1.
         11   -1    0    0    0    0 -0.00000000000E+00 -0.00000000000E+00 -0.45593999997E+02  0.45594000000E+02  0.51100000000E-03 0. -1.
         23    2    1    2    0    0  0.00000000000E+00 -0.17763568394E-14  0.00000000000E+00  0.91188000000E+02  0.91188000000E+02 0.  0.
    9900012    2    3    3    0    0  0.32076482232E+02 -0.74459765133E+01  0.16475413188E+02  0.54367047835E+02  0.39999917150E+02 0.  0.
         12    1    3    3    0    0 -0.32076482232E+02  0.74459765133E+01 -0.16475413188E+02  0.36820952165E+02  0.00000000000E+00 0. -1.
         11    1    4    4    0    0  0.82552917795E+01 -0.11103211155E+02  0.95625512690E+01  0.16818844412E+02  0.51100000000E-03 0. -1.
        -11    1    4    4    0    0  0.62696079488E+01  0.10249536387E+02  0.13127916004E+02  0.17796155733E+02  0.51100000000E-03 0.  1.
        -12    1    4    4    0    0  0.17551582504E+02 -0.65923017459E+01 -0.62150540853E+01  0.19752047691E+02  0.00000000000E+00 0.  1.
</event>
<event>
 8    1  0.2493819E-006  0.9118800E+02  0.7816164E-02  0.1184000E+00
        -11   -1    0    0    0    0  0.00000000000E+00  0.00000000000E+00  0.45593999997E+02  0.45594000000E+02  0.51100000000E-03 0. -1.
         11   -1    0    0    0    0 -0.00000000000E+00 -0.00000000000E+00 -0.45593999997E+02  0.45594000000E+02  0.51100000000E-03 0.  1.
         23    2    1    2    0    0 -0.22204460493E-14  0.00000000000E+00  0.00000000000E+00  0.91188000000E+02  0.91188000000E+02 0.  0.
    9900012    2    3    3    0    0 -0.30149812194E+01  0.26403339011E+02  0.25486166647E+02  0.54367202711E+02  0.40000270218E+02 0.  0.
        -12    1    3    3    0    0  0.30149812194E+01 -0.26403339011E+02 -0.25486166647E+02  0.36820797289E+02  0.00000000000E+00 0.  1.
         11    1    4    4    0    0 -0.48643877537E+01  0.16721924583E+01  0.11527623734E+02  0.12623177296E+02  0.51100000000E-03 0. -1.
        -11    1    4    4    0    0  0.11915478629E+02  0.90823801949E+01 -0.43898889397E+01  0.15612155076E+02  0.51100000000E-03 0.  1.
        -12    1    4    4    0    0 -0.10066072094E+02  0.15648766357E+02  0.18348431853E+02  0.26131870339E+02  0.00000000000E+00 0.  1.
</event>
<event>
 8    1  0.2493819E-006  0.9118800E+02  0.7816164E-02  0.1184000E+00
        -11   -1    0    0    0    0  0.00000000000E+00  0.00000000000E+00  0.45593999997E+02  0.45594000000E+02  0.51100000000E-03 0.  1.
         11   -1    0    0    0    0 -0.00000000000E+00 -0.00000000000E+00 -0.45593999997E+02  0.45594000000E+02  0.51100000000E-03 0. -1.
         23    2    1    2    0    0 -0.11102230246E-14  0.00000000000E+00  0.88817841970E-15  0.91188000000E+02  0.91188000000E+02 0.  0.
    9900012    2    3    3    0    0 -0.63318775810E+00  0.36506239207E+02 -0.47616549012E+01  0.54367084949E+02  0.40000001759E+02 0.  0.
        -12    1    3    3    0    0  0.63318775810E+00 -0.36506239207E+02  0.47616549012E+01  0.36820915051E+02  0.00000000000E+00 0.  1.
         11    1    4    4    0    0  0.82216419774E+01 -0.97760948621E+00 -0.11091347413E+02  0.13840849136E+02  0.51100000000E-03 0. -1.
        -11    1    4    4    0    0 -0.10346595995E+02  0.20425665004E+02  0.31992421950E+01  0.23119147701E+02  0.51100000000E-03 0.  1.
         12    1    4    4    0    0  0.14917662597E+01  0.17058183689E+02  0.31304503168E+01  0.17407088112E+02  0.00000000000E+00 0. -1.
</event>
<event>
 8    1  0.2493819E-006  0.9118800E+02  0.7816164E-02  0.1184000E+00
        -11   -1    0    0    0    0  0.00000000000E+00  0.00000000000E+00  0.45593999997E+02  0.45594000000E+02  0.51100000000E-03 0. -1.
         11   -1    0    0    0    0 -0.00000000000E+00 -0.00000000000E+00 -0.45593999997E+02  0.45594000000E+02  0.51100000000E-03 0.  1.
         23    2    1    2    0    0  0.00000000000E+00 -0.35527136788E-14  0.35527136788E-14  0.91188000000E+02  0.91188000000E+02 0.  0.
    9900012    2    3    3    0    0  0.28119680298E+02  0.16134349038E+02 -0.17456995329E+02  0.54367077621E+02  0.39999985053E+02 0.  0.
         12    1    3    3    0    0 -0.28119680298E+02 -0.16134349038E+02  0.17456995329E+02  0.36820922379E+02  0.00000000000E+00 0. -1.
         11    1    4    4    0    0  0.26348316051E+02 -0.43715920153E+01 -0.16124554813E+01  0.26757140887E+02  0.51100000000E-03 0. -1.
        -11    1    4    4    0    0  0.15239516681E+01 -0.15795640748E+00  0.59386201913E-01  0.15332664137E+01  0.51100000000E-03 0.  1.
        -12    1    4    4    0    0  0.24741257840E+00  0.20663897460E+02 -0.15903926049E+02  0.26076670321E+02  0.00000000000E+00 0.  1.
</event>
<event>
 8    1  0.2493819E-006  0.9118800E+02  0.7816164E-02  0.1184000E+00
        -11   -1    0    0    0    0  0.00000000000E+00  0.00000000000E+00  0.45593999997E+02  0.45594000000E+02  0.51100000000E-03 0.  1.
         11   -1    0    0    0    0 -0.00000000000E+00 -0.00000000000E+00 -0.45593999997E+02  0.45594000000E+02  0.51100000000E-03 0. -1.
         23    2    1    2    0    0  0.22204460493E-15  0.00000000000E+00  0.00000000000E+00  0.91188000000E+02  0.91188000000E+02 0.  0.
    9900012    2    3    3    0    0 -0.46848258546E+00 -0.36393911228E+02  0.55717752890E+01  0.54367069399E+02  0.39999966310E+02 0.  0.
         12    1    3    3    0    0  0.46848258546E+00  0.36393911228E+02 -0.55717752890E+01  0.36820930601E+02  0.00000000000E+00 0. -1.
         11    1    4    4    0    0 -0.58968374010E+01  0.31900697730E+01  0.74775652449E+00  0.67459896659E+01  0.51100000000E-03 0. -1.
        -11    1    4    4    0    0 -0.14977674267E+01 -0.35725124589E+02 -0.37386234133E+01  0.35951427503E+02  0.51100000000E-03 0.  1.
        -12    1    4    4    0    0  0.69261222423E+01 -0.38588564119E+01  0.85626421778E+01  0.11669652231E+02  0.00000000000E+00 0.  1.
</event>
<event>
 8    1  0.2493819E-006  0.9118800E+02  0.7816164E-02  0.1184000E+00
        -11   -1    0    0    0    0  0.00000000000E+00  0.00000000000E+00  0.45593999997E+02  0.45594000000E+02  0.51100000000E-03 0.  1.
         11   -1    0    0    0    0 -0.00000000000E+00 -0.00000000000E+00 -0.45593999997E+02  0.45594000000E+02  0.51100000000E-03 0. -1.
         23    2    1    2    0    0  0.00000000000E+00  0.00000000000E+00 -0.17763568394E-14  0.91188000000E+02  0.91188000000E+02 0.  0.
    9900012    2    3    3    0    0  0.32438446525E+02  0.85933286922E+01 -0.15155201544E+02  0.54367105867E+02  0.40000049444E+02 0.  0.
        -12    1    3    3    0    0 -0.32438446525E+02 -0.85933286922E+01  0.15155201544E+02  0.36820894133E+02  0.00000000000E+00 0.  1.
         11    1    4    4    0    0  0.16787091033E+02  0.14390070999E+01  0.34702682360E+01  0.17202323351E+02  0.51100000000E-03 0. -1.
        -11    1    4    4    0    0  0.52260201087E+01  0.56286235541E+01  0.64090089782E+01  0.10003403702E+02  0.51100000000E-03 0.  1.
        -12    1    4    4    0    0  0.10425335383E+02  0.15256980382E+01 -0.25034478758E+02  0.27161378814E+02  0.00000000000E+00 0.  1.
</event>
<event>
 8    1  0.2493819E-006  0.9118800E+02  0.7816164E-02  0.1184000E+00
        -11   -1    0    0    0    0  0.00000000000E+00  0.00000000000E+00  0.45593999997E+02  0.45594000000E+02  0.51100000000E-03 0. -1.
         11   -1    0    0    0    0 -0.00000000000E+00 -0.00000000000E+00 -0.45593999997E+02  0.45594000000E+02  0.51100000000E-03 0.  1.
         23    2    1    2    0    0 -0.35527136788E-14 -0.14210854715E-13  0.35527136788E-14  0.91188000000E+02  0.91188000000E+02 0.  0.
    9900012    2    3    3    0    0  0.10620373438E+02  0.32767137769E+02 -0.13011643245E+02  0.54367075113E+02  0.39999979336E+02 0.  0.
         12    1    3    3    0    0 -0.10620373438E+02 -0.32767137769E+02  0.13011643245E+02  0.36820924887E+02  0.00000000000E+00 0. -1.
         11    1    4    4    0    0  0.34503550367E+01  0.16488916409E+01 -0.74090144709E+01  0.83377028739E+01  0.51100000000E-03 0. -1.
        -11    1    4    4    0    0  0.76622422910E+01  0.26987136196E+01  0.10566576257E+02  0.13328373726E+02  0.51100000000E-03 0.  1.
         12    1    4    4    0    0 -0.49222389015E+00  0.28419532509E+02 -0.16169205032E+02  0.32700998513E+02  0.00000000000E+00 0. -1.
</event>
<event>
 8    1  0.2493819E-006  0.9118800E+02  0.7816164E-02  0.1184000E+00
        -11   -1    0    0    0    0  0.00000000000E+00  0.00000000000E+00  0.45593999997E+02  0.45594000000E+02  0.51100000000E-03 0.  1.
         11   -1    0    0    0    0 -0.00000000000E+00 -0.00000000000E+00 -0.45593999997E+02  0.45594000000E+02  0.51100000000E-03 0. -1.
         23    2    1    2    0    0  0.00000000000E+00  0.17763568394E-14  0.00000000000E+00  0.91188000000E+02  0.91188000000E+02 0.  0.
    9900012    2    3    3    0    0 -0.26736935355E+02 -0.95636637117E+01 -0.23440421288E+02  0.54367072175E+02  0.39999972637E+02 0.  0.
        -12    1    3    3    0    0  0.26736935355E+02  0.95636637117E+01  0.23440421288E+02  0.36820927825E+02  0.00000000000E+00 0.  1.
         11    1    4    4    0    0  0.20525971315E+01 -0.62006210964E+01  0.40904031643E+01  0.77066370923E+01  0.51100000000E-03 0. -1.
        -11    1    4    4    0    0 -0.31692713245E+01  0.86362363602E+01 -0.48457591163E+01  0.10397607459E+02  0.51100000000E-03 0.  1.
         12    1    4    4    0    0 -0.25620261162E+02 -0.11999278976E+02 -0.22685065336E+02  0.36262827623E+02  0.00000000000E+00 0. -1.
</event>
<event>
 8    1  0.2493819E-006  0.9118800E+02  0.7816164E-02  0.1184000E+00
        -11   -1    0    0    0    0  0.00000000000E+00  0.00000000000E+00  0.45593999997E+02  0.45594000000E+02  0.51100000000E-03 0.  1.
         11   -1    0    0    0    0 -0.00000000000E+00 -0.00000000000E+00 -0.45593999997E+02  0.45594000000E+02  0.51100000000E-03 0. -1.
         23    2    1    2    0    0  0.35527136788E-14 -0.35527136788E-14  0.66613381478E-15  0.91188000000E+02  0.91188000000E+02 0.  0.
    9900012    2    3    3    0    0  0.30060775810E+02 -0.21261836452E+02 -0.25303044331E+00  0.54367082629E+02  0.39999996470E+02 0.  0.
         12    1    3    3    0    0 -0.30060775810E+02  0.21261836452E+02  0.25303044331E+00  0.36820917371E+02  0.00000000000E+00 0. -1.
         11    1    4    4    0    0  0.11247447076E+02 -0.88804318081E+01  0.75009855202E+01  0.16175039996E+02  0.51100000000E-03 0. -1.
        -11    1    4    4    0    0  0.21582685942E+02 -0.10096941969E+02  0.55051925212E+01  0.24455423009E+02  0.51100000000E-03 0.  1.
         12    1    4    4    0    0 -0.27693572080E+01 -0.22844626747E+01 -0.13259208485E+02  0.13736619624E+02  0.00000000000E+00 0. -1.
</event>
<event>
 8    1  0.2493819E-006  0.9118800E+02  0.7816164E-02  0.1184000E+00
        -11   -1    0    0    0    0  0.00000000000E+00  0.00000000000E+00  0.45593999997E+02  0.45594000000E+02  0.51100000000E-03 0.  1.
         11   -1    0    0    0    0 -0.00000000000E+00 -0.00000000000E+00 -0.45593999997E+02  0.45594000000E+02  0.51100000000E-03 0. -1.
         23    2    1    2    0    0  0.00000000000E+00  0.00000000000E+00 -0.17763568394E-14  0.91188000000E+02  0.91188000000E+02 0.  0.
    9900012    2    3    3    0    0  0.32671109312E+02  0.84364317410E+01 -0.14737815586E+02  0.54367109565E+02  0.40000057876E+02 0.  0.
        -12    1    3    3    0    0 -0.32671109312E+02 -0.84364317410E+01  0.14737815586E+02  0.36820890435E+02  0.00000000000E+00 0.  1.
         11    1    4    4    0    0  0.15264077056E+02  0.41129243194E+01 -0.46601639527E+01  0.16481059527E+02  0.51100000000E-03 0. -1.
        -11    1    4    4    0    0  0.22981211855E+02  0.90089580488E+01  0.91433650965E+00  0.24700879235E+02  0.51100000000E-03 0.  1.
         12    1    4    4    0    0 -0.55741795990E+01 -0.46854506272E+01 -0.10991988143E+02  0.13185170803E+02  0.00000000000E+00 0. -1.
</event>
<event>
 8    1  0.2493819E-006  0.9118800E+02  0.7816164E-02  0.1184000E+00
        -11   -1    0    0    0    0  0.00000000000E+00  0.00000000000E+00  0.45593999997E+02  0.45594000000E+02  0.51100000000E-03 0.  1.
         11   -1    0    0    0    0 -0.00000000000E+00 -0.00000000000E+00 -0.45593999997E+02  0.45594000000E+02  0.51100000000E-03 0. -1.
         23    2    1    2    0    0  0.71054273576E-14  0.00000000000E+00  0.00000000000E+00  0.91188000000E+02  0.91188000000E+02 0.  0.
    9900012    2    3    3    0    0  0.17270623608E+02 -0.42233778243E+01 -0.32243899486E+02  0.54367076409E+02  0.39999982289E+02 0.  0.
        -12    1    3    3    0    0 -0.17270623608E+02  0.42233778243E+01  0.32243899486E+02  0.36820923591E+02  0.00000000000E+00 0.  1.
         11    1    4    4    0    0  0.17434370456E+01 -0.43203748767E+01 -0.25070311900E+02  0.25499524522E+02  0.51100000000E-03 0. -1.
        -11    1    4    4    0    0  0.16711984224E+02 -0.59002390418E+01 -0.11721303338E+02  0.21248345574E+02  0.51100000000E-03 0.  1.
         12    1    4    4    0    0 -0.11847976613E+01  0.59972360942E+01  0.45477157523E+01  0.76192063124E+01  0.00000000000E+00 0. -1.
</event>
<event>
 8    1  0.2493819E-006  0.9118800E+02  0.7816164E-02  0.1184000E+00
        -11   -1    0    0    0    0  0.00000000000E+00  0.00000000000E+00  0.45593999997E+02  0.45594000000E+02  0.51100000000E-03 0.  1.
         11   -1    0    0    0    0 -0.00000000000E+00 -0.00000000000E+00 -0.45593999997E+02  0.45594000000E+02  0.51100000000E-03 0. -1.
         23    2    1    2    0    0 -0.17763568394E-14  0.00000000000E+00  0.00000000000E+00  0.91188000000E+02  0.91188000000E+02 0.  0.
    9900012    2    3    3    0    0  0.63256886895E+01 -0.34192442611E+02  0.12109554303E+02  0.54367098673E+02  0.40000033045E+02 0.  0.
         12    1    3    3    0    0 -0.63256886895E+01  0.34192442611E+02 -0.12109554303E+02  0.36820901327E+02  0.00000000000E+00 0. -1.
         11    1    4    4    0    0 -0.14526814243E+02 -0.22059148008E+02 -0.24908520649E+00  0.26413943034E+02  0.51100000000E-03 0. -1.
        -11    1    4    4    0    0  0.11716494100E+02 -0.97768938139E+01  0.99444942364E+01  0.18214193711E+02  0.51100000000E-03 0.  1.
         12    1    4    4    0    0  0.91360088318E+01 -0.23564007887E+01  0.24141452727E+01  0.97389619288E+01  0.00000000000E+00 0. -1.
</event>
<event>
 8    1  0.2493819E-006  0.9118800E+02  0.7816164E-02  0.1184000E+00
        -11   -1    0    0    0    0  0.00000000000E+00  0.00000000000E+00  0.45593999997E+02  0.45594000000E+02  0.51100000000E-03 0.  1.
         11   -1    0    0    0    0 -0.00000000000E+00 -0.00000000000E+00 -0.45593999997E+02  0.45594000000E+02  0.51100000000E-03 0. -1.
         23    2    1    2    0    0  0.00000000000E+00  0.71054273576E-14  0.53290705182E-14  0.91188000000E+02  0.91188000000E+02 0.  0.
    9900012    2    3    3    0    0 -0.70797980374E+01 -0.33070068180E+02 -0.14561159764E+02  0.54367077641E+02  0.39999985099E+02 0.  0.
        -12    1    3    3    0    0  0.70797980374E+01  0.33070068180E+02  0.14561159764E+02  0.36820922359E+02  0.00000000000E+00 0.  1.
         11    1    4    4    0    0 -0.50328028306E+01 -0.54450824462E+01 -0.61998654754E+00  0.74405920973E+01  0.51100000000E-03 0. -1.
        -11    1    4    4    0    0 -0.10228394651E+02 -0.17506365446E+02  0.76886115649E+01  0.21684271634E+02  0.51100000000E-03 0.  1.
        -12    1    4    4    0    0  0.81813994442E+01 -0.10118620288E+02 -0.21629784781E+02  0.25242213910E+02  0.00000000000E+00 0.  1.
</event>
<event>
 8    1  0.2493819E-006  0.9118800E+02  0.7816164E-02  0.1184000E+00
        -11   -1    0    0    0    0  0.00000000000E+00  0.00000000000E+00  0.45593999997E+02  0.45594000000E+02  0.51100000000E-03 0.  1.
         11   -1    0    0    0    0 -0.00000000000E+00 -0.00000000000E+00 -0.45593999997E+02  0.45594000000E+02  0.51100000000E-03 0. -1.
         23    2    1    2    0    0  0.17763568394E-14  0.00000000000E+00  0.00000000000E+00  0.91188000000E+02  0.91188000000E+02 0.  0.
    9900012    2    3    3    0    0  0.81032479145E+01 -0.32377879537E+02 -0.15549318765E+02  0.54367203918E+02  0.40000272971E+02 0.  0.
        -12    1    3    3    0    0 -0.81032479145E+01  0.32377879537E+02  0.15549318765E+02  0.36820796082E+02  0.00000000000E+00 0.  1.
         11    1    4    4    0    0  0.33572270895E+01 -0.97355509300E+01 -0.11016708846E+02  0.15080444281E+02  0.51100000000E-03 0. -1.
        -11    1    4    4    0    0 -0.34954272157E+01 -0.28214506954E+02 -0.18740748116E+00  0.28430820177E+02  0.51100000000E-03 0.  1.
        -12    1    4    4    0    0  0.82414480407E+01  0.55721783474E+01 -0.43452024375E+01  0.10855939460E+02  0.00000000000E+00 0.  1.
</event>
<event>
 8    1  0.2493819E-006  0.9118800E+02  0.7816164E-02  0.1184000E+00
        -11   -1    0    0    0    0  0.00000000000E+00  0.00000000000E+00  0.45593999997E+02  0.45594000000E+02  0.51100000000E-03 0.  1.
         11   -1    0    0    0    0 -0.00000000000E+00 -0.00000000000E+00 -0.45593999997E+02  0.45594000000E+02  0.51100000000E-03 0. -1.
         23    2    1    2    0    0  0.00000000000E+00  0.00000000000E+00 -0.88817841970E-15  0.91188000000E+02  0.91188000000E+02 0.  0.
    9900012    2    3    3    0    0  0.34961896279E+02 -0.88095333714E+01  0.74725032428E+01  0.54367076949E+02  0.39999983520E+02 0.  0.
         12    1    3    3    0    0 -0.34961896279E+02  0.88095333714E+01 -0.74725032428E+01  0.36820923051E+02  0.00000000000E+00 0. -1.
         11    1    4    4    0    0  0.80206699176E+01 -0.23506467136E+01  0.14850139064E+02  0.17040637206E+02  0.51100000000E-03 0. -1.
        -11    1    4    4    0    0  0.96916000631E+01 -0.13835820282E+02  0.68518512601E+00  0.16906404514E+02  0.51100000000E-03 0.  1.
         12    1    4    4    0    0  0.17249626298E+02  0.73769336241E+01 -0.80628209474E+01  0.20420035229E+02  0.00000000000E+00 0. -1.
</event>
<event>
 8    1  0.2493819E-006  0.9118800E+02  0.7816164E-02  0.1184000E+00
        -11   -1    0    0    0    0  0.00000000000E+00  0.00000000000E+00  0.45593999997E+02  0.45594000000E+02  0.51100000000E-03 0. -1.
         11   -1    0    0    0    0 -0.00000000000E+00 -0.00000000000E+00 -0.45593999997E+02  0.45594000000E+02  0.51100000000E-03 0.  1.
         23    2    1    2    0    0  0.17763568394E-14  0.00000000000E+00  0.00000000000E+00  0.91188000000E+02  0.91188000000E+02 0.  0.
    9900012    2    3    3    0    0 -0.93605685773E+01  0.18548042057E+02  0.30399505457E+02  0.54367081485E+02  0.39999993862E+02 0.  0.
        -12    1    3    3    0    0  0.93605685773E+01 -0.18548042057E+02 -0.30399505457E+02  0.36820918515E+02  0.00000000000E+00 0.  1.
         11    1    4    4    0    0  0.11292473040E+02  0.79332117804E+00  0.10087569613E+02  0.15162729531E+02  0.51100000000E-03 0. -1.
        -11    1    4    4    0    0 -0.15796850467E+02  0.21967360548E+02  0.17204162959E+02  0.32063821318E+02  0.51100000000E-03 0.  1.
         12    1    4    4    0    0 -0.48561911504E+01 -0.42126396695E+01  0.31077728846E+01  0.71405306369E+01  0.00000000000E+00 0. -1.
</event>
<event>
 8    1  0.2493819E-006  0.9118800E+02  0.7816164E-02  0.1184000E+00
        -11   -1    0    0    0    0  0.00000000000E+00  0.00000000000E+00  0.45593999997E+02  0.45594000000E+02  0.51100000000E-03 0.  1.
         11   -1    0    0    0    0 -0.00000000000E+00 -0.00000000000E+00 -0.45593999997E+02  0.45594000000E+02  0.51100000000E-03 0. -1.
         23    2    1    2    0    0 -0.35527136788E-14  0.00000000000E+00 -0.17763568394E-14  0.91188000000E+02  0.91188000000E+02 0.  0.
    9900012    2    3    3    0    0 -0.29871526454E+02  0.17558163619E+02 -0.12457172351E+02  0.54367104501E+02  0.40000046331E+02 0.  0.
        -12    1    3    3    0    0  0.29871526454E+02 -0.17558163619E+02  0.12457172351E+02  0.36820895499E+02  0.00000000000E+00 0.  1.
         11    1    4    4    0    0 -0.17465297986E+00  0.37939354504E+01 -0.67662044555E+01  0.77592507925E+01  0.51100000000E-03 0. -1.
        -11    1    4    4    0    0 -0.29346075370E+01 -0.93299308250E+01 -0.55763573255E+01  0.11258565267E+02  0.51100000000E-03 0.  1.
        -12    1    4    4    0    0 -0.26762265937E+02  0.23094158994E+02 -0.11461057039E+00  0.35349288441E+02  0.00000000000E+00 0.  1.
</event>
<event>
 8    1  0.2493819E-006  0.9118800E+02  0.7816164E-02  0.1184000E+00
        -11   -1    0    0    0    0  0.00000000000E+00  0.00000000000E+00  0.45593999997E+02  0.45594000000E+02  0.51100000000E-03 0. -1.
         11   -1    0    0    0    0 -0.00000000000E+00 -0.00000000000E+00 -0.45593999997E+02  0.45594000000E+02  0.51100000000E-03 0.  1.
         23    2    1    2    0    0 -0.88817841970E-15  0.71054273576E-14  0.00000000000E+00  0.91188000000E+02  0.91188000000E+02 0.  0.
    9900012    2    3    3    0    0  0.55721332734E+01  0.35984947719E+02  0.54610072852E+01  0.54366977036E+02  0.39999755748E+02 0.  0.
        -12    1    3    3    0    0 -0.55721332734E+01 -0.35984947719E+02 -0.54610072852E+01  0.36821022964E+02  0.00000000000E+00 0.  1.
         11    1    4    4    0    0 -0.35086013244E+01  0.37636826422E+02 -0.59611860335E+01  0.38267175563E+02  0.51100000000E-03 0. -1.
        -11    1    4    4    0    0 -0.81205527555E+00  0.65924435507E+00  0.19350079681E+01  0.21996120085E+01  0.51100000000E-03 0.  1.
        -12    1    4    4    0    0  0.98927898734E+01 -0.23111230581E+01  0.94871853506E+01  0.13900189464E+02  0.00000000000E+00 0.  1.
</event>
<event>
 8    1  0.2493819E-006  0.9118800E+02  0.7816164E-02  0.1184000E+00
        -11   -1    0    0    0    0  0.00000000000E+00  0.00000000000E+00  0.45593999997E+02  0.45594000000E+02  0.51100000000E-03 0.  1.
         11   -1    0    0    0    0 -0.00000000000E+00 -0.00000000000E+00 -0.45593999997E+02  0.45594000000E+02  0.51100000000E-03 0. -1.
         23    2    1    2    0    0  0.00000000000E+00  0.00000000000E+00 -0.35527136788E-14  0.91188000000E+02  0.91188000000E+02 0.  0.
    9900012    2    3    3    0    0  0.30582138991E+01 -0.32142305035E+02  0.17700255807E+02  0.54367088810E+02  0.40000010560E+02 0.  0.
         12    1    3    3    0    0 -0.30582138991E+01  0.32142305035E+02 -0.17700255807E+02  0.36820911190E+02  0.00000000000E+00 0. -1.
         11    1    4    4    0    0 -0.24168113518E+01 -0.61687655170E+01 -0.46165764091E+01  0.80751113376E+01  0.51100000000E-03 0. -1.
        -11    1    4    4    0    0  0.31675944387E+01 -0.32608125073E+02  0.14632326629E+02  0.35880753311E+02  0.51100000000E-03 0.  1.
        -12    1    4    4    0    0  0.23074308122E+01  0.66345855545E+01  0.76845055869E+01  0.10411224162E+02  0.00000000000E+00 0.  1.
</event>
<event>
 8    1  0.2493819E-006  0.9118800E+02  0.7816164E-02  0.1184000E+00
        -11   -1    0    0    0    0  0.00000000000E+00  0.00000000000E+00  0.45593999997E+02  0.45594000000E+02  0.51100000000E-03 0. -1.
         11   -1    0    0    0    0 -0.00000000000E+00 -0.00000000000E+00 -0.45593999997E+02  0.45594000000E+02  0.51100000000E-03 0.  1.
         23    2    1    2    0    0  0.00000000000E+00 -0.17763568394E-14  0.00000000000E+00  0.91188000000E+02  0.91188000000E+02 0.  0.
    9900012    2    3    3    0    0  0.35145756600E+02 -0.10724753617E+02 -0.23526194653E+01  0.54367090648E+02  0.40000014750E+02 0.  0.
        -12    1    3    3    0    0 -0.35145756600E+02  0.10724753617E+02  0.23526194653E+01  0.36820909352E+02  0.00000000000E+00 0.  1.
         11    1    4    4    0    0  0.24423692753E+02 -0.11115501188E+01  0.39332312925E+01  0.24763332167E+02  0.51100000000E-03 0. -1.
        -11    1    4    4    0    0  0.12958189621E+02 -0.16730182812E+02 -0.65102086522E+01  0.22140381933E+02  0.51100000000E-03 0.  1.
        -12    1    4    4    0    0 -0.22361257741E+01  0.71169793138E+01  0.22435789442E+00  0.74633765479E+01  0.00000000000E+00 0.  1.
</event>
<event>
 8    1  0.2493819E-006  0.9118800E+02  0.7816164E-02  0.1184000E+00
        -11   -1    0    0    0    0  0.00000000000E+00  0.00000000000E+00  0.45593999997E+02  0.45594000000E+02  0.51100000000E-03 0. -1.
         11   -1    0    0    0    0 -0.00000000000E+00 -0.00000000000E+00 -0.45593999997E+02  0.45594000000E+02  0.51100000000E-03 0.  1.
         23    2    1    2    0    0  0.00000000000E+00 -0.35527136788E-14 -0.35527136788E-14  0.91188000000E+02  0.91188000000E+02 0.  0.
    9900012    2    3    3    0    0  0.16866228689E+02  0.16586188781E+02 -0.28217161437E+02  0.54367088441E+02  0.40000009718E+02 0.  0.
         12    1    3    3    0    0 -0.16866228689E+02 -0.16586188781E+02  0.28217161437E+02  0.36820911559E+02  0.00000000000E+00 0. -1.
         11    1    4    4    0    0  0.31267603889E+01 -0.24324979893E+01  0.71272629146E+01  0.81542353359E+01  0.51100000000E-03 0. -1.
        -11    1    4    4    0    0 -0.29130551505E+01  0.10831004609E+02 -0.13283893971E+02  0.17385579957E+02  0.51100000000E-03 0.  1.
         12    1    4    4    0    0  0.16652523451E+02  0.81876821618E+01 -0.22060530381E+02  0.28827273148E+02  0.00000000000E+00 0. -1.
</event>
<event>
 8    1  0.2493819E-006  0.9118800E+02  0.7816164E-02  0.1184000E+00
        -11   -1    0    0    0    0  0.00000000000E+00  0.00000000000E+00  0.45593999997E+02  0.45594000000E+02  0.51100000000E-03 0. -1.
         11   -1    0    0    0    0 -0.00000000000E+00 -0.00000000000E+00 -0.45593999997E+02  0.45594000000E+02  0.51100000000E-03 0.  1.
         23    2    1    2    0    0  0.00000000000E+00  0.00000000000E+00  0.00000000000E+00  0.91188000000E+02  0.91188000000E+02 0.  0.
    9900012    2    3    3    0    0 -0.16818885047E+02  0.20862806442E+02  0.25251684109E+02  0.54367093748E+02  0.40000021818E+02 0.  0.
        -12    1    3    3    0    0  0.16818885047E+02 -0.20862806442E+02 -0.25251684109E+02  0.36820906252E+02  0.00000000000E+00 0.  1.
         11    1    4    4    0    0 -0.19199856195E+02  0.47752323547E+01  0.58967257240E+01  0.20644822510E+02  0.51100000000E-03 0. -1.
        -11    1    4    4    0    0 -0.66565245460E+01  0.16949332515E+02  0.15280121423E+02  0.23771228465E+02  0.51100000000E-03 0.  1.
        -12    1    4    4    0    0  0.90374956942E+01 -0.86175842757E+00  0.40748369614E+01  0.99510427731E+01  0.00000000000E+00 0.  1.
</event>
<event>
 8    1  0.2493819E-006  0.9118800E+02  0.7816164E-02  0.1184000E+00
        -11   -1    0    0    0    0  0.00000000000E+00  0.00000000000E+00  0.45593999997E+02  0.45594000000E+02  0.51100000000E-03 0. -1.
         11   -1    0    0    0    0 -0.00000000000E+00 -0.00000000000E+00 -0.45593999997E+02  0.45594000000E+02  0.51100000000E-03 0.  1.
         23    2    1    2    0    0  0.35527136788E-14  0.00000000000E+00 -0.44408920985E-15  0.91188000000E+02  0.91188000000E+02 0.  0.
    9900012    2    3    3    0    0  0.26724706762E+02  0.25229463667E+02  0.22462783606E+01  0.54367060917E+02  0.39999946973E+02 0.  0.
         12    1    3    3    0    0 -0.26724706762E+02 -0.25229463667E+02 -0.22462783606E+01  0.36820939083E+02  0.00000000000E+00 0. -1.
         11    1    4    4    0    0  0.29820398928E+02  0.77989866153E+01  0.64447450619E+01  0.31489920985E+02  0.51100000000E-03 0. -1.
        -11    1    4    4    0    0  0.52216385613E+01  0.37525024051E+01 -0.18979750093E+01  0.67044084722E+01  0.51100000000E-03 0.  1.
        -12    1    4    4    0    0 -0.83173307272E+01  0.13677974646E+02 -0.23004916920E+01  0.16172731460E+02  0.00000000000E+00 0.  1.
</event>
<event>
 8    1  0.2493819E-006  0.9118800E+02  0.7816164E-02  0.1184000E+00
        -11   -1    0    0    0    0  0.00000000000E+00  0.00000000000E+00  0.45593999997E+02  0.45594000000E+02  0.51100000000E-03 0.  1.
         11   -1    0    0    0    0 -0.00000000000E+00 -0.00000000000E+00 -0.45593999997E+02  0.45594000000E+02  0.51100000000E-03 0. -1.
         23    2    1    2    0    0 -0.35527136788E-14  0.77715611724E-15 -0.35527136788E-14  0.91188000000E+02  0.91188000000E+02 0.  0.
    9900012    2    3    3    0    0 -0.25071331388E+02 -0.63564086472E+00 -0.26959317169E+02  0.54367075526E+02  0.39999980277E+02 0.  0.
        -12    1    3    3    0    0  0.25071331388E+02  0.63564086472E+00  0.26959317169E+02  0.36820924474E+02  0.00000000000E+00 0.  1.
         11    1    4    4    0    0 -0.26440823426E+02  0.52109064855E+01 -0.26396413737E+02  0.37723220279E+02  0.51100000000E-03 0. -1.
        -11    1    4    4    0    0 -0.69331335951E+01 -0.96398754973E+00 -0.90786758236E-01  0.70004182689E+01  0.51100000000E-03 0.  1.
         12    1    4    4    0    0  0.83026256322E+01 -0.48825598005E+01 -0.47211667367E+00  0.96434369779E+01  0.00000000000E+00 0. -1.
</event>
<event>
 8    1  0.2493819E-006  0.9118800E+02  0.7816164E-02  0.1184000E+00
        -11   -1    0    0    0    0  0.00000000000E+00  0.00000000000E+00  0.45593999997E+02  0.45594000000E+02  0.51100000000E-03 0. -1.
         11   -1    0    0    0    0 -0.00000000000E+00 -0.00000000000E+00 -0.45593999997E+02  0.45594000000E+02  0.51100000000E-03 0.  1.
         23    2    1    2    0    0 -0.55511151231E-15  0.00000000000E+00  0.00000000000E+00  0.91188000000E+02  0.91188000000E+02 0.  0.
    9900012    2    3    3    0    0 -0.70900953355E+00  0.25860767988E+02 -0.26201113133E+02  0.54367077349E+02  0.39999984433E+02 0.  0.
         12    1    3    3    0    0  0.70900953355E+00 -0.25860767988E+02  0.26201113133E+02  0.36820922651E+02  0.00000000000E+00 0. -1.
         11    1    4    4    0    0 -0.21673841944E+01 -0.29485067840E+01 -0.65088624974E+01  0.74670300503E+01  0.51100000000E-03 0. -1.
        -11    1    4    4    0    0  0.15025286201E+02  0.69062720454E+01 -0.10274006493E+02  0.19468205584E+02  0.51100000000E-03 0.  1.
         12    1    4    4    0    0 -0.13566911540E+02  0.21903002726E+02 -0.94182441426E+01  0.27431841715E+02  0.00000000000E+00 0. -1.
</event>
<event>
 8    1  0.2493819E-006  0.9118800E+02  0.7816164E-02  0.1184000E+00
        -11   -1    0    0    0    0  0.00000000000E+00  0.00000000000E+00  0.45593999997E+02  0.45594000000E+02  0.51100000000E-03 0. -1.
         11   -1    0    0    0    0 -0.00000000000E+00 -0.00000000000E+00 -0.45593999997E+02  0.45594000000E+02  0.51100000000E-03 0.  1.
         23    2    1    2    0    0  0.00000000000E+00  0.00000000000E+00  0.35527136788E-14  0.91188000000E+02  0.91188000000E+02 0.  0.
    9900012    2    3    3    0    0 -0.24250725679E+02 -0.82867721751E+01 -0.26438716941E+02  0.54367162930E+02  0.40000179530E+02 0.  0.
         12    1    3    3    0    0  0.24250725679E+02  0.82867721751E+01  0.26438716941E+02  0.36820837070E+02  0.00000000000E+00 0. -1.
         11    1    4    4    0    0 -0.56574645791E+01 -0.88765396298E+01 -0.87582120467E+01  0.13693288129E+02  0.51100000000E-03 0.  1.
        -11    1    4    4    0    0 -0.13598883565E+02 -0.13695175539E+02 -0.16678235897E+02  0.25507861929E+02  0.51100000000E-03 0. -1.
         12    1    4    4    0    0 -0.49943775353E+01  0.14284942994E+02 -0.10022689972E+01  0.15166012872E+02  0.00000000000E+00 0. -1.
</event>
<event>
 8    1  0.2493819E-006  0.9118800E+02  0.7816164E-02  0.1184000E+00
        -11   -1    0    0    0    0  0.00000000000E+00  0.00000000000E+00  0.45593999997E+02  0.45594000000E+02  0.51100000000E-03 0. -1.
         11   -1    0    0    0    0 -0.00000000000E+00 -0.00000000000E+00 -0.45593999997E+02  0.45594000000E+02  0.51100000000E-03 0.  1.
         23    2    1    2    0    0  0.53290705182E-14  0.71054273576E-14 -0.35527136788E-14  0.91188000000E+02  0.91188000000E+02 0.  0.
    9900012    2    3    3    0    0  0.12670384041E+02  0.18019656089E+02 -0.29504887185E+02  0.54367014067E+02  0.39999840168E+02 0.  0.
         12    1    3    3    0    0 -0.12670384041E+02 -0.18019656089E+02  0.29504887185E+02  0.36820985933E+02  0.00000000000E+00 0. -1.
         11    1    4    4    0    0  0.22405800057E+02  0.22455767972E+02 -0.19075830474E+02  0.37015789873E+02  0.51100000000E-03 0.  1.
        -11    1    4    4    0    0 -0.65380097308E+01  0.33105992116E+00 -0.94988738137E+01  0.11536194169E+02  0.51100000000E-03 0. -1.
        -12    1    4    4    0    0 -0.31974062855E+01 -0.47671718042E+01 -0.93018289708E+00  0.58150300246E+01  0.00000000000E+00 0.  1.
</event>
<event>
 8    1  0.2493819E-006  0.9118800E+02  0.7816164E-02  0.1184000E+00
        -11   -1    0    0    0    0  0.00000000000E+00  0.00000000000E+00  0.45593999997E+02  0.45594000000E+02  0.51100000000E-03 0. -1.
         11   -1    0    0    0    0 -0.00000000000E+00 -0.00000000000E+00 -0.45593999997E+02  0.45594000000E+02  0.51100000000E-03 0.  1.
         23    2    1    2    0    0  0.00000000000E+00  0.17763568394E-14  0.35527136788E-14  0.91188000000E+02  0.91188000000E+02 0.  0.
    9900012    2    3    3    0    0 -0.16285050237E+02 -0.14949018478E+02  0.29446630149E+02  0.54367081465E+02  0.39999993815E+02 0.  0.
        -12    1    3    3    0    0  0.16285050237E+02  0.14949018478E+02 -0.29446630149E+02  0.36820918535E+02  0.00000000000E+00 0.  1.
         11    1    4    4    0    0 -0.10058775434E+02 -0.11010509222E+02  0.30304499455E+01  0.15218209609E+02  0.51100000000E-03 0.  1.
        -11    1    4    4    0    0 -0.15452265409E+02  0.35158615644E+01  0.20450644551E+02  0.25872043824E+02  0.51100000000E-03 0. -1.
        -12    1    4    4    0    0  0.92259906055E+01 -0.74543708202E+01  0.59655356519E+01  0.13276828032E+02  0.00000000000E+00 0.  1.
</event>
<event>
 8    1  0.2493819E-006  0.9118800E+02  0.7816164E-02  0.1184000E+00
        -11   -1    0    0    0    0  0.00000000000E+00  0.00000000000E+00  0.45593999997E+02  0.45594000000E+02  0.51100000000E-03 0. -1.
         11   -1    0    0    0    0 -0.00000000000E+00 -0.00000000000E+00 -0.45593999997E+02  0.45594000000E+02  0.51100000000E-03 0.  1.
         23    2    1    2    0    0  0.00000000000E+00  0.35527136788E-14  0.00000000000E+00  0.91188000000E+02  0.91188000000E+02 0.  0.
    9900012    2    3    3    0    0 -0.19406702751E+02  0.18804659999E+02  0.25010883544E+02  0.54367086852E+02  0.40000006098E+02 0.  0.
        -12    1    3    3    0    0  0.19406702751E+02 -0.18804659999E+02 -0.25010883544E+02  0.36820913148E+02  0.00000000000E+00 0.  1.
         11    1    4    4    0    0 -0.16464473686E+02  0.32423127763E+01  0.14319133986E+02  0.22059670992E+02  0.51100000000E-03 0. -1.
        -11    1    4    4    0    0  0.90795836806E+01  0.11901323273E+02  0.12637871535E+02  0.19590715471E+02  0.51100000000E-03 0.  1.
        -12    1    4    4    0    0 -0.12021812746E+02  0.36610239494E+01 -0.19461219767E+01  0.12716700389E+02  0.00000000000E+00 0.  1.
</event>
<event>
 8    1  0.2493819E-006  0.9118800E+02  0.7816164E-02  0.1184000E+00
        -11   -1    0    0    0    0  0.00000000000E+00  0.00000000000E+00  0.45593999997E+02  0.45594000000E+02  0.51100000000E-03 0. -1.
         11   -1    0    0    0    0 -0.00000000000E+00 -0.00000000000E+00 -0.45593999997E+02  0.45594000000E+02  0.51100000000E-03 0.  1.
         23    2    1    2    0    0  0.88817841970E-15  0.35527136788E-14  0.00000000000E+00  0.91188000000E+02  0.91188000000E+02 0.  0.
    9900012    2    3    3    0    0  0.54247065275E+01  0.29542355160E+02 -0.21297913890E+02  0.54367091193E+02  0.40000015992E+02 0.  0.
         12    1    3    3    0    0 -0.54247065275E+01 -0.29542355160E+02  0.21297913890E+02  0.36820908807E+02  0.00000000000E+00 0. -1.
         11    1    4    4    0    0  0.10965173524E+02 -0.36129406657E+00 -0.10957711952E+02  0.15506031578E+02  0.51100000000E-03 0. -1.
        -11    1    4    4    0    0  0.51774842490E+01  0.13772336036E+01 -0.60596926357E+01  0.80884479752E+01  0.51100000000E-03 0.  1.
        -12    1    4    4    0    0 -0.10717951246E+02  0.28526415623E+02 -0.42805093029E+01  0.30772611639E+02  0.00000000000E+00 0.  1.
</event>
<event>
 8    1  0.2493819E-006  0.9118800E+02  0.7816164E-02  0.1184000E+00
        -11   -1    0    0    0    0  0.00000000000E+00  0.00000000000E+00  0.45593999997E+02  0.45594000000E+02  0.51100000000E-03 0.  1.
         11   -1    0    0    0    0 -0.00000000000E+00 -0.00000000000E+00 -0.45593999997E+02  0.45594000000E+02  0.51100000000E-03 0. -1.
         23    2    1    2    0    0 -0.88817841970E-15  0.00000000000E+00  0.88817841970E-15  0.91188000000E+02  0.91188000000E+02 0.  0.
    9900012    2    3    3    0    0 -0.29971099210E+01  0.35838119802E+02  0.79009711554E+01  0.54367097730E+02  0.40000030895E+02 0.  0.
        -12    1    3    3    0    0  0.29971099210E+01 -0.35838119802E+02 -0.79009711554E+01  0.36820902270E+02  0.00000000000E+00 0.  1.
         11    1    4    4    0    0 -0.79307720890E+01  0.14400858761E+01  0.69811294043E+01  0.10663356005E+02  0.51100000000E-03 0. -1.
        -11    1    4    4    0    0 -0.19311292245E+01  0.11646955997E+01  0.86166608321E+01  0.89068861045E+01  0.51100000000E-03 0.  1.
         12    1    4    4    0    0  0.68647913926E+01  0.33233338326E+02 -0.76968190809E+01  0.34796855621E+02  0.00000000000E+00 0. -1.
</event>
<event>
 8    1  0.2493819E-006  0.9118800E+02  0.7816164E-02  0.1184000E+00
        -11   -1    0    0    0    0  0.00000000000E+00  0.00000000000E+00  0.45593999997E+02  0.45594000000E+02  0.51100000000E-03 0.  1.
         11   -1    0    0    0    0 -0.00000000000E+00 -0.00000000000E+00 -0.45593999997E+02  0.45594000000E+02  0.51100000000E-03 0. -1.
         23    2    1    2    0    0  0.00000000000E+00  0.00000000000E+00 -0.35527136788E-14  0.91188000000E+02  0.91188000000E+02 0.  0.
    9900012    2    3    3    0    0  0.22946855706E+01  0.36113727086E+02 -0.68053989956E+01  0.54367077668E+02  0.39999985160E+02 0.  0.
        -12    1    3    3    0    0 -0.22946855706E+01 -0.36113727086E+02  0.68053989956E+01  0.36820922332E+02  0.00000000000E+00 0.  1.
         11    1    4    4    0    0  0.62873007930E+01  0.20633446855E+02  0.93047676338E+01  0.23491444854E+02  0.51100000000E-03 0. -1.
        -11    1    4    4    0    0  0.96186410044E+00  0.26137837063E+01  0.49640414150E+01  0.56919904465E+01  0.51100000000E-03 0.  1.
         12    1    4    4    0    0 -0.49544793228E+01  0.12866496525E+02 -0.21074208044E+02  0.25183642367E+02  0.00000000000E+00 0. -1.
</event>
<event>
 8    1  0.2493819E-006  0.9118800E+02  0.7816164E-02  0.1184000E+00
        -11   -1    0    0    0    0  0.00000000000E+00  0.00000000000E+00  0.45593999997E+02  0.45594000000E+02  0.51100000000E-03 0.  1.
         11   -1    0    0    0    0 -0.00000000000E+00 -0.00000000000E+00 -0.45593999997E+02  0.45594000000E+02  0.51100000000E-03 0. -1.
         23    2    1    2    0    0  0.22204460493E-14  0.35527136788E-14  0.00000000000E+00  0.91188000000E+02  0.91188000000E+02 0.  0.
    9900012    2    3    3    0    0  0.38915070549E+01  0.17827153555E+02 -0.31981712072E+02  0.54367066578E+02  0.39999959877E+02 0.  0.
        -12    1    3    3    0    0 -0.38915070549E+01 -0.17827153555E+02  0.31981712072E+02  0.36820933422E+02  0.00000000000E+00 0.  1.
         11    1    4    4    0    0 -0.35248204641E+01  0.61028379587E+01 -0.87285537954E+00  0.71014693711E+01  0.51100000000E-03 0. -1.
        -11    1    4    4    0    0  0.11301128632E+02  0.16120069527E+02 -0.47364609310E+01  0.20248610133E+02  0.51100000000E-03 0.  1.
         12    1    4    4    0    0 -0.38848011131E+01 -0.43957539313E+01 -0.26372395762E+02  0.27016987073E+02  0.00000000000E+00 0. -1.
</event>
<event>
 8    1  0.2493819E-006  0.9118800E+02  0.7816164E-02  0.1184000E+00
        -11   -1    0    0    0    0  0.00000000000E+00  0.00000000000E+00  0.45593999997E+02  0.45594000000E+02  0.51100000000E-03 0.  1.
         11   -1    0    0    0    0 -0.00000000000E+00 -0.00000000000E+00 -0.45593999997E+02  0.45594000000E+02  0.51100000000E-03 0. -1.
         23    2    1    2    0    0  0.00000000000E+00  0.00000000000E+00 -0.35527136788E-14  0.91188000000E+02  0.91188000000E+02 0.  0.
    9900012    2    3    3    0    0  0.12907951050E+02 -0.30225177779E+02 -0.16601306209E+02  0.54367082848E+02  0.39999996968E+02 0.  0.
        -12    1    3    3    0    0 -0.12907951050E+02  0.30225177779E+02  0.16601306209E+02  0.36820917152E+02  0.00000000000E+00 0.  1.
         11    1    4    4    0    0 -0.33769562315E+01  0.43865877677E+01  0.15462896872E+01  0.57477819801E+01  0.51100000000E-03 0.  1.
        -11    1    4    4    0    0  0.24744370932E+01 -0.26190090629E+02 -0.18953647890E+02  0.32423517000E+02  0.51100000000E-03 0. -1.
         12    1    4    4    0    0  0.13810470188E+02 -0.84216749184E+01  0.80605199411E+00  0.16195783867E+02  0.00000000000E+00 0. -1.
</event>
<event>
 8    1  0.2493819E-006  0.9118800E+02  0.7816164E-02  0.1184000E+00
        -11   -1    0    0    0    0  0.00000000000E+00  0.00000000000E+00  0.45593999997E+02  0.45594000000E+02  0.51100000000E-03 0.  1.
         11   -1    0    0    0    0 -0.00000000000E+00 -0.00000000000E+00 -0.45593999997E+02  0.45594000000E+02  0.51100000000E-03 0. -1.
         23    2    1    2    0    0  0.17763568394E-14  0.00000000000E+00 -0.26645352591E-14  0.91188000000E+02  0.91188000000E+02 0.  0.
    9900012    2    3    3    0    0 -0.15983140263E+02  0.32283624502E+02  0.76214438126E+01  0.54367087607E+02  0.40000007818E+02 0.  0.
         12    1    3    3    0    0  0.15983140263E+02 -0.32283624502E+02 -0.76214438126E+01  0.36820912393E+02  0.00000000000E+00 0. -1.
         11    1    4    4    0    0  0.17764386771E+01 -0.24573462111E+01 -0.99844556126E+00  0.31923625381E+01  0.51100000000E-03 0. -1.
        -11    1    4    4    0    0 -0.25905469986E+02  0.17790811621E+02  0.31181050256E+01  0.31580515077E+02  0.51100000000E-03 0.  1.
         12    1    4    4    0    0  0.81458910457E+01  0.16950159093E+02  0.55017843483E+01  0.19594209992E+02  0.00000000000E+00 0. -1.
</event>
<event>
 8    1  0.2493819E-006  0.9118800E+02  0.7816164E-02  0.1184000E+00
        -11   -1    0    0    0    0  0.00000000000E+00  0.00000000000E+00  0.45593999997E+02  0.45594000000E+02  0.51100000000E-03 0. -1.
         11   -1    0    0    0    0 -0.00000000000E+00 -0.00000000000E+00 -0.45593999997E+02  0.45594000000E+02  0.51100000000E-03 0.  1.
         23    2    1    2    0    0  0.00000000000E+00  0.33306690739E-15  0.71054273576E-14  0.91188000000E+02  0.91188000000E+02 0.  0.
    9900012    2    3    3    0    0  0.24402898982E+02  0.90901970938E+00 -0.27558057002E+02  0.54367159416E+02  0.40000171521E+02 0.  0.
         12    1    3    3    0    0 -0.24402898982E+02 -0.90901970938E+00  0.27558057002E+02  0.36820840584E+02  0.00000000000E+00 0. -1.
         11    1    4    4    0    0 -0.25679339830E+00 -0.78857061406E+01 -0.24718835210E+02  0.25947468443E+02  0.51100000000E-03 0. -1.
        -11    1    4    4    0    0  0.23765659104E+02  0.10610308499E+02 -0.35651441717E+01  0.26269667914E+02  0.51100000000E-03 0.  1.
        -12    1    4    4    0    0  0.89403327651E+00 -0.18155826490E+01  0.72592237978E+00  0.21500230595E+01  0.00000000000E+00 0.  1.
</event>
<event>
 8    1  0.2493819E-006  0.9118800E+02  0.7816164E-02  0.1184000E+00
        -11   -1    0    0    0    0  0.00000000000E+00  0.00000000000E+00  0.45593999997E+02  0.45594000000E+02  0.51100000000E-03 0.  1.
         11   -1    0    0    0    0 -0.00000000000E+00 -0.00000000000E+00 -0.45593999997E+02  0.45594000000E+02  0.51100000000E-03 0. -1.
         23    2    1    2    0    0  0.00000000000E+00  0.00000000000E+00  0.00000000000E+00  0.91188000000E+02  0.91188000000E+02 0.  0.
    9900012    2    3    3    0    0 -0.18644943476E+02  0.16457158978E+02  0.27153405424E+02  0.54367089841E+02  0.40000012910E+02 0.  0.
         12    1    3    3    0    0  0.18644943476E+02 -0.16457158978E+02 -0.27153405424E+02  0.36820910159E+02  0.00000000000E+00 0. -1.
         11    1    4    4    0    0 -0.22323121115E+01  0.13424447445E+02  0.98438519675E+01  0.16795845569E+02  0.51100000000E-03 0. -1.
        -11    1    4    4    0    0 -0.45175758112E+01  0.49644435021E+00  0.23492050384E+02  0.23927627958E+02  0.51100000000E-03 0.  1.
         12    1    4    4    0    0 -0.11895055553E+02  0.25362671833E+01 -0.61824969281E+01  0.13643616313E+02  0.00000000000E+00 0. -1.
</event>
<event>
 8    1  0.2493819E-006  0.9118800E+02  0.7816164E-02  0.1184000E+00
        -11   -1    0    0    0    0  0.00000000000E+00  0.00000000000E+00  0.45593999997E+02  0.45594000000E+02  0.51100000000E-03 0.  1.
         11   -1    0    0    0    0 -0.00000000000E+00 -0.00000000000E+00 -0.45593999997E+02  0.45594000000E+02  0.51100000000E-03 0. -1.
         23    2    1    2    0    0  0.00000000000E+00  0.00000000000E+00  0.00000000000E+00  0.91188000000E+02  0.91188000000E+02 0.  0.
    9900012    2    3    3    0    0 -0.19881911223E+02  0.13381209200E+02 -0.27954121222E+02  0.54367081396E+02  0.39999993659E+02 0.  0.
        -12    1    3    3    0    0  0.19881911223E+02 -0.13381209200E+02  0.27954121222E+02  0.36820918604E+02  0.00000000000E+00 0.  1.
         11    1    4    4    0    0 -0.14572885850E+01 -0.20422241573E+01 -0.29480760617E+02  0.29587321885E+02  0.51100000000E-03 0. -1.
        -11    1    4    4    0    0 -0.20165261485E+01  0.42465587298E+01  0.14734289166E+01  0.49265232960E+01  0.51100000000E-03 0.  1.
         12    1    4    4    0    0 -0.16408096489E+02  0.11176874627E+02  0.53210478117E-01  0.19853236215E+02  0.00000000000E+00 0. -1.
</event>
<event>
 8    1  0.2493819E-006  0.9118800E+02  0.7816164E-02  0.1184000E+00
        -11   -1    0    0    0    0  0.00000000000E+00  0.00000000000E+00  0.45593999997E+02  0.45594000000E+02  0.51100000000E-03 0. -1.
         11   -1    0    0    0    0 -0.00000000000E+00 -0.00000000000E+00 -0.45593999997E+02  0.45594000000E+02  0.51100000000E-03 0.  1.
         23    2    1    2    0    0  0.17763568394E-14  0.17763568394E-14  0.00000000000E+00  0.91188000000E+02  0.91188000000E+02 0.  0.
    9900012    2    3    3    0    0 -0.11171251725E+02 -0.99872138683E+01 -0.33633885909E+02  0.54367087636E+02  0.40000007884E+02 0.  0.
         12    1    3    3    0    0  0.11171251725E+02  0.99872138683E+01  0.33633885909E+02  0.36820912364E+02  0.00000000000E+00 0. -1.
         11    1    4    4    0    0 -0.11755431778E+02  0.56561158405E+01 -0.83125364733E+01  0.15468680796E+02  0.51100000000E-03 0. -1.
        -11    1    4    4    0    0 -0.87282895314E+01 -0.17766585756E+02 -0.15003734105E+02  0.24838410676E+02  0.51100000000E-03 0.  1.
         12    1    4    4    0    0  0.93124695846E+01  0.21232560470E+01 -0.10317615331E+02  0.14059996164E+02  0.00000000000E+00 0. -1.
</event>
<event>
 8    1  0.2493819E-006  0.9118800E+02  0.7816164E-02  0.1184000E+00
        -11   -1    0    0    0    0  0.00000000000E+00  0.00000000000E+00  0.45593999997E+02  0.45594000000E+02  0.51100000000E-03 0. -1.
         11   -1    0    0    0    0 -0.00000000000E+00 -0.00000000000E+00 -0.45593999997E+02  0.45594000000E+02  0.51100000000E-03 0.  1.
         23    2    1    2    0    0 -0.35527136788E-14  0.17763568394E-14  0.00000000000E+00  0.91188000000E+02  0.91188000000E+02 0.  0.
    9900012    2    3    3    0    0  0.27898169305E+02 -0.15798700396E+02 -0.18107268401E+02  0.54367082661E+02  0.39999996542E+02 0.  0.
         12    1    3    3    0    0 -0.27898169305E+02  0.15798700396E+02  0.18107268401E+02  0.36820917339E+02  0.00000000000E+00 0. -1.
         11    1    4    4    0    0  0.14497860068E+01  0.64149551707E+01 -0.46389946948E+00  0.65930821537E+01  0.51100000000E-03 0. -1.
        -11    1    4    4    0    0 -0.35397275641E+01 -0.10552329488E+02 -0.10895156240E+00  0.11130732211E+02  0.51100000000E-03 0.  1.
        -12    1    4    4    0    0  0.29988110862E+02 -0.11661326079E+02 -0.17534417369E+02  0.36643268297E+02  0.00000000000E+00 0.  1.
</event>
<event>
 8    1  0.2493819E-006  0.9118800E+02  0.7816164E-02  0.1184000E+00
        -11   -1    0    0    0    0  0.00000000000E+00  0.00000000000E+00  0.45593999997E+02  0.45594000000E+02  0.51100000000E-03 0.  1.
         11   -1    0    0    0    0 -0.00000000000E+00 -0.00000000000E+00 -0.45593999997E+02  0.45594000000E+02  0.51100000000E-03 0. -1.
         23    2    1    2    0    0  0.71054273576E-14  0.00000000000E+00 -0.17763568394E-14  0.91188000000E+02  0.91188000000E+02 0.  0.
    9900012    2    3    3    0    0 -0.33450963010E+02  0.11443457800E+02  0.10288530254E+02  0.54367170196E+02  0.40000196095E+02 0.  0.
        -12    1    3    3    0    0  0.33450963010E+02 -0.11443457800E+02 -0.10288530254E+02  0.36820829804E+02  0.00000000000E+00 0.  1.
         11    1    4    4    0    0 -0.33805178746E+02  0.11053959508E+02  0.11356466020E+02  0.37335632465E+02  0.51100000000E-03 0. -1.
        -11    1    4    4    0    0  0.16687321336E+01  0.10517764094E+01  0.77983246460E+01  0.80439274048E+01  0.51100000000E-03 0.  1.
         12    1    4    4    0    0 -0.13145163976E+01 -0.66227811769E+00 -0.88662604125E+01  0.89876103257E+01  0.00000000000E+00 0. -1.
</event>
<event>
 8    1  0.2493819E-006  0.9118800E+02  0.7816164E-02  0.1184000E+00
        -11   -1    0    0    0    0  0.00000000000E+00  0.00000000000E+00  0.45593999997E+02  0.45594000000E+02  0.51100000000E-03 0.  1.
         11   -1    0    0    0    0 -0.00000000000E+00 -0.00000000000E+00 -0.45593999997E+02  0.45594000000E+02  0.51100000000E-03 0. -1.
         23    2    1    2    0    0  0.88817841970E-15 -0.17763568394E-14 -0.14210854715E-13  0.91188000000E+02  0.91188000000E+02 0.  0.
    9900012    2    3    3    0    0  0.78641149586E+01  0.13204426028E+02  0.33460083132E+02  0.54367104655E+02  0.40000046682E+02 0.  0.
         12    1    3    3    0    0 -0.78641149586E+01 -0.13204426028E+02 -0.33460083132E+02  0.36820895345E+02  0.00000000000E+00 0. -1.
         11    1    4    4    0    0  0.42863209476E+01 -0.10587912290E+01  0.23466900284E+01  0.50000540480E+01  0.51100000000E-03 0. -1.
        -11    1    4    4    0    0  0.12101906507E+02  0.10899679905E+02  0.35611305352E+02  0.39158961072E+02  0.51100000000E-03 0.  1.
         12    1    4    4    0    0 -0.85241124956E+01  0.33635373521E+01 -0.44979122481E+01  0.10208089535E+02  0.00000000000E+00 0. -1.
</event>
<event>
 8    1  0.2493819E-006  0.9118800E+02  0.7816164E-02  0.1184000E+00
        -11   -1    0    0    0    0  0.00000000000E+00  0.00000000000E+00  0.45593999997E+02  0.45594000000E+02  0.51100000000E-03 0.  1.
         11   -1    0    0    0    0 -0.00000000000E+00 -0.00000000000E+00 -0.45593999997E+02  0.45594000000E+02  0.51100000000E-03 0. -1.
         23    2    1    2    0    0 -0.13322676296E-14 -0.66613381478E-15  0.00000000000E+00  0.91188000000E+02  0.91188000000E+02 0.  0.
    9900012    2    3    3    0    0 -0.11958875411E+01  0.13880709694E+01  0.36775294405E+02  0.54367093349E+02  0.40000020907E+02 0.  0.
         12    1    3    3    0    0  0.11958875411E+01 -0.13880709694E+01 -0.36775294405E+02  0.36820906651E+02  0.00000000000E+00 0. -1.
         11    1    4    4    0    0 -0.76281585257E+01 -0.71015279641E+01  0.11230686299E+01  0.10482451303E+02  0.51100000000E-03 0. -1.
        -11    1    4    4    0    0 -0.61473193973E+01 -0.51897895344E+00  0.23251240046E+02  0.24055748562E+02  0.51100000000E-03 0.  1.
        -12    1    4    4    0    0  0.12579590382E+02  0.90085778869E+01  0.12400985729E+02  0.19828893484E+02  0.00000000000E+00 0.  1.
</event>
<event>
 8    1  0.2493819E-006  0.9118800E+02  0.7816164E-02  0.1184000E+00
        -11   -1    0    0    0    0  0.00000000000E+00  0.00000000000E+00  0.45593999997E+02  0.45594000000E+02  0.51100000000E-03 0.  1.
         11   -1    0    0    0    0 -0.00000000000E+00 -0.00000000000E+00 -0.45593999997E+02  0.45594000000E+02  0.51100000000E-03 0. -1.
         23    2    1    2    0    0  0.35527136788E-14 -0.88817841970E-15  0.00000000000E+00  0.91188000000E+02  0.91188000000E+02 0.  0.
    9900012    2    3    3    0    0 -0.26917636932E+02 -0.27414267225E+01 -0.24974127944E+02  0.54367059422E+02  0.39999943565E+02 0.  0.
        -12    1    3    3    0    0  0.26917636932E+02  0.27414267225E+01  0.24974127944E+02  0.36820940578E+02  0.00000000000E+00 0.  1.
         11    1    4    4    0    0 -0.21527977989E+02  0.12336975701E+02 -0.25872836536E+02  0.35847712290E+02  0.51100000000E-03 0.  1.
        -11    1    4    4    0    0 -0.55816444266E+01 -0.12407347216E+02  0.42278450685E+01  0.14246813455E+02  0.51100000000E-03 0. -1.
         12    1    4    4    0    0  0.19198548372E+00 -0.26710552076E+01 -0.33291364760E+01  0.42725336773E+01  0.00000000000E+00 0. -1.
</event>
<event>
 8    1  0.2493819E-006  0.9118800E+02  0.7816164E-02  0.1184000E+00
        -11   -1    0    0    0    0  0.00000000000E+00  0.00000000000E+00  0.45593999997E+02  0.45594000000E+02  0.51100000000E-03 0. -1.
         11   -1    0    0    0    0 -0.00000000000E+00 -0.00000000000E+00 -0.45593999997E+02  0.45594000000E+02  0.51100000000E-03 0.  1.
         23    2    1    2    0    0  0.35527136788E-14 -0.88817841970E-15  0.00000000000E+00  0.91188000000E+02  0.91188000000E+02 0.  0.
    9900012    2    3    3    0    0 -0.27519679464E+02  0.28695318186E+01 -0.24294300860E+02  0.54367081694E+02  0.39999994337E+02 0.  0.
         12    1    3    3    0    0  0.27519679464E+02 -0.28695318186E+01  0.24294300860E+02  0.36820918306E+02  0.00000000000E+00 0. -1.
         11    1    4    4    0    0 -0.29934630879E+02 -0.15516606184E+01 -0.10432523845E+02  0.31738420417E+02  0.51100000000E-03 0. -1.
        -11    1    4    4    0    0  0.27726369870E+01  0.99592645043E+01 -0.13586244779E+02  0.17072214642E+02  0.51100000000E-03 0.  1.
         12    1    4    4    0    0 -0.35768557226E+00 -0.55380720673E+01 -0.27553223580E+00  0.55564466347E+01  0.00000000000E+00 0. -1.
</event>
<event>
 8    1  0.2493819E-006  0.9118800E+02  0.7816164E-02  0.1184000E+00
        -11   -1    0    0    0    0  0.00000000000E+00  0.00000000000E+00  0.45593999997E+02  0.45594000000E+02  0.51100000000E-03 0.  1.
         11   -1    0    0    0    0 -0.00000000000E+00 -0.00000000000E+00 -0.45593999997E+02  0.45594000000E+02  0.51100000000E-03 0. -1.
         23    2    1    2    0    0  0.00000000000E+00 -0.88817841970E-15  0.00000000000E+00  0.91188000000E+02  0.91188000000E+02 0.  0.
    9900012    2    3    3    0    0  0.27744973512E+02 -0.68692738220E+01 -0.23212259972E+02  0.54367088944E+02  0.40000010865E+02 0.  0.
        -12    1    3    3    0    0 -0.27744973512E+02  0.68692738220E+01  0.23212259972E+02  0.36820911056E+02  0.00000000000E+00 0.  1.
         11    1    4    4    0    0  0.24658000357E+02 -0.54795689062E+00 -0.20435547513E+02  0.32030123958E+02  0.51100000000E-03 0. -1.
        -11    1    4    4    0    0 -0.20732258376E+01 -0.12888412102E+02  0.11565493700E+01  0.13105229437E+02  0.51100000000E-03 0.  1.
         12    1    4    4    0    0  0.51601989922E+01  0.65670951708E+01 -0.39332618293E+01  0.92317355486E+01  0.00000000000E+00 0. -1.
</event>
<event>
 8    1  0.2493819E-006  0.9118800E+02  0.7816164E-02  0.1184000E+00
        -11   -1    0    0    0    0  0.00000000000E+00  0.00000000000E+00  0.45593999997E+02  0.45594000000E+02  0.51100000000E-03 0. -1.
         11   -1    0    0    0    0 -0.00000000000E+00 -0.00000000000E+00 -0.45593999997E+02  0.45594000000E+02  0.51100000000E-03 0.  1.
         23    2    1    2    0    0  0.00000000000E+00  0.00000000000E+00  0.00000000000E+00  0.91188000000E+02  0.91188000000E+02 0.  0.
    9900012    2    3    3    0    0  0.24658599633E+02  0.23399307862E+02 -0.14149428927E+02  0.54367075470E+02  0.39999980149E+02 0.  0.
         12    1    3    3    0    0 -0.24658599633E+02 -0.23399307862E+02  0.14149428927E+02  0.36820924530E+02  0.00000000000E+00 0. -1.
         11    1    4    4    0    0  0.30189881374E+02  0.14782506661E+02  0.14399824064E+01  0.33645579059E+02  0.51100000000E-03 0. -1.
        -11    1    4    4    0    0 -0.37399295215E+01 -0.94759836110E-02 -0.89174278673E+01  0.96699370551E+01  0.51100000000E-03 0.  1.
         12    1    4    4    0    0 -0.17913522203E+01  0.86262771846E+01 -0.66719834659E+01  0.11051559357E+02  0.00000000000E+00 0. -1.
</event>
<event>
 8    1  0.2493819E-006  0.9118800E+02  0.7816164E-02  0.1184000E+00
        -11   -1    0    0    0    0  0.00000000000E+00  0.00000000000E+00  0.45593999997E+02  0.45594000000E+02  0.51100000000E-03 0.  1.
         11   -1    0    0    0    0 -0.00000000000E+00 -0.00000000000E+00 -0.45593999997E+02  0.45594000000E+02  0.51100000000E-03 0. -1.
         23    2    1    2    0    0 -0.35527136788E-14  0.00000000000E+00  0.00000000000E+00  0.91188000000E+02  0.91188000000E+02 0.  0.
    9900012    2    3    3    0    0  0.28480945458E+02 -0.80093381707E+01  0.21919552838E+02  0.54367074581E+02  0.39999978123E+02 0.  0.
         12    1    3    3    0    0 -0.28480945458E+02  0.80093381707E+01 -0.21919552838E+02  0.36820925419E+02  0.00000000000E+00 0. -1.
         11    1    4    4    0    0  0.13055482937E+02  0.12352339130E+01 -0.61179387427E+01  0.14470681126E+02  0.51100000000E-03 0. -1.
        -11    1    4    4    0    0  0.17353331171E+02  0.13597776113E+01  0.19561143669E+02  0.26184450344E+02  0.51100000000E-03 0.  1.
         12    1    4    4    0    0 -0.19278686501E+01 -0.10604349695E+02  0.84763479113E+01  0.13711943112E+02  0.00000000000E+00 0. -1.
</event>
<event>
 8    1  0.2493819E-006  0.9118800E+02  0.7816164E-02  0.1184000E+00
        -11   -1    0    0    0    0  0.00000000000E+00  0.00000000000E+00  0.45593999997E+02  0.45594000000E+02  0.51100000000E-03 0.  1.
         11   -1    0    0    0    0 -0.00000000000E+00 -0.00000000000E+00 -0.45593999997E+02  0.45594000000E+02  0.51100000000E-03 0. -1.
         23    2    1    2    0    0  0.00000000000E+00  0.17763568394E-14 -0.35527136788E-14  0.91188000000E+02  0.91188000000E+02 0.  0.
    9900012    2    3    3    0    0  0.22135028260E+02 -0.11381072756E+02 -0.27134686063E+02  0.54367089081E+02  0.40000011178E+02 0.  0.
        -12    1    3    3    0    0 -0.22135028260E+02  0.11381072756E+02  0.27134686063E+02  0.36820910919E+02  0.00000000000E+00 0.  1.
         11    1    4    4    0    0  0.10588579047E+02  0.46294355398E+01 -0.18089757380E+02  0.21465996412E+02  0.51100000000E-03 0. -1.
        -11    1    4    4    0    0  0.91261868339E+00  0.51636249157E+01  0.32879818468E+01  0.61892422813E+01  0.51100000000E-03 0.  1.
        -12    1    4    4    0    0  0.10633830530E+02 -0.21174133211E+02 -0.12332910530E+02  0.26711850387E+02  0.00000000000E+00 0.  1.
</event>
<event>
 8    1  0.2493819E-006  0.9118800E+02  0.7816164E-02  0.1184000E+00
        -11   -1    0    0    0    0  0.00000000000E+00  0.00000000000E+00  0.45593999997E+02  0.45594000000E+02  0.51100000000E-03 0. -1.
         11   -1    0    0    0    0 -0.00000000000E+00 -0.00000000000E+00 -0.45593999997E+02  0.45594000000E+02  0.51100000000E-03 0.  1.
         23    2    1    2    0    0  0.35527136788E-14  0.00000000000E+00  0.00000000000E+00  0.91188000000E+02  0.91188000000E+02 0.  0.
    9900012    2    3    3    0    0 -0.12992624861E+02 -0.96624830390E+01 -0.33069771360E+02  0.54367059530E+02  0.39999943811E+02 0.  0.
         12    1    3    3    0    0  0.12992624861E+02  0.96624830390E+01  0.33069771360E+02  0.36820940470E+02  0.00000000000E+00 0. -1.
         11    1    4    4    0    0 -0.21558961171E+01 -0.84153449196E+01  0.40929111624E+01  0.96030120393E+01  0.51100000000E-03 0. -1.
        -11    1    4    4    0    0  0.40270832918E+01 -0.50519512564E+00 -0.25594972936E+02  0.25914769183E+02  0.51100000000E-03 0.  1.
        -12    1    4    4    0    0 -0.14863812036E+02 -0.74194299378E+00 -0.11567709586E+02  0.18849278308E+02  0.00000000000E+00 0.  1.
</event>
<event>
 8    1  0.2493819E-006  0.9118800E+02  0.7816164E-02  0.1184000E+00
        -11   -1    0    0    0    0  0.00000000000E+00  0.00000000000E+00  0.45593999997E+02  0.45594000000E+02  0.51100000000E-03 0.  1.
         11   -1    0    0    0    0 -0.00000000000E+00 -0.00000000000E+00 -0.45593999997E+02  0.45594000000E+02  0.51100000000E-03 0. -1.
         23    2    1    2    0    0 -0.17763568394E-14 -0.88817841970E-15 -0.71054273576E-14  0.91188000000E+02  0.91188000000E+02 0.  0.
    9900012    2    3    3    0    0  0.15264855524E+02 -0.64470191787E+01 -0.32881611160E+02  0.54367079005E+02  0.39999988207E+02 0.  0.
        -12    1    3    3    0    0 -0.15264855524E+02  0.64470191787E+01  0.32881611160E+02  0.36820920995E+02  0.00000000000E+00 0.  1.
         11    1    4    4    0    0 -0.92787356729E+01  0.11781892242E+01 -0.16070224691E+02  0.18593955669E+02  0.51100000000E-03 0. -1.
        -11    1    4    4    0    0  0.25271078350E+01 -0.77001490460E+01 -0.53503496654E-01  0.81044081971E+01  0.51100000000E-03 0.  1.
         12    1    4    4    0    0  0.22016483362E+02  0.74940643038E-01 -0.16757882972E+02  0.27668715139E+02  0.00000000000E+00 0. -1.
</event>
<event>
 8    1  0.2493819E-006  0.9118800E+02  0.7816164E-02  0.1184000E+00
        -11   -1    0    0    0    0  0.00000000000E+00  0.00000000000E+00  0.45593999997E+02  0.45594000000E+02  0.51100000000E-03 0.  1.
         11   -1    0    0    0    0 -0.00000000000E+00 -0.00000000000E+00 -0.45593999997E+02  0.45594000000E+02  0.51100000000E-03 0. -1.
         23    2    1    2    0    0  0.17763568394E-14  0.17763568394E-14  0.00000000000E+00  0.91188000000E+02  0.91188000000E+02 0.  0.
    9900012    2    3    3    0    0  0.19146253922E+01  0.13304958050E+02  0.34279610944E+02  0.54367089832E+02  0.40000012890E+02 0.  0.
         12    1    3    3    0    0 -0.19146253922E+01 -0.13304958050E+02 -0.34279610944E+02  0.36820910168E+02  0.00000000000E+00 0. -1.
         11    1    4    4    0    0  0.70278328269E+01 -0.36155502115E+01  0.13103316252E+02  0.15302272205E+02  0.51100000000E-03 0. -1.
        -11    1    4    4    0    0 -0.66318033242E+01 -0.39024498056E+01 -0.19198604424E+01  0.79306868679E+01  0.51100000000E-03 0.  1.
        -12    1    4    4    0    0  0.15185958895E+01  0.20822958067E+02  0.23096155135E+02  0.31134130759E+02  0.00000000000E+00 0.  1.
</event>
<event>
 8    1  0.2493819E-006  0.9118800E+02  0.7816164E-02  0.1184000E+00
        -11   -1    0    0    0    0  0.00000000000E+00  0.00000000000E+00  0.45593999997E+02  0.45594000000E+02  0.51100000000E-03 0. -1.
         11   -1    0    0    0    0 -0.00000000000E+00 -0.00000000000E+00 -0.45593999997E+02  0.45594000000E+02  0.51100000000E-03 0.  1.
         23    2    1    2    0    0  0.00000000000E+00 -0.35527136788E-14  0.00000000000E+00  0.91188000000E+02  0.91188000000E+02 0.  0.
    9900012    2    3    3    0    0 -0.21044721538E+02 -0.20072050843E+02  0.22583437978E+02  0.54367092887E+02  0.40000019855E+02 0.  0.
        -12    1    3    3    0    0  0.21044721538E+02  0.20072050843E+02 -0.22583437978E+02  0.36820907113E+02  0.00000000000E+00 0.  1.
         11    1    4    4    0    0  0.26542776009E+01 -0.12220178753E+01  0.12067441252E+02  0.12416185240E+02  0.51100000000E-03 0. -1.
        -11    1    4    4    0    0 -0.46594996129E+01 -0.20895128490E+02  0.44693319704E+01  0.21869893914E+02  0.51100000000E-03 0.  1.
         12    1    4    4    0    0 -0.19039499526E+02  0.20450955228E+01  0.60466647556E+01  0.20081013734E+02  0.00000000000E+00 0. -1.
</event>
<event>
 8    1  0.2493819E-006  0.9118800E+02  0.7816164E-02  0.1184000E+00
        -11   -1    0    0    0    0  0.00000000000E+00  0.00000000000E+00  0.45593999997E+02  0.45594000000E+02  0.51100000000E-03 0. -1.
         11   -1    0    0    0    0 -0.00000000000E+00 -0.00000000000E+00 -0.45593999997E+02  0.45594000000E+02  0.51100000000E-03 0.  1.
         23    2    1    2    0    0  0.88817841970E-15  0.00000000000E+00  0.35527136788E-14  0.91188000000E+02  0.91188000000E+02 0.  0.
    9900012    2    3    3    0    0  0.49676645616E+01 -0.22234313431E+02  0.28926723190E+02  0.54366841688E+02  0.39999447192E+02 0.  0.
        -12    1    3    3    0    0 -0.49676645616E+01  0.22234313431E+02 -0.28926723190E+02  0.36821158312E+02  0.00000000000E+00 0.  1.
         11    1    4    4    0    0  0.42295450680E+01 -0.29197879741E+01  0.16917629531E+02  0.17681074699E+02  0.51100000000E-03 0. -1.
        -11    1    4    4    0    0  0.12306993231E+02 -0.26835689249E+01  0.10450418852E+02  0.16366883607E+02  0.51100000000E-03 0.  1.
        -12    1    4    4    0    0 -0.11568873738E+02 -0.16630956531E+02  0.15586748066E+01  0.20318883381E+02  0.00000000000E+00 0.  1.
</event>
<event>
 8    1  0.2493819E-006  0.9118800E+02  0.7816164E-02  0.1184000E+00
        -11   -1    0    0    0    0  0.00000000000E+00  0.00000000000E+00  0.45593999997E+02  0.45594000000E+02  0.51100000000E-03 0.  1.
         11   -1    0    0    0    0 -0.00000000000E+00 -0.00000000000E+00 -0.45593999997E+02  0.45594000000E+02  0.51100000000E-03 0. -1.
         23    2    1    2    0    0  0.00000000000E+00 -0.17763568394E-14 -0.71054273576E-14  0.91188000000E+02  0.91188000000E+02 0.  0.
    9900012    2    3    3    0    0 -0.56882583605E+01 -0.15640148949E+02 -0.32845202236E+02  0.54367111197E+02  0.40000061597E+02 0.  0.
        -12    1    3    3    0    0  0.56882583605E+01  0.15640148949E+02  0.32845202236E+02  0.36820888803E+02  0.00000000000E+00 0.  1.
         11    1    4    4    0    0  0.22749344113E+01  0.57044589349E+01 -0.33256039511E+01  0.69839688012E+01  0.51100000000E-03 0. -1.
        -11    1    4    4    0    0  0.97198449323E+01 -0.11818639012E+02 -0.59554194147E+01  0.16420189837E+02  0.51100000000E-03 0.  1.
         12    1    4    4    0    0 -0.17683037704E+02 -0.95259688711E+01 -0.23564178870E+02  0.30962952559E+02  0.00000000000E+00 0. -1.
</event>
<event>
 8    1  0.2493819E-006  0.9118800E+02  0.7816164E-02  0.1184000E+00
        -11   -1    0    0    0    0  0.00000000000E+00  0.00000000000E+00  0.45593999997E+02  0.45594000000E+02  0.51100000000E-03 0. -1.
         11   -1    0    0    0    0 -0.00000000000E+00 -0.00000000000E+00 -0.45593999997E+02  0.45594000000E+02  0.51100000000E-03 0.  1.
         23    2    1    2    0    0  0.00000000000E+00 -0.17763568394E-14  0.35527136788E-14  0.91188000000E+02  0.91188000000E+02 0.  0.
    9900012    2    3    3    0    0 -0.20947806220E+02  0.10318135166E+02  0.28469373948E+02  0.54367085403E+02  0.40000002794E+02 0.  0.
        -12    1    3    3    0    0  0.20947806220E+02 -0.10318135166E+02 -0.28469373948E+02  0.36820914597E+02  0.00000000000E+00 0.  1.
         11    1    4    4    0    0 -0.12438433918E+02 -0.92596085647E+01  0.24994952542E+02  0.29414327154E+02  0.51100000000E-03 0.  1.
        -11    1    4    4    0    0 -0.38878751687E+01  0.14843512650E+00  0.31052340478E+01  0.49779599302E+01  0.51100000000E-03 0. -1.
        -12    1    4    4    0    0 -0.46214971331E+01  0.19429308604E+02  0.36918735859E+00  0.19974798319E+02  0.00000000000E+00 0.  1.
</event>
<event>
 8    1  0.2493819E-006  0.9118800E+02  0.7816164E-02  0.1184000E+00
        -11   -1    0    0    0    0  0.00000000000E+00  0.00000000000E+00  0.45593999997E+02  0.45594000000E+02  0.51100000000E-03 0.  1.
         11   -1    0    0    0    0 -0.00000000000E+00 -0.00000000000E+00 -0.45593999997E+02  0.45594000000E+02  0.51100000000E-03 0. -1.
         23    2    1    2    0    0  0.00000000000E+00  0.35527136788E-14  0.35527136788E-14  0.91188000000E+02  0.91188000000E+02 0.  0.
    9900012    2    3    3    0    0 -0.53866342376E+01  0.29247005073E+02  0.21711331573E+02  0.54367013419E+02  0.39999838690E+02 0.  0.
         12    1    3    3    0    0  0.53866342376E+01 -0.29247005073E+02 -0.21711331573E+02  0.36820986581E+02  0.00000000000E+00 0. -1.
         11    1    4    4    0    0 -0.15100371460E+02  0.15315331438E+02  0.16827637944E+02  0.27308423505E+02  0.51100000000E-03 0.  1.
        -11    1    4    4    0    0  0.54201825296E+01  0.76335684269E+01  0.12937523259E+02  0.15969635372E+02  0.51100000000E-03 0. -1.
         12    1    4    4    0    0  0.42935546924E+01  0.62981052083E+01 -0.80538296305E+01  0.11088954542E+02  0.00000000000E+00 0. -1.
</event>
<event>
 8    1  0.2493819E-006  0.9118800E+02  0.7816164E-02  0.1184000E+00
        -11   -1    0    0    0    0  0.00000000000E+00  0.00000000000E+00  0.45593999997E+02  0.45594000000E+02  0.51100000000E-03 0. -1.
         11   -1    0    0    0    0 -0.00000000000E+00 -0.00000000000E+00 -0.45593999997E+02  0.45594000000E+02  0.51100000000E-03 0.  1.
         23    2    1    2    0    0  0.00000000000E+00  0.00000000000E+00  0.00000000000E+00  0.91188000000E+02  0.91188000000E+02 0.  0.
    9900012    2    3    3    0    0  0.13379934743E+02 -0.24456998495E+02 -0.24054312132E+02  0.54367117864E+02  0.40000076795E+02 0.  0.
         12    1    3    3    0    0 -0.13379934743E+02  0.24456998495E+02  0.24054312132E+02  0.36820882136E+02  0.00000000000E+00 0. -1.
         11    1    4    4    0    0 -0.93510213913E+00 -0.25234946081E+01 -0.42223685707E+01  0.50070787547E+01  0.51100000000E-03 0. -1.
        -11    1    4    4    0    0  0.11047026683E+02 -0.31154033059E+02 -0.21506426288E+02  0.39435224689E+02  0.51100000000E-03 0.  1.
        -12    1    4    4    0    0  0.32680101992E+01  0.92205291720E+01  0.16744827268E+01  0.99248144202E+01  0.00000000000E+00 0.  1.
</event>
<event>
 8    1  0.2493819E-006  0.9118800E+02  0.7816164E-02  0.1184000E+00
        -11   -1    0    0    0    0  0.00000000000E+00  0.00000000000E+00  0.45593999997E+02  0.45594000000E+02  0.51100000000E-03 0.  1.
         11   -1    0    0    0    0 -0.00000000000E+00 -0.00000000000E+00 -0.45593999997E+02  0.45594000000E+02  0.51100000000E-03 0. -1.
         23    2    1    2    0    0 -0.71054273576E-14 -0.35527136788E-14 -0.17763568394E-14  0.91188000000E+02  0.91188000000E+02 0.  0.
    9900012    2    3    3    0    0 -0.30608838481E+02 -0.18397188592E+02 -0.89679783312E+01  0.54367052476E+02  0.39999927729E+02 0.  0.
        -12    1    3    3    0    0  0.30608838481E+02  0.18397188592E+02  0.89679783312E+01  0.36820947524E+02  0.00000000000E+00 0.  1.
         11    1    4    4    0    0 -0.27389008824E+02 -0.84531071134E+01  0.28895220201E+01  0.28809063886E+02  0.51100000000E-03 0. -1.
        -11    1    4    4    0    0 -0.11262933385E+02 -0.22898676658E+01 -0.68311163743E+01  0.13370165053E+02  0.51100000000E-03 0.  1.
        -12    1    4    4    0    0  0.80431037284E+01 -0.76542138128E+01 -0.50263839770E+01  0.12187823537E+02  0.00000000000E+00 0.  1.
</event>
<event>
 8    1  0.2493819E-006  0.9118800E+02  0.7816164E-02  0.1184000E+00
        -11   -1    0    0    0    0  0.00000000000E+00  0.00000000000E+00  0.45593999997E+02  0.45594000000E+02  0.51100000000E-03 0. -1.
         11   -1    0    0    0    0 -0.00000000000E+00 -0.00000000000E+00 -0.45593999997E+02  0.45594000000E+02  0.51100000000E-03 0.  1.
         23    2    1    2    0    0  0.71054273576E-14  0.17763568394E-14  0.17763568394E-14  0.91188000000E+02  0.91188000000E+02 0.  0.
    9900012    2    3    3    0    0  0.34122538025E+02 -0.10274865742E+02  0.92666660987E+01  0.54366924950E+02  0.39999637006E+02 0.  0.
        -12    1    3    3    0    0 -0.34122538025E+02  0.10274865742E+02 -0.92666660987E+01  0.36821075050E+02  0.00000000000E+00 0.  1.
         11    1    4    4    0    0 -0.30147608067E+01  0.63467195012E+01  0.13074660547E+01  0.71469643131E+01  0.51100000000E-03 0. -1.
        -11    1    4    4    0    0  0.24535853170E+02 -0.20639973928E+02  0.10526515387E+02  0.33746468571E+02  0.51100000000E-03 0.  1.
         12    1    4    4    0    0  0.12601445661E+02  0.40183886853E+01 -0.25673153426E+01  0.13473492066E+02  0.00000000000E+00 0. -1.
</event>
<event>
 8    1  0.2493819E-006  0.9118800E+02  0.7816164E-02  0.1184000E+00
        -11   -1    0    0    0    0  0.00000000000E+00  0.00000000000E+00  0.45593999997E+02  0.45594000000E+02  0.51100000000E-03 0.  1.
         11   -1    0    0    0    0 -0.00000000000E+00 -0.00000000000E+00 -0.45593999997E+02  0.45594000000E+02  0.51100000000E-03 0. -1.
         23    2    1    2    0    0  0.00000000000E+00  0.00000000000E+00  0.00000000000E+00  0.91188000000E+02  0.91188000000E+02 0.  0.
    9900012    2    3    3    0    0 -0.17374781887E+02 -0.18732724787E+02  0.26513791669E+02  0.54367093272E+02  0.40000020733E+02 0.  0.
         12    1    3    3    0    0  0.17374781887E+02  0.18732724787E+02 -0.26513791669E+02  0.36820906728E+02  0.00000000000E+00 0. -1.
         11    1    4    4    0    0  0.30923599904E+01  0.55841483780E+01  0.54621148361E+00  0.64065396794E+01  0.51100000000E-03 0. -1.
        -11    1    4    4    0    0 -0.20668298848E+01  0.23841351152E+01  0.12424640737E+02  0.12819032090E+02  0.51100000000E-03 0.  1.
        -12    1    4    4    0    0 -0.18400311992E+02 -0.26701008280E+02  0.13542939448E+02  0.35141521502E+02  0.00000000000E+00 0.  1.
</event>
<event>
 8    1  0.2493819E-006  0.9118800E+02  0.7816164E-02  0.1184000E+00
        -11   -1    0    0    0    0  0.00000000000E+00  0.00000000000E+00  0.45593999997E+02  0.45594000000E+02  0.51100000000E-03 0.  1.
         11   -1    0    0    0    0 -0.00000000000E+00 -0.00000000000E+00 -0.45593999997E+02  0.45594000000E+02  0.51100000000E-03 0. -1.
         23    2    1    2    0    0 -0.35527136788E-14  0.35527136788E-14  0.13322676296E-14  0.91188000000E+02  0.91188000000E+02 0.  0.
    9900012    2    3    3    0    0  0.19521773140E+02 -0.31194433752E+02 -0.12601924005E+01  0.54367076485E+02  0.39999982463E+02 0.  0.
        -12    1    3    3    0    0 -0.19521773140E+02  0.31194433752E+02  0.12601924005E+01  0.36820923515E+02  0.00000000000E+00 0.  1.
         11    1    4    4    0    0  0.15820847659E+02 -0.27549925137E+02  0.13044345097E+02  0.34343158489E+02  0.51100000000E-03 0. -1.
        -11    1    4    4    0    0 -0.72158530035E+00  0.44723399224E+01 -0.30555389626E+01  0.54643232281E+01  0.51100000000E-03 0.  1.
        -12    1    4    4    0    0  0.44225107809E+01 -0.81168485370E+01 -0.11248998535E+02  0.14559594768E+02  0.00000000000E+00 0.  1.
</event>
<event>
 8    1  0.2493819E-006  0.9118800E+02  0.7816164E-02  0.1184000E+00
        -11   -1    0    0    0    0  0.00000000000E+00  0.00000000000E+00  0.45593999997E+02  0.45594000000E+02  0.51100000000E-03 0.  1.
         11   -1    0    0    0    0 -0.00000000000E+00 -0.00000000000E+00 -0.45593999997E+02  0.45594000000E+02  0.51100000000E-03 0. -1.
         23    2    1    2    0    0  0.00000000000E+00 -0.24424906542E-14  0.35527136788E-14  0.91188000000E+02  0.91188000000E+02 0.  0.
    9900012    2    3    3    0    0  0.22520018890E+02  0.16070791204E+01  0.29086858034E+02  0.54367092021E+02  0.40000017880E+02 0.  0.
         12    1    3    3    0    0 -0.22520018890E+02 -0.16070791204E+01 -0.29086858034E+02  0.36820907979E+02  0.00000000000E+00 0. -1.
         11    1    4    4    0    0  0.51675219843E+01 -0.70999449163E+01  0.24344052111E+02  0.25879439228E+02  0.51100000000E-03 0. -1.
        -11    1    4    4    0    0  0.14432278256E+02 -0.23105233554E+01  0.79617162181E+01  0.16643860707E+02  0.51100000000E-03 0.  1.
         12    1    4    4    0    0  0.29202186503E+01  0.11017547392E+02 -0.32189102958E+01  0.11843792087E+02  0.00000000000E+00 0. -1.
</event>
<event>
 8    1  0.2493819E-006  0.9118800E+02  0.7816164E-02  0.1184000E+00
        -11   -1    0    0    0    0  0.00000000000E+00  0.00000000000E+00  0.45593999997E+02  0.45594000000E+02  0.51100000000E-03 0.  1.
         11   -1    0    0    0    0 -0.00000000000E+00 -0.00000000000E+00 -0.45593999997E+02  0.45594000000E+02  0.51100000000E-03 0. -1.
         23    2    1    2    0    0 -0.35527136788E-14  0.00000000000E+00 -0.11102230246E-14  0.91188000000E+02  0.91188000000E+02 0.  0.
    9900012    2    3    3    0    0  0.26091181840E+02  0.25904549686E+02 -0.19960497889E+01  0.54367086391E+02  0.40000005046E+02 0.  0.
        -12    1    3    3    0    0 -0.26091181840E+02 -0.25904549686E+02  0.19960497889E+01  0.36820913609E+02  0.00000000000E+00 0.  1.
         11    1    4    4    0    0  0.74685101722E+01  0.11813358823E+02 -0.80232051948E+01  0.16115393657E+02  0.51100000000E-03 0. -1.
        -11    1    4    4    0    0  0.24019694769E+02  0.18618510687E+02  0.28504527209E+01  0.30524084883E+02  0.51100000000E-03 0.  1.
        -12    1    4    4    0    0 -0.53970231015E+01 -0.45273198237E+01  0.31767026850E+01  0.77276078506E+01  0.00000000000E+00 0.  1.
</event>
<event>
 8    1  0.2493819E-006  0.9118800E+02  0.7816164E-02  0.1184000E+00
        -11   -1    0    0    0    0  0.00000000000E+00  0.00000000000E+00  0.45593999997E+02  0.45594000000E+02  0.51100000000E-03 0.  1.
         11   -1    0    0    0    0 -0.00000000000E+00 -0.00000000000E+00 -0.45593999997E+02  0.45594000000E+02  0.51100000000E-03 0. -1.
         23    2    1    2    0    0  0.00000000000E+00  0.00000000000E+00  0.00000000000E+00  0.91188000000E+02  0.91188000000E+02 0.  0.
    9900012    2    3    3    0    0  0.17568765895E+01 -0.16971519912E+02 -0.32629152317E+02  0.54367072738E+02  0.39999973921E+02 0.  0.
        -12    1    3    3    0    0 -0.17568765895E+01  0.16971519912E+02  0.32629152317E+02  0.36820927262E+02  0.00000000000E+00 0.  1.
         11    1    4    4    0    0  0.12322286836E+02  0.11435203596E+01 -0.91529716465E+01  0.15392312428E+02  0.51100000000E-03 0. -1.
        -11    1    4    4    0    0 -0.11761086401E+02 -0.43990136246E+01 -0.97381997381E+00  0.12594554371E+02  0.51100000000E-03 0.  1.
        -12    1    4    4    0    0  0.11956761546E+01 -0.13716026647E+02 -0.22502360697E+02  0.26380205939E+02  0.00000000000E+00 0.  1.
</event>
<event>
 8    1  0.2493819E-006  0.9118800E+02  0.7816164E-02  0.1184000E+00
        -11   -1    0    0    0    0  0.00000000000E+00  0.00000000000E+00  0.45593999997E+02  0.45594000000E+02  0.51100000000E-03 0.  1.
         11   -1    0    0    0    0 -0.00000000000E+00 -0.00000000000E+00 -0.45593999997E+02  0.45594000000E+02  0.51100000000E-03 0. -1.
         23    2    1    2    0    0  0.00000000000E+00  0.35527136788E-14  0.17763568394E-14  0.91188000000E+02  0.91188000000E+02 0.  0.
    9900012    2    3    3    0    0 -0.24815133715E+02 -0.26432320620E+02 -0.64283061590E+01  0.54367060920E+02  0.39999946979E+02 0.  0.
        -12    1    3    3    0    0  0.24815133715E+02  0.26432320620E+02  0.64283061590E+01  0.36820939080E+02  0.00000000000E+00 0.  1.
         11    1    4    4    0    0 -0.16506759057E+02 -0.61419316053E+01  0.12590739183E+02  0.21650014592E+02  0.51100000000E-03 0. -1.
        -11    1    4    4    0    0  0.43578211367E+01 -0.35769659544E+01 -0.44446858199E+01  0.71791728491E+01  0.51100000000E-03 0.  1.
         12    1    4    4    0    0 -0.12666195795E+02 -0.16713423061E+02 -0.14574359522E+02  0.25537873478E+02  0.00000000000E+00 0. -1.
</event>
<event>
 8    1  0.2493819E-006  0.9118800E+02  0.7816164E-02  0.1184000E+00
        -11   -1    0    0    0    0  0.00000000000E+00  0.00000000000E+00  0.45593999997E+02  0.45594000000E+02  0.51100000000E-03 0.  1.
         11   -1    0    0    0    0 -0.00000000000E+00 -0.00000000000E+00 -0.45593999997E+02  0.45594000000E+02  0.51100000000E-03 0. -1.
         23    2    1    2    0    0 -0.35527136788E-14  0.00000000000E+00 -0.35527136788E-14  0.91188000000E+02  0.91188000000E+02 0.  0.
    9900012    2    3    3    0    0 -0.22139235690E+02  0.21343223746E+02 -0.20250943245E+02  0.54367086661E+02  0.40000005661E+02 0.  0.
        -12    1    3    3    0    0  0.22139235690E+02 -0.21343223746E+02  0.20250943245E+02  0.36820913339E+02  0.00000000000E+00 0.  1.
         11    1    4    4    0    0  0.80538084146E+00  0.92736641573E+01 -0.10304653402E+02  0.13886517461E+02  0.51100000000E-03 0. -1.
        -11    1    4    4    0    0 -0.26417776674E+02 -0.23380010832E+00 -0.75193098878E+01  0.27468047042E+02  0.51100000000E-03 0.  1.
        -12    1    4    4    0    0  0.34731601424E+01  0.12303359697E+02 -0.24269799555E+01  0.13012522158E+02  0.00000000000E+00 0.  1.
</event>
<event>
 8    1  0.2493819E-006  0.9118800E+02  0.7816164E-02  0.1184000E+00
        -11   -1    0    0    0    0  0.00000000000E+00  0.00000000000E+00  0.45593999997E+02  0.45594000000E+02  0.51100000000E-03 0. -1.
         11   -1    0    0    0    0 -0.00000000000E+00 -0.00000000000E+00 -0.45593999997E+02  0.45594000000E+02  0.51100000000E-03 0.  1.
         23    2    1    2    0    0  0.14432899320E-14  0.44408920985E-15  0.00000000000E+00  0.91188000000E+02  0.91188000000E+02 0.  0.
    9900012    2    3    3    0    0 -0.98526387581E+00 -0.16670218397E+01  0.36770000774E+02  0.54367045862E+02  0.39999912651E+02 0.  0.
        -12    1    3    3    0    0  0.98526387581E+00  0.16670218397E+01 -0.36770000774E+02  0.36820954138E+02  0.00000000000E+00 0.  1.
         11    1    4    4    0    0 -0.76071124039E+01 -0.12006034084E+02  0.27957307802E+02  0.31362781659E+02  0.51100000000E-03 0. -1.
        -11    1    4    4    0    0 -0.38873578534E+01 -0.12677279965E+01 -0.13868286555E+01  0.43176358501E+01  0.51100000000E-03 0.  1.
         12    1    4    4    0    0  0.10509206381E+02  0.11606740241E+02  0.10199521627E+02  0.18686628353E+02  0.00000000000E+00 0. -1.
</event>
<event>
 8    1  0.2493819E-006  0.9118800E+02  0.7816164E-02  0.1184000E+00
        -11   -1    0    0    0    0  0.00000000000E+00  0.00000000000E+00  0.45593999997E+02  0.45594000000E+02  0.51100000000E-03 0.  1.
         11   -1    0    0    0    0 -0.00000000000E+00 -0.00000000000E+00 -0.45593999997E+02  0.45594000000E+02  0.51100000000E-03 0. -1.
         23    2    1    2    0    0  0.35527136788E-14 -0.17763568394E-14  0.35527136788E-14  0.91188000000E+02  0.91188000000E+02 0.  0.
    9900012    2    3    3    0    0 -0.18672410130E+02  0.91027202685E+01 -0.30401671980E+02  0.54367081006E+02  0.39999992770E+02 0.  0.
        -12    1    3    3    0    0  0.18672410130E+02 -0.91027202685E+01  0.30401671980E+02  0.36820918994E+02  0.00000000000E+00 0.  1.
         11    1    4    4    0    0  0.81146786698E+01 -0.95018312503E+00 -0.15727943132E+02  0.17723404112E+02  0.51100000000E-03 0.  1.
        -11    1    4    4    0    0 -0.51242184734E+01  0.37899727353E+01 -0.12447087664E+02  0.13983972965E+02  0.51100000000E-03 0. -1.
        -12    1    4    4    0    0 -0.21662870327E+02  0.62629306583E+01 -0.22266411836E+01  0.22659703930E+02  0.00000000000E+00 0.  1.
</event>
<event>
 8    1  0.2493819E-006  0.9118800E+02  0.7816164E-02  0.1184000E+00
        -11   -1    0    0    0    0  0.00000000000E+00  0.00000000000E+00  0.45593999997E+02  0.45594000000E+02  0.51100000000E-03 0. -1.
         11   -1    0    0    0    0 -0.00000000000E+00 -0.00000000000E+00 -0.45593999997E+02  0.45594000000E+02  0.51100000000E-03 0.  1.
         23    2    1    2    0    0  0.35527136788E-14 -0.35527136788E-14  0.00000000000E+00  0.91188000000E+02  0.91188000000E+02 0.  0.
    9900012    2    3    3    0    0 -0.27609794886E+02 -0.13855814527E+02  0.20037445924E+02  0.54367033024E+02  0.39999883386E+02 0.  0.
        -12    1    3    3    0    0  0.27609794886E+02  0.13855814527E+02 -0.20037445924E+02  0.36820966976E+02  0.00000000000E+00 0.  1.
         11    1    4    4    0    0 -0.41500348951E+00 -0.11946515376E+02  0.15977950755E+02  0.19954607692E+02  0.51100000000E-03 0. -1.
        -11    1    4    4    0    0 -0.47202043803E+01 -0.91161290432E+01 -0.86599165278E+00  0.10302139580E+02  0.51100000000E-03 0.  1.
         12    1    4    4    0    0 -0.22474587016E+02  0.72068298923E+01  0.49254868217E+01  0.24110285753E+02  0.00000000000E+00 0. -1.
</event>
<event>
 8    1  0.2493819E-006  0.9118800E+02  0.7816164E-02  0.1184000E+00
        -11   -1    0    0    0    0  0.00000000000E+00  0.00000000000E+00  0.45593999997E+02  0.45594000000E+02  0.51100000000E-03 0.  1.
         11   -1    0    0    0    0 -0.00000000000E+00 -0.00000000000E+00 -0.45593999997E+02  0.45594000000E+02  0.51100000000E-03 0. -1.
         23    2    1    2    0    0  0.17763568394E-14 -0.71054273576E-14 -0.17763568394E-14  0.91188000000E+02  0.91188000000E+02 0.  0.
    9900012    2    3    3    0    0  0.10427504098E+02  0.34002427525E+02 -0.95332131132E+01  0.54367081061E+02  0.39999992894E+02 0.  0.
         12    1    3    3    0    0 -0.10427504098E+02 -0.34002427525E+02  0.95332131132E+01  0.36820918939E+02  0.00000000000E+00 0. -1.
         11    1    4    4    0    0 -0.80578895135E+01  0.80611534610E+01 -0.39928883674E+01  0.12077041704E+02  0.51100000000E-03 0. -1.
        -11    1    4    4    0    0  0.44398178698E+00 -0.48684302898E+01  0.27885915712E+01  0.56280526407E+01  0.51100000000E-03 0.  1.
        -12    1    4    4    0    0  0.18041411824E+02  0.30809704354E+02 -0.83289163169E+01  0.36661986716E+02  0.00000000000E+00 0.  1.
</event>
<event>
 8    1  0.2493819E-006  0.9118800E+02  0.7816164E-02  0.1184000E+00
        -11   -1    0    0    0    0  0.00000000000E+00  0.00000000000E+00  0.45593999997E+02  0.45594000000E+02  0.51100000000E-03 0.  1.
         11   -1    0    0    0    0 -0.00000000000E+00 -0.00000000000E+00 -0.45593999997E+02  0.45594000000E+02  0.51100000000E-03 0. -1.
         23    2    1    2    0    0  0.00000000000E+00  0.25535129566E-14  0.00000000000E+00  0.91188000000E+02  0.91188000000E+02 0.  0.
    9900012    2    3    3    0    0 -0.21965110844E+02  0.41911080684E+00  0.29548915822E+02  0.54367079662E+02  0.39999989705E+02 0.  0.
         12    1    3    3    0    0  0.21965110844E+02 -0.41911080684E+00 -0.29548915822E+02  0.36820920338E+02  0.00000000000E+00 0. -1.
         11    1    4    4    0    0 -0.21267549292E+01 -0.86862440518E+01 -0.52677774300E+00  0.89583155396E+01  0.51100000000E-03 0. -1.
        -11    1    4    4    0    0 -0.15923599315E+02  0.15656350776E+02  0.30458329392E+02  0.37767607343E+02  0.51100000000E-03 0.  1.
        -12    1    4    4    0    0 -0.39147566005E+01 -0.65509959178E+01 -0.38263582683E+00  0.76411567797E+01  0.00000000000E+00 0.  1.
</event>
<event>
 8    1  0.2493819E-006  0.9118800E+02  0.7816164E-02  0.1184000E+00
        -11   -1    0    0    0    0  0.00000000000E+00  0.00000000000E+00  0.45593999997E+02  0.45594000000E+02  0.51100000000E-03 0. -1.
         11   -1    0    0    0    0 -0.00000000000E+00 -0.00000000000E+00 -0.45593999997E+02  0.45594000000E+02  0.51100000000E-03 0.  1.
         23    2    1    2    0    0 -0.17763568394E-14  0.00000000000E+00  0.35527136788E-14  0.91188000000E+02  0.91188000000E+02 0.  0.
    9900012    2    3    3    0    0  0.15385525629E+02 -0.97581523926E+01 -0.31997557133E+02  0.54367087471E+02  0.40000007507E+02 0.  0.
         12    1    3    3    0    0 -0.15385525629E+02  0.97581523926E+01  0.31997557133E+02  0.36820912529E+02  0.00000000000E+00 0. -1.
         11    1    4    4    0    0  0.38224524044E+01  0.50691438400E+01  0.40058224350E+01  0.75069284861E+01  0.51100000000E-03 0. -1.
        -11    1    4    4    0    0  0.13338727956E+02 -0.74819754020E+01 -0.68760036555E+01  0.16768453892E+02  0.51100000000E-03 0.  1.
        -12    1    4    4    0    0 -0.17756547314E+01 -0.73453208306E+01 -0.29127375913E+02  0.30091705093E+02  0.00000000000E+00 0.  1.
</event>
<event>
 8    1  0.2493819E-006  0.9118800E+02  0.7816164E-02  0.1184000E+00
        -11   -1    0    0    0    0  0.00000000000E+00  0.00000000000E+00  0.45593999997E+02  0.45594000000E+02  0.51100000000E-03 0.  1.
         11   -1    0    0    0    0 -0.00000000000E+00 -0.00000000000E+00 -0.45593999997E+02  0.45594000000E+02  0.51100000000E-03 0. -1.
         23    2    1    2    0    0 -0.35527136788E-14  0.00000000000E+00  0.88817841970E-15  0.91188000000E+02  0.91188000000E+02 0.  0.
    9900012    2    3    3    0    0 -0.16031711542E+02 -0.32421867418E+02 -0.68980928215E+01  0.54367123497E+02  0.40000089636E+02 0.  0.
        -12    1    3    3    0    0  0.16031711542E+02  0.32421867418E+02  0.68980928215E+01  0.36820876503E+02  0.00000000000E+00 0.  1.
         11    1    4    4    0    0 -0.45767477643E+01  0.72436027529E+00 -0.18175633056E+01  0.49774345337E+01  0.51100000000E-03 0. -1.
        -11    1    4    4    0    0 -0.81500309437E+01 -0.48496255833E+01  0.12667777035E+02  0.15824488868E+02  0.51100000000E-03 0.  1.
         12    1    4    4    0    0 -0.33049328345E+01 -0.28296602110E+02 -0.17748306550E+02  0.33565200095E+02  0.00000000000E+00 0. -1.
</event>
<event>
 8    1  0.2493819E-006  0.9118800E+02  0.7816164E-02  0.1184000E+00
        -11   -1    0    0    0    0  0.00000000000E+00  0.00000000000E+00  0.45593999997E+02  0.45594000000E+02  0.51100000000E-03 0.  1.
         11   -1    0    0    0    0 -0.00000000000E+00 -0.00000000000E+00 -0.45593999997E+02  0.45594000000E+02  0.51100000000E-03 0. -1.
         23    2    1    2    0    0  0.00000000000E+00  0.17763568394E-14 -0.24502969098E-14  0.91188000000E+02  0.91188000000E+02 0.  0.
    9900012    2    3    3    0    0 -0.33706098467E+02 -0.14821576155E+02 -0.65710290747E-02  0.54367078817E+02  0.39999987779E+02 0.  0.
         12    1    3    3    0    0  0.33706098467E+02  0.14821576155E+02  0.65710290747E-02  0.36820921183E+02  0.00000000000E+00 0. -1.
         11    1    4    4    0    0 -0.42588490010E+01  0.48604563187E+01  0.24842348654E+01  0.69233845456E+01  0.51100000000E-03 0. -1.
        -11    1    4    4    0    0 -0.10226239781E+02 -0.10982807883E+01 -0.14789966772E+02  0.18014586260E+02  0.51100000000E-03 0.  1.
        -12    1    4    4    0    0 -0.19221009686E+02 -0.18583751686E+02  0.12299160877E+02  0.29429108011E+02  0.00000000000E+00 0.  1.
</event>
<event>
 8    1  0.2493819E-006  0.9118800E+02  0.7816164E-02  0.1184000E+00
        -11   -1    0    0    0    0  0.00000000000E+00  0.00000000000E+00  0.45593999997E+02  0.45594000000E+02  0.51100000000E-03 0. -1.
         11   -1    0    0    0    0 -0.00000000000E+00 -0.00000000000E+00 -0.45593999997E+02  0.45594000000E+02  0.51100000000E-03 0.  1.
         23    2    1    2    0    0  0.00000000000E+00  0.00000000000E+00  0.35527136788E-14  0.91188000000E+02  0.91188000000E+02 0.  0.
    9900012    2    3    3    0    0  0.16417629053E+02 -0.25364130278E+02  0.21045234071E+02  0.54367088474E+02  0.40000009795E+02 0.  0.
        -12    1    3    3    0    0 -0.16417629053E+02  0.25364130278E+02 -0.21045234071E+02  0.36820911526E+02  0.00000000000E+00 0.  1.
         11    1    4    4    0    0  0.60930590134E+01  0.28598228902E+01  0.64714795456E+00  0.67618603831E+01  0.51100000000E-03 0. -1.
        -11    1    4    4    0    0  0.18181002424E+02 -0.19698336558E+02  0.23451174009E+02  0.35616441077E+02  0.51100000000E-03 0.  1.
        -12    1    4    4    0    0 -0.78564323846E+01 -0.85256166105E+01 -0.30530878930E+01  0.11988787015E+02  0.00000000000E+00 0.  1.
</event>
<event>
 8    1  0.2493819E-006  0.9118800E+02  0.7816164E-02  0.1184000E+00
        -11   -1    0    0    0    0  0.00000000000E+00  0.00000000000E+00  0.45593999997E+02  0.45594000000E+02  0.51100000000E-03 0.  1.
         11   -1    0    0    0    0 -0.00000000000E+00 -0.00000000000E+00 -0.45593999997E+02  0.45594000000E+02  0.51100000000E-03 0. -1.
         23    2    1    2    0    0 -0.17763568394E-14  0.00000000000E+00  0.00000000000E+00  0.91188000000E+02  0.91188000000E+02 0.  0.
    9900012    2    3    3    0    0 -0.13771152205E+02  0.17064070059E+02 -0.29579620533E+02  0.54367067490E+02  0.39999961958E+02 0.  0.
        -12    1    3    3    0    0  0.13771152205E+02 -0.17064070059E+02  0.29579620533E+02  0.36820932510E+02  0.00000000000E+00 0.  1.
         11    1    4    4    0    0  0.26558087681E+01  0.61095722630E+01 -0.20650314365E+02  0.21698287423E+02  0.51100000000E-03 0. -1.
        -11    1    4    4    0    0  0.16548750028E+01  0.12502111671E+02 -0.40274354484E+00  0.12617591297E+02  0.51100000000E-03 0.  1.
        -12    1    4    4    0    0 -0.18081835976E+02 -0.15476138750E+01 -0.85265626229E+01  0.20051188771E+02  0.00000000000E+00 0.  1.
</event>
<event>
 8    1  0.2493819E-006  0.9118800E+02  0.7816164E-02  0.1184000E+00
        -11   -1    0    0    0    0  0.00000000000E+00  0.00000000000E+00  0.45593999997E+02  0.45594000000E+02  0.51100000000E-03 0.  1.
         11   -1    0    0    0    0 -0.00000000000E+00 -0.00000000000E+00 -0.45593999997E+02  0.45594000000E+02  0.51100000000E-03 0. -1.
         23    2    1    2    0    0  0.00000000000E+00  0.35527136788E-14  0.00000000000E+00  0.91188000000E+02  0.91188000000E+02 0.  0.
    9900012    2    3    3    0    0 -0.22365225648E+02 -0.26824308278E+02  0.11663311065E+02  0.54367086678E+02  0.40000005700E+02 0.  0.
         12    1    3    3    0    0  0.22365225648E+02  0.26824308278E+02 -0.11663311065E+02  0.36820913322E+02  0.00000000000E+00 0. -1.
         11    1    4    4    0    0  0.14376082343E+01 -0.16279360317E+02 -0.60520103299E+00  0.16353915687E+02  0.51100000000E-03 0. -1.
        -11    1    4    4    0    0 -0.10522996558E+02  0.18357252969E+01 -0.60045549322E+01  0.12253898324E+02  0.51100000000E-03 0.  1.
        -12    1    4    4    0    0 -0.13279837324E+02 -0.12380673258E+02  0.18273067030E+02  0.25759272667E+02  0.00000000000E+00 0.  1.
</event>
<event>
 8    1  0.2493819E-006  0.9118800E+02  0.7816164E-02  0.1184000E+00
        -11   -1    0    0    0    0  0.00000000000E+00  0.00000000000E+00  0.45593999997E+02  0.45594000000E+02  0.51100000000E-03 0.  1.
         11   -1    0    0    0    0 -0.00000000000E+00 -0.00000000000E+00 -0.45593999997E+02  0.45594000000E+02  0.51100000000E-03 0. -1.
         23    2    1    2    0    0 -0.17763568394E-14  0.00000000000E+00  0.17763568394E-14  0.91188000000E+02  0.91188000000E+02 0.  0.
    9900012    2    3    3    0    0  0.15565246908E+02  0.30271136361E+02 -0.14041439900E+02  0.54367073309E+02  0.39999975223E+02 0.  0.
        -12    1    3    3    0    0 -0.15565246908E+02 -0.30271136361E+02  0.14041439900E+02  0.36820926691E+02  0.00000000000E+00 0.  1.
         11    1    4    4    0    0  0.30337694141E+01  0.23061472168E+02 -0.10707257954E+02  0.25606261511E+02  0.51100000000E-03 0. -1.
        -11    1    4    4    0    0  0.62766063203E+01 -0.87653019611E+01  0.16249269482E+01  0.10902600296E+02  0.51100000000E-03 0.  1.
        -12    1    4    4    0    0  0.62548711735E+01  0.15974966154E+02 -0.49591088945E+01  0.17858211502E+02  0.00000000000E+00 0.  1.
</event>
<event>
 8    1  0.2493819E-006  0.9118800E+02  0.7816164E-02  0.1184000E+00
        -11   -1    0    0    0    0  0.00000000000E+00  0.00000000000E+00  0.45593999997E+02  0.45594000000E+02  0.51100000000E-03 0.  1.
         11   -1    0    0    0    0 -0.00000000000E+00 -0.00000000000E+00 -0.45593999997E+02  0.45594000000E+02  0.51100000000E-03 0. -1.
         23    2    1    2    0    0  0.00000000000E+00  0.00000000000E+00  0.35527136788E-14  0.91188000000E+02  0.91188000000E+02 0.  0.
    9900012    2    3    3    0    0  0.12440310355E+02  0.29242959684E+02  0.18597531992E+02  0.54367079194E+02  0.39999988640E+02 0.  0.
         12    1    3    3    0    0 -0.12440310355E+02 -0.29242959684E+02 -0.18597531992E+02  0.36820920806E+02  0.00000000000E+00 0. -1.
         11    1    4    4    0    0  0.27538822486E+01 -0.51043715784E+01  0.10922639947E+02  0.12366993989E+02  0.51100000000E-03 0. -1.
        -11    1    4    4    0    0  0.11255222018E+02  0.81421208644E+01 -0.19736582347E+01  0.14031018564E+02  0.51100000000E-03 0.  1.
        -12    1    4    4    0    0 -0.15687939116E+01  0.26205210398E+02  0.96485502793E+01  0.27969066642E+02  0.00000000000E+00 0.  1.
</event>
<event>
 8    1  0.2493819E-006  0.9118800E+02  0.7816164E-02  0.1184000E+00
        -11   -1    0    0    0    0  0.00000000000E+00  0.00000000000E+00  0.45593999997E+02  0.45594000000E+02  0.51100000000E-03 0. -1.
         11   -1    0    0    0    0 -0.00000000000E+00 -0.00000000000E+00 -0.45593999997E+02  0.45594000000E+02  0.51100000000E-03 0.  1.
         23    2    1    2    0    0 -0.22204460493E-15  0.00000000000E+00 -0.17763568394E-14  0.91188000000E+02  0.91188000000E+02 0.  0.
    9900012    2    3    3    0    0  0.19311066789E+01  0.35631938073E+02  0.90783221470E+01  0.54367080445E+02  0.39999991491E+02 0.  0.
        -12    1    3    3    0    0 -0.19311066789E+01 -0.35631938073E+02 -0.90783221470E+01  0.36820919555E+02  0.00000000000E+00 0.  1.
         11    1    4    4    0    0  0.28134599528E+01  0.19023501501E+01  0.92329050543E+01  0.98377349528E+01  0.51100000000E-03 0. -1.
        -11    1    4    4    0    0  0.90183195230E+00  0.44526530358E+01 -0.12049841722E+02  0.12877814478E+02  0.51100000000E-03 0.  1.
        -12    1    4    4    0    0 -0.17841852262E+01  0.29276934887E+02  0.11895258815E+02  0.31651531015E+02  0.00000000000E+00 0.  1.
</event>
<event>
 8    1  0.2493819E-006  0.9118800E+02  0.7816164E-02  0.1184000E+00
        -11   -1    0    0    0    0  0.00000000000E+00  0.00000000000E+00  0.45593999997E+02  0.45594000000E+02  0.51100000000E-03 0.  1.
         11   -1    0    0    0    0 -0.00000000000E+00 -0.00000000000E+00 -0.45593999997E+02  0.45594000000E+02  0.51100000000E-03 0. -1.
         23    2    1    2    0    0  0.35527136788E-14  0.35527136788E-14 -0.71054273576E-14  0.91188000000E+02  0.91188000000E+02 0.  0.
    9900012    2    3    3    0    0  0.18721914632E+02  0.21763504955E+02 -0.23056878312E+02  0.54367083758E+02  0.39999999043E+02 0.  0.
        -12    1    3    3    0    0 -0.18721914632E+02 -0.21763504955E+02  0.23056878312E+02  0.36820916242E+02  0.00000000000E+00 0.  1.
         11    1    4    4    0    0 -0.34020054338E+01  0.71581368351E+00 -0.55156396797E+01  0.65198398399E+01  0.51100000000E-03 0. -1.
        -11    1    4    4    0    0  0.14963793257E+02  0.29420791723E+02 -0.99737470388E+01  0.34481498293E+02  0.51100000000E-03 0.  1.
         12    1    4    4    0    0  0.71601268093E+01 -0.83731004518E+01 -0.75674915932E+01  0.13365745625E+02  0.00000000000E+00 0. -1.
</event>
<event>
 8    1  0.2493819E-006  0.9118800E+02  0.7816164E-02  0.1184000E+00
        -11   -1    0    0    0    0  0.00000000000E+00  0.00000000000E+00  0.45593999997E+02  0.45594000000E+02  0.51100000000E-03 0.  1.
         11   -1    0    0    0    0 -0.00000000000E+00 -0.00000000000E+00 -0.45593999997E+02  0.45594000000E+02  0.51100000000E-03 0. -1.
         23    2    1    2    0    0  0.00000000000E+00  0.00000000000E+00  0.00000000000E+00  0.91188000000E+02  0.91188000000E+02 0.  0.
    9900012    2    3    3    0    0  0.11936401793E+02  0.34190815134E+02 -0.66551051216E+01  0.54367082691E+02  0.39999996612E+02 0.  0.
        -12    1    3    3    0    0 -0.11936401793E+02 -0.34190815134E+02  0.66551051216E+01  0.36820917309E+02  0.00000000000E+00 0.  1.
         11    1    4    4    0    0  0.10567769884E+02  0.16439165681E+02 -0.67730811566E+01  0.20683291740E+02  0.51100000000E-03 0. -1.
        -11    1    4    4    0    0  0.41674944339E+01  0.25108864605E+02 -0.20041248382E+01  0.25531149763E+02  0.51100000000E-03 0.  1.
         12    1    4    4    0    0 -0.27988625246E+01 -0.73572151521E+01  0.21221008732E+01  0.81526411881E+01  0.00000000000E+00 0. -1.
</event>
<event>
 8    1  0.2493819E-006  0.9118800E+02  0.7816164E-02  0.1184000E+00
        -11   -1    0    0    0    0  0.00000000000E+00  0.00000000000E+00  0.45593999997E+02  0.45594000000E+02  0.51100000000E-03 0.  1.
         11   -1    0    0    0    0 -0.00000000000E+00 -0.00000000000E+00 -0.45593999997E+02  0.45594000000E+02  0.51100000000E-03 0. -1.
         23    2    1    2    0    0  0.35527136788E-14  0.35527136788E-14  0.00000000000E+00  0.91188000000E+02  0.91188000000E+02 0.  0.
    9900012    2    3    3    0    0  0.17626078867E+02 -0.29424748012E+02 -0.13389749369E+02  0.54367084205E+02  0.40000000063E+02 0.  0.
         12    1    3    3    0    0 -0.17626078867E+02  0.29424748012E+02  0.13389749369E+02  0.36820915795E+02  0.00000000000E+00 0. -1.
         11    1    4    4    0    0  0.26582295060E+01  0.46474997616E+00 -0.82719077087E+01  0.87009559273E+01  0.51100000000E-03 0. -1.
        -11    1    4    4    0    0  0.22844793298E+02 -0.19778254767E+02  0.32007497390E+01  0.30385995814E+02  0.51100000000E-03 0.  1.
        -12    1    4    4    0    0 -0.78769439368E+01 -0.10111243221E+02 -0.83185913996E+01  0.15280132464E+02  0.00000000000E+00 0.  1.
</event>
<event>
 8    1  0.2493819E-006  0.9118800E+02  0.7816164E-02  0.1184000E+00
        -11   -1    0    0    0    0  0.00000000000E+00  0.00000000000E+00  0.45593999997E+02  0.45594000000E+02  0.51100000000E-03 0. -1.
         11   -1    0    0    0    0 -0.00000000000E+00 -0.00000000000E+00 -0.45593999997E+02  0.45594000000E+02  0.51100000000E-03 0.  1.
         23    2    1    2    0    0  0.35527136788E-14 -0.88817841970E-15  0.00000000000E+00  0.91188000000E+02  0.91188000000E+02 0.  0.
    9900012    2    3    3    0    0 -0.16581123201E+02  0.71732417255E+01 -0.32084044752E+02  0.54367150321E+02  0.40000150786E+02 0.  0.
        -12    1    3    3    0    0  0.16581123201E+02 -0.71732417255E+01  0.32084044752E+02  0.36820849679E+02  0.00000000000E+00 0.  1.
         11    1    4    4    0    0  0.79642327332E+01 -0.69107819278E+01 -0.29533017659E+01  0.10950337961E+02  0.51100000000E-03 0. -1.
        -11    1    4    4    0    0 -0.13121295652E+01  0.67669054764E+00 -0.10863324395E+02  0.10963184358E+02  0.51100000000E-03 0.  1.
         12    1    4    4    0    0 -0.23233226369E+02  0.13407333106E+02 -0.18267418591E+02  0.32453628002E+02  0.00000000000E+00 0. -1.
</event>
<event>
 8    1  0.2493819E-006  0.9118800E+02  0.7816164E-02  0.1184000E+00
        -11   -1    0    0    0    0  0.00000000000E+00  0.00000000000E+00  0.45593999997E+02  0.45594000000E+02  0.51100000000E-03 0. -1.
         11   -1    0    0    0    0 -0.00000000000E+00 -0.00000000000E+00 -0.45593999997E+02  0.45594000000E+02  0.51100000000E-03 0.  1.
         23    2    1    2    0    0 -0.35527136788E-14  0.17763568394E-14  0.00000000000E+00  0.91188000000E+02  0.91188000000E+02 0.  0.
    9900012    2    3    3    0    0  0.23984103133E+02  0.94025109814E+01 -0.26308302783E+02  0.54367201378E+02  0.40000267181E+02 0.  0.
         12    1    3    3    0    0 -0.23984103133E+02 -0.94025109814E+01  0.26308302783E+02  0.36820798622E+02  0.00000000000E+00 0. -1.
         11    1    4    4    0    0 -0.23542300879E+01 -0.47138437460E+01  0.43114261981E+01  0.68081655600E+01  0.51100000000E-03 0. -1.
        -11    1    4    4    0    0  0.87366946589E+01 -0.30111442106E+01 -0.17316434446E+02  0.19627932271E+02  0.51100000000E-03 0.  1.
        -12    1    4    4    0    0  0.17601638562E+02  0.17127498938E+02 -0.13303294534E+02  0.27931103548E+02  0.00000000000E+00 0.  1.
</event>
<event>
 8    1  0.2493819E-006  0.9118800E+02  0.7816164E-02  0.1184000E+00
        -11   -1    0    0    0    0  0.00000000000E+00  0.00000000000E+00  0.45593999997E+02  0.45594000000E+02  0.51100000000E-03 0. -1.
         11   -1    0    0    0    0 -0.00000000000E+00 -0.00000000000E+00 -0.45593999997E+02  0.45594000000E+02  0.51100000000E-03 0.  1.
         23    2    1    2    0    0  0.13322676296E-14  0.00000000000E+00  0.00000000000E+00  0.91188000000E+02  0.91188000000E+02 0.  0.
    9900012    2    3    3    0    0 -0.10287293606E+01  0.28634995597E+02 -0.23124897803E+02  0.54367052764E+02  0.39999928386E+02 0.  0.
         12    1    3    3    0    0  0.10287293606E+01 -0.28634995597E+02  0.23124897803E+02  0.36820947236E+02  0.00000000000E+00 0. -1.
         11    1    4    4    0    0 -0.89022475819E+01  0.14321701541E+02 -0.13351929371E+02  0.21508955466E+02  0.51100000000E-03 0. -1.
        -11    1    4    4    0    0  0.47621423293E+00  0.42312617603E+01 -0.17598715184E+02  0.18106494207E+02  0.51100000000E-03 0.  1.
         12    1    4    4    0    0  0.73973039884E+01  0.10082032296E+02  0.78257467528E+01  0.14751603091E+02  0.00000000000E+00 0. -1.
</event>
<event>
 8    1  0.2493819E-006  0.9118800E+02  0.7816164E-02  0.1184000E+00
        -11   -1    0    0    0    0  0.00000000000E+00  0.00000000000E+00  0.45593999997E+02  0.45594000000E+02  0.51100000000E-03 0.  1.
         11   -1    0    0    0    0 -0.00000000000E+00 -0.00000000000E+00 -0.45593999997E+02  0.45594000000E+02  0.51100000000E-03 0. -1.
         23    2    1    2    0    0  0.88817841970E-15  0.00000000000E+00  0.00000000000E+00  0.91188000000E+02  0.91188000000E+02 0.  0.
    9900012    2    3    3    0    0 -0.75547011742E+01 -0.30798636793E+02  0.18712286373E+02  0.54367092903E+02  0.40000019892E+02 0.  0.
         12    1    3    3    0    0  0.75547011742E+01  0.30798636793E+02 -0.18712286373E+02  0.36820907097E+02  0.00000000000E+00 0. -1.
         11    1    4    4    0    0 -0.14050418477E+01 -0.85018067307E+01 -0.79784933396E+01  0.11743560640E+02  0.51100000000E-03 0. -1.
        -11    1    4    4    0    0 -0.38618014013E+01 -0.25727362756E+02  0.14563775877E+02  0.29814665393E+02  0.51100000000E-03 0.  1.
         12    1    4    4    0    0 -0.22878579252E+01  0.34305326946E+01  0.12127003836E+02  0.12808866870E+02  0.00000000000E+00 0. -1.
</event>
<event>
 8    1  0.2493819E-006  0.9118800E+02  0.7816164E-02  0.1184000E+00
        -11   -1    0    0    0    0  0.00000000000E+00  0.00000000000E+00  0.45593999997E+02  0.45594000000E+02  0.51100000000E-03 0.  1.
         11   -1    0    0    0    0 -0.00000000000E+00 -0.00000000000E+00 -0.45593999997E+02  0.45594000000E+02  0.51100000000E-03 0. -1.
         23    2    1    2    0    0  0.00000000000E+00  0.00000000000E+00  0.17763568394E-14  0.91188000000E+02  0.91188000000E+02 0.  0.
    9900012    2    3    3    0    0 -0.12358245350E+02 -0.33050594205E+02  0.10521905499E+02  0.54367102391E+02  0.40000041520E+02 0.  0.
         12    1    3    3    0    0  0.12358245350E+02  0.33050594205E+02 -0.10521905499E+02  0.36820897609E+02  0.00000000000E+00 0. -1.
         11    1    4    4    0    0 -0.10543820949E+02 -0.10043487209E+01  0.61980642792E+01  0.12271791949E+02  0.51100000000E-03 0. -1.
        -11    1    4    4    0    0 -0.86333166993E+01 -0.14392593261E+02 -0.89105448003E+01  0.19002071122E+02  0.51100000000E-03 0.  1.
        -12    1    4    4    0    0  0.68188922990E+01 -0.17653652223E+02  0.13234386020E+02  0.23093239321E+02  0.00000000000E+00 0.  1.
</event>
<event>
 8    1  0.2493819E-006  0.9118800E+02  0.7816164E-02  0.1184000E+00
        -11   -1    0    0    0    0  0.00000000000E+00  0.00000000000E+00  0.45593999997E+02  0.45594000000E+02  0.51100000000E-03 0. -1.
         11   -1    0    0    0    0 -0.00000000000E+00 -0.00000000000E+00 -0.45593999997E+02  0.45594000000E+02  0.51100000000E-03 0.  1.
         23    2    1    2    0    0  0.00000000000E+00  0.00000000000E+00  0.00000000000E+00  0.91188000000E+02  0.91188000000E+02 0.  0.
    9900012    2    3    3    0    0 -0.25473597016E+02  0.22877209194E+02 -0.13546413977E+02  0.54367133945E+02  0.40000113454E+02 0.  0.
        -12    1    3    3    0    0  0.25473597016E+02 -0.22877209194E+02  0.13546413977E+02  0.36820866055E+02  0.00000000000E+00 0.  1.
         11    1    4    4    0    0 -0.24083036830E+02  0.12126537288E+01 -0.15481147293E+02  0.28655350526E+02  0.51100000000E-03 0. -1.
        -11    1    4    4    0    0  0.32616504175E+00  0.52790300027E+01 -0.55054936793E+01  0.76344614950E+01  0.51100000000E-03 0.  1.
         12    1    4    4    0    0 -0.17167252279E+01  0.16385525462E+02  0.74402269960E+01  0.18077321924E+02  0.00000000000E+00 0. -1.
</event>
<event>
 8    1  0.2493819E-006  0.9118800E+02  0.7816164E-02  0.1184000E+00
        -11   -1    0    0    0    0  0.00000000000E+00  0.00000000000E+00  0.45593999997E+02  0.45594000000E+02  0.51100000000E-03 0. -1.
         11   -1    0    0    0    0 -0.00000000000E+00 -0.00000000000E+00 -0.45593999997E+02  0.45594000000E+02  0.51100000000E-03 0.  1.
         23    2    1    2    0    0 -0.71054273576E-14  0.00000000000E+00  0.00000000000E+00  0.91188000000E+02  0.91188000000E+02 0.  0.
    9900012    2    3    3    0    0 -0.32422693654E+02 -0.84014177405E+01 -0.15295594252E+02  0.54367216638E+02  0.40000301968E+02 0.  0.
         12    1    3    3    0    0  0.32422693654E+02  0.84014177405E+01  0.15295594252E+02  0.36820783362E+02  0.00000000000E+00 0. -1.
         11    1    4    4    0    0 -0.19917141557E+02  0.69269123633E+01 -0.17673079747E+02  0.27513858157E+02  0.51100000000E-03 0. -1.
        -11    1    4    4    0    0 -0.73797297112E+01 -0.17229527983E+02 -0.32323999552E+01  0.19020132882E+02  0.51100000000E-03 0.  1.
         12    1    4    4    0    0 -0.51258223867E+01  0.19011978794E+01  0.56098854499E+01  0.78332255986E+01  0.00000000000E+00 0. -1.
</event>
<event>
 8    1  0.2493819E-006  0.9118800E+02  0.7816164E-02  0.1184000E+00
        -11   -1    0    0    0    0  0.00000000000E+00  0.00000000000E+00  0.45593999997E+02  0.45594000000E+02  0.51100000000E-03 0.  1.
         11   -1    0    0    0    0 -0.00000000000E+00 -0.00000000000E+00 -0.45593999997E+02  0.45594000000E+02  0.51100000000E-03 0. -1.
         23    2    1    2    0    0  0.00000000000E+00 -0.53290705182E-14 -0.35527136788E-14  0.91188000000E+02  0.91188000000E+02 0.  0.
    9900012    2    3    3    0    0 -0.18689514808E+02  0.10080361867E+02 -0.30081022599E+02  0.54367087739E+02  0.40000008118E+02 0.  0.
        -12    1    3    3    0    0  0.18689514808E+02 -0.10080361867E+02  0.30081022599E+02  0.36820912261E+02  0.00000000000E+00 0.  1.
         11    1    4    4    0    0 -0.75106071871E+01 -0.38843440973E+01 -0.58718108534E+01  0.10294440847E+02  0.51100000000E-03 0. -1.
        -11    1    4    4    0    0  0.71204919098E+01 -0.57536040419E+01 -0.10327604614E+02  0.13800897863E+02  0.51100000000E-03 0.  1.
        -12    1    4    4    0    0 -0.18299399531E+02  0.19718310007E+02 -0.13881607132E+02  0.30271749029E+02  0.00000000000E+00 0.  1.
</event>
<event>
 8    1  0.2493819E-006  0.9118800E+02  0.7816164E-02  0.1184000E+00
        -11   -1    0    0    0    0  0.00000000000E+00  0.00000000000E+00  0.45593999997E+02  0.45594000000E+02  0.51100000000E-03 0.  1.
         11   -1    0    0    0    0 -0.00000000000E+00 -0.00000000000E+00 -0.45593999997E+02  0.45594000000E+02  0.51100000000E-03 0. -1.
         23    2    1    2    0    0 -0.17763568394E-14  0.71054273576E-14 -0.88817841970E-15  0.91188000000E+02  0.91188000000E+02 0.  0.
    9900012    2    3    3    0    0 -0.71291395380E+01  0.35802470788E+02  0.48102410334E+01  0.54367082523E+02  0.39999996227E+02 0.  0.
        -12    1    3    3    0    0  0.71291395380E+01 -0.35802470788E+02 -0.48102410334E+01  0.36820917477E+02  0.00000000000E+00 0.  1.
         11    1    4    4    0    0 -0.16143261571E+02  0.11643922656E+02 -0.88269072120E+01  0.21773840271E+02  0.51100000000E-03 0. -1.
        -11    1    4    4    0    0  0.54068741893E+01  0.25067969353E+02  0.13215276404E+02  0.28849279136E+02  0.51100000000E-03 0.  1.
        -12    1    4    4    0    0  0.36072478434E+01 -0.90942122084E+00  0.42187184106E+00  0.37439631156E+01  0.00000000000E+00 0.  1.
</event>
<event>
 8    1  0.2493819E-006  0.9118800E+02  0.7816164E-02  0.1184000E+00
        -11   -1    0    0    0    0  0.00000000000E+00  0.00000000000E+00  0.45593999997E+02  0.45594000000E+02  0.51100000000E-03 0. -1.
         11   -1    0    0    0    0 -0.00000000000E+00 -0.00000000000E+00 -0.45593999997E+02  0.45594000000E+02  0.51100000000E-03 0.  1.
         23    2    1    2    0    0 -0.35527136788E-14  0.35527136788E-14 -0.17763568394E-14  0.91188000000E+02  0.91188000000E+02 0.  0.
    9900012    2    3    3    0    0  0.27730035030E+02  0.23293719767E+02 -0.66500676468E+01  0.54367141467E+02  0.40000130603E+02 0.  0.
         12    1    3    3    0    0 -0.27730035030E+02 -0.23293719767E+02  0.66500676468E+01  0.36820858533E+02  0.00000000000E+00 0. -1.
         11    1    4    4    0    0  0.96528668703E+01  0.17418802568E+02  0.64692597132E+01  0.20939050676E+02  0.51100000000E-03 0. -1.
        -11    1    4    4    0    0  0.16688808462E+01  0.12803640107E+02 -0.48783015016E+01  0.13802760198E+02  0.51100000000E-03 0.  1.
        -12    1    4    4    0    0  0.16408287314E+02 -0.69287229080E+01 -0.82410258583E+01  0.19625330593E+02  0.00000000000E+00 0.  1.
</event>
<event>
 8    1  0.2493819E-006  0.9118800E+02  0.7816164E-02  0.1184000E+00
        -11   -1    0    0    0    0  0.00000000000E+00  0.00000000000E+00  0.45593999997E+02  0.45594000000E+02  0.51100000000E-03 0. -1.
         11   -1    0    0    0    0 -0.00000000000E+00 -0.00000000000E+00 -0.45593999997E+02  0.45594000000E+02  0.51100000000E-03 0.  1.
         23    2    1    2    0    0  0.00000000000E+00 -0.35527136788E-14  0.35527136788E-14  0.91188000000E+02  0.91188000000E+02 0.  0.
    9900012    2    3    3    0    0 -0.15060413883E+02  0.28445695252E+02 -0.17883171499E+02  0.54367062104E+02  0.39999949678E+02 0.  0.
        -12    1    3    3    0    0  0.15060413883E+02 -0.28445695252E+02  0.17883171499E+02  0.36820937896E+02  0.00000000000E+00 0.  1.
         11    1    4    4    0    0 -0.23572177442E+02  0.27123525074E+02 -0.93811078293E+01  0.37139444613E+02  0.51100000000E-03 0. -1.
        -11    1    4    4    0    0  0.38941872028E+01 -0.41249504878E+01 -0.83380456179E+01  0.10084786338E+02  0.51100000000E-03 0.  1.
         12    1    4    4    0    0  0.46175763566E+01  0.54471206661E+01 -0.16401805192E+00  0.71428311530E+01  0.00000000000E+00 0. -1.
</event>
<event>
 8    1  0.2493819E-006  0.9118800E+02  0.7816164E-02  0.1184000E+00
        -11   -1    0    0    0    0  0.00000000000E+00  0.00000000000E+00  0.45593999997E+02  0.45594000000E+02  0.51100000000E-03 0.  1.
         11   -1    0    0    0    0 -0.00000000000E+00 -0.00000000000E+00 -0.45593999997E+02  0.45594000000E+02  0.51100000000E-03 0. -1.
         23    2    1    2    0    0  0.17763568394E-14  0.00000000000E+00  0.00000000000E+00  0.91188000000E+02  0.91188000000E+02 0.  0.
    9900012    2    3    3    0    0  0.15282723895E+02  0.68574574172E+01 -0.32790162831E+02  0.54367066411E+02  0.39999959498E+02 0.  0.
        -12    1    3    3    0    0 -0.15282723895E+02 -0.68574574172E+01  0.32790162831E+02  0.36820933589E+02  0.00000000000E+00 0.  1.
         11    1    4    4    0    0  0.69500052318E+00  0.14502177331E+02 -0.24194508894E+02  0.28216492234E+02  0.51100000000E-03 0. -1.
        -11    1    4    4    0    0  0.18022533398E+02 -0.92695784957E+01 -0.92790607815E+01  0.22289857891E+02  0.51100000000E-03 0.  1.
         12    1    4    4    0    0 -0.34348100264E+01  0.16248585820E+01  0.68340684506E+00  0.38607162865E+01  0.00000000000E+00 0. -1.
</event>
<event>
 8    1  0.2493819E-006  0.9118800E+02  0.7816164E-02  0.1184000E+00
        -11   -1    0    0    0    0  0.00000000000E+00  0.00000000000E+00  0.45593999997E+02  0.45594000000E+02  0.51100000000E-03 0. -1.
         11   -1    0    0    0    0 -0.00000000000E+00 -0.00000000000E+00 -0.45593999997E+02  0.45594000000E+02  0.51100000000E-03 0.  1.
         23    2    1    2    0    0  0.00000000000E+00 -0.35527136788E-14  0.00000000000E+00  0.91188000000E+02  0.91188000000E+02 0.  0.
    9900012    2    3    3    0    0  0.29812092783E+02 -0.16621386423E+02 -0.13811200901E+02  0.54367073436E+02  0.39999975511E+02 0.  0.
         12    1    3    3    0    0 -0.29812092783E+02  0.16621386423E+02  0.13811200901E+02  0.36820926564E+02  0.00000000000E+00 0. -1.
         11    1    4    4    0    0  0.30991212354E+00 -0.61415277047E+01 -0.80566621180E+01  0.10135295399E+02  0.51100000000E-03 0. -1.
        -11    1    4    4    0    0  0.32953823449E+02 -0.18285383590E+01 -0.92609340558E+01  0.34279190951E+02  0.51100000000E-03 0.  1.
         12    1    4    4    0    0 -0.34516427889E+01 -0.86513203590E+01  0.35063952730E+01  0.99525870861E+01  0.00000000000E+00 0. -1.
</event>
<event>
 8    1  0.2493819E-006  0.9118800E+02  0.7816164E-02  0.1184000E+00
        -11   -1    0    0    0    0  0.00000000000E+00  0.00000000000E+00  0.45593999997E+02  0.45594000000E+02  0.51100000000E-03 0.  1.
         11   -1    0    0    0    0 -0.00000000000E+00 -0.00000000000E+00 -0.45593999997E+02  0.45594000000E+02  0.51100000000E-03 0. -1.
         23    2    1    2    0    0  0.00000000000E+00  0.88817841970E-15  0.71054273576E-14  0.91188000000E+02  0.91188000000E+02 0.  0.
    9900012    2    3    3    0    0  0.65606859892E+01  0.53070898770E+01 -0.35840945718E+02  0.54367065824E+02  0.39999958159E+02 0.  0.
        -12    1    3    3    0    0 -0.65606859892E+01 -0.53070898770E+01  0.35840945718E+02  0.36820934176E+02  0.00000000000E+00 0.  1.
         11    1    4    4    0    0 -0.17442238311E+01 -0.83953352149E+00  0.16863409087E+01  0.25672707742E+01  0.51100000000E-03 0. -1.
        -11    1    4    4    0    0  0.64346463050E+01 -0.74593634059E+01  0.19142638580E+01  0.10035496095E+02  0.51100000000E-03 0.  1.
         12    1    4    4    0    0  0.18702635153E+01  0.13605986804E+02 -0.39441550485E+02  0.41764298955E+02  0.00000000000E+00 0. -1.
</event>
<event>
 8    1  0.2493819E-006  0.9118800E+02  0.7816164E-02  0.1184000E+00
        -11   -1    0    0    0    0  0.00000000000E+00  0.00000000000E+00  0.45593999997E+02  0.45594000000E+02  0.51100000000E-03 0.  1.
         11   -1    0    0    0    0 -0.00000000000E+00 -0.00000000000E+00 -0.45593999997E+02  0.45594000000E+02  0.51100000000E-03 0. -1.
         23    2    1    2    0    0  0.35527136788E-14  0.00000000000E+00  0.88817841970E-15  0.91188000000E+02  0.91188000000E+02 0.  0.
    9900012    2    3    3    0    0 -0.21912473602E+02  0.29557270428E+02 -0.14114559576E+01  0.54367069234E+02  0.39999965933E+02 0.  0.
        -12    1    3    3    0    0  0.21912473602E+02 -0.29557270428E+02  0.14114559576E+01  0.36820930766E+02  0.00000000000E+00 0.  1.
         11    1    4    4    0    0  0.40897359009E+01  0.15861437268E+02 -0.43980240046E+01  0.16960358114E+02  0.51100000000E-03 0. -1.
        -11    1    4    4    0    0 -0.90079770643E+01  0.57502213656E+01  0.12439505887E+02  0.16399695226E+02  0.51100000000E-03 0.  1.
         12    1    4    4    0    0 -0.16994232439E+02  0.79456117948E+01 -0.94529378397E+01  0.21007015894E+02  0.00000000000E+00 0. -1.
</event>
<event>
 8    1  0.2493819E-006  0.9118800E+02  0.7816164E-02  0.1184000E+00
        -11   -1    0    0    0    0  0.00000000000E+00  0.00000000000E+00  0.45593999997E+02  0.45594000000E+02  0.51100000000E-03 0. -1.
         11   -1    0    0    0    0 -0.00000000000E+00 -0.00000000000E+00 -0.45593999997E+02  0.45594000000E+02  0.51100000000E-03 0.  1.
         23    2    1    2    0    0  0.00000000000E+00  0.00000000000E+00  0.00000000000E+00  0.91188000000E+02  0.91188000000E+02 0.  0.
    9900012    2    3    3    0    0 -0.26669982376E+02 -0.25256988578E+02  0.25643248408E+01  0.54367092979E+02  0.40000020065E+02 0.  0.
        -12    1    3    3    0    0  0.26669982376E+02  0.25256988578E+02 -0.25643248408E+01  0.36820907021E+02  0.00000000000E+00 0.  1.
         11    1    4    4    0    0 -0.24671225447E+02 -0.44142735308E+01  0.19887946868E+01  0.25141807422E+02  0.51100000000E-03 0. -1.
        -11    1    4    4    0    0 -0.10694018974E+02 -0.13687306732E+02 -0.25082131064E+01  0.17549801726E+02  0.51100000000E-03 0.  1.
        -12    1    4    4    0    0  0.86952620453E+01 -0.71554083156E+01  0.30837432604E+01  0.11675483831E+02  0.00000000000E+00 0.  1.
</event>
<event>
 8    1  0.2493819E-006  0.9118800E+02  0.7816164E-02  0.1184000E+00
        -11   -1    0    0    0    0  0.00000000000E+00  0.00000000000E+00  0.45593999997E+02  0.45594000000E+02  0.51100000000E-03 0.  1.
         11   -1    0    0    0    0 -0.00000000000E+00 -0.00000000000E+00 -0.45593999997E+02  0.45594000000E+02  0.51100000000E-03 0. -1.
         23    2    1    2    0    0  0.00000000000E+00  0.26645352591E-14  0.13322676296E-14  0.91188000000E+02  0.91188000000E+02 0.  0.
    9900012    2    3    3    0    0 -0.36337719988E+02  0.56341468494E+01 -0.18992051628E+01  0.54367075448E+02  0.39999980098E+02 0.  0.
        -12    1    3    3    0    0  0.36337719988E+02 -0.56341468494E+01  0.18992051628E+01  0.36820924552E+02  0.00000000000E+00 0.  1.
         11    1    4    4    0    0 -0.25088699405E+02 -0.99073707600E+01  0.37674401344E+01  0.27235866769E+02  0.51100000000E-03 0. -1.
        -11    1    4    4    0    0 -0.86107876011E+01 -0.34312862985E+00 -0.68169755495E+01  0.10987927751E+02  0.51100000000E-03 0.  1.
        -12    1    4    4    0    0 -0.26382329813E+01  0.15884646239E+02  0.11503302524E+01  0.16143280927E+02  0.00000000000E+00 0.  1.
</event>
<event>
 8    1  0.2493819E-006  0.9118800E+02  0.7816164E-02  0.1184000E+00
        -11   -1    0    0    0    0  0.00000000000E+00  0.00000000000E+00  0.45593999997E+02  0.45594000000E+02  0.51100000000E-03 0.  1.
         11   -1    0    0    0    0 -0.00000000000E+00 -0.00000000000E+00 -0.45593999997E+02  0.45594000000E+02  0.51100000000E-03 0. -1.
         23    2    1    2    0    0  0.00000000000E+00  0.11102230246E-15  0.00000000000E+00  0.91188000000E+02  0.91188000000E+02 0.  0.
    9900012    2    3    3    0    0  0.14582001553E+02 -0.54160601891E+00  0.33805902959E+02  0.54367256102E+02  0.40000391933E+02 0.  0.
         12    1    3    3    0    0 -0.14582001553E+02  0.54160601891E+00 -0.33805902959E+02  0.36820743898E+02  0.00000000000E+00 0. -1.
         11    1    4    4    0    0  0.17287609583E+02  0.24727651284E+01  0.19861921604E+02  0.26447531880E+02  0.51100000000E-03 0. -1.
        -11    1    4    4    0    0  0.92517488389E+01 -0.46953468417E+01  0.11700988123E+02  0.15638230778E+02  0.51100000000E-03 0.  1.
         12    1    4    4    0    0 -0.11957356869E+02  0.16809756944E+01  0.22429932312E+01  0.12281493444E+02  0.00000000000E+00 0. -1.
</event>
<event>
 8    1  0.2493819E-006  0.9118800E+02  0.7816164E-02  0.1184000E+00
        -11   -1    0    0    0    0  0.00000000000E+00  0.00000000000E+00  0.45593999997E+02  0.45594000000E+02  0.51100000000E-03 0.  1.
         11   -1    0    0    0    0 -0.00000000000E+00 -0.00000000000E+00 -0.45593999997E+02  0.45594000000E+02  0.51100000000E-03 0. -1.
         23    2    1    2    0    0  0.17763568394E-14  0.00000000000E+00 -0.17763568394E-14  0.91188000000E+02  0.91188000000E+02 0.  0.
    9900012    2    3    3    0    0 -0.15782060000E+02  0.31046990813E+02  0.11949502741E+02  0.54367086484E+02  0.40000005257E+02 0.  0.
         12    1    3    3    0    0  0.15782060000E+02 -0.31046990813E+02 -0.11949502741E+02  0.36820913516E+02  0.00000000000E+00 0. -1.
         11    1    4    4    0    0 -0.92839804430E+01 -0.80658314210E+01 -0.53419525610E+00  0.12309967271E+02  0.51100000000E-03 0. -1.
        -11    1    4    4    0    0 -0.69717154433E+01  0.37110883523E+02  0.13001557410E+02  0.39935735719E+02  0.51100000000E-03 0.  1.
         12    1    4    4    0    0  0.47363588660E+00  0.20019387114E+01 -0.51785941236E+00  0.21213834939E+01  0.00000000000E+00 0. -1.
</event>
<event>
 8    1  0.2493819E-006  0.9118800E+02  0.7816164E-02  0.1184000E+00
        -11   -1    0    0    0    0  0.00000000000E+00  0.00000000000E+00  0.45593999997E+02  0.45594000000E+02  0.51100000000E-03 0.  1.
         11   -1    0    0    0    0 -0.00000000000E+00 -0.00000000000E+00 -0.45593999997E+02  0.45594000000E+02  0.51100000000E-03 0. -1.
         23    2    1    2    0    0 -0.35527136788E-14  0.35527136788E-14  0.00000000000E+00  0.91188000000E+02  0.91188000000E+02 0.  0.
    9900012    2    3    3    0    0 -0.30675633360E+02  0.16315494498E+02  0.12189738027E+02  0.54367088063E+02  0.40000008857E+02 0.  0.
         12    1    3    3    0    0  0.30675633360E+02 -0.16315494498E+02 -0.12189738027E+02  0.36820911937E+02  0.00000000000E+00 0. -1.
         11    1    4    4    0    0 -0.55214878518E+01  0.19552760735E+02  0.53436180314E+01  0.21008368199E+02  0.51100000000E-03 0. -1.
        -11    1    4    4    0    0 -0.19764157282E+02 -0.10060155490E+02  0.97021706743E+01  0.24206626316E+02  0.51100000000E-03 0.  1.
        -12    1    4    4    0    0 -0.53899882262E+01  0.68228892524E+01 -0.28560506790E+01  0.91520935479E+01  0.00000000000E+00 0.  1.
</event>
<event>
 8    1  0.2493819E-006  0.9118800E+02  0.7816164E-02  0.1184000E+00
        -11   -1    0    0    0    0  0.00000000000E+00  0.00000000000E+00  0.45593999997E+02  0.45594000000E+02  0.51100000000E-03 0. -1.
         11   -1    0    0    0    0 -0.00000000000E+00 -0.00000000000E+00 -0.45593999997E+02  0.45594000000E+02  0.51100000000E-03 0.  1.
         23    2    1    2    0    0 -0.88817841970E-15  0.00000000000E+00  0.00000000000E+00  0.91188000000E+02  0.91188000000E+02 0.  0.
    9900012    2    3    3    0    0 -0.57982659698E+01  0.24753237000E+02  0.26635270254E+02  0.54367078613E+02  0.39999987315E+02 0.  0.
        -12    1    3    3    0    0  0.57982659698E+01 -0.24753237000E+02 -0.26635270254E+02  0.36820921387E+02  0.00000000000E+00 0.  1.
         11    1    4    4    0    0 -0.15826398703E+02  0.72969185629E+01  0.19740363556E+01  0.17539006136E+02  0.51100000000E-03 0.  1.
        -11    1    4    4    0    0  0.38674515445E+01 -0.33794649790E+01  0.77390341607E+01  0.92881976182E+01  0.51100000000E-03 0. -1.
         12    1    4    4    0    0  0.61606811892E+01  0.20835783416E+02  0.16922199738E+02  0.27539874859E+02  0.00000000000E+00 0. -1.
</event>
